Generated by trjconv : CNT in water t= 104.00000
33518
    1C        C    1   2.845   2.775   4.749
    1C        C    2   2.899   2.724   4.869
    1C        C    3   2.838   2.769   4.986
    1C        C    4   2.846   2.771   4.262
    1C        C    5   2.899   2.726   4.384
    1C        C    6   2.845   2.772   4.506
    1C        C    7   3.014   2.644   4.626
    1C        C    8   2.896   2.723   4.628
    1C        C    9   3.076   2.607   4.747
    1C        C   10   3.012   2.638   4.868
    1C        C   11   3.183   2.495   4.975
    1C        C   12   3.063   2.568   4.978
    1C        C   13   2.847   2.772   3.774
    1C        C   14   2.899   2.722   3.895
    1C        C   15   2.843   2.768   4.016
    1C        C   16   3.016   2.647   4.140
    1C        C   17   2.899   2.727   4.138
    1C        C   18   3.077   2.609   4.262
    1C        C   19   3.014   2.643   4.384
    1C        C   20   3.208   2.556   4.507
    1C        C   21   3.076   2.605   4.505
    1C        C   22   3.280   2.537   4.627
    1C        C   23   3.208   2.552   4.747
    1C        C   24   3.415   2.485   4.868
    1C        C   25   3.274   2.510   4.866
    1C        C   26   3.492   2.476   4.985
    1C        C   27   2.845   2.763   3.284
    1C        C   28   2.903   2.723   3.406
    1C        C   29   2.852   2.771   3.529
    1C        C   30   3.017   2.642   3.654
    1C        C   31   2.904   2.727   3.653
    1C        C   32   3.080   2.607   3.775
    1C        C   33   3.017   2.644   3.896
    1C        C   34   3.208   2.555   4.022
    1C        C   35   3.080   2.613   4.019
    1C        C   36   3.276   2.531   4.143
    1C        C   37   3.209   2.560   4.264
    1C        C   38   3.417   2.516   4.382
    1C        C   39   3.277   2.536   4.386
    1C        C   40   3.488   2.507   4.504
    1C        C   41   3.418   2.507   4.627
    1C        C   42   3.632   2.487   4.746
    1C        C   43   3.489   2.488   4.747
    1C        C   44   3.707   2.487   4.865
    1C        C   45   3.631   2.475   4.983
    1C        C   46   2.835   2.750   2.798
    1C        C   47   2.891   2.705   2.920
    1C        C   48   2.841   2.760   3.040
    1C        C   49   3.017   2.640   3.162
    1C        C   50   2.900   2.719   3.161
    1C        C   51   3.077   2.604   3.285
    1C        C   52   3.020   2.643   3.408
    1C        C   53   3.207   2.550   3.531
    1C        C   54   3.077   2.605   3.531
    1C        C   55   3.276   2.531   3.653
    1C        C   56   3.210   2.553   3.776
    1C        C   57   3.416   2.516   3.897
    1C        C   58   3.277   2.535   3.899
    1C        C   59   3.489   2.515   4.018
    1C        C   60   3.416   2.512   4.139
    1C        C   61   3.630   2.503   4.263
    1C        C   62   3.488   2.506   4.261
    1C        C   63   3.704   2.512   4.382
    1C        C   64   3.630   2.511   4.503
    1C        C   65   3.837   2.546   4.623
    1C        C   66   3.700   2.512   4.625
    1C        C   67   3.905   2.566   4.745
    1C        C   68   3.840   2.534   4.866
    1C        C   69   4.057   2.589   4.979
    1C        C   70   3.927   2.536   4.975
    1C        C   71   2.823   2.733   2.311
    1C        C   72   2.883   2.691   2.432
    1C        C   73   2.835   2.747   2.552
    1C        C   74   3.006   2.626   2.673
    1C        C   75   2.887   2.703   2.675
    1C        C   76   3.071   2.596   2.795
    1C        C   77   3.011   2.630   2.918
    1C        C   78   3.209   2.554   3.040
    1C        C   79   3.079   2.607   3.040
    1C        C   80   3.276   2.535   3.163
    1C        C   81   3.209   2.553   3.286
    1C        C   82   3.416   2.509   3.405
    1C        C   83   3.277   2.533   3.409
    1C        C   84   3.486   2.505   3.528
    1C        C   85   3.416   2.514   3.650
    1C        C   86   3.626   2.509   3.771
    1C        C   87   3.485   2.508   3.774
    1C        C   88   3.699   2.523   3.892
    1C        C   89   3.630   2.518   4.015
    1C        C   90   3.835   2.548   4.137
    1C        C   91   3.698   2.516   4.139
    1C        C   92   3.903   2.573   4.258
    1C        C   93   3.841   2.548   4.382
    1C        C   94   4.032   2.639   4.501
    1C        C   95   3.910   2.569   4.504
    1C        C   96   4.093   2.673   4.623
    1C        C   97   4.033   2.629   4.743
    1C        C   98   4.197   2.766   4.863
    1C        C   99   4.105   2.656   4.863
    1C        C  100   4.219   2.840   4.980
    1C        C  101   2.825   2.729   2.072
    1C        C  102   2.991   2.591   2.193
    1C        C  103   2.879   2.681   2.191
    1C        C  104   3.067   2.576   2.312
    1C        C  105   3.004   2.617   2.431
    1C        C  106   3.199   2.533   2.553
    1C        C  107   3.068   2.586   2.553
    1C        C  108   3.270   2.519   2.674
    1C        C  109   3.203   2.545   2.795
    1C        C  110   3.412   2.507   2.917
    1C        C  111   3.273   2.527   2.917
    1C        C  112   3.484   2.503   3.039
    1C        C  113   3.415   2.509   3.162
    1C        C  114   3.628   2.502   3.282
    1C        C  115   3.486   2.498   3.283
    1C        C  116   3.696   2.507   3.406
    1C        C  117   3.627   2.501   3.529
    1C        C  118   3.834   2.551   3.647
    1C        C  119   3.699   2.509   3.650
    1C        C  120   3.900   2.576   3.769
    1C        C  121   3.837   2.554   3.893
    1C        C  122   4.029   2.637   4.016
    1C        C  123   3.905   2.569   4.016
    1C        C  124   4.090   2.676   4.137
    1C        C  125   4.031   2.634   4.258
    1C        C  126   4.200   2.768   4.377
    1C        C  127   4.088   2.682   4.378
    1C        C  128   4.248   2.820   4.499
    1C        C  129   4.199   2.767   4.621
    1C        C  130   4.327   2.939   4.741
    1C        C  131   4.247   2.821   4.742
    1C        C  132   4.361   3.004   4.862
    1C        C  133   4.297   2.955   4.977
    1C        C  134   3.174   2.466   2.083
    1C        C  135   3.039   2.501   2.092
    1C        C  136   3.262   2.482   2.191
    1C        C  137   3.198   2.519   2.311
    1C        C  138   3.408   2.485   2.431
    1C        C  139   3.269   2.509   2.432
    1C        C  140   3.481   2.485   2.552
    1C        C  141   3.410   2.497   2.674
    1C        C  142   3.623   2.499   2.794
    1C        C  143   3.482   2.496   2.795
    1C        C  144   3.697   2.510   2.914
    1C        C  145   3.625   2.506   3.036
    1C        C  146   3.834   2.538   3.158
    1C        C  147   3.696   2.509   3.159
    1C        C  148   3.901   2.561   3.280
    1C        C  149   3.834   2.540   3.403
    1C        C  150   4.028   2.631   3.524
    1C        C  151   3.901   2.569   3.524
    1C        C  152   4.087   2.671   3.646
    1C        C  153   4.027   2.639   3.769
    1C        C  154   4.196   2.765   3.889
    1C        C  155   4.084   2.679   3.892
    1C        C  156   4.249   2.813   4.011
    1C        C  157   4.203   2.761   4.134
    1C        C  158   4.340   2.926   4.255
    1C        C  159   4.256   2.811   4.255
    1C        C  160   4.378   2.988   4.376
    1C        C  161   4.333   2.933   4.498
    1C        C  162   4.442   3.117   4.617
    1C        C  163   4.371   2.995   4.619
    1C        C  164   4.472   3.185   4.737
    1C        C  165   4.430   3.126   4.858
    1C        C  166   4.512   3.325   4.973
    1C        C  167   4.480   3.190   4.973
    1C        C  168   3.476   2.438   2.074
    1C        C  169   3.402   2.461   2.191
    1C        C  170   3.620   2.462   2.309
    1C        C  171   3.478   2.469   2.309
    1C        C  172   3.694   2.486   2.426
    1C        C  173   3.622   2.492   2.547
    1C        C  174   3.827   2.541   2.667
    1C        C  175   3.690   2.507   2.670
    1C        C  176   3.901   2.555   2.787
    1C        C  177   3.835   2.537   2.911
    1C        C  178   4.027   2.618   3.034
    1C        C  179   3.900   2.558   3.035
    1C        C  180   4.090   2.657   3.155
    1C        C  181   4.028   2.622   3.278
    1C        C  182   4.198   2.751   3.400
    1C        C  183   4.086   2.665   3.399
    1C        C  184   4.250   2.803   3.520
    1C        C  185   4.196   2.761   3.644
    1C        C  186   4.341   2.916   3.765
    1C        C  187   4.248   2.809   3.766
    1C        C  188   4.383   2.975   3.885
    1C        C  189   4.339   2.922   4.009
    1C        C  190   4.448   3.104   4.130
    1C        C  191   4.380   2.980   4.131
    1C        C  192   4.472   3.175   4.250
    1C        C  193   4.440   3.115   4.374
    1C        C  194   4.504   3.319   4.493
    1C        C  195   4.468   3.183   4.495
    1C        C  196   4.522   3.391   4.613
    1C        C  197   4.514   3.321   4.736
    1C        C  198   4.558   3.538   4.851
    1C        C  199   4.535   3.396   4.855
    1C        C  200   4.584   3.621   4.965
    1C        C  201   3.616   2.423   2.073
    1C        C  202   3.827   2.512   2.184
    1C        C  203   3.694   2.458   2.188
    1C        C  204   3.901   2.540   2.302
    1C        C  205   3.831   2.520   2.424
    1C        C  206   4.021   2.618   2.544
    1C        C  207   3.897   2.551   2.545
    1C        C  208   4.085   2.653   2.665
    1C        C  209   4.027   2.619   2.789
    1C        C  210   4.195   2.748   2.908
    1C        C  211   4.084   2.660   2.912
    1C        C  212   4.246   2.797   3.030
    1C        C  213   4.198   2.747   3.152
    1C        C  214   4.336   2.906   3.273
    1C        C  215   4.246   2.798   3.276
    1C        C  216   4.371   2.971   3.394
    1C        C  217   4.339   2.913   3.519
    1C        C  218   4.435   3.102   3.641
    1C        C  219   4.379   2.972   3.641
    1C        C  220   4.464   3.167   3.762
    1C        C  221   4.447   3.101   3.886
    1C        C  222   4.502   3.308   4.005
    1C        C  223   4.471   3.170   4.008
    1C        C  224   4.516   3.380   4.125
    1C        C  225   4.511   3.311   4.248
    1C        C  226   4.521   3.526   4.366
    1C        C  227   4.520   3.385   4.368
    1C        C  228   4.512   3.600   4.486
    1C        C  229   4.525   3.532   4.609
    1C        C  230   4.500   3.744   4.728
    1C        C  231   4.533   3.606   4.729
    1C        C  232   4.501   3.821   4.847
    1C        C  233   4.553   3.757   4.960
    1C        C  234   4.019   2.605   2.067
    1C        C  235   3.893   2.548   2.066
    1C        C  236   4.089   2.645   2.182
    1C        C  237   4.028   2.604   2.303
    1C        C  238   4.203   2.731   2.423
    1C        C  239   4.085   2.652   2.423
    1C        C  240   4.257   2.781   2.544
    1C        C  241   4.199   2.736   2.665
    1C        C  242   4.338   2.901   2.786
    1C        C  243   4.249   2.791   2.785
    1C        C  244   4.383   2.959   2.907
    1C        C  245   4.334   2.908   3.030
    1C        C  246   4.436   3.094   3.149
    1C        C  247   4.377   2.965   3.151
    1C        C  248   4.456   3.162   3.271
    1C        C  249   4.426   3.101   3.395
    1C        C  250   4.497   3.302   3.514
    1C        C  251   4.454   3.168   3.517
    1C        C  252   4.513   3.372   3.636
    1C        C  253   4.499   3.304   3.759
    1C        C  254   4.524   3.515   3.879
    1C        C  255   4.516   3.374   3.881
    1C        C  256   4.514   3.589   3.999
    1C        C  257   4.517   3.521   4.123
    1C        C  258   4.493   3.735   4.241
    1C        C  259   4.515   3.596   4.243
    1C        C  260   4.474   3.808   4.360
    1C        C  261   4.492   3.740   4.482
    1C        C  262   4.419   3.938   4.605
    1C        C  263   4.476   3.809   4.605
    1C        C  264   4.398   4.010   4.725
    1C        C  265   4.436   3.947   4.844
    1C        C  266   4.326   4.133   4.958
    1C        C  267   4.397   4.014   4.961
    1C        C  268   4.267   2.772   2.065
    1C        C  269   4.202   2.729   2.181
    1C        C  270   4.343   2.892   2.302
    1C        C  271   4.257   2.780   2.301
    1C        C  272   4.384   2.953   2.423
    1C        C  273   4.344   2.891   2.544
    1C        C  274   4.447   3.082   2.661
    1C        C  275   4.384   2.955   2.664
    1C        C  276   4.472   3.151   2.782
    1C        C  277   4.446   3.085   2.904
    1C        C  278   4.500   3.292   3.025
    1C        C  279   4.467   3.154   3.026
    1C        C  280   4.510   3.365   3.146
    1C        C  281   4.497   3.297   3.269
    1C        C  282   4.515   3.510   3.392
    1C        C  283   4.510   3.369   3.390
    1C        C  284   4.517   3.582   3.514
    1C        C  285   4.523   3.512   3.637
    1C        C  286   4.498   3.726   3.753
    1C        C  287   4.521   3.587   3.757
    1C        C  288   4.476   3.795   3.875
    1C        C  289   4.489   3.728   3.999
    1C        C  290   4.429   3.936   4.116
    1C        C  291   4.473   3.802   4.118
    1C        C  292   4.404   4.005   4.237
    1C        C  293   4.427   3.941   4.361
    1C        C  294   4.331   4.130   4.481
    1C        C  295   4.391   4.002   4.483
    1C        C  296   4.293   4.195   4.600
    1C        C  297   4.332   4.137   4.723
    1C        C  298   4.206   4.317   4.838
    1C        C  299   4.294   4.204   4.842
    1C        C  300   4.170   4.404   4.946
    1C        C  301   4.356   2.878   2.066
    1C        C  302   4.468   3.071   2.176
    1C        C  303   4.390   2.950   2.181
    1C        C  304   4.481   3.144   2.297
    1C        C  305   4.448   3.079   2.418
    1C        C  306   4.509   3.283   2.539
    1C        C  307   4.477   3.145   2.539
    1C        C  308   4.516   3.357   2.659
    1C        C  309   4.501   3.289   2.782
    1C        C  310   4.523   3.502   2.901
    1C        C  311   4.512   3.362   2.903
    1C        C  312   4.520   3.574   3.023
    1C        C  313   4.517   3.506   3.146
    1C        C  314   4.493   3.717   3.263
    1C        C  315   4.509   3.577   3.268
    1C        C  316   4.479   3.787   3.385
    1C        C  317   4.491   3.721   3.509
    1C        C  318   4.430   3.925   3.627
    1C        C  319   4.477   3.792   3.630
    1C        C  320   4.398   3.991   3.747
    1C        C  321   4.422   3.925   3.870
    1C        C  322   4.318   4.112   3.991
    1C        C  323   4.394   3.993   3.991
    1C        C  324   4.281   4.174   4.112
    1C        C  325   4.329   4.125   4.236
    1C        C  326   4.189   4.284   4.354
    1C        C  327   4.290   4.185   4.358
    1C        C  328   4.137   4.336   4.475
    1C        C  329   4.191   4.293   4.598
    1C        C  330   4.023   4.432   4.713
    1C        C  331   4.141   4.353   4.716
    1C        C  332   3.970   4.489   4.831
    1C        C  333   4.057   4.486   4.941
    1C        C  334   4.558   3.266   2.067
    1C        C  335   4.538   3.128   2.065
    1C        C  336   4.536   3.350   2.177
    1C        C  337   4.515   3.282   2.299
    1C        C  338   4.524   3.497   2.415
    1C        C  339   4.520   3.356   2.419
    1C        C  340   4.524   3.570   2.536
    1C        C  341   4.527   3.498   2.657
    1C        C  342   4.499   3.710   2.777
    1C        C  343   4.525   3.571   2.778
    1C        C  344   4.478   3.781   2.898
    1C        C  345   4.499   3.714   3.020
    1C        C  346   4.426   3.917   3.139
    1C        C  347   4.477   3.785   3.140
    1C        C  348   4.397   3.983   3.261
    1C        C  349   4.429   3.919   3.383
    1C        C  350   4.325   4.108   3.504
    1C        C  351   4.400   3.988   3.504
    1C        C  352   4.278   4.169   3.622
    1C        C  353   4.320   4.109   3.743
    1C        C  354   4.177   4.264   3.866
    1C        C  355   4.273   4.161   3.866
    1C        C  356   4.124   4.314   3.987
    1C        C  357   4.183   4.276   4.110
    1C        C  358   4.015   4.404   4.229
    1C        C  359   4.131   4.324   4.232
    1C        C  360   3.953   4.442   4.351
    1C        C  361   4.020   4.415   4.472
    1C        C  362   3.829   4.519   4.594
    1C        C  363   3.958   4.461   4.591
    1C        C  364   3.762   4.555   4.713
    1C        C  365   3.840   4.543   4.830
    1C        C  366   3.633   4.596   4.949
    1C        C  367   3.769   4.571   4.948
    1C        C  368   4.512   3.566   2.055
    1C        C  369   4.521   3.490   2.172
    1C        C  370   4.500   3.706   2.286
    1C        C  371   4.512   3.565   2.292
    1C        C  372   4.486   3.777   2.408
    1C        C  373   4.504   3.710   2.531
    1C        C  374   4.426   3.906   2.650
    1C        C  375   4.482   3.776   2.653
    1C        C  376   4.397   3.974   2.770
    1C        C  377   4.427   3.913   2.894
    1C        C  378   4.322   4.098   3.015
    1C        C  379   4.397   3.978   3.015
    1C        C  380   4.279   4.157   3.136
    1C        C  381   4.324   4.103   3.258
    1C        C  382   4.180   4.259   3.379
    1C        C  383   4.281   4.160   3.381
    1C        C  384   4.119   4.303   3.498
    1C        C  385   4.173   4.264   3.623
    1C        C  386   4.004   4.392   3.743
    1C        C  387   4.122   4.313   3.745
    1C        C  388   3.943   4.426   3.866
    1C        C  389   4.004   4.388   3.988
    1C        C  390   3.816   4.487   4.111
    1C        C  391   3.947   4.433   4.109
    1C        C  392   3.751   4.518   4.232
    1C        C  393   3.824   4.499   4.352
    1C        C  394   3.618   4.550   4.473
    1C        C  395   3.758   4.530   4.473
    1C        C  396   3.547   4.564   4.594
    1C        C  397   3.622   4.570   4.714
    1C        C  398   3.412   4.556   4.838
    1C        C  399   3.551   4.579   4.836
    1C        C  400   3.341   4.523   4.954
    1C        C  401   4.500   3.705   2.050
    1C        C  402   4.460   3.917   2.167
    1C        C  403   4.498   3.782   2.167
    1C        C  404   4.414   3.977   2.286
    1C        C  405   4.433   3.908   2.408
    1C        C  406   4.323   4.091   2.529
    1C        C  407   4.401   3.974   2.528
    1C        C  408   4.273   4.145   2.650
    1C        C  409   4.320   4.092   2.772
    1C        C  410   4.174   4.248   2.890
    1C        C  411   4.279   4.153   2.893
    1C        C  412   4.122   4.294   3.013
    1C        C  413   4.177   4.256   3.137
    1C        C  414   4.001   4.377   3.254
    1C        C  415   4.122   4.304   3.258
    1C        C  416   3.939   4.413   3.375
    1C        C  417   4.000   4.379   3.499
    1C        C  418   3.812   4.478   3.618
    1C        C  419   3.941   4.421   3.620
    1C        C  420   3.749   4.509   3.740
    1C        C  421   3.814   4.484   3.864
    1C        C  422   3.611   4.534   3.987
    1C        C  423   3.750   4.505   3.987
    1C        C  424   3.542   4.546   4.110
    1C        C  425   3.612   4.545   4.232
    1C        C  426   3.400   4.554   4.356
    1C        C  427   3.542   4.556   4.354
    1C        C  428   3.331   4.547   4.479
    1C        C  429   3.406   4.557   4.597
    1C        C  430   3.196   4.520   4.722
    1C        C  431   3.335   4.549   4.719
    1C        C  432   3.126   4.496   4.844
    1C        C  433   3.205   4.494   4.960
    1C        C  434   4.391   4.126   2.055
    1C        C  435   4.451   4.000   2.054
    1C        C  436   4.305   4.162   2.163
    1C        C  437   4.337   4.097   2.285
    1C        C  438   4.186   4.250   2.403
    1C        C  439   4.283   4.148   2.406
    1C        C  440   4.127   4.297   2.523
    1C        C  441   4.174   4.246   2.646
    1C        C  442   4.007   4.378   2.766
    1C        C  443   4.122   4.295   2.768
    1C        C  444   3.942   4.410   2.887
    1C        C  445   4.004   4.372   3.008
    1C        C  446   3.814   4.470   3.130
    1C        C  447   3.941   4.408   3.129
    1C        C  448   3.746   4.495   3.251
    1C        C  449   3.813   4.477   3.375
    1C        C  450   3.606   4.527   3.497
    1C        C  451   3.745   4.502   3.496
    1C        C  452   3.540   4.538   3.622
    1C        C  453   3.611   4.537   3.744
    1C        C  454   3.398   4.546   3.867
    1C        C  455   3.539   4.543   3.866
    1C        C  456   3.329   4.540   3.990
    1C        C  457   3.401   4.554   4.111
    1C        C  458   3.196   4.502   4.239
    1C        C  459   3.331   4.545   4.233
    1C        C  460   3.127   4.482   4.360
    1C        C  461   3.194   4.510   4.481
    1C        C  462   2.998   4.433   4.603
    1C        C  463   3.126   4.493   4.603
    1C        C  464   2.934   4.402   4.725
    1C        C  465   2.993   4.444   4.848
    1C        C  466   2.797   4.340   4.961
    1C        C  467   2.908   4.425   4.962
    1C        C  468   4.124   4.285   2.044
    1C        C  469   4.189   4.247   2.161
    1C        C  470   4.007   4.366   2.280
    1C        C  471   4.129   4.294   2.281
    1C        C  472   3.941   4.398   2.400
    1C        C  473   4.008   4.373   2.522
    1C        C  474   3.816   4.467   2.643
    1C        C  475   3.945   4.410   2.643
    1C        C  476   3.748   4.494   2.764
    1C        C  477   3.812   4.465   2.887
    1C        C  478   3.606   4.519   3.010
    1C        C  479   3.745   4.491   3.009
    1C        C  480   3.536   4.534   3.131
    1C        C  481   3.608   4.526   3.253
    1C        C  482   3.396   4.539   3.378
    1C        C  483   3.537   4.534   3.374
    1C        C  484   3.327   4.536   3.501
    1C        C  485   3.399   4.545   3.623
    1C        C  486   3.189   4.510   3.746
    1C        C  487   3.327   4.540   3.745
    1C        C  488   3.124   4.485   3.869
    1C        C  489   3.193   4.501   3.991
    1C        C  490   3.003   4.418   4.116
    1C        C  491   3.131   4.479   4.116
    1C        C  492   2.939   4.389   4.238
    1C        C  493   2.996   4.429   4.361
    1C        C  494   2.824   4.304   4.483
    1C        C  495   2.934   4.393   4.483
    1C        C  496   2.769   4.261   4.606
    1C        C  497   2.825   4.311   4.726
    1C        C  498   2.666   4.166   4.846
    1C        C  499   2.758   4.273   4.845
    1C        C  500   2.593   4.119   4.956
    1C        C  501   4.008   4.362   2.042
    1C        C  502   3.814   4.460   2.155
    1C        C  503   3.942   4.401   2.159
    1C        C  504   3.744   4.474   2.277
    1C        C  505   3.810   4.452   2.400
    1C        C  506   3.606   4.510   2.521
    1C        C  507   3.744   4.479   2.522
    1C        C  508   3.536   4.515   2.644
    1C        C  509   3.608   4.513   2.765
    1C        C  510   3.396   4.529   2.887
    1C        C  511   3.537   4.524   2.886
    1C        C  512   3.325   4.528   3.009
    1C        C  513   3.395   4.535   3.131
    1C        C  514   3.189   4.496   3.258
    1C        C  515   3.327   4.530   3.255
    1C        C  516   3.121   4.483   3.381
    1C        C  517   3.188   4.513   3.502
    1C        C  518   2.999   4.417   3.626
    1C        C  519   3.122   4.488   3.624
    1C        C  520   2.944   4.376   3.750
    1C        C  521   3.001   4.418   3.872
    1C        C  522   2.833   4.288   3.994
    1C        C  523   2.942   4.378   3.995
    1C        C  524   2.785   4.243   4.119
    1C        C  525   2.833   4.295   4.241
    1C        C  526   2.697   4.132   4.366
    1C        C  527   2.781   4.245   4.362
    1C        C  528   2.648   4.081   4.488
    1C        C  529   2.684   4.149   4.607
    1C        C  530   2.587   3.961   4.731
    1C        C  531   2.637   4.094   4.728
    1C        C  532   2.540   3.905   4.853
    1C        C  533   2.525   3.997   4.961
    1C        C  534   3.618   4.562   2.042
    1C        C  535   3.751   4.520   2.046
    1C        C  536   3.540   4.539   2.159
    1C        C  537   3.606   4.509   2.282
    1C        C  538   3.391   4.523   2.404
    1C        C  539   3.532   4.518   2.401
    1C        C  540   3.320   4.523   2.526
    1C        C  541   3.395   4.516   2.646
    1C        C  542   3.184   4.492   2.768
    1C        C  543   3.323   4.518   2.767
    1C        C  544   3.118   4.473   2.892
    1C        C  545   3.187   4.495   3.014
    1C        C  546   2.995   4.409   3.136
    1C        C  547   3.121   4.473   3.137
    1C        C  548   2.937   4.372   3.259
    1C        C  549   2.996   4.417   3.380
    1C        C  550   2.828   4.292   3.507
    1C        C  551   2.939   4.380   3.504
    1C        C  552   2.780   4.239   3.628
    1C        C  553   2.834   4.287   3.750
    1C        C  554   2.695   4.127   3.875
    1C        C  555   2.782   4.239   3.872
    1C        C  556   2.663   4.067   3.998
    1C        C  557   2.703   4.128   4.119
    1C        C  558   2.604   3.943   4.247
    1C        C  559   2.663   4.072   4.243
    1C        C  560   2.574   3.879   4.369
    1C        C  561   2.590   3.952   4.488
    1C        C  562   2.534   3.750   4.618
    1C        C  563   2.575   3.885   4.612
    1C        C  564   2.518   3.684   4.741
    1C        C  565   2.519   3.763   4.859
    1C        C  566   2.532   3.549   4.985
    1C        C  567   2.528   3.688   4.977
    1C        C  568   3.325   4.482   2.048
    1C        C  569   3.400   4.516   2.162
    1C        C  570   3.184   4.476   2.284
    1C        C  571   3.322   4.510   2.281
    1C        C  572   3.114   4.465   2.405
    1C        C  573   3.183   4.489   2.526
    1C        C  574   2.988   4.404   2.652
    1C        C  575   3.114   4.469   2.648
    1C        C  576   2.928   4.369   2.774
    1C        C  577   2.992   4.411   2.893
    1C        C  578   2.825   4.280   3.017
    1C        C  579   2.931   4.373   3.015
    1C        C  580   2.780   4.227   3.140
    1C        C  581   2.830   4.280   3.261
    1C        C  582   2.701   4.119   3.386
    1C        C  583   2.782   4.235   3.386
    1C        C  584   2.665   4.059   3.508
    1C        C  585   2.704   4.120   3.630
    1C        C  586   2.600   3.937   3.756
    1C        C  587   2.660   4.065   3.753
    1C        C  588   2.578   3.874   3.880
    1C        C  589   2.603   3.939   4.003
    1C        C  590   2.543   3.738   4.129
    1C        C  591   2.578   3.875   4.126
    1C        C  592   2.526   3.671   4.253
    1C        C  593   2.537   3.743   4.374
    1C        C  594   2.512   3.535   4.502
    1C        C  595   2.523   3.676   4.498
    1C        C  596   2.517   3.466   4.624
    1C        C  597   2.518   3.541   4.744
    1C        C  598   2.538   3.333   4.864
    1C        C  599   2.526   3.474   4.867
    1C        C  600   2.525   3.252   4.977
    1C        C  601   3.192   4.446   2.042
    1C        C  602   2.983   4.398   2.161
    1C        C  603   3.118   4.445   2.162
    1C        C  604   2.926   4.362   2.286
    1C        C  605   2.987   4.404   2.407
    1C        C  606   2.818   4.278   2.530
    1C        C  607   2.927   4.367   2.530
    1C        C  608   2.771   4.224   2.651
    1C        C  609   2.823   4.274   2.773
    1C        C  610   2.692   4.111   2.897
    1C        C  611   2.773   4.227   2.897
    1C        C  612   2.655   4.054   3.021
    1C        C  613   2.696   4.113   3.142
    1C        C  614   2.598   3.929   3.265
    1C        C  615   2.660   4.056   3.266
    1C        C  616   2.578   3.867   3.390
    1C        C  617   2.603   3.933   3.512
    1C        C  618   2.537   3.733   3.639
    1C        C  619   2.574   3.869   3.635
    1C        C  620   2.523   3.667   3.764
    1C        C  621   2.540   3.738   3.885
    1C        C  622   2.514   3.528   4.010
    1C        C  623   2.528   3.668   4.007
    1C        C  624   2.514   3.457   4.133
    1C        C  625   2.515   3.531   4.253
    1C        C  626   2.537   3.326   4.380
    1C        C  627   2.517   3.466   4.379
    1C        C  628   2.558   3.257   4.501
    1C        C  629   2.538   3.326   4.622
    1C        C  630   2.600   3.124   4.748
    1C        C  631   2.551   3.257   4.745
    1C        C  632   2.617   3.051   4.869
    1C        C  633   2.555   3.115   4.980
    1C        C  634   2.784   4.302   2.053
    1C        C  635   2.891   4.393   2.052
    1C        C  636   2.750   4.231   2.169
    1C        C  637   2.814   4.274   2.288
    1C        C  638   2.681   4.110   2.412
    1C        C  639   2.768   4.222   2.410
    1C        C  640   2.641   4.051   2.534
    1C        C  641   2.687   4.111   2.654
    1C        C  642   2.594   3.921   2.778
    1C        C  643   2.656   4.047   2.776
    1C        C  644   2.568   3.857   2.901
    1C        C  645   2.591   3.928   3.022
    1C        C  646   2.536   3.724   3.151
    1C        C  647   2.571   3.861   3.144
    1C        C  648   2.526   3.658   3.275
    1C        C  649   2.539   3.731   3.395
    1C        C  650   2.521   3.521   3.522
    1C        C  651   2.526   3.662   3.518
    1C        C  652   2.522   3.452   3.645
    1C        C  653   2.515   3.526   3.764
    1C        C  654   2.538   3.318   3.890
    1C        C  655   2.518   3.458   3.888
    1C        C  656   2.554   3.251   4.013
    1C        C  657   2.538   3.318   4.136
    1C        C  658   2.603   3.120   4.261
    1C        C  659   2.551   3.252   4.260
    1C        C  660   2.634   3.056   4.383
    1C        C  661   2.602   3.123   4.504
    1C        C  662   2.710   2.942   4.625
    1C        C  663   2.632   3.059   4.626
    1C        C  664   2.750   2.881   4.746
    1C        C  665   2.700   2.934   4.867
    1C        C  666   2.739   2.866   4.983
    1C        C  667   2.686   4.025   2.055
    1C        C  668   2.686   4.106   2.170
    1C        C  669   2.592   3.914   2.292
    1C        C  670   2.647   4.045   2.291
    1C        C  671   2.562   3.851   2.414
    1C        C  672   2.585   3.922   2.534
    1C        C  673   2.520   3.720   2.660
    1C        C  674   2.563   3.855   2.657
    1C        C  675   2.515   3.650   2.783
    1C        C  676   2.532   3.720   2.905
    1C        C  677   2.505   3.514   3.032
    1C        C  678   2.517   3.655   3.029
    1C        C  679   2.506   3.444   3.155
    1C        C  680   2.515   3.517   3.276
    1C        C  681   2.537   3.310   3.402
    1C        C  682   2.515   3.449   3.400
    1C        C  683   2.555   3.242   3.525
    1C        C  684   2.534   3.311   3.647
    1C        C  685   2.604   3.113   3.772
    1C        C  686   2.553   3.244   3.770
    1C        C  687   2.639   3.055   3.896
    1C        C  688   2.607   3.119   4.018
    1C        C  689   2.710   2.935   4.141
    1C        C  690   2.633   3.053   4.140
    1C        C  691   2.754   2.878   4.263
    1C        C  692   2.710   2.937   4.384
    1C        C  693   2.755   2.881   4.505
    1C        C  694   2.633   3.895   2.056
    1C        C  695   2.534   3.706   2.175
    1C        C  696   2.582   3.838   2.174
    1C        C  697   2.516   3.639   2.298
    1C        C  698   2.528   3.714   2.418
    1C        C  699   2.494   3.506   2.545
    1C        C  700   2.508   3.647   2.540
    1C        C  701   2.507   3.436   2.667
    1C        C  702   2.505   3.510   2.788
    1C        C  703   2.529   3.302   2.912
    1C        C  704   2.506   3.441   2.911
    1C        C  705   2.543   3.234   3.035
    1C        C  706   2.526   3.304   3.156
    1C        C  707   2.598   3.107   3.280
    1C        C  708   2.549   3.239   3.280
    1C        C  709   2.628   3.043   3.402
    1C        C  710   2.602   3.109   3.524
    1C        C  711   2.715   2.934   3.650
    1C        C  712   2.632   3.049   3.649
    1C        C  713   2.754   2.879   3.773
    1C        C  714   2.716   2.937   3.897
    1C        C  715   2.755   2.879   4.019
    1C        C  716   2.454   3.501   2.064
    1C        C  717   2.496   3.634   2.060
    1C        C  718   2.472   3.424   2.184
    1C        C  719   2.487   3.500   2.302
    1C        C  720   2.516   3.292   2.426
    1C        C  721   2.490   3.430   2.425
    1C        C  722   2.543   3.225   2.548
    1C        C  723   2.531   3.297   2.668
    1C        C  724   2.598   3.098   2.790
    1C        C  725   2.548   3.231   2.792
    1C        C  726   2.620   3.036   2.914
    1C        C  727   2.594   3.102   3.037
    1C        C  728   2.707   2.922   3.162
    1C        C  729   2.633   3.043   3.159
    1C        C  730   2.751   2.868   3.285
    1C        C  731   2.712   2.930   3.406
    1C        C  732   2.759   2.877   3.528
    1C        C  733   2.498   3.197   2.073
    1C        C  734   2.490   3.282   2.184
    1C        C  735   2.580   3.087   2.307
    1C        C  736   2.528   3.219   2.306
    1C        C  737   2.614   3.022   2.428
    1C        C  738   2.595   3.093   2.548
    1C        C  739   2.699   2.907   2.674
    1C        C  740   2.629   3.030   2.670
    1C        C  741   2.739   2.854   2.799
    1C        C  742   2.694   2.916   2.917
    1C        C  743   2.744   2.863   3.039
    1C        C  744   2.541   3.064   2.076
    1C        C  745   2.682   2.895   2.190
    1C        C  746   2.606   3.013   2.189
    1C        C  747   2.727   2.838   2.311
    1C        C  748   2.687   2.902   2.430
    1C        C  749   2.737   2.848   2.552
    1C        C  750   2.735   2.835   2.074
    1C        C  751   3.668   2.327   1.974
    1C        O  752   3.662   2.207   2.012
    1C        O  753   3.682   2.340   1.835
    1C        C  754   4.615   3.052   1.963
    1C        O  755   4.577   3.053   1.843
    1C        O  756   4.754   3.068   1.963
    1C        C  757   4.472   4.235   1.995
    1C        O  758   4.511   4.336   2.059
    1C        O  759   4.505   4.227   1.860
    1C        C  760   3.601   4.691   1.970
    1C        O  761   3.535   4.786   2.020
    1C        O  762   3.645   4.704   1.838
    1C        C  763   2.861   4.510   1.966
    1C        O  764   2.937   4.560   1.879
    1C        O  765   2.741   4.581   1.979
    1C        C  766   2.344   3.466   1.971
    1C        O  767   2.364   3.427   1.852
    1C        O  768   2.218   3.433   2.021
    1C        C  769   4.710   3.598   5.038
    1C        O  770   4.738   3.636   5.155
    1C        O  771   4.822   3.580   4.956
    1C        C  772   4.283   4.466   5.018
    1C        O  773   4.310   4.449   5.140
    1C        O  774   4.375   4.555   4.961
    1C        C  775   4.153   2.528   5.074
    1C        O  776   4.200   2.413   5.052
    1C        O  777   4.180   2.583   5.199
    1C        C  778   2.906   4.527   5.069
    1C        O  779   2.844   4.635   5.053
    1C        O  780   2.905   4.495   5.206
    1C        C  781   2.469   3.048   5.080
    1C        O  782   2.371   2.979   5.041
    1C        O  783   2.502   3.037   5.215
    1C        C  784   2.400   3.991   5.041
    1C        O  785   2.302   4.066   5.015
    1C        O  786   2.409   3.950   5.174
    1C        C  787   2.947   2.411   2.019
    1C        O  788   2.918   2.441   1.900
    1C        O  789   2.838   2.343   2.073
    1C        C  790   3.174   2.367   5.048
    1C        O  791   3.133   2.255   5.006
    1C        O  792   3.185   2.374   5.187
    1C        H  793   4.267   3.032   5.044
    1C        H  794   4.210   2.802   5.079
    1C        H  795   4.507   3.132   5.059
    1C        H  796   4.473   3.379   5.057
    1C        H  797   4.530   3.801   5.055
    1C        H  798   4.436   3.985   5.057
    1C        H  799   4.277   4.165   5.048
    1C        H  800   4.027   4.540   5.028
    1C        H  801   3.824   4.597   5.036
    1C        H  802   3.590   4.647   5.033
    1C        H  803   3.402   4.485   5.033
    1C        H  804   3.163   4.476   5.057
    1C        H  805   3.897   2.481   5.062
    1C        H  806   3.682   2.499   5.074
    1C        H  807   3.003   2.556   5.066
    1C        H  808   3.441   2.486   5.078
    1C        H  809   2.858   2.725   5.082
    1C        H  810   2.724   2.913   5.079
    1C        H  811   2.447   3.281   5.045
    1C        H  812   2.573   3.506   5.074
    1C        H  813   2.578   3.737   5.058
    1C        H  814   2.586   4.186   5.039
    1C        H  815   2.764   4.320   5.061
    1C        H  816   2.701   2.867   1.977
    1C        H  817   2.810   2.662   1.990
    1C        H  818   3.185   2.371   2.034
    1C        H  819   3.427   2.449   1.980
    1C        H  820   3.865   2.489   1.981
    1C        H  821   4.082   2.570   1.987
    1C        H  822   4.230   2.741   1.969
    1C        H  823   4.421   2.886   1.981
    1C        H  824   4.573   3.312   1.971
    1C        H  825   4.543   3.518   1.965
    1C        H  826   4.462   3.745   1.958
    1C        H  827   3.816   4.567   1.974
    1C        H  828   4.001   4.430   1.960
    1C        H  829   4.178   4.294   1.952
    1C        H  830   4.524   3.986   1.976
    1C        H  831   2.641   3.833   1.969
    1C        H  832   2.674   4.071   1.960
    1C        H  833   2.699   4.329   1.994
    1C        H  834   3.375   4.499   1.955
    1C        H  835   3.146   4.427   1.947
    1C        H  836   2.490   2.992   2.015
    1C        H  837   2.463   3.228   1.977
    1C        H  838   2.497   3.683   1.965
    2V3OU   H29  839   2.801   3.546   1.516
    2V3OU   C27  840   2.784   3.508   1.620
    2V3OU   H27  841   2.724   3.577   1.685
    2V3OU   H28  842   2.732   3.409   1.610
    2V3OU   O11  843   2.913   3.483   1.677
    2V3OU   C15  844   2.919   3.402   1.789
    2V3OU   C13  845   3.049   3.379   1.841
    2V3OU   C14  846   3.078   3.273   1.927
    2V3OU   C16  847   2.972   3.193   1.965
    2V3OU    H6  848   2.990   3.105   2.029
    2V3OU   C12  849   3.213   3.230   1.972
    2V3OU    O2  850   3.234   3.130   2.044
    2V3OU   C10  851   3.325   3.308   1.917
    2V3OU    C8  852   3.459   3.273   1.932
    2V3OU   O10  853   3.490   3.153   1.987
    2V3OU   H26  854   3.405   3.113   2.010
    2V3OU    C6  855   3.568   3.353   1.885
    2V3OU    C5  856   3.541   3.468   1.811
    2V3OU    C4  857   3.705   3.294   1.892
    2V3OU    H4  858   3.726   3.236   1.986
    2V3OU    H5  859   3.711   3.219   1.807
    2V3OU    C2  860   3.816   3.396   1.868
    2V3OU    O6  861   3.806   3.476   1.986
    2V3OU   H21  862   3.764   3.559   1.959
    2V3OU    C3  863   3.784   3.492   1.754
    2V3OU    H2  864   3.863   3.572   1.759
    2V3OU    H3  865   3.785   3.438   1.656
    2V3OU   C25  866   3.954   3.331   1.850
    2V3OU    O7  867   3.997   3.302   1.739
    2V3OU   C26  868   4.031   3.292   1.975
    2V3OU   H22  869   4.059   3.385   2.030
    2V3OU   H23  870   4.120   3.229   1.948
    2V3OU    O8  871   3.965   3.203   2.064
    2V3OU   H24  872   3.928   3.262   2.131
    2V3OU    C1  873   3.649   3.561   1.762
    2V3OU    H1  874   3.626   3.616   1.666
    2V3OU    O3  875   3.667   3.661   1.862
    2V3OU   C19  876   3.620   3.796   1.852
    2V3OU    H9  877   3.522   3.813   1.798
    2V3OU    O4  878   3.716   3.850   1.764
    2V3OU   C20  879   3.845   3.875   1.822
    2V3OU   H10  880   3.904   3.778   1.826
    2V3OU   C24  881   3.612   3.858   1.992
    2V3OU   H16  882   3.548   3.794   2.058
    2V3OU   H17  883   3.564   3.958   1.971
    2V3OU   C23  884   3.752   3.875   2.051
    2V3OU   H15  885   3.795   3.772   2.069
    2V3OU    N1  886   3.734   3.952   2.173
    2V3OU   H19  887   3.804   3.919   2.236
    2V3OU   H20  888   3.644   3.929   2.211
    2V3OU   C21  889   3.852   3.948   1.956
    2V3OU   H11  890   3.952   3.921   2.002
    2V3OU    O5  891   3.834   4.088   1.958
    2V3OU   H18  892   3.779   4.106   2.037
    2V3OU   C22  893   3.912   3.951   1.709
    2V3OU   H12  894   3.862   4.050   1.694
    2V3OU   H13  895   3.906   3.893   1.614
    2V3OU   H14  896   4.021   3.964   1.732
    2V3OU   C11  897   3.159   3.471   1.810
    2V3OU    O1  898   3.143   3.584   1.759
    2V3OU    C9  899   3.296   3.425   1.842
    2V3OU    C7  900   3.403   3.500   1.795
    2V3OU    O9  901   3.390   3.624   1.736
    2V3OU   H25  902   3.293   3.635   1.734
    2V3OU   C17  903   2.819   3.316   1.838
    2V3OU    H7  904   2.715   3.342   1.822
    2V3OU   C18  905   2.840   3.208   1.924
    2V3OU    H8  906   2.755   3.148   1.960
    3SOL     OW  907   1.514   4.015   1.334
    3SOL    HW1  908   1.481   3.977   1.421
    3SOL    HW2  909   1.510   4.115   1.338
    4SOL     OW  910   6.259   0.744   1.804
    4SOL    HW1  911   6.225   0.775   1.715
    4SOL    HW2  912   6.258   0.644   1.807
    5SOL     OW  913   3.982   1.448   0.735
    5SOL    HW1  914   4.079   1.454   0.756
    5SOL    HW2  915   3.935   1.395   0.805
    6SOL     OW  916   3.063   1.992   2.257
    6SOL    HW1  917   3.043   1.933   2.179
    6SOL    HW2  918   3.019   1.956   2.339
    7SOL     OW  919   5.391   2.058   2.191
    7SOL    HW1  920   5.297   2.030   2.174
    7SOL    HW2  921   5.417   2.033   2.285
    8SOL     OW  922   2.652   6.981   3.936
    8SOL    HW1  923   2.747   7.009   3.949
    8SOL    HW2  924   2.610   6.964   4.025
    9SOL     OW  925   1.560   4.984   5.806
    9SOL    HW1  926   1.462   5.001   5.795
    9SOL    HW2  927   1.573   4.914   5.875
   10SOL     OW  928   0.743   4.838   5.961
   10SOL    HW1  929   0.800   4.920   5.959
   10SOL    HW2  930   0.650   4.861   5.932
   11SOL     OW  931   3.841   6.555   0.306
   11SOL    HW1  932   3.835   6.610   0.223
   11SOL    HW2  933   3.780   6.476   0.298
   12SOL     OW  934   5.262   5.725   3.224
   12SOL    HW1  935   5.299   5.633   3.239
   12SOL    HW2  936   5.164   5.719   3.205
   13SOL     OW  937   2.829   6.298   3.781
   13SOL    HW1  938   2.780   6.281   3.695
   13SOL    HW2  939   2.854   6.210   3.822
   14SOL     OW  940   3.618   6.330   6.994
   14SOL    HW1  941   3.587   6.362   6.904
   14SOL    HW2  942   3.660   6.406   0.017
   15SOL     OW  943   1.142   6.354   0.253
   15SOL    HW1  944   1.204   6.404   0.192
   15SOL    HW2  945   1.047   6.380   0.233
   16SOL     OW  946   6.466   2.461   6.038
   16SOL    HW1  947   6.466   2.514   6.123
   16SOL    HW2  948   6.527   2.504   5.972
   17SOL     OW  949   5.285   6.681   4.118
   17SOL    HW1  950   5.375   6.715   4.090
   17SOL    HW2  951   5.223   6.758   4.134
   18SOL     OW  952   2.026   1.752   5.782
   18SOL    HW1  953   1.927   1.744   5.785
   18SOL    HW2  954   2.052   1.834   5.731
   19SOL     OW  955   0.152   0.183   2.797
   19SOL    HW1  956   0.072   0.228   2.756
   19SOL    HW2  957   0.235   0.225   2.762
   20SOL     OW  958   3.145   1.548   3.948
   20SOL    HW1  959   3.166   1.475   3.883
   20SOL    HW2  960   3.184   1.526   4.037
   21SOL     OW  961   2.771   1.508   1.768
   21SOL    HW1  962   2.749   1.575   1.838
   21SOL    HW2  963   2.846   1.542   1.711
   22SOL     OW  964   2.256   6.153   6.014
   22SOL    HW1  965   2.174   6.205   5.991
   22SOL    HW2  966   2.336   6.196   5.973
   23SOL     OW  967   4.601   6.665   3.620
   23SOL    HW1  968   4.581   6.756   3.658
   23SOL    HW2  969   4.539   6.646   3.544
   24SOL     OW  970   5.347   0.846   4.858
   24SOL    HW1  971   5.374   0.893   4.774
   24SOL    HW2  972   5.263   0.795   4.842
   25SOL     OW  973   3.722   5.464   0.446
   25SOL    HW1  974   3.742   5.544   0.389
   25SOL    HW2  975   3.700   5.494   0.538
   26SOL     OW  976   6.603   1.561   1.505
   26SOL    HW1  977   6.605   1.516   1.595
   26SOL    HW2  978   6.579   1.657   1.518
   27SOL     OW  979   6.153   0.354   2.142
   27SOL    HW1  980   6.117   0.441   2.111
   27SOL    HW2  981   6.124   0.338   2.237
   28SOL     OW  982   4.624   0.629   6.823
   28SOL    HW1  983   4.642   0.717   6.866
   28SOL    HW2  984   4.590   0.565   6.891
   29SOL     OW  985   4.769   2.204   1.588
   29SOL    HW1  986   4.719   2.282   1.550
   29SOL    HW2  987   4.789   2.221   1.685
   30SOL     OW  988   3.455   0.179   5.007
   30SOL    HW1  989   3.538   0.147   5.053
   30SOL    HW2  990   3.376   0.131   5.043
   31SOL     OW  991   0.661   1.102   5.182
   31SOL    HW1  992   0.596   1.029   5.199
   31SOL    HW2  993   0.667   1.161   5.263
   32SOL     OW  994   0.921   2.064   1.782
   32SOL    HW1  995   1.012   2.074   1.740
   32SOL    HW2  996   0.929   2.017   1.869
   33SOL     OW  997   1.898   2.238   6.029
   33SOL    HW1  998   1.896   2.142   6.001
   33SOL    HW2  999   1.862   2.295   5.955
   34SOL     OW 1000   2.145   0.304   4.765
   34SOL    HW1 1001   2.046   0.315   4.768
   34SOL    HW2 1002   2.176   0.249   4.843
   35SOL     OW 1003   4.750   1.544   0.395
   35SOL    HW1 1004   4.704   1.457   0.409
   35SOL    HW2 1005   4.688   1.609   0.351
   36SOL     OW 1006   1.708   1.059   5.946
   36SOL    HW1 1007   1.631   1.115   5.915
   36SOL    HW2 1008   1.728   0.989   5.878
   37SOL     OW 1009   2.706   6.737   1.420
   37SOL    HW1 1010   2.676   6.767   1.510
   37SOL    HW2 1011   2.790   6.784   1.395
   38SOL     OW 1012   6.929   6.313   3.335
   38SOL    HW1 1013   6.888   6.278   3.419
   38SOL    HW2 1014   6.868   6.380   3.293
   39SOL     OW 1015   6.642   3.394   5.395
   39SOL    HW1 1016   6.741   3.382   5.387
   39SOL    HW2 1017   6.616   3.393   5.492
   40SOL     OW 1018   6.167   1.113   2.510
   40SOL    HW1 1019   6.193   1.126   2.605
   40SOL    HW2 1020   6.248   1.094   2.455
   41SOL     OW 1021   1.752   6.675   4.848
   41SOL    HW1 1022   1.653   6.677   4.863
   41SOL    HW2 1023   1.775   6.600   4.786
   42SOL     OW 1024   3.454   0.341   6.582
   42SOL    HW1 1025   3.414   0.332   6.491
   42SOL    HW2 1026   3.381   0.338   6.651
   43SOL     OW 1027   5.541   6.605   5.671
   43SOL    HW1 1028   5.613   6.535   5.676
   43SOL    HW2 1029   5.580   6.695   5.690
   44SOL     OW 1030   0.780   2.857   6.535
   44SOL    HW1 1031   0.702   2.800   6.562
   44SOL    HW2 1032   0.754   2.954   6.542
   45SOL     OW 1033   2.893   1.186   2.077
   45SOL    HW1 1034   2.870   1.260   2.141
   45SOL    HW2 1035   2.811   1.132   2.059
   46SOL     OW 1036   1.482   3.669   4.327
   46SOL    HW1 1037   1.416   3.706   4.392
   46SOL    HW2 1038   1.531   3.592   4.369
   47SOL     OW 1039   6.552   4.626   3.316
   47SOL    HW1 1040   6.478   4.590   3.259
   47SOL    HW2 1041   6.514   4.685   3.386
   48SOL     OW 1042   7.018   2.405   4.985
   48SOL    HW1 1043   6.962   2.484   5.009
   48SOL    HW2 1044   0.081   2.413   5.028
   49SOL     OW 1045   4.693   3.662   0.755
   49SOL    HW1 1046   4.633   3.723   0.807
   49SOL    HW2 1047   4.639   3.613   0.686
   50SOL     OW 1048   6.344   3.671   4.735
   50SOL    HW1 1049   6.328   3.744   4.800
   50SOL    HW2 1050   6.441   3.646   4.735
   51SOL     OW 1051   3.342   4.904   2.779
   51SOL    HW1 1052   3.259   4.911   2.835
   51SOL    HW2 1053   3.323   4.943   2.689
   52SOL     OW 1054   3.071   1.681   2.657
   52SOL    HW1 1055   3.132   1.747   2.700
   52SOL    HW2 1056   3.019   1.725   2.584
   53SOL     OW 1057   4.992   6.581   4.048
   53SOL    HW1 1058   4.894   6.562   4.055
   53SOL    HW2 1059   5.019   6.644   4.122
   54SOL     OW 1060   3.059   5.218   5.817
   54SOL    HW1 1061   3.091   5.124   5.800
   54SOL    HW2 1062   2.973   5.215   5.866
   55SOL     OW 1063   3.982   1.298   6.203
   55SOL    HW1 1064   3.967   1.317   6.106
   55SOL    HW2 1065   3.918   1.350   6.258
   56SOL     OW 1066   1.382   0.674   2.452
   56SOL    HW1 1067   1.282   0.672   2.446
   56SOL    HW2 1068   1.416   0.583   2.475
   57SOL     OW 1069   5.170   0.868   0.687
   57SOL    HW1 1070   5.090   0.854   0.746
   57SOL    HW2 1071   5.151   0.831   0.596
   58SOL     OW 1072   0.052   6.625   6.598
   58SOL    HW1 1073   7.026   6.682   6.662
   58SOL    HW2 1074   0.105   6.557   6.650
   59SOL     OW 1075   1.557   0.712   5.848
   59SOL    HW1 1076   1.592   0.659   5.771
   59SOL    HW2 1077   1.596   0.677   5.933
   60SOL     OW 1078   4.321   6.958   5.301
   60SOL    HW1 1079   4.389   7.017   5.256
   60SOL    HW2 1080   4.235   6.962   5.251
   61SOL     OW 1081   4.696   0.455   4.107
   61SOL    HW1 1082   4.786   0.453   4.065
   61SOL    HW2 1083   4.680   0.368   4.154
   62SOL     OW 1084   1.636   0.270   4.047
   62SOL    HW1 1085   1.660   0.204   4.119
   62SOL    HW2 1086   1.583   0.345   4.087
   63SOL     OW 1087   6.724   2.659   3.332
   63SOL    HW1 1088   6.746   2.756   3.333
   63SOL    HW2 1089   6.638   2.643   3.381
   64SOL     OW 1090   6.564   3.858   6.532
   64SOL    HW1 1091   6.516   3.836   6.617
   64SOL    HW2 1092   6.577   3.957   6.525
   65SOL     OW 1093   6.606   4.886   4.993
   65SOL    HW1 1094   6.665   4.813   4.958
   65SOL    HW2 1095   6.510   4.859   4.982
   66SOL     OW 1096   3.242   0.599   6.782
   66SOL    HW1 1097   3.332   0.628   6.815
   66SOL    HW2 1098   3.222   0.507   6.817
   67SOL     OW 1099   5.755   6.095   5.372
   67SOL    HW1 1100   5.670   6.047   5.395
   67SOL    HW2 1101   5.775   6.084   5.275
   68SOL     OW 1102   5.941   1.803   6.382
   68SOL    HW1 1103   5.876   1.759   6.319
   68SOL    HW2 1104   6.030   1.809   6.338
   69SOL     OW 1105   2.787   4.269   6.170
   69SOL    HW1 1106   2.690   4.259   6.147
   69SOL    HW2 1107   2.842   4.261   6.087
   70SOL     OW 1108   0.285   5.493   2.824
   70SOL    HW1 1109   0.253   5.571   2.878
   70SOL    HW2 1110   0.325   5.526   2.739
   71SOL     OW 1111   2.260   2.634   3.203
   71SOL    HW1 1112   2.283   2.699   3.131
   71SOL    HW2 1113   2.342   2.614   3.257
   72SOL     OW 1114   2.940   5.733   3.838
   72SOL    HW1 1115   2.964   5.696   3.749
   72SOL    HW2 1116   2.893   5.663   3.892
   73SOL     OW 1117   3.524   1.597   0.015
   73SOL    HW1 1118   3.452   1.539   7.003
   73SOL    HW2 1119   3.483   1.680   0.053
   74SOL     OW 1120   5.343   6.486   6.615
   74SOL    HW1 1121   5.358   6.516   6.710
   74SOL    HW2 1122   5.368   6.389   6.607
   75SOL     OW 1123   3.372   5.961   5.311
   75SOL    HW1 1124   3.351   5.866   5.333
   75SOL    HW2 1125   3.424   6.001   5.387
   76SOL     OW 1126   2.050   2.652   1.122
   76SOL    HW1 1127   2.007   2.577   1.073
   76SOL    HW2 1128   2.022   2.651   1.218
   77SOL     OW 1129   5.567   4.916   5.277
   77SOL    HW1 1130   5.495   4.887   5.214
   77SOL    HW2 1131   5.636   4.844   5.285
   78SOL     OW 1132   6.266   6.373   5.915
   78SOL    HW1 1133   6.272   6.454   5.973
   78SOL    HW2 1134   6.175   6.370   5.873
   79SOL     OW 1135   3.305   0.285   0.784
   79SOL    HW1 1136   3.263   0.321   0.700
   79SOL    HW2 1137   3.354   0.201   0.763
   80SOL     OW 1138   6.575   1.338   4.867
   80SOL    HW1 1139   6.561   1.359   4.964
   80SOL    HW2 1140   6.637   1.405   4.826
   81SOL     OW 1141   1.939   0.744   2.944
   81SOL    HW1 1142   1.906   0.714   3.033
   81SOL    HW2 1143   1.985   0.832   2.953
   82SOL     OW 1144   6.748   5.030   6.867
   82SOL    HW1 1145   6.795   5.110   6.827
   82SOL    HW2 1146   6.813   4.955   6.877
   83SOL     OW 1147   6.791   6.726   0.583
   83SOL    HW1 1148   6.821   6.662   0.654
   83SOL    HW2 1149   6.701   6.699   0.550
   84SOL     OW 1150   5.097   3.948   2.258
   84SOL    HW1 1151   5.054   4.026   2.212
   84SOL    HW2 1152   5.073   3.951   2.355
   85SOL     OW 1153   0.449   1.722   4.968
   85SOL    HW1 1154   0.404   1.771   4.894
   85SOL    HW2 1155   0.394   1.729   5.051
   86SOL     OW 1156   0.567   0.660   5.870
   86SOL    HW1 1157   0.664   0.637   5.875
   86SOL    HW2 1158   0.529   0.630   5.783
   87SOL     OW 1159   4.668   2.546   0.357
   87SOL    HW1 1160   4.758   2.533   0.399
   87SOL    HW2 1161   4.611   2.466   0.374
   88SOL     OW 1162   5.031   1.338   0.594
   88SOL    HW1 1163   5.017   1.311   0.499
   88SOL    HW2 1164   4.993   1.268   0.654
   89SOL     OW 1165   1.792   2.557   6.615
   89SOL    HW1 1166   1.781   2.648   6.576
   89SOL    HW2 1167   1.734   2.548   6.696
   90SOL     OW 1168   6.181   6.349   3.860
   90SOL    HW1 1169   6.083   6.333   3.849
   90SOL    HW2 1170   6.200   6.446   3.852
   91SOL     OW 1171   5.042   4.762   3.964
   91SOL    HW1 1172   4.988   4.693   3.916
   91SOL    HW2 1173   5.139   4.744   3.949
   92SOL     OW 1174   3.017   4.775   1.102
   92SOL    HW1 1175   3.030   4.861   1.053
   92SOL    HW2 1176   2.961   4.790   1.183
   93SOL     OW 1177   3.358   4.839   5.863
   93SOL    HW1 1178   3.433   4.887   5.816
   93SOL    HW2 1179   3.272   4.886   5.842
   94SOL     OW 1180   3.322   5.771   0.121
   94SOL    HW1 1181   3.269   5.831   0.182
   94SOL    HW2 1182   3.259   5.724   0.059
   95SOL     OW 1183   0.391   0.614   3.914
   95SOL    HW1 1184   0.311   0.563   3.946
   95SOL    HW2 1185   0.445   0.556   3.852
   96SOL     OW 1186   2.567   0.124   5.238
   96SOL    HW1 1187   2.662   0.148   5.256
   96SOL    HW2 1188   2.541   0.045   5.293
   97SOL     OW 1189   6.007   3.839   4.365
   97SOL    HW1 1190   5.960   3.770   4.420
   97SOL    HW2 1191   5.994   3.819   4.268
   98SOL     OW 1192   5.270   2.468   6.368
   98SOL    HW1 1193   5.325   2.549   6.343
   98SOL    HW2 1194   5.221   2.435   6.288
   99SOL     OW 1195   4.163   2.832   0.913
   99SOL    HW1 1196   4.261   2.824   0.899
   99SOL    HW2 1197   4.116   2.835   0.824
  100SOL     OW 1198   0.353   6.720   6.572
  100SOL    HW1 1199   0.323   6.630   6.539
  100SOL    HW2 1200   0.423   6.707   6.643
  101SOL     OW 1201   0.587   5.960   3.880
  101SOL    HW1 1202   0.565   6.056   3.894
  101SOL    HW2 1203   0.656   5.932   3.947
  102SOL     OW 1204   3.990   0.646   3.415
  102SOL    HW1 1205   3.943   0.734   3.413
  102SOL    HW2 1206   4.086   0.658   3.388
  103SOL     OW 1207   3.973   1.990   1.575
  103SOL    HW1 1208   3.978   2.073   1.518
  103SOL    HW2 1209   4.055   1.983   1.631
  104SOL     OW 1210   6.409   5.262   2.623
  104SOL    HW1 1211   6.402   5.305   2.713
  104SOL    HW2 1212   6.362   5.174   2.624
  105SOL     OW 1213   6.434   0.946   6.656
  105SOL    HW1 1214   6.335   0.934   6.660
  105SOL    HW2 1215   6.479   0.863   6.691
  106SOL     OW 1216   2.489   6.203   6.390
  106SOL    HW1 1217   2.451   6.111   6.392
  106SOL    HW2 1218   2.548   6.216   6.470
  107SOL     OW 1219   1.321   2.914   1.295
  107SOL    HW1 1220   1.299   2.939   1.390
  107SOL    HW2 1221   1.279   2.825   1.274
  108SOL     OW 1222   4.990   4.863   6.622
  108SOL    HW1 1223   4.899   4.896   6.645
  108SOL    HW2 1224   5.014   4.894   6.530
  109SOL     OW 1225   0.539   0.160   0.982
  109SOL    HW1 1226   0.568   0.183   1.075
  109SOL    HW2 1227   0.439   0.164   0.976
  110SOL     OW 1228   3.528   6.085   5.521
  110SOL    HW1 1229   3.574   6.020   5.581
  110SOL    HW2 1230   3.502   6.166   5.573
  111SOL     OW 1231   3.745   0.596   3.807
  111SOL    HW1 1232   3.827   0.585   3.863
  111SOL    HW2 1233   3.676   0.646   3.859
  112SOL     OW 1234   5.756   5.849   5.636
  112SOL    HW1 1235   5.824   5.806   5.577
  112SOL    HW2 1236   5.685   5.891   5.581
  113SOL     OW 1237   6.696   4.512   3.821
  113SOL    HW1 1238   6.659   4.511   3.914
  113SOL    HW2 1239   6.697   4.419   3.784
  114SOL     OW 1240   0.398   6.528   0.615
  114SOL    HW1 1241   0.475   6.562   0.562
  114SOL    HW2 1242   0.425   6.516   0.710
  115SOL     OW 1243   4.994   1.504   3.987
  115SOL    HW1 1244   5.017   1.574   4.054
  115SOL    HW2 1245   4.933   1.436   4.028
  116SOL     OW 1246   6.515   4.548   2.412
  116SOL    HW1 1247   6.454   4.529   2.489
  116SOL    HW2 1248   6.594   4.600   2.444
  117SOL     OW 1249   1.176   0.517   6.458
  117SOL    HW1 1250   1.239   0.594   6.462
  117SOL    HW2 1251   1.221   0.440   6.413
  118SOL     OW 1252   0.223   1.014   1.668
  118SOL    HW1 1253   0.124   1.009   1.655
  118SOL    HW2 1254   0.248   1.107   1.697
  119SOL     OW 1255   6.913   2.407   6.532
  119SOL    HW1 1256   6.884   2.329   6.476
  119SOL    HW2 1257   6.853   2.485   6.514
  120SOL     OW 1258   6.296   0.029   1.216
  120SOL    HW1 1259   6.221   6.993   1.197
  120SOL    HW2 1260   6.352   7.019   1.291
  121SOL     OW 1261   2.542   3.678   6.343
  121SOL    HW1 1262   2.531   3.663   6.441
  121SOL    HW2 1263   2.616   3.619   6.309
  122SOL     OW 1264   1.211   3.738   4.954
  122SOL    HW1 1265   1.306   3.713   4.932
  122SOL    HW2 1266   1.211   3.821   5.010
  123SOL     OW 1267   0.064   2.057   1.127
  123SOL    HW1 1268   0.023   1.968   1.145
  123SOL    HW2 1269   0.162   2.047   1.111
  124SOL     OW 1270   4.966   3.425   0.149
  124SOL    HW1 1271   4.913   3.426   0.234
  124SOL    HW2 1272   5.043   3.362   0.159
  125SOL     OW 1273   1.787   2.153   1.892
  125SOL    HW1 1274   1.823   2.195   1.809
  125SOL    HW2 1275   1.775   2.222   1.962
  126SOL     OW 1276   2.384   4.568   0.827
  126SOL    HW1 1277   2.438   4.647   0.797
  126SOL    HW2 1278   2.287   4.587   0.808
  127SOL     OW 1279   6.928   5.081   5.830
  127SOL    HW1 1280   6.907   4.985   5.847
  127SOL    HW2 1281   6.901   5.104   5.736
  128SOL     OW 1282   4.511   3.015   1.459
  128SOL    HW1 1283   4.499   3.089   1.525
  128SOL    HW2 1284   4.425   2.964   1.450
  129SOL     OW 1285   3.472   3.714   6.336
  129SOL    HW1 1286   3.505   3.653   6.265
  129SOL    HW2 1287   3.424   3.661   6.406
  130SOL     OW 1288   1.284   1.202   4.361
  130SOL    HW1 1289   1.339   1.120   4.377
  130SOL    HW2 1290   1.193   1.189   4.400
  131SOL     OW 1291   4.848   0.963   3.003
  131SOL    HW1 1292   4.776   1.019   2.961
  131SOL    HW2 1293   4.914   0.937   2.933
  132SOL     OW 1294   1.196   3.023   1.520
  132SOL    HW1 1295   1.128   3.093   1.541
  132SOL    HW2 1296   1.206   2.961   1.597
  133SOL     OW 1297   5.562   6.438   2.574
  133SOL    HW1 1298   5.542   6.530   2.608
  133SOL    HW2 1299   5.487   6.377   2.598
  134SOL     OW 1300   6.715   2.939   3.387
  134SOL    HW1 1301   6.639   2.965   3.328
  134SOL    HW2 1302   6.786   3.009   3.383
  135SOL     OW 1303   5.040   1.774   3.569
  135SOL    HW1 1304   5.101   1.735   3.638
  135SOL    HW2 1305   4.997   1.700   3.517
  136SOL     OW 1306   5.238   4.128   5.687
  136SOL    HW1 1307   5.275   4.036   5.692
  136SOL    HW2 1308   5.139   4.124   5.671
  137SOL     OW 1309   4.894   6.979   5.410
  137SOL    HW1 1310   4.952   6.918   5.463
  137SOL    HW2 1311   4.876   6.938   5.320
  138SOL     OW 1312   0.307   5.048   4.653
  138SOL    HW1 1313   0.301   5.020   4.749
  138SOL    HW2 1314   0.401   5.037   4.621
  139SOL     OW 1315   2.786   5.159   5.198
  139SOL    HW1 1316   2.868   5.121   5.239
  139SOL    HW2 1317   2.746   5.093   5.135
  140SOL     OW 1318   5.540   5.185   4.044
  140SOL    HW1 1319   5.464   5.248   4.057
  140SOL    HW2 1320   5.562   5.140   4.130
  141SOL     OW 1321   0.933   2.053   4.974
  141SOL    HW1 1322   0.998   2.095   4.911
  141SOL    HW2 1323   0.914   1.959   4.946
  142SOL     OW 1324   1.574   6.110   1.933
  142SOL    HW1 1325   1.551   6.054   2.013
  142SOL    HW2 1326   1.555   6.206   1.953
  143SOL     OW 1327   5.591   4.840   1.957
  143SOL    HW1 1328   5.501   4.855   1.916
  143SOL    HW2 1329   5.580   4.809   2.051
  144SOL     OW 1330   1.399   6.632   6.182
  144SOL    HW1 1331   1.322   6.624   6.119
  144SOL    HW2 1332   1.479   6.665   6.132
  145SOL     OW 1333   0.466   5.441   0.430
  145SOL    HW1 1334   0.438   5.396   0.515
  145SOL    HW2 1335   0.437   5.537   0.433
  146SOL     OW 1336   5.432   6.720   0.255
  146SOL    HW1 1337   5.474   6.775   0.183
  146SOL    HW2 1338   5.503   6.686   0.317
  147SOL     OW 1339   6.648   2.971   0.748
  147SOL    HW1 1340   6.704   3.051   0.771
  147SOL    HW2 1341   6.707   2.892   0.736
  148SOL     OW 1342   0.817   5.364   5.083
  148SOL    HW1 1343   0.727   5.406   5.079
  148SOL    HW2 1344   0.873   5.411   5.152
  149SOL     OW 1345   3.025   1.009   4.115
  149SOL    HW1 1346   2.973   0.937   4.161
  149SOL    HW2 1347   2.991   1.018   4.021
  150SOL     OW 1348   6.939   5.203   6.745
  150SOL    HW1 1349   6.986   5.115   6.736
  150SOL    HW2 1350   6.896   5.226   6.657
  151SOL     OW 1351   3.807   1.440   1.251
  151SOL    HW1 1352   3.724   1.388   1.274
  151SOL    HW2 1353   3.803   1.467   1.155
  152SOL     OW 1354   2.768   0.722   4.660
  152SOL    HW1 1355   2.737   0.634   4.695
  152SOL    HW2 1356   2.748   0.793   4.728
  153SOL     OW 1357   2.410   0.379   2.566
  153SOL    HW1 1358   2.496   0.345   2.603
  153SOL    HW2 1359   2.339   0.374   2.637
  154SOL     OW 1360   7.024   2.305   1.599
  154SOL    HW1 1361   6.937   2.299   1.648
  154SOL    HW2 1362   0.007   2.397   1.560
  155SOL     OW 1363   0.448   0.998   3.087
  155SOL    HW1 1364   0.399   1.025   3.170
  155SOL    HW2 1365   0.507   1.074   3.057
  156SOL     OW 1366   5.987   1.687   1.199
  156SOL    HW1 1367   6.045   1.617   1.241
  156SOL    HW2 1368   6.033   1.724   1.118
  157SOL     OW 1369   6.263   3.119   2.649
  157SOL    HW1 1370   6.216   3.162   2.572
  157SOL    HW2 1371   6.200   3.056   2.696
  158SOL     OW 1372   3.067   0.905   2.585
  158SOL    HW1 1373   3.099   0.982   2.529
  158SOL    HW2 1374   3.032   0.940   2.672
  159SOL     OW 1375   4.627   4.570   2.064
  159SOL    HW1 1376   4.537   4.613   2.057
  159SOL    HW2 1377   4.620   4.474   2.037
  160SOL     OW 1378   6.803   4.821   6.250
  160SOL    HW1 1379   6.867   4.807   6.174
  160SOL    HW2 1380   6.764   4.732   6.277
  161SOL     OW 1381   2.331   4.741   4.845
  161SOL    HW1 1382   2.278   4.688   4.779
  161SOL    HW2 1383   2.400   4.682   4.887
  162SOL     OW 1384   4.666   5.950   0.712
  162SOL    HW1 1385   4.591   6.014   0.696
  162SOL    HW2 1386   4.643   5.861   0.674
  163SOL     OW 1387   4.370   6.614   1.462
  163SOL    HW1 1388   4.274   6.639   1.451
  163SOL    HW2 1389   4.389   6.599   1.559
  164SOL     OW 1390   6.522   3.116   1.086
  164SOL    HW1 1391   6.530   3.201   1.033
  164SOL    HW2 1392   6.590   3.115   1.159
  165SOL     OW 1393   4.792   3.312   6.933
  165SOL    HW1 1394   4.821   3.367   7.011
  165SOL    HW2 1395   4.704   3.268   6.954
  166SOL     OW 1396   0.357   6.449   3.554
  166SOL    HW1 1397   0.417   6.462   3.633
  166SOL    HW2 1398   0.408   6.465   3.470
  167SOL     OW 1399   6.056   2.576   6.694
  167SOL    HW1 1400   6.055   2.529   6.782
  167SOL    HW2 1401   6.071   2.510   6.620
  168SOL     OW 1402   2.286   4.757   1.052
  168SOL    HW1 1403   2.341   4.676   1.035
  168SOL    HW2 1404   2.206   4.757   0.992
  169SOL     OW 1405   2.773   0.437   2.077
  169SOL    HW1 1406   2.851   0.423   2.017
  169SOL    HW2 1407   2.702   0.370   2.055
  170SOL     OW 1408   6.936   1.778   3.798
  170SOL    HW1 1409   6.916   1.802   3.893
  170SOL    HW2 1410   6.977   1.857   3.752
  171SOL     OW 1411   3.775   4.070   0.679
  171SOL    HW1 1412   3.860   4.069   0.730
  171SOL    HW2 1413   3.763   4.159   0.635
  172SOL     OW 1414   6.536   2.173   5.121
  172SOL    HW1 1415   6.466   2.188   5.192
  172SOL    HW2 1416   6.620   2.141   5.164
  173SOL     OW 1417   6.974   6.796   4.683
  173SOL    HW1 1418   6.916   6.839   4.614
  173SOL    HW2 1419   6.996   6.863   4.755
  174SOL     OW 1420   2.461   5.273   3.870
  174SOL    HW1 1421   2.462   5.175   3.853
  174SOL    HW2 1422   2.544   5.299   3.919
  175SOL     OW 1423   1.902   6.497   2.286
  175SOL    HW1 1424   1.992   6.520   2.248
  175SOL    HW2 1425   1.836   6.492   2.212
  176SOL     OW 1426   1.841   4.323   1.407
  176SOL    HW1 1427   1.926   4.368   1.379
  176SOL    HW2 1428   1.764   4.363   1.357
  177SOL     OW 1429   5.341   2.153   3.289
  177SOL    HW1 1430   5.281   2.089   3.242
  177SOL    HW2 1431   5.424   2.167   3.234
  178SOL     OW 1432   4.891   4.230   6.394
  178SOL    HW1 1433   4.913   4.303   6.330
  178SOL    HW2 1434   4.885   4.268   6.487
  179SOL     OW 1435   3.009   0.718   0.689
  179SOL    HW1 1436   3.099   0.757   0.707
  179SOL    HW2 1437   2.968   0.688   0.775
  180SOL     OW 1438   0.855   1.384   6.763
  180SOL    HW1 1439   0.939   1.337   6.792
  180SOL    HW2 1440   0.801   1.406   6.844
  181SOL     OW 1441   3.747   1.862   6.551
  181SOL    HW1 1442   3.713   1.848   6.644
  181SOL    HW2 1443   3.840   1.827   6.545
  182SOL     OW 1444   4.132   2.224   3.937
  182SOL    HW1 1445   4.143   2.226   4.036
  182SOL    HW2 1446   4.222   2.210   3.894
  183SOL     OW 1447   4.567   1.166   1.675
  183SOL    HW1 1448   4.621   1.090   1.710
  183SOL    HW2 1449   4.475   1.134   1.651
  184SOL     OW 1450   1.179   5.138   3.279
  184SOL    HW1 1451   1.177   5.038   3.292
  184SOL    HW2 1452   1.269   5.173   3.307
  185SOL     OW 1453   1.613   3.560   6.383
  185SOL    HW1 1454   1.604   3.658   6.370
  185SOL    HW2 1455   1.655   3.519   6.302
  186SOL     OW 1456   6.163   0.395   3.248
  186SOL    HW1 1457   6.198   0.469   3.306
  186SOL    HW2 1458   6.101   0.434   3.180
  187SOL     OW 1459   5.721   1.014   4.139
  187SOL    HW1 1460   5.778   1.034   4.059
  187SOL    HW2 1461   5.625   1.028   4.115
  188SOL     OW 1462   5.881   2.142   3.355
  188SOL    HW1 1463   5.809   2.194   3.311
  188SOL    HW2 1464   5.889   2.052   3.312
  189SOL     OW 1465   2.272   5.285   2.697
  189SOL    HW1 1466   2.243   5.211   2.636
  189SOL    HW2 1467   2.209   5.294   2.773
  190SOL     OW 1468   3.778   1.361   5.089
  190SOL    HW1 1469   3.760   1.263   5.098
  190SOL    HW2 1470   3.704   1.412   5.133
  191SOL     OW 1471   6.072   5.656   6.115
  191SOL    HW1 1472   6.061   5.630   6.019
  191SOL    HW2 1473   6.151   5.610   6.153
  192SOL     OW 1474   6.409   7.005   2.025
  192SOL    HW1 1475   6.504   7.021   1.997
  192SOL    HW2 1476   6.357   0.063   2.016
  193SOL     OW 1477   5.012   3.130   6.835
  193SOL    HW1 1478   4.955   3.192   6.889
  193SOL    HW2 1479   5.080   3.184   6.785
  194SOL     OW 1480   3.022   0.723   3.160
  194SOL    HW1 1481   3.083   0.658   3.205
  194SOL    HW2 1482   3.054   0.740   3.066
  195SOL     OW 1483   1.627   5.210   3.738
  195SOL    HW1 1484   1.592   5.301   3.761
  195SOL    HW2 1485   1.608   5.147   3.814
  196SOL     OW 1486   1.489   2.059   6.807
  196SOL    HW1 1487   1.411   2.122   6.807
  196SOL    HW2 1488   1.516   2.039   6.713
  197SOL     OW 1489   2.099   1.419   1.240
  197SOL    HW1 1490   2.047   1.466   1.312
  197SOL    HW2 1491   2.147   1.340   1.280
  198SOL     OW 1492   4.324   1.398   3.338
  198SOL    HW1 1493   4.359   1.397   3.432
  198SOL    HW2 1494   4.398   1.377   3.275
  199SOL     OW 1495   1.188   2.467   4.452
  199SOL    HW1 1496   1.127   2.428   4.521
  199SOL    HW2 1497   1.180   2.567   4.454
  200SOL     OW 1498   0.183   2.623   0.653
  200SOL    HW1 1499   0.171   2.647   0.750
  200SOL    HW2 1500   0.126   2.544   0.632
  201SOL     OW 1501   0.864   0.607   5.824
  201SOL    HW1 1502   0.878   0.569   5.732
  201SOL    HW2 1503   0.952   0.615   5.871
  202SOL     OW 1504   4.371   0.197   6.315
  202SOL    HW1 1505   4.346   0.250   6.396
  202SOL    HW2 1506   4.417   0.256   6.249
  203SOL     OW 1507   5.485   2.985   5.256
  203SOL    HW1 1508   5.546   2.927   5.310
  203SOL    HW2 1509   5.395   2.941   5.249
  204SOL     OW 1510   0.360   0.380   5.949
  204SOL    HW1 1511   0.435   0.445   5.940
  204SOL    HW2 1512   0.396   0.287   5.952
  205SOL     OW 1513   1.030   2.594   2.307
  205SOL    HW1 1514   1.081   2.626   2.227
  205SOL    HW2 1515   0.962   2.527   2.279
  206SOL     OW 1516   0.584   3.097   0.919
  206SOL    HW1 1517   0.511   3.162   0.939
  206SOL    HW2 1518   0.546   3.004   0.919
  207SOL     OW 1519   4.846   2.135   3.634
  207SOL    HW1 1520   4.819   2.042   3.655
  207SOL    HW2 1521   4.943   2.147   3.655
  208SOL     OW 1522   0.911   4.161   4.838
  208SOL    HW1 1523   0.983   4.140   4.905
  208SOL    HW2 1524   0.908   4.090   4.768
  209SOL     OW 1525   6.718   4.722   2.502
  209SOL    HW1 1526   6.704   4.752   2.596
  209SOL    HW2 1527   6.815   4.706   2.485
  210SOL     OW 1528   4.176   2.488   0.215
  210SOL    HW1 1529   4.081   2.467   0.236
  210SOL    HW2 1530   4.234   2.455   0.290
  211SOL     OW 1531   1.413   0.430   3.353
  211SOL    HW1 1532   1.447   0.417   3.446
  211SOL    HW2 1533   1.315   0.410   3.350
  212SOL     OW 1534   1.641   3.773   3.340
  212SOL    HW1 1535   1.588   3.778   3.256
  212SOL    HW2 1536   1.584   3.736   3.414
  213SOL     OW 1537   1.747   5.414   1.537
  213SOL    HW1 1538   1.677   5.480   1.512
  213SOL    HW2 1539   1.809   5.455   1.604
  214SOL     OW 1540   4.353   5.683   2.167
  214SOL    HW1 1541   4.291   5.616   2.209
  214SOL    HW2 1542   4.435   5.691   2.223
  215SOL     OW 1543   2.202   4.901   2.040
  215SOL    HW1 1544   2.126   4.889   2.104
  215SOL    HW2 1545   2.180   4.854   1.954
  216SOL     OW 1546   1.619   0.169   2.485
  216SOL    HW1 1547   1.639   0.118   2.402
  216SOL    HW2 1548   1.627   0.109   2.565
  217SOL     OW 1549   1.234   3.586   6.152
  217SOL    HW1 1550   1.156   3.622   6.101
  217SOL    HW2 1551   1.211   3.496   6.189
  218SOL     OW 1552   0.809   2.405   5.730
  218SOL    HW1 1553   0.879   2.477   5.731
  218SOL    HW2 1554   0.843   2.325   5.778
  219SOL     OW 1555   4.131   0.341   0.401
  219SOL    HW1 1556   4.120   0.440   0.409
  219SOL    HW2 1557   4.089   0.296   0.480
  220SOL     OW 1558   3.231   0.041   0.987
  220SOL    HW1 1559   3.212   0.137   0.962
  220SOL    HW2 1560   3.198   0.024   1.079
  221SOL     OW 1561   5.382   5.313   0.946
  221SOL    HW1 1562   5.341   5.397   0.910
  221SOL    HW2 1563   5.363   5.306   1.044
  222SOL     OW 1564   2.096   4.541   6.618
  222SOL    HW1 1565   2.141   4.587   6.542
  222SOL    HW2 1566   2.097   4.442   6.602
  223SOL     OW 1567   6.661   2.979   5.193
  223SOL    HW1 1568   6.739   2.925   5.224
  223SOL    HW2 1569   6.576   2.937   5.225
  224SOL     OW 1570   2.249   1.528   6.205
  224SOL    HW1 1571   2.212   1.608   6.156
  224SOL    HW2 1572   2.284   1.462   6.138
  225SOL     OW 1573   4.808   3.645   5.987
  225SOL    HW1 1574   4.897   3.683   5.961
  225SOL    HW2 1575   4.736   3.709   5.961
  226SOL     OW 1576   1.029   1.864   6.408
  226SOL    HW1 1577   1.049   1.781   6.355
  226SOL    HW2 1578   0.992   1.934   6.347
  227SOL     OW 1579   2.315   4.085   1.766
  227SOL    HW1 1580   2.384   4.145   1.726
  227SOL    HW2 1581   2.334   3.991   1.738
  228SOL     OW 1582   1.533   0.476   2.871
  228SOL    HW1 1583   1.477   0.544   2.823
  228SOL    HW2 1584   1.590   0.428   2.804
  229SOL     OW 1585   5.067   4.578   6.583
  229SOL    HW1 1586   5.137   4.599   6.515
  229SOL    HW2 1587   5.013   4.660   6.603
  230SOL     OW 1588   4.539   5.867   4.615
  230SOL    HW1 1589   4.494   5.910   4.694
  230SOL    HW2 1590   4.478   5.799   4.574
  231SOL     OW 1591   5.344   1.510   6.988
  231SOL    HW1 1592   5.321   1.607   6.985
  231SOL    HW2 1593   5.287   1.464   0.030
  232SOL     OW 1594   1.057   2.506   6.087
  232SOL    HW1 1595   1.155   2.487   6.093
  232SOL    HW2 1596   1.022   2.474   5.999
  233SOL     OW 1597   2.745   1.631   3.712
  233SOL    HW1 1598   2.775   1.673   3.627
  233SOL    HW2 1599   2.813   1.648   3.783
  234SOL     OW 1600   5.543   1.270   6.254
  234SOL    HW1 1601   5.552   1.370   6.249
  234SOL    HW2 1602   5.457   1.246   6.298
  235SOL     OW 1603   4.876   3.437   2.223
  235SOL    HW1 1604   4.960   3.401   2.263
  235SOL    HW2 1605   4.828   3.493   2.290
  236SOL     OW 1606   4.268   3.710   6.476
  236SOL    HW1 1607   4.280   3.809   6.468
  236SOL    HW2 1608   4.227   3.674   6.393
  237SOL     OW 1609   6.021   4.073   2.625
  237SOL    HW1 1610   5.961   4.152   2.613
  237SOL    HW2 1611   6.033   4.026   2.537
  238SOL     OW 1612   5.934   1.704   0.366
  238SOL    HW1 1613   5.970   1.772   0.303
  238SOL    HW2 1614   5.945   1.612   0.327
  239SOL     OW 1615   1.257   4.036   0.543
  239SOL    HW1 1616   1.333   4.091   0.578
  239SOL    HW2 1617   1.252   3.950   0.594
  240SOL     OW 1618   6.464   4.065   3.199
  240SOL    HW1 1619   6.392   4.048   3.266
  240SOL    HW2 1620   6.445   4.012   3.116
  241SOL     OW 1621   2.794   1.724   4.122
  241SOL    HW1 1622   2.729   1.750   4.193
  241SOL    HW2 1623   2.792   1.625   4.109
  242SOL     OW 1624   3.314   4.120   3.474
  242SOL    HW1 1625   3.332   4.097   3.378
  242SOL    HW2 1626   3.215   4.124   3.489
  243SOL     OW 1627   4.611   2.668   6.464
  243SOL    HW1 1628   4.579   2.627   6.550
  243SOL    HW2 1629   4.708   2.690   6.472
  244SOL     OW 1630   6.311   3.440   6.267
  244SOL    HW1 1631   6.277   3.371   6.203
  244SOL    HW2 1632   6.269   3.425   6.357
  245SOL     OW 1633   3.300   1.853   3.272
  245SOL    HW1 1634   3.388   1.812   3.296
  245SOL    HW2 1635   3.285   1.842   3.173
  246SOL     OW 1636   5.790   1.616   3.322
  246SOL    HW1 1637   5.830   1.653   3.406
  246SOL    HW2 1638   5.847   1.542   3.288
  247SOL     OW 1639   2.084   2.047   0.576
  247SOL    HW1 1640   2.036   1.962   0.594
  247SOL    HW2 1641   2.129   2.042   0.486
  248SOL     OW 1642   2.354   1.388   2.370
  248SOL    HW1 1643   2.319   1.436   2.290
  248SOL    HW2 1644   2.453   1.381   2.364
  249SOL     OW 1645   5.437   7.019   4.885
  249SOL    HW1 1646   5.514   6.964   4.851
  249SOL    HW2 1647   5.419   0.067   4.820
  250SOL     OW 1648   3.726   2.657   0.668
  250SOL    HW1 1649   3.775   2.603   0.737
  250SOL    HW2 1650   3.634   2.677   0.701
  251SOL     OW 1651   4.293   3.973   5.450
  251SOL    HW1 1652   4.205   4.011   5.480
  251SOL    HW2 1653   4.279   3.918   5.367
  252SOL     OW 1654   5.918   6.640   5.746
  252SOL    HW1 1655   5.976   6.721   5.742
  252SOL    HW2 1656   5.828   6.661   5.707
  253SOL     OW 1657   4.098   5.281   5.582
  253SOL    HW1 1658   4.018   5.243   5.627
  253SOL    HW2 1659   4.158   5.206   5.553
  254SOL     OW 1660   6.513   2.714   4.100
  254SOL    HW1 1661   6.550   2.642   4.158
  254SOL    HW2 1662   6.416   2.726   4.118
  255SOL     OW 1663   1.999   4.865   5.962
  255SOL    HW1 1664   2.043   4.798   6.022
  255SOL    HW2 1665   2.033   4.854   5.869
  256SOL     OW 1666   4.612   3.139   5.807
  256SOL    HW1 1667   4.708   3.132   5.834
  256SOL    HW2 1668   4.600   3.217   5.745
  257SOL     OW 1669   4.800   6.197   2.643
  257SOL    HW1 1670   4.869   6.223   2.710
  257SOL    HW2 1671   4.836   6.126   2.583
  258SOL     OW 1672   2.730   3.921   6.232
  258SOL    HW1 1673   2.807   3.980   6.256
  258SOL    HW2 1674   2.648   3.977   6.220
  259SOL     OW 1675   4.409   0.219   2.321
  259SOL    HW1 1676   4.365   0.150   2.379
  259SOL    HW2 1677   4.458   0.285   2.378
  260SOL     OW 1678   4.160   5.029   3.460
  260SOL    HW1 1679   4.259   5.019   3.471
  260SOL    HW2 1680   4.138   5.121   3.428
  261SOL     OW 1681   5.032   4.710   0.910
  261SOL    HW1 1682   4.936   4.732   0.894
  261SOL    HW2 1683   5.063   4.645   0.841
  262SOL     OW 1684   2.077   3.711   0.861
  262SOL    HW1 1685   2.000   3.717   0.923
  262SOL    HW2 1686   2.078   3.789   0.799
  263SOL     OW 1687   1.390   0.063   4.288
  263SOL    HW1 1688   1.484   0.091   4.308
  263SOL    HW2 1689   1.390   6.994   4.257
  264SOL     OW 1690   6.978   2.877   0.045
  264SOL    HW1 1691   7.013   2.924   6.990
  264SOL    HW2 1692   0.015   2.803   0.070
  265SOL     OW 1693   5.920   6.790   3.964
  265SOL    HW1 1694   5.903   6.879   4.007
  265SOL    HW2 1695   5.948   6.725   4.035
  266SOL     OW 1696   5.154   2.390   5.677
  266SOL    HW1 1697   5.092   2.359   5.749
  266SOL    HW2 1698   5.103   2.443   5.609
  267SOL     OW 1699   1.358   0.998   5.139
  267SOL    HW1 1700   1.409   0.968   5.058
  267SOL    HW2 1701   1.389   0.946   5.219
  268SOL     OW 1702   4.013   1.211   0.322
  268SOL    HW1 1703   4.075   1.184   0.248
  268SOL    HW2 1704   3.921   1.177   0.303
  269SOL     OW 1705   3.129   1.946   0.118
  269SOL    HW1 1706   3.109   1.943   0.020
  269SOL    HW2 1707   3.061   2.002   0.165
  270SOL     OW 1708   0.424   6.837   6.887
  270SOL    HW1 1709   0.425   6.861   6.984
  270SOL    HW2 1710   0.387   6.745   6.875
  271SOL     OW 1711   0.241   1.893   6.398
  271SOL    HW1 1712   0.329   1.932   6.372
  271SOL    HW2 1713   0.200   1.947   6.471
  272SOL     OW 1714   3.326   5.720   3.982
  272SOL    HW1 1715   3.352   5.722   4.079
  272SOL    HW2 1716   3.251   5.784   3.967
  273SOL     OW 1717   1.789   4.798   5.437
  273SOL    HW1 1718   1.828   4.706   5.444
  273SOL    HW2 1719   1.863   4.865   5.432
  274SOL     OW 1720   3.780   1.074   4.293
  274SOL    HW1 1721   3.752   0.995   4.347
  274SOL    HW2 1722   3.874   1.063   4.263
  275SOL     OW 1723   0.321   6.914   2.629
  275SOL    HW1 1724   0.315   6.982   2.556
  275SOL    HW2 1725   0.231   6.875   2.645
  276SOL     OW 1726   0.681   0.321   4.597
  276SOL    HW1 1727   0.723   0.232   4.580
  276SOL    HW2 1728   0.751   0.387   4.625
  277SOL     OW 1729   2.251   2.911   0.597
  277SOL    HW1 1730   2.332   2.853   0.611
  277SOL    HW2 1731   2.259   2.957   0.508
  278SOL     OW 1732   7.012   2.755   3.121
  278SOL    HW1 1733   6.976   2.757   3.214
  278SOL    HW2 1734   0.000   2.660   3.093
  279SOL     OW 1735   5.430   2.828   4.400
  279SOL    HW1 1736   5.519   2.808   4.440
  279SOL    HW2 1737   5.366   2.754   4.421
  280SOL     OW 1738   1.822   4.956   2.110
  280SOL    HW1 1739   1.818   5.031   2.176
  280SOL    HW2 1740   1.783   4.987   2.023
  281SOL     OW 1741   2.399   4.032   1.031
  281SOL    HW1 1742   2.444   4.103   1.085
  281SOL    HW2 1743   2.301   4.054   1.023
  282SOL     OW 1744   3.577   1.998   6.185
  282SOL    HW1 1745   3.619   2.057   6.253
  282SOL    HW2 1746   3.513   2.052   6.129
  283SOL     OW 1747   5.326   2.912   6.602
  283SOL    HW1 1748   5.270   2.874   6.529
  283SOL    HW2 1749   5.423   2.906   6.576
  284SOL     OW 1750   0.752   3.314   3.583
  284SOL    HW1 1751   0.803   3.341   3.664
  284SOL    HW2 1752   0.816   3.295   3.508
  285SOL     OW 1753   5.871   4.562   3.830
  285SOL    HW1 1754   5.850   4.530   3.738
  285SOL    HW2 1755   5.966   4.595   3.833
  286SOL     OW 1756   3.371   3.883   6.848
  286SOL    HW1 1757   3.282   3.895   6.891
  286SOL    HW2 1758   3.390   3.786   6.835
  287SOL     OW 1759   1.868   3.610   0.651
  287SOL    HW1 1760   1.872   3.512   0.674
  287SOL    HW2 1761   1.950   3.655   0.685
  288SOL     OW 1762   4.521   1.582   0.040
  288SOL    HW1 1763   4.592   1.605   0.107
  288SOL    HW2 1764   4.544   1.496   7.022
  289SOL     OW 1765   2.467   4.584   5.960
  289SOL    HW1 1766   2.436   4.517   5.893
  289SOL    HW2 1767   2.465   4.675   5.919
  290SOL     OW 1768   0.173   2.122   5.484
  290SOL    HW1 1769   0.073   2.113   5.490
  290SOL    HW2 1770   0.212   2.104   5.574
  291SOL     OW 1771   0.340   1.572   2.931
  291SOL    HW1 1772   0.312   1.648   2.872
  291SOL    HW2 1773   0.440   1.572   2.938
  292SOL     OW 1774   2.159   0.616   3.209
  292SOL    HW1 1775   2.072   0.657   3.236
  292SOL    HW2 1776   2.145   0.522   3.181
  293SOL     OW 1777   4.452   5.247   4.451
  293SOL    HW1 1778   4.428   5.198   4.367
  293SOL    HW2 1779   4.380   5.312   4.473
  294SOL     OW 1780   5.624   6.569   6.367
  294SOL    HW1 1781   5.568   6.564   6.285
  294SOL    HW2 1782   5.713   6.610   6.345
  295SOL     OW 1783   5.060   0.533   3.806
  295SOL    HW1 1784   5.038   0.538   3.708
  295SOL    HW2 1785   5.064   0.626   3.843
  296SOL     OW 1786   2.910   1.781   3.236
  296SOL    HW1 1787   2.912   1.881   3.235
  296SOL    HW2 1788   3.001   1.745   3.212
  297SOL     OW 1789   1.446   3.712   3.831
  297SOL    HW1 1790   1.389   3.642   3.874
  297SOL    HW2 1791   1.435   3.799   3.880
  298SOL     OW 1792   5.934   5.397   1.022
  298SOL    HW1 1793   5.909   5.319   0.964
  298SOL    HW2 1794   5.949   5.366   1.116
  299SOL     OW 1795   6.186   2.780   4.817
  299SOL    HW1 1796   6.244   2.777   4.735
  299SOL    HW2 1797   6.241   2.756   4.897
  300SOL     OW 1798   5.897   0.754   3.058
  300SOL    HW1 1799   5.918   0.768   3.154
  300SOL    HW2 1800   5.915   0.838   3.007
  301SOL     OW 1801   5.525   3.395   6.429
  301SOL    HW1 1802   5.611   3.377   6.381
  301SOL    HW2 1803   5.540   3.467   6.497
  302SOL     OW 1804   0.779   0.235   3.969
  302SOL    HW1 1805   0.681   0.231   3.948
  302SOL    HW2 1806   0.829   0.261   3.886
  303SOL     OW 1807   5.289   0.651   3.102
  303SOL    HW1 1808   5.273   0.722   3.170
  303SOL    HW2 1809   5.335   0.573   3.145
  304SOL     OW 1810   2.300   0.211   3.750
  304SOL    HW1 1811   2.367   0.141   3.726
  304SOL    HW2 1812   2.218   0.167   3.786
  305SOL     OW 1813   1.340   3.616   0.461
  305SOL    HW1 1814   1.270   3.630   0.531
  305SOL    HW2 1815   1.428   3.652   0.493
  306SOL     OW 1816   2.075   1.249   4.157
  306SOL    HW1 1817   2.086   1.345   4.129
  306SOL    HW2 1818   2.104   1.239   4.252
  307SOL     OW 1819   4.168   0.057   0.956
  307SOL    HW1 1820   4.264   0.083   0.959
  307SOL    HW2 1821   4.121   0.095   1.036
  308SOL     OW 1822   0.921   5.987   3.736
  308SOL    HW1 1823   1.008   5.950   3.702
  308SOL    HW2 1824   0.907   5.958   3.831
  309SOL     OW 1825   3.362   5.029   5.218
  309SOL    HW1 1826   3.352   5.128   5.230
  309SOL    HW2 1827   3.370   5.009   5.120
  310SOL     OW 1828   0.433   6.069   5.554
  310SOL    HW1 1829   0.378   6.152   5.557
  310SOL    HW2 1830   0.398   6.004   5.621
  311SOL     OW 1831   0.622   6.361   1.406
  311SOL    HW1 1832   0.672   6.280   1.435
  311SOL    HW2 1833   0.532   6.334   1.373
  312SOL     OW 1834   4.673   1.962   5.127
  312SOL    HW1 1835   4.769   1.937   5.116
  312SOL    HW2 1836   4.639   2.001   5.041
  313SOL     OW 1837   1.921   4.161   1.850
  313SOL    HW1 1838   1.965   4.092   1.909
  313SOL    HW2 1839   1.911   4.246   1.901
  314SOL     OW 1840   3.537   6.093   0.320
  314SOL    HW1 1841   3.473   6.070   0.394
  314SOL    HW2 1842   3.620   6.039   0.330
  315SOL     OW 1843   0.817   2.037   3.296
  315SOL    HW1 1844   0.888   2.091   3.341
  315SOL    HW2 1845   0.728   2.082   3.308
  316SOL     OW 1846   2.580   2.473   3.884
  316SOL    HW1 1847   2.666   2.423   3.884
  316SOL    HW2 1848   2.563   2.511   3.975
  317SOL     OW 1849   6.756   1.523   0.200
  317SOL    HW1 1850   6.689   1.562   0.263
  317SOL    HW2 1851   6.844   1.515   0.247
  318SOL     OW 1852   2.176   4.098   0.855
  318SOL    HW1 1853   2.254   4.120   0.795
  318SOL    HW2 1854   2.101   4.063   0.799
  319SOL     OW 1855   1.880   6.254   0.778
  319SOL    HW1 1856   1.822   6.240   0.858
  319SOL    HW2 1857   1.860   6.344   0.738
  320SOL     OW 1858   5.941   3.183   0.628
  320SOL    HW1 1859   5.858   3.224   0.592
  320SOL    HW2 1860   5.995   3.144   0.552
  321SOL     OW 1861   1.936   2.931   1.144
  321SOL    HW1 1862   2.024   2.894   1.112
  321SOL    HW2 1863   1.938   3.031   1.136
  322SOL     OW 1864   3.684   3.224   5.226
  322SOL    HW1 1865   3.738   3.255   5.304
  322SOL    HW2 1866   3.728   3.145   5.184
  323SOL     OW 1867   7.010   4.167   1.399
  323SOL    HW1 1868   6.994   4.156   1.300
  323SOL    HW2 1869   0.019   4.259   1.416
  324SOL     OW 1870   0.736   2.606   4.869
  324SOL    HW1 1871   0.799   2.632   4.796
  324SOL    HW2 1872   0.753   2.511   4.896
  325SOL     OW 1873   2.166   2.925   1.887
  325SOL    HW1 1874   2.205   3.017   1.894
  325SOL    HW2 1875   2.239   2.858   1.880
  326SOL     OW 1876   1.561   5.309   6.423
  326SOL    HW1 1877   1.628   5.355   6.481
  326SOL    HW2 1878   1.582   5.211   6.419
  327SOL     OW 1879   6.402   4.935   5.454
  327SOL    HW1 1880   6.434   4.902   5.365
  327SOL    HW2 1881   6.303   4.946   5.452
  328SOL     OW 1882   4.122   5.217   2.331
  328SOL    HW1 1883   4.218   5.192   2.331
  328SOL    HW2 1884   4.068   5.144   2.373
  329SOL     OW 1885   3.596   3.823   3.537
  329SOL    HW1 1886   3.501   3.798   3.517
  329SOL    HW2 1887   3.651   3.740   3.549
  330SOL     OW 1888   3.649   0.247   1.879
  330SOL    HW1 1889   3.704   0.272   1.799
  330SOL    HW2 1890   3.646   0.148   1.887
  331SOL     OW 1891   4.989   5.145   5.821
  331SOL    HW1 1892   4.971   5.241   5.799
  331SOL    HW2 1893   5.079   5.118   5.786
  332SOL     OW 1894   3.264   2.010   2.949
  332SOL    HW1 1895   3.264   2.074   3.026
  332SOL    HW2 1896   3.358   1.995   2.919
  333SOL     OW 1897   4.019   5.944   6.327
  333SOL    HW1 1898   4.106   5.894   6.328
  333SOL    HW2 1899   4.034   6.038   6.357
  334SOL     OW 1900   4.017   0.137   2.321
  334SOL    HW1 1901   3.924   0.171   2.337
  334SOL    HW2 1902   4.013   0.043   2.287
  335SOL     OW 1903   3.193   6.832   3.309
  335SOL    HW1 1904   3.211   6.756   3.372
  335SOL    HW2 1905   3.149   6.796   3.227
  336SOL     OW 1906   3.370   0.911   3.826
  336SOL    HW1 1907   3.442   0.968   3.864
  336SOL    HW2 1908   3.291   0.968   3.801
  337SOL     OW 1909   6.736   3.888   1.242
  337SOL    HW1 1910   6.638   3.877   1.230
  337SOL    HW2 1911   6.783   3.806   1.207
  338SOL     OW 1912   3.382   2.871   1.442
  338SOL    HW1 1913   3.437   2.788   1.429
  338SOL    HW2 1914   3.287   2.852   1.419
  339SOL     OW 1915   4.590   6.494   2.820
  339SOL    HW1 1916   4.685   6.467   2.836
  339SOL    HW2 1917   4.535   6.413   2.798
  340SOL     OW 1918   4.811   4.041   4.667
  340SOL    HW1 1919   4.821   3.950   4.706
  340SOL    HW2 1920   4.733   4.087   4.709
  341SOL     OW 1921   5.594   5.418   4.664
  341SOL    HW1 1922   5.574   5.510   4.697
  341SOL    HW2 1923   5.540   5.399   4.582
  342SOL     OW 1924   6.223   4.618   0.849
  342SOL    HW1 1925   6.285   4.642   0.925
  342SOL    HW2 1926   6.256   4.660   0.765
  343SOL     OW 1927   3.224   0.562   2.176
  343SOL    HW1 1928   3.173   0.508   2.243
  343SOL    HW2 1929   3.165   0.633   2.139
  344SOL     OW 1930   2.330   5.078   0.559
  344SOL    HW1 1931   2.354   4.981   0.563
  344SOL    HW2 1932   2.380   5.128   0.630
  345SOL     OW 1933   0.922   0.299   4.874
  345SOL    HW1 1934   0.860   0.231   4.912
  345SOL    HW2 1935   1.016   0.263   4.876
  346SOL     OW 1936   1.134   0.224   2.830
  346SOL    HW1 1937   1.184   0.159   2.773
  346SOL    HW2 1938   1.167   0.218   2.924
  347SOL     OW 1939   4.915   6.855   6.527
  347SOL    HW1 1940   4.902   6.832   6.623
  347SOL    HW2 1941   4.910   6.954   6.516
  348SOL     OW 1942   3.740   5.502   1.727
  348SOL    HW1 1943   3.721   5.572   1.796
  348SOL    HW2 1944   3.839   5.492   1.715
  349SOL     OW 1945   0.828   4.334   2.281
  349SOL    HW1 1946   0.890   4.400   2.323
  349SOL    HW2 1947   0.825   4.250   2.336
  350SOL     OW 1948   4.130   3.456   1.149
  350SOL    HW1 1949   4.207   3.442   1.212
  350SOL    HW2 1950   4.044   3.456   1.200
  351SOL     OW 1951   3.031   1.729   0.257
  351SOL    HW1 1952   3.114   1.674   0.241
  351SOL    HW2 1953   3.024   1.799   0.186
  352SOL     OW 1954   2.975   0.899   6.528
  352SOL    HW1 1955   2.897   0.960   6.542
  352SOL    HW2 1956   3.050   0.950   6.488
  353SOL     OW 1957   2.018   6.304   1.249
  353SOL    HW1 1958   1.969   6.385   1.216
  353SOL    HW2 1959   1.997   6.290   1.346
  354SOL     OW 1960   4.605   1.345   0.861
  354SOL    HW1 1961   4.678   1.350   0.929
  354SOL    HW2 1962   4.580   1.438   0.833
  355SOL     OW 1963   0.158   2.938   2.477
  355SOL    HW1 1964   0.078   2.967   2.424
  355SOL    HW2 1965   0.129   2.872   2.547
  356SOL     OW 1966   4.131   5.329   3.375
  356SOL    HW1 1967   4.033   5.313   3.362
  356SOL    HW2 1968   4.179   5.308   3.290
  357SOL     OW 1969   0.145   5.381   5.284
  357SOL    HW1 1970   0.171   5.448   5.354
  357SOL    HW2 1971   0.046   5.388   5.268
  358SOL     OW 1972   5.421   0.345   1.291
  358SOL    HW1 1973   5.465   0.275   1.235
  358SOL    HW2 1974   5.459   0.434   1.269
  359SOL     OW 1975   1.484   1.684   1.820
  359SOL    HW1 1976   1.396   1.701   1.864
  359SOL    HW2 1977   1.539   1.623   1.878
  360SOL     OW 1978   4.007   6.896   0.048
  360SOL    HW1 1979   4.029   6.807   0.009
  360SOL    HW2 1980   3.987   6.961   7.001
  361SOL     OW 1981   4.421   6.854   2.397
  361SOL    HW1 1982   4.434   6.911   2.316
  361SOL    HW2 1983   4.478   6.890   2.472
  362SOL     OW 1984   3.124   3.441   1.013
  362SOL    HW1 1985   3.087   3.533   1.028
  362SOL    HW2 1986   3.189   3.420   1.085
  363SOL     OW 1987   4.436   4.562   4.466
  363SOL    HW1 1988   4.394   4.515   4.543
  363SOL    HW2 1989   4.452   4.658   4.490
  364SOL     OW 1990   1.037   5.587   5.612
  364SOL    HW1 1991   1.002   5.518   5.549
  364SOL    HW2 1992   1.097   5.544   5.679
  365SOL     OW 1993   4.522   6.447   1.892
  365SOL    HW1 1994   4.555   6.455   1.797
  365SOL    HW2 1995   4.582   6.385   1.942
  366SOL     OW 1996   6.064   1.117   6.857
  366SOL    HW1 1997   5.964   1.118   6.858
  366SOL    HW2 1998   6.098   1.193   6.911
  367SOL     OW 1999   5.367   2.424   1.107
  367SOL    HW1 2000   5.327   2.365   1.037
  367SOL    HW2 2001   5.301   2.438   1.181
  368SOL     OW 2002   1.007   4.908   4.921
  368SOL    HW1 2003   0.934   4.951   4.975
  368SOL    HW2 2004   1.024   4.962   4.839
  369SOL     OW 2005   1.100   3.624   1.850
  369SOL    HW1 2006   1.084   3.546   1.911
  369SOL    HW2 2007   1.143   3.592   1.766
  370SOL     OW 2008   3.619   1.482   5.567
  370SOL    HW1 2009   3.665   1.556   5.518
  370SOL    HW2 2010   3.521   1.486   5.549
  371SOL     OW 2011   4.102   2.575   7.000
  371SOL    HW1 2012   4.126   2.548   0.067
  371SOL    HW2 2013   4.085   2.674   6.997
  372SOL     OW 2014   0.583   6.078   6.394
  372SOL    HW1 2015   0.540   6.164   6.367
  372SOL    HW2 2016   0.551   6.005   6.334
  373SOL     OW 2017   0.008   6.899   0.187
  373SOL    HW1 2018   0.024   6.844   0.105
  373SOL    HW2 2019   6.957   6.862   0.238
  374SOL     OW 2020   3.282   0.922   1.479
  374SOL    HW1 2021   3.191   0.938   1.517
  374SOL    HW2 2022   3.309   0.827   1.495
  375SOL     OW 2023   6.927   4.993   3.263
  375SOL    HW1 2024   6.861   5.057   3.222
  375SOL    HW2 2025   6.881   4.906   3.282
  376SOL     OW 2026   2.407   2.774   3.890
  376SOL    HW1 2027   2.457   2.724   3.961
  376SOL    HW2 2028   2.352   2.710   3.837
  377SOL     OW 2029   4.824   1.872   3.696
  377SOL    HW1 2030   4.773   1.792   3.727
  377SOL    HW2 2031   4.917   1.846   3.670
  378SOL     OW 2032   5.179   2.811   4.933
  378SOL    HW1 2033   5.088   2.852   4.944
  378SOL    HW2 2034   5.226   2.856   4.856
  379SOL     OW 2035   6.462   3.876   1.197
  379SOL    HW1 2036   6.442   3.838   1.106
  379SOL    HW2 2037   6.433   3.811   1.267
  380SOL     OW 2038   1.101   2.229   1.068
  380SOL    HW1 2039   1.087   2.294   0.993
  380SOL    HW2 2040   1.196   2.232   1.097
  381SOL     OW 2041   3.779   3.496   1.058
  381SOL    HW1 2042   3.826   3.461   1.139
  381SOL    HW2 2043   3.683   3.514   1.079
  382SOL     OW 2044   2.683   5.982   0.983
  382SOL    HW1 2045   2.680   5.903   0.922
  382SOL    HW2 2046   2.595   5.993   1.029
  383SOL     OW 2047   6.158   2.534   0.164
  383SOL    HW1 2048   6.154   2.478   0.246
  383SOL    HW2 2049   6.147   2.630   0.189
  384SOL     OW 2050   1.672   5.495   5.203
  384SOL    HW1 2051   1.744   5.425   5.201
  384SOL    HW2 2052   1.589   5.456   5.241
  385SOL     OW 2053   4.760   5.637   0.562
  385SOL    HW1 2054   4.661   5.642   0.577
  385SOL    HW2 2055   4.781   5.562   0.499
  386SOL     OW 2056   3.279   6.328   5.866
  386SOL    HW1 2057   3.244   6.414   5.830
  386SOL    HW2 2058   3.354   6.295   5.809
  387SOL     OW 2059   0.275   0.738   5.383
  387SOL    HW1 2060   0.353   0.699   5.333
  387SOL    HW2 2061   0.204   0.669   5.393
  388SOL     OW 2062   6.270   2.505   5.046
  388SOL    HW1 2063   6.262   2.426   5.105
  388SOL    HW2 2064   6.358   2.502   4.998
  389SOL     OW 2065   4.074   4.806   1.463
  389SOL    HW1 2066   3.995   4.828   1.519
  389SOL    HW2 2067   4.149   4.774   1.522
  390SOL     OW 2068   3.506   2.011   0.381
  390SOL    HW1 2069   3.471   1.918   0.374
  390SOL    HW2 2070   3.514   2.051   0.289
  391SOL     OW 2071   3.243   4.500   5.459
  391SOL    HW1 2072   3.232   4.476   5.555
  391SOL    HW2 2073   3.198   4.587   5.440
  392SOL     OW 2074   1.360   3.435   1.871
  392SOL    HW1 2075   1.459   3.418   1.869
  392SOL    HW2 2076   1.343   3.522   1.918
  393SOL     OW 2077   1.162   4.025   1.921
  393SOL    HW1 2078   1.118   4.096   1.865
  393SOL    HW2 2079   1.106   3.942   1.919
  394SOL     OW 2080   0.305   1.194   6.613
  394SOL    HW1 2081   0.402   1.217   6.620
  394SOL    HW2 2082   0.284   1.121   6.678
  395SOL     OW 2083   5.444   4.821   1.323
  395SOL    HW1 2084   5.434   4.728   1.358
  395SOL    HW2 2085   5.534   4.829   1.278
  396SOL     OW 2086   2.028   1.048   1.909
  396SOL    HW1 2087   1.963   1.056   1.985
  396SOL    HW2 2088   1.994   1.099   1.830
  397SOL     OW 2089   4.420   2.049   5.229
  397SOL    HW1 2090   4.343   2.019   5.173
  397SOL    HW2 2091   4.502   1.998   5.204
  398SOL     OW 2092   1.544   1.415   4.543
  398SOL    HW1 2093   1.622   1.408   4.604
  398SOL    HW2 2094   1.561   1.487   4.475
  399SOL     OW 2095   5.984   6.163   3.830
  399SOL    HW1 2096   5.961   6.067   3.814
  399SOL    HW2 2097   5.900   6.217   3.831
  400SOL     OW 2098   6.148   0.435   4.587
  400SOL    HW1 2099   6.109   0.516   4.544
  400SOL    HW2 2100   6.248   0.435   4.574
  401SOL     OW 2101   0.249   4.827   5.984
  401SOL    HW1 2102   0.278   4.895   6.051
  401SOL    HW2 2103   0.229   4.873   5.897
  402SOL     OW 2104   6.309   0.838   2.885
  402SOL    HW1 2105   6.297   0.771   2.959
  402SOL    HW2 2106   6.381   0.807   2.823
  403SOL     OW 2107   2.698   1.062   5.035
  403SOL    HW1 2108   2.713   1.140   5.095
  403SOL    HW2 2109   2.706   0.977   5.087
  404SOL     OW 2110   3.541   5.440   3.639
  404SOL    HW1 2111   3.465   5.380   3.613
  404SOL    HW2 2112   3.513   5.535   3.625
  405SOL     OW 2113   2.266   4.804   4.550
  405SOL    HW1 2114   2.331   4.830   4.478
  405SOL    HW2 2115   2.214   4.885   4.578
  406SOL     OW 2116   0.027   5.668   5.257
  406SOL    HW1 2117   6.970   5.648   5.308
  406SOL    HW2 2118   0.104   5.676   5.320
  407SOL     OW 2119   1.875   3.305   4.483
  407SOL    HW1 2120   1.968   3.317   4.519
  407SOL    HW2 2121   1.831   3.229   4.531
  408SOL     OW 2122   2.498   1.640   3.817
  408SOL    HW1 2123   2.595   1.621   3.799
  408SOL    HW2 2124   2.470   1.721   3.766
  409SOL     OW 2125   0.157   3.464   2.631
  409SOL    HW1 2126   0.163   3.379   2.683
  409SOL    HW2 2127   0.158   3.542   2.693
  410SOL     OW 2128   1.879   1.129   1.684
  410SOL    HW1 2129   1.863   1.172   1.594
  410SOL    HW2 2130   1.813   1.056   1.698
  411SOL     OW 2131   0.505   3.105   1.560
  411SOL    HW1 2132   0.502   3.204   1.579
  411SOL    HW2 2133   0.436   3.059   1.616
  412SOL     OW 2134   1.365   5.266   2.507
  412SOL    HW1 2135   1.345   5.203   2.432
  412SOL    HW2 2136   1.335   5.225   2.594
  413SOL     OW 2137   5.416   6.005   2.417
  413SOL    HW1 2138   5.380   6.096   2.439
  413SOL    HW2 2139   5.348   5.936   2.442
  414SOL     OW 2140   2.075   6.515   3.490
  414SOL    HW1 2141   2.007   6.583   3.462
  414SOL    HW2 2142   2.160   6.532   3.441
  415SOL     OW 2143   5.970   1.095   0.257
  415SOL    HW1 2144   5.890   1.136   0.300
  415SOL    HW2 2145   6.048   1.099   0.320
  416SOL     OW 2146   5.383   3.082   4.985
  416SOL    HW1 2147   5.449   3.076   5.060
  416SOL    HW2 2148   5.292   3.102   5.022
  417SOL     OW 2149   1.980   1.956   6.154
  417SOL    HW1 2150   2.055   1.972   6.217
  417SOL    HW2 2151   1.926   1.877   6.185
  418SOL     OW 2152   4.044   6.600   4.405
  418SOL    HW1 2153   3.951   6.606   4.441
  418SOL    HW2 2154   4.085   6.512   4.431
  419SOL     OW 2155   0.254   0.210   0.939
  419SOL    HW1 2156   0.188   0.286   0.943
  419SOL    HW2 2157   0.205   0.126   0.915
  420SOL     OW 2158   4.700   0.912   6.814
  420SOL    HW1 2159   4.606   0.948   6.817
  420SOL    HW2 2160   4.761   0.983   6.779
  421SOL     OW 2161   5.264   3.686   2.676
  421SOL    HW1 2162   5.193   3.655   2.613
  421SOL    HW2 2163   5.352   3.645   2.650
  422SOL     OW 2164   4.998   3.205   1.756
  422SOL    HW1 2165   4.969   3.258   1.835
  422SOL    HW2 2166   4.954   3.115   1.758
  423SOL     OW 2167   3.411   0.990   6.645
  423SOL    HW1 2168   3.475   0.983   6.569
  423SOL    HW2 2169   3.454   0.952   6.727
  424SOL     OW 2170   1.164   3.652   3.716
  424SOL    HW1 2171   1.212   3.663   3.803
  424SOL    HW2 2172   1.160   3.555   3.692
  425SOL     OW 2173   2.603   0.841   5.938
  425SOL    HW1 2174   2.525   0.841   5.999
  425SOL    HW2 2175   2.665   0.766   5.962
  426SOL     OW 2176   2.614   2.152   4.185
  426SOL    HW1 2177   2.528   2.198   4.207
  426SOL    HW2 2178   2.690   2.215   4.200
  427SOL     OW 2179   4.089   2.040   3.047
  427SOL    HW1 2180   4.073   1.944   3.070
  427SOL    HW2 2181   4.116   2.090   3.129
  428SOL     OW 2182   2.874   2.153   5.951
  428SOL    HW1 2183   2.855   2.054   5.954
  428SOL    HW2 2184   2.904   2.178   5.860
  429SOL     OW 2185   0.533   5.576   4.281
  429SOL    HW1 2186   0.623   5.618   4.285
  429SOL    HW2 2187   0.500   5.577   4.186
  430SOL     OW 2188   1.480   0.155   3.854
  430SOL    HW1 2189   1.452   0.065   3.888
  430SOL    HW2 2190   1.567   0.181   3.897
  431SOL     OW 2191   2.593   1.929   0.974
  431SOL    HW1 2192   2.567   2.025   0.983
  431SOL    HW2 2193   2.677   1.913   1.027
  432SOL     OW 2194   4.905   1.990   1.952
  432SOL    HW1 2195   4.970   2.002   2.027
  432SOL    HW2 2196   4.824   1.941   1.985
  433SOL     OW 2197   1.600   5.189   0.904
  433SOL    HW1 2198   1.668   5.136   0.955
  433SOL    HW2 2199   1.519   5.203   0.960
  434SOL     OW 2200   4.230   5.919   3.739
  434SOL    HW1 2201   4.309   5.980   3.728
  434SOL    HW2 2202   4.182   5.910   3.652
  435SOL     OW 2203   3.919   1.727   5.922
  435SOL    HW1 2204   3.924   1.643   5.869
  435SOL    HW2 2205   3.852   1.717   5.995
  436SOL     OW 2206   4.907   0.043   2.949
  436SOL    HW1 2207   4.864   0.103   3.017
  436SOL    HW2 2208   4.863   6.979   2.953
  437SOL     OW 2209   6.336   0.764   4.861
  437SOL    HW1 2210   6.260   0.772   4.924
  437SOL    HW2 2211   6.418   0.734   4.910
  438SOL     OW 2212   0.110   4.605   2.789
  438SOL    HW1 2213   0.107   4.655   2.876
  438SOL    HW2 2214   0.060   4.519   2.798
  439SOL     OW 2215   0.094   0.732   4.578
  439SOL    HW1 2216   0.013   0.750   4.634
  439SOL    HW2 2217   0.175   0.731   4.636
  440SOL     OW 2218   3.855   1.346   0.502
  440SOL    HW1 2219   3.901   1.374   0.586
  440SOL    HW2 2220   3.921   1.302   0.441
  441SOL     OW 2221   0.042   4.313   2.842
  441SOL    HW1 2222   0.065   4.262   2.759
  441SOL    HW2 2223   0.125   4.332   2.894
  442SOL     OW 2224   5.562   3.038   5.600
  442SOL    HW1 2225   5.463   3.054   5.605
  442SOL    HW2 2226   5.609   3.125   5.588
  443SOL     OW 2227   5.208   3.563   1.833
  443SOL    HW1 2228   5.134   3.567   1.900
  443SOL    HW2 2229   5.293   3.536   1.879
  444SOL     OW 2230   4.036   0.960   1.654
  444SOL    HW1 2231   3.971   0.903   1.704
  444SOL    HW2 2232   4.128   0.943   1.688
  445SOL     OW 2233   1.649   5.495   2.546
  445SOL    HW1 2234   1.619   5.495   2.641
  445SOL    HW2 2235   1.570   5.498   2.486
  446SOL     OW 2236   5.364   0.090   1.468
  446SOL    HW1 2237   5.330   0.021   1.406
  446SOL    HW2 2238   5.375   0.177   1.419
  447SOL     OW 2239   5.867   4.402   1.171
  447SOL    HW1 2240   5.937   4.474   1.173
  447SOL    HW2 2241   5.898   4.325   1.227
  448SOL     OW 2242   2.349   0.000   3.024
  448SOL    HW1 2243   2.301   6.957   2.970
  448SOL    HW2 2244   2.345   0.088   2.976
  449SOL     OW 2245   1.501   3.938   4.761
  449SOL    HW1 2246   1.578   3.960   4.702
  449SOL    HW2 2247   1.432   4.010   4.754
  450SOL     OW 2248   0.509   4.638   3.755
  450SOL    HW1 2249   0.551   4.602   3.839
  450SOL    HW2 2250   0.525   4.737   3.750
  451SOL     OW 2251   1.102   2.031   1.572
  451SOL    HW1 2252   1.066   2.041   1.480
  451SOL    HW2 2253   1.201   2.017   1.568
  452SOL     OW 2254   4.606   5.589   2.238
  452SOL    HW1 2255   4.665   5.559   2.162
  452SOL    HW2 2256   4.530   5.526   2.249
  453SOL     OW 2257   3.268   0.759   6.258
  453SOL    HW1 2258   3.296   0.711   6.341
  453SOL    HW2 2259   3.203   0.703   6.207
  454SOL     OW 2260   6.708   3.255   6.839
  454SOL    HW1 2261   6.729   3.169   6.884
  454SOL    HW2 2262   6.705   3.329   6.906
  455SOL     OW 2263   6.379   4.856   5.973
  455SOL    HW1 2264   6.406   4.842   5.878
  455SOL    HW2 2265   6.459   4.881   6.028
  456SOL     OW 2266   2.704   0.857   2.880
  456SOL    HW1 2267   2.672   0.872   2.786
  456SOL    HW2 2268   2.627   0.832   2.938
  457SOL     OW 2269   2.346   6.737   0.160
  457SOL    HW1 2270   2.402   6.659   0.188
  457SOL    HW2 2271   2.381   6.774   0.074
  458SOL     OW 2272   2.811   1.845   3.486
  458SOL    HW1 2273   2.834   1.792   3.404
  458SOL    HW2 2274   2.757   1.925   3.460
  459SOL     OW 2275   3.973   6.908   3.380
  459SOL    HW1 2276   3.914   6.986   3.359
  459SOL    HW2 2277   4.047   6.938   3.440
  460SOL     OW 2278   0.991   1.384   6.180
  460SOL    HW1 2279   1.017   1.288   6.191
  460SOL    HW2 2280   0.975   1.404   6.084
  461SOL     OW 2281   0.801   4.895   5.275
  461SOL    HW1 2282   0.874   4.832   5.299
  461SOL    HW2 2283   0.726   4.886   5.341
  462SOL     OW 2284   3.851   4.078   4.694
  462SOL    HW1 2285   3.936   4.129   4.682
  462SOL    HW2 2286   3.808   4.065   4.604
  463SOL     OW 2287   5.177   6.573   3.526
  463SOL    HW1 2288   5.212   6.666   3.534
  463SOL    HW2 2289   5.242   6.509   3.567
  464SOL     OW 2290   4.013   5.138   6.645
  464SOL    HW1 2291   3.940   5.094   6.593
  464SOL    HW2 2292   4.089   5.160   6.583
  465SOL     OW 2293   0.732   3.976   1.172
  465SOL    HW1 2294   0.812   3.919   1.192
  465SOL    HW2 2295   0.744   4.066   1.215
  466SOL     OW 2296   4.066   5.572   4.627
  466SOL    HW1 2297   4.067   5.668   4.657
  466SOL    HW2 2298   4.010   5.564   4.545
  467SOL     OW 2299   5.944   6.770   1.788
  467SOL    HW1 2300   5.975   6.860   1.819
  467SOL    HW2 2301   5.918   6.775   1.691
  468SOL     OW 2302   2.819   6.520   6.384
  468SOL    HW1 2303   2.810   6.451   6.456
  468SOL    HW2 2304   2.897   6.497   6.326
  469SOL     OW 2305   3.378   4.986   4.951
  469SOL    HW1 2306   3.428   5.020   4.873
  469SOL    HW2 2307   3.280   4.982   4.929
  470SOL     OW 2308   2.396   4.354   2.621
  470SOL    HW1 2309   2.495   4.337   2.622
  470SOL    HW2 2310   2.355   4.305   2.545
  471SOL     OW 2311   1.559   2.135   4.182
  471SOL    HW1 2312   1.524   2.114   4.273
  471SOL    HW2 2313   1.659   2.129   4.182
  472SOL     OW 2314   5.571   3.692   6.506
  472SOL    HW1 2315   5.479   3.722   6.530
  472SOL    HW2 2316   5.631   3.772   6.500
  473SOL     OW 2317   6.417   2.648   2.158
  473SOL    HW1 2318   6.336   2.700   2.186
  473SOL    HW2 2319   6.390   2.555   2.134
  474SOL     OW 2320   4.722   6.553   4.100
  474SOL    HW1 2321   4.711   6.455   4.118
  474SOL    HW2 2322   4.672   6.578   4.017
  475SOL     OW 2323   5.509   1.772   0.173
  475SOL    HW1 2324   5.426   1.786   0.119
  475SOL    HW2 2325   5.509   1.836   0.250
  476SOL     OW 2326   0.851   4.535   1.112
  476SOL    HW1 2327   0.803   4.457   1.071
  476SOL    HW2 2328   0.940   4.546   1.068
  477SOL     OW 2329   1.339   4.608   3.534
  477SOL    HW1 2330   1.416   4.549   3.560
  477SOL    HW2 2331   1.271   4.608   3.608
  478SOL     OW 2332   4.976   5.755   2.213
  478SOL    HW1 2333   4.915   5.800   2.278
  478SOL    HW2 2334   4.940   5.766   2.120
  479SOL     OW 2335   3.106   3.854   3.399
  479SOL    HW1 2336   3.083   3.896   3.487
  479SOL    HW2 2337   3.040   3.782   3.378
  480SOL     OW 2338   1.005   0.728   2.837
  480SOL    HW1 2339   1.092   0.775   2.851
  480SOL    HW2 2340   1.022   0.630   2.829
  481SOL     OW 2341   0.371   0.044   0.462
  481SOL    HW1 2342   0.318   7.006   0.408
  481SOL    HW2 2343   0.420   7.021   0.534
  482SOL     OW 2344   3.899   4.971   1.592
  482SOL    HW1 2345   3.870   5.035   1.521
  482SOL    HW2 2346   3.826   4.962   1.661
  483SOL     OW 2347   5.640   2.477   4.255
  483SOL    HW1 2348   5.551   2.445   4.288
  483SOL    HW2 2349   5.678   2.409   4.192
  484SOL     OW 2350   2.410   4.416   3.744
  484SOL    HW1 2351   2.505   4.441   3.722
  484SOL    HW2 2352   2.348   4.483   3.705
  485SOL     OW 2353   5.427   3.234   1.494
  485SOL    HW1 2354   5.363   3.304   1.527
  485SOL    HW2 2355   5.382   3.177   1.427
  486SOL     OW 2356   5.798   6.009   6.154
  486SOL    HW1 2357   5.789   5.969   6.063
  486SOL    HW2 2358   5.750   5.953   6.220
  487SOL     OW 2359   0.538   6.624   5.887
  487SOL    HW1 2360   0.585   6.558   5.946
  487SOL    HW2 2361   0.564   6.608   5.792
  488SOL     OW 2362   1.885   5.800   3.597
  488SOL    HW1 2363   1.843   5.890   3.604
  488SOL    HW2 2364   1.964   5.795   3.658
  489SOL     OW 2365   1.548   5.717   6.445
  489SOL    HW1 2366   1.498   5.778   6.506
  489SOL    HW2 2367   1.531   5.622   6.471
  490SOL     OW 2368   0.661   4.054   4.673
  490SOL    HW1 2369   0.572   4.033   4.632
  490SOL    HW2 2370   0.660   4.027   4.770
  491SOL     OW 2371   0.323   2.867   0.537
  491SOL    HW1 2372   0.406   2.831   0.579
  491SOL    HW2 2373   0.243   2.836   0.589
  492SOL     OW 2374   1.192   2.440   5.729
  492SOL    HW1 2375   1.127   2.514   5.715
  492SOL    HW2 2376   1.282   2.478   5.752
  493SOL     OW 2377   1.959   5.744   4.703
  493SOL    HW1 2378   1.921   5.710   4.617
  493SOL    HW2 2379   1.962   5.670   4.770
  494SOL     OW 2380   2.682   6.712   4.471
  494SOL    HW1 2381   2.696   6.648   4.547
  494SOL    HW2 2382   2.746   6.789   4.482
  495SOL     OW 2383   3.586   4.163   6.432
  495SOL    HW1 2384   3.628   4.253   6.422
  495SOL    HW2 2385   3.606   4.108   6.351
  496SOL     OW 2386   4.911   1.706   3.153
  496SOL    HW1 2387   4.937   1.652   3.072
  496SOL    HW2 2388   4.917   1.803   3.131
  497SOL     OW 2389   4.578   1.734   0.298
  497SOL    HW1 2390   4.507   1.716   0.366
  497SOL    HW2 2391   4.555   1.815   0.245
  498SOL     OW 2392   0.045   6.926   1.485
  498SOL    HW1 2393   0.107   6.859   1.525
  498SOL    HW2 2394   6.977   6.893   1.492
  499SOL     OW 2395   2.878   5.714   0.600
  499SOL    HW1 2396   2.798   5.691   0.657
  499SOL    HW2 2397   2.904   5.634   0.546
  500SOL     OW 2398   5.281   2.257   0.031
  500SOL    HW1 2399   5.270   2.321   6.981
  500SOL    HW2 2400   5.374   2.219   0.030
  501SOL     OW 2401   0.894   1.328   4.573
  501SOL    HW1 2402   0.795   1.342   4.569
  501SOL    HW2 2403   0.935   1.396   4.633
  502SOL     OW 2404   2.600   4.886   6.932
  502SOL    HW1 2405   2.615   4.824   6.855
  502SOL    HW2 2406   2.517   4.938   6.918
  503SOL     OW 2407   4.391   4.834   0.665
  503SOL    HW1 2408   4.442   4.867   0.585
  503SOL    HW2 2409   4.394   4.902   0.737
  504SOL     OW 2410   6.425   6.068   2.215
  504SOL    HW1 2411   6.463   5.997   2.273
  504SOL    HW2 2412   6.488   6.146   2.211
  505SOL     OW 2413   4.999   5.896   5.289
  505SOL    HW1 2414   4.976   5.992   5.274
  505SOL    HW2 2415   5.025   5.854   5.202
  506SOL     OW 2416   4.293   5.160   2.014
  506SOL    HW1 2417   4.303   5.234   1.948
  506SOL    HW2 2418   4.196   5.138   2.024
  507SOL     OW 2419   2.989   0.909   1.185
  507SOL    HW1 2420   2.988   0.979   1.113
  507SOL    HW2 2421   2.915   0.927   1.250
  508SOL     OW 2422   7.023   3.952   3.156
  508SOL    HW1 2423   0.032   3.859   3.142
  508SOL    HW2 2424   7.021   3.971   3.254
  509SOL     OW 2425   4.555   0.303   6.120
  509SOL    HW1 2426   4.579   0.340   6.030
  509SOL    HW2 2427   4.575   0.371   6.191
  510SOL     OW 2428   6.570   4.106   6.958
  510SOL    HW1 2429   6.570   4.031   7.024
  510SOL    HW2 2430   6.484   4.156   6.966
  511SOL     OW 2431   0.584   2.036   0.347
  511SOL    HW1 2432   0.545   2.127   0.353
  511SOL    HW2 2433   0.680   2.042   0.321
  512SOL     OW 2434   0.006   1.991   4.440
  512SOL    HW1 2435   6.974   2.057   4.393
  512SOL    HW2 2436   6.982   1.907   4.456
  513SOL     OW 2437   5.016   0.904   2.799
  513SOL    HW1 2438   5.048   0.811   2.821
  513SOL    HW2 2439   5.090   0.955   2.757
  514SOL     OW 2440   5.954   0.216   4.541
  514SOL    HW1 2441   6.027   0.281   4.562
  514SOL    HW2 2442   5.891   0.211   4.618
  515SOL     OW 2443   3.944   0.123   5.694
  515SOL    HW1 2444   3.846   0.137   5.707
  515SOL    HW2 2445   3.986   0.206   5.657
  516SOL     OW 2446   2.147   5.937   2.365
  516SOL    HW1 2447   2.198   6.009   2.318
  516SOL    HW2 2448   2.141   5.856   2.306
  517SOL     OW 2449   3.345   5.909   1.602
  517SOL    HW1 2450   3.308   5.851   1.529
  517SOL    HW2 2451   3.388   5.852   1.672
  518SOL     OW 2452   2.172   3.774   4.012
  518SOL    HW1 2453   2.120   3.824   3.942
  518SOL    HW2 2454   2.270   3.786   3.995
  519SOL     OW 2455   7.020   0.059   1.929
  519SOL    HW1 2456   6.960   7.024   1.979
  519SOL    HW2 2457   0.076   0.010   1.900
  520SOL     OW 2458   1.760   3.948   0.857
  520SOL    HW1 2459   1.833   3.937   0.925
  520SOL    HW2 2460   1.797   3.994   0.776
  521SOL     OW 2461   6.528   6.387   4.985
  521SOL    HW1 2462   6.534   6.337   5.071
  521SOL    HW2 2463   6.619   6.401   4.947
  522SOL     OW 2464   3.877   4.317   1.471
  522SOL    HW1 2465   3.902   4.409   1.439
  522SOL    HW2 2466   3.798   4.284   1.421
  523SOL     OW 2467   0.875   0.177   0.922
  523SOL    HW1 2468   0.839   0.143   0.835
  523SOL    HW2 2469   0.896   0.274   0.914
  524SOL     OW 2470   6.694   2.229   1.406
  524SOL    HW1 2471   6.766   2.247   1.339
  524SOL    HW2 2472   6.617   2.290   1.388
  525SOL     OW 2473   0.527   3.767   5.518
  525SOL    HW1 2474   0.620   3.773   5.482
  525SOL    HW2 2475   0.521   3.691   5.583
  526SOL     OW 2476   3.228   0.400   3.878
  526SOL    HW1 2477   3.203   0.439   3.966
  526SOL    HW2 2478   3.257   0.472   3.816
  527SOL     OW 2479   0.551   0.906   0.585
  527SOL    HW1 2480   0.580   0.995   0.619
  527SOL    HW2 2481   0.629   0.859   0.544
  528SOL     OW 2482   0.093   3.196   4.304
  528SOL    HW1 2483   0.179   3.152   4.276
  528SOL    HW2 2484   0.016   3.143   4.270
  529SOL     OW 2485   2.034   0.330   0.229
  529SOL    HW1 2486   2.096   0.384   0.171
  529SOL    HW2 2487   1.949   0.380   0.242
  530SOL     OW 2488   3.418   4.156   1.185
  530SOL    HW1 2489   3.384   4.065   1.165
  530SOL    HW2 2490   3.414   4.212   1.102
  531SOL     OW 2491   1.555   0.270   0.624
  531SOL    HW1 2492   1.512   0.348   0.578
  531SOL    HW2 2493   1.618   0.224   0.562
  532SOL     OW 2494   1.198   2.198   6.419
  532SOL    HW1 2495   1.210   2.124   6.353
  532SOL    HW2 2496   1.213   2.163   6.512
  533SOL     OW 2497   3.863   0.268   4.353
  533SOL    HW1 2498   3.881   0.315   4.267
  533SOL    HW2 2499   3.765   0.249   4.360
  534SOL     OW 2500   2.098   5.073   1.624
  534SOL    HW1 2501   2.176   5.043   1.569
  534SOL    HW2 2502   2.130   5.097   1.716
  535SOL     OW 2503   5.137   3.469   4.073
  535SOL    HW1 2504   5.130   3.498   3.978
  535SOL    HW2 2505   5.049   3.431   4.103
  536SOL     OW 2506   6.644   0.098   1.951
  536SOL    HW1 2507   6.645   0.198   1.950
  536SOL    HW2 2508   6.719   0.064   2.008
  537SOL     OW 2509   3.612   2.107   3.831
  537SOL    HW1 2510   3.682   2.178   3.836
  537SOL    HW2 2511   3.607   2.059   3.918
  538SOL     OW 2512   3.311   4.777   5.281
  538SOL    HW1 2513   3.318   4.875   5.263
  538SOL    HW2 2514   3.251   4.735   5.213
  539SOL     OW 2515   1.022   6.802   0.010
  539SOL    HW1 2516   1.013   6.774   0.106
  539SOL    HW2 2517   0.960   6.878   7.018
  540SOL     OW 2518   0.832   0.322   4.351
  540SOL    HW1 2519   0.735   0.310   4.333
  540SOL    HW2 2520   0.878   0.233   4.348
  541SOL     OW 2521   4.229   6.273   3.757
  541SOL    HW1 2522   4.324   6.291   3.783
  541SOL    HW2 2523   4.174   6.355   3.772
  542SOL     OW 2524   3.581   0.446   5.614
  542SOL    HW1 2525   3.532   0.447   5.526
  542SOL    HW2 2526   3.579   0.354   5.652
  543SOL     OW 2527   6.139   2.344   4.109
  543SOL    HW1 2528   6.232   2.357   4.075
  543SOL    HW2 2529   6.126   2.398   4.192
  544SOL     OW 2530   1.464   3.686   1.202
  544SOL    HW1 2531   1.548   3.736   1.179
  544SOL    HW2 2532   1.434   3.634   1.122
  545SOL     OW 2533   5.794   0.365   1.266
  545SOL    HW1 2534   5.816   0.354   1.169
  545SOL    HW2 2535   5.830   0.452   1.299
  546SOL     OW 2536   6.770   4.598   2.920
  546SOL    HW1 2537   6.825   4.607   3.004
  546SOL    HW2 2538   6.771   4.502   2.890
  547SOL     OW 2539   5.360   0.748   6.470
  547SOL    HW1 2540   5.266   0.781   6.464
  547SOL    HW2 2541   5.423   0.824   6.450
  548SOL     OW 2542   4.075   2.041   7.009
  548SOL    HW1 2543   4.032   2.022   0.070
  548SOL    HW2 2544   4.022   2.110   6.960
  549SOL     OW 2545   5.578   1.603   1.819
  549SOL    HW1 2546   5.575   1.684   1.760
  549SOL    HW2 2547   5.640   1.621   1.896
  550SOL     OW 2548   0.194   5.879   3.236
  550SOL    HW1 2549   0.292   5.859   3.246
  550SOL    HW2 2550   0.147   5.857   3.322
  551SOL     OW 2551   6.133   1.092   0.484
  551SOL    HW1 2552   6.233   1.087   0.485
  551SOL    HW2 2553   6.101   1.144   0.563
  552SOL     OW 2554   0.148   5.498   5.531
  552SOL    HW1 2555   0.051   5.484   5.550
  552SOL    HW2 2556   0.192   5.540   5.611
  553SOL     OW 2557   2.508   1.180   0.372
  553SOL    HW1 2558   2.459   1.266   0.386
  553SOL    HW2 2559   2.535   1.142   0.461
  554SOL     OW 2560   5.410   6.574   1.584
  554SOL    HW1 2561   5.466   6.514   1.526
  554SOL    HW2 2562   5.350   6.630   1.525
  555SOL     OW 2563   1.181   3.848   5.801
  555SOL    HW1 2564   1.202   3.880   5.893
  555SOL    HW2 2565   1.219   3.757   5.788
  556SOL     OW 2566   5.516   0.166   4.377
  556SOL    HW1 2567   5.592   0.221   4.342
  556SOL    HW2 2568   5.546   0.071   4.386
  557SOL     OW 2569   6.828   4.469   6.776
  557SOL    HW1 2570   6.807   4.461   6.679
  557SOL    HW2 2571   6.826   4.379   6.819
  558SOL     OW 2572   3.141   3.916   2.365
  558SOL    HW1 2573   3.092   3.856   2.302
  558SOL    HW2 2574   3.233   3.880   2.381
  559SOL     OW 2575   6.399   6.435   5.693
  559SOL    HW1 2576   6.358   6.404   5.779
  559SOL    HW2 2577   6.462   6.511   5.712
  560SOL     OW 2578   6.546   3.148   3.948
  560SOL    HW1 2579   6.628   3.111   3.991
  560SOL    HW2 2580   6.530   3.241   3.983
  561SOL     OW 2581   0.774   2.886   0.150
  561SOL    HW1 2582   0.845   2.901   0.219
  561SOL    HW2 2583   0.815   2.889   0.059
  562SOL     OW 2584   4.315   6.918   4.782
  562SOL    HW1 2585   4.354   6.849   4.843
  562SOL    HW2 2586   4.260   6.873   4.711
  563SOL     OW 2587   1.803   1.141   4.307
  563SOL    HW1 2588   1.852   1.220   4.344
  563SOL    HW2 2589   1.789   1.154   4.209
  564SOL     OW 2590   6.775   1.777   5.890
  564SOL    HW1 2591   6.799   1.871   5.868
  564SOL    HW2 2592   6.837   1.714   5.842
  565SOL     OW 2593   3.224   3.699   3.760
  565SOL    HW1 2594   3.125   3.714   3.753
  565SOL    HW2 2595   3.241   3.608   3.797
  566SOL     OW 2596   3.303   0.268   3.197
  566SOL    HW1 2597   3.240   0.231   3.265
  566SOL    HW2 2598   3.388   0.215   3.198
  567SOL     OW 2599   2.581   2.715   5.547
  567SOL    HW1 2600   2.516   2.760   5.609
  567SOL    HW2 2601   2.603   2.777   5.471
  568SOL     OW 2602   0.156   6.549   0.032
  568SOL    HW1 2603   0.103   6.632   0.017
  568SOL    HW2 2604   0.180   6.541   0.129
  569SOL     OW 2605   6.100   2.469   0.430
  569SOL    HW1 2606   6.023   2.455   0.493
  569SOL    HW2 2607   6.177   2.510   0.480
  570SOL     OW 2608   2.701   0.260   6.183
  570SOL    HW1 2609   2.679   0.267   6.086
  570SOL    HW2 2610   2.710   0.351   6.222
  571SOL     OW 2611   2.050   4.814   2.253
  571SOL    HW1 2612   1.951   4.823   2.263
  571SOL    HW2 2613   2.093   4.820   2.343
  572SOL     OW 2614   3.034   0.290   4.220
  572SOL    HW1 2615   2.940   0.295   4.184
  572SOL    HW2 2616   3.080   0.378   4.205
  573SOL     OW 2617   6.975   0.922   5.146
  573SOL    HW1 2618   6.991   0.823   5.140
  573SOL    HW2 2619   6.988   0.963   5.056
  574SOL     OW 2620   2.416   2.237   5.695
  574SOL    HW1 2621   2.458   2.310   5.641
  574SOL    HW2 2622   2.331   2.271   5.736
  575SOL     OW 2623   3.814   2.821   0.247
  575SOL    HW1 2624   3.837   2.770   0.330
  575SOL    HW2 2625   3.758   2.763   0.187
  576SOL     OW 2626   2.230   2.995   3.255
  576SOL    HW1 2627   2.263   2.907   3.219
  576SOL    HW2 2628   2.250   3.001   3.352
  577SOL     OW 2629   0.452   1.356   1.879
  577SOL    HW1 2630   0.520   1.322   1.813
  577SOL    HW2 2631   0.371   1.297   1.877
  578SOL     OW 2632   2.555   6.468   6.643
  578SOL    HW1 2633   2.607   6.397   6.596
  578SOL    HW2 2634   2.527   6.538   6.577
  579SOL     OW 2635   2.259   4.367   1.964
  579SOL    HW1 2636   2.283   4.314   1.882
  579SOL    HW2 2637   2.326   4.440   1.977
  580SOL     OW 2638   4.419   5.652   4.472
  580SOL    HW1 2639   4.502   5.621   4.427
  580SOL    HW2 2640   4.369   5.573   4.507
  581SOL     OW 2641   1.569   2.642   4.438
  581SOL    HW1 2642   1.559   2.716   4.505
  581SOL    HW2 2643   1.645   2.663   4.376
  582SOL     OW 2644   5.455   5.567   4.245
  582SOL    HW1 2645   5.424   5.653   4.286
  582SOL    HW2 2646   5.527   5.587   4.178
  583SOL     OW 2647   4.586   5.860   5.741
  583SOL    HW1 2648   4.602   5.820   5.651
  583SOL    HW2 2649   4.526   5.799   5.794
  584SOL     OW 2650   4.726   0.626   5.150
  584SOL    HW1 2651   4.650   0.662   5.096
  584SOL    HW2 2652   4.692   0.557   5.213
  585SOL     OW 2653   3.038   0.946   1.606
  585SOL    HW1 2654   3.006   1.041   1.610
  585SOL    HW2 2655   3.088   0.924   1.690
  586SOL     OW 2656   4.392   6.771   0.693
  586SOL    HW1 2657   4.332   6.786   0.615
  586SOL    HW2 2658   4.418   6.859   0.733
  587SOL     OW 2659   4.589   2.001   1.783
  587SOL    HW1 2660   4.597   1.981   1.880
  587SOL    HW2 2661   4.593   1.916   1.731
  588SOL     OW 2662   1.737   5.288   3.289
  588SOL    HW1 2663   1.756   5.235   3.372
  588SOL    HW2 2664   1.818   5.342   3.265
  589SOL     OW 2665   2.962   5.972   0.985
  589SOL    HW1 2666   3.000   5.998   0.896
  589SOL    HW2 2667   2.862   5.969   0.978
  590SOL     OW 2668   4.433   2.109   0.465
  590SOL    HW1 2669   4.475   2.060   0.388
  590SOL    HW2 2670   4.477   2.198   0.476
  591SOL     OW 2671   3.117   5.967   4.201
  591SOL    HW1 2672   3.046   5.897   4.209
  591SOL    HW2 2673   3.161   5.959   4.111
  592SOL     OW 2674   3.780   2.096   4.330
  592SOL    HW1 2675   3.698   2.111   4.386
  592SOL    HW2 2676   3.836   2.025   4.372
  593SOL     OW 2677   2.889   1.759   6.533
  593SOL    HW1 2678   2.905   1.660   6.533
  593SOL    HW2 2679   2.972   1.807   6.505
  594SOL     OW 2680   4.920   1.025   1.816
  594SOL    HW1 2681   4.928   1.119   1.848
  594SOL    HW2 2682   4.985   1.009   1.741
  595SOL     OW 2683   5.590   5.887   2.634
  595SOL    HW1 2684   5.649   5.866   2.712
  595SOL    HW2 2685   5.631   5.960   2.580
  596SOL     OW 2686   6.367   4.693   4.231
  596SOL    HW1 2687   6.327   4.604   4.253
  596SOL    HW2 2688   6.465   4.683   4.214
  597SOL     OW 2689   2.527   0.781   6.578
  597SOL    HW1 2690   2.494   0.874   6.594
  597SOL    HW2 2691   2.511   0.726   6.660
  598SOL     OW 2692   2.882   3.561   4.542
  598SOL    HW1 2693   2.850   3.467   4.530
  598SOL    HW2 2694   2.925   3.593   4.458
  599SOL     OW 2695   1.163   4.797   1.920
  599SOL    HW1 2696   1.243   4.849   1.891
  599SOL    HW2 2697   1.147   4.722   1.856
  600SOL     OW 2698   6.743   3.956   5.105
  600SOL    HW1 2699   6.725   3.901   5.022
  600SOL    HW2 2700   6.838   3.985   5.106
  601SOL     OW 2701   1.884   6.603   5.078
  601SOL    HW1 2702   1.925   6.680   5.128
  601SOL    HW2 2703   1.828   6.638   5.003
  602SOL     OW 2704   2.103   6.722   3.707
  602SOL    HW1 2705   2.085   6.632   3.666
  602SOL    HW2 2706   2.201   6.733   3.721
  603SOL     OW 2707   1.393   1.653   5.280
  603SOL    HW1 2708   1.340   1.712   5.220
  603SOL    HW2 2709   1.355   1.560   5.278
  604SOL     OW 2710   6.473   2.397   1.786
  604SOL    HW1 2711   6.532   2.332   1.833
  604SOL    HW2 2712   6.427   2.455   1.854
  605SOL     OW 2713   6.892   6.284   2.135
  605SOL    HW1 2714   6.845   6.344   2.071
  605SOL    HW2 2715   6.991   6.296   2.125
  606SOL     OW 2716   3.736   6.524   4.446
  606SOL    HW1 2717   3.784   6.442   4.477
  606SOL    HW2 2718   3.663   6.546   4.510
  607SOL     OW 2719   1.503   4.483   6.249
  607SOL    HW1 2720   1.446   4.565   6.243
  607SOL    HW2 2721   1.446   4.402   6.241
  608SOL     OW 2722   2.912   1.080   5.463
  608SOL    HW1 2723   2.883   1.176   5.456
  608SOL    HW2 2724   2.841   1.021   5.424
  609SOL     OW 2725   3.358   2.813   2.000
  609SOL    HW1 2726   3.347   2.730   1.944
  609SOL    HW2 2727   3.330   2.793   2.094
  610SOL     OW 2728   5.114   3.724   1.127
  610SOL    HW1 2729   5.035   3.668   1.105
  610SOL    HW2 2730   5.111   3.809   1.073
  611SOL     OW 2731   3.557   0.545   2.585
  611SOL    HW1 2732   3.485   0.511   2.645
  611SOL    HW2 2733   3.520   0.560   2.493
  612SOL     OW 2734   3.968   4.663   5.292
  612SOL    HW1 2735   3.947   4.760   5.283
  612SOL    HW2 2736   3.887   4.614   5.323
  613SOL     OW 2737   4.518   4.958   5.455
  613SOL    HW1 2738   4.496   4.861   5.452
  613SOL    HW2 2739   4.555   4.981   5.545
  614SOL     OW 2740   3.705   5.266   5.704
  614SOL    HW1 2741   3.722   5.357   5.667
  614SOL    HW2 2742   3.618   5.266   5.754
  615SOL     OW 2743   0.647   4.572   2.409
  615SOL    HW1 2744   0.683   4.523   2.329
  615SOL    HW2 2745   0.714   4.640   2.439
  616SOL     OW 2746   6.414   3.489   3.297
  616SOL    HW1 2747   6.444   3.539   3.216
  616SOL    HW2 2748   6.488   3.430   3.329
  617SOL     OW 2749   3.306   5.652   6.276
  617SOL    HW1 2750   3.379   5.584   6.266
  617SOL    HW2 2751   3.322   5.706   6.359
  618SOL     OW 2752   1.362   0.932   2.543
  618SOL    HW1 2753   1.359   0.991   2.462
  618SOL    HW2 2754   1.393   0.841   2.516
  619SOL     OW 2755   0.853   1.170   7.013
  619SOL    HW1 2756   0.830   1.159   0.083
  619SOL    HW2 2757   0.832   1.263   6.983
  620SOL     OW 2758   4.617   3.997   1.117
  620SOL    HW1 2759   4.584   3.991   1.023
  620SOL    HW2 2760   4.673   3.917   1.138
  621SOL     OW 2761   0.696   5.050   1.698
  621SOL    HW1 2762   0.773   5.050   1.634
  621SOL    HW2 2763   0.678   5.144   1.728
  622SOL     OW 2764   1.288   0.198   6.938
  622SOL    HW1 2765   1.379   0.159   6.952
  622SOL    HW2 2766   1.279   0.230   6.844
  623SOL     OW 2767   0.871   4.682   6.670
  623SOL    HW1 2768   0.810   4.646   6.600
  623SOL    HW2 2769   0.954   4.626   6.674
  624SOL     OW 2770   0.466   2.431   2.228
  624SOL    HW1 2771   0.538   2.422   2.160
  624SOL    HW2 2772   0.424   2.522   2.221
  625SOL     OW 2773   2.450   1.405   1.804
  625SOL    HW1 2774   2.501   1.356   1.874
  625SOL    HW2 2775   2.510   1.471   1.759
  626SOL     OW 2776   2.947   6.522   4.241
  626SOL    HW1 2777   2.856   6.549   4.208
  626SOL    HW2 2778   2.974   6.436   4.198
  627SOL     OW 2779   4.970   0.885   0.256
  627SOL    HW1 2780   5.022   0.889   0.170
  627SOL    HW2 2781   4.917   0.969   0.266
  628SOL     OW 2782   5.101   4.047   3.790
  628SOL    HW1 2783   5.108   4.124   3.727
  628SOL    HW2 2784   5.128   4.077   3.881
  629SOL     OW 2785   1.547   6.269   0.728
  629SOL    HW1 2786   1.597   6.315   0.801
  629SOL    HW2 2787   1.612   6.228   0.664
  630SOL     OW 2788   3.892   2.071   1.220
  630SOL    HW1 2789   3.879   2.154   1.275
  630SOL    HW2 2790   3.831   1.999   1.253
  631SOL     OW 2791   2.398   6.842   5.218
  631SOL    HW1 2792   2.446   6.832   5.131
  631SOL    HW2 2793   2.462   6.875   5.288
  632SOL     OW 2794   1.987   1.266   1.000
  632SOL    HW1 2795   2.051   1.242   0.926
  632SOL    HW2 2796   2.026   1.341   1.054
  633SOL     OW 2797   2.547   0.098   6.346
  633SOL    HW1 2798   2.624   0.039   6.370
  633SOL    HW2 2799   2.581   0.180   6.301
  634SOL     OW 2800   3.820   6.116   0.076
  634SOL    HW1 2801   3.746   6.104   0.009
  634SOL    HW2 2802   3.798   6.193   0.135
  635SOL     OW 2803   2.582   0.381   2.864
  635SOL    HW1 2804   2.616   0.298   2.822
  635SOL    HW2 2805   2.619   0.461   2.816
  636SOL     OW 2806   5.371   5.136   0.028
  636SOL    HW1 2807   5.305   5.187   7.001
  636SOL    HW2 2808   5.416   5.197   0.093
  637SOL     OW 2809   4.858   4.447   0.960
  637SOL    HW1 2810   4.955   4.433   0.943
  637SOL    HW2 2811   4.808   4.449   0.873
  638SOL     OW 2812   5.260   1.208   2.443
  638SOL    HW1 2813   5.199   1.143   2.398
  638SOL    HW2 2814   5.230   1.223   2.537
  639SOL     OW 2815   4.371   4.666   2.094
  639SOL    HW1 2816   4.386   4.608   2.174
  639SOL    HW2 2817   4.281   4.709   2.100
  640SOL     OW 2818   2.791   4.289   5.852
  640SOL    HW1 2819   2.830   4.198   5.836
  640SOL    HW2 2820   2.863   4.358   5.850
  641SOL     OW 2821   7.005   5.793   4.756
  641SOL    HW1 2822   6.932   5.792   4.687
  641SOL    HW2 2823   6.965   5.781   4.847
  642SOL     OW 2824   1.505   5.164   5.303
  642SOL    HW1 2825   1.565   5.133   5.377
  642SOL    HW2 2826   1.457   5.247   5.331
  643SOL     OW 2827   5.541   5.929   5.066
  643SOL    HW1 2828   5.564   6.024   5.048
  643SOL    HW2 2829   5.494   5.922   5.155
  644SOL     OW 2830   1.562   6.416   2.488
  644SOL    HW1 2831   1.531   6.347   2.552
  644SOL    HW2 2832   1.638   6.467   2.528
  645SOL     OW 2833   5.847   2.971   3.609
  645SOL    HW1 2834   5.893   2.907   3.671
  645SOL    HW2 2835   5.900   3.056   3.605
  646SOL     OW 2836   1.382   1.843   4.578
  646SOL    HW1 2837   1.349   1.754   4.607
  646SOL    HW2 2838   1.461   1.869   4.634
  647SOL     OW 2839   5.705   3.319   0.454
  647SOL    HW1 2840   5.617   3.296   0.495
  647SOL    HW2 2841   5.740   3.240   0.403
  648SOL     OW 2842   5.923   2.553   2.110
  648SOL    HW1 2843   5.828   2.558   2.080
  648SOL    HW2 2844   5.958   2.460   2.097
  649SOL     OW 2845   4.014   5.078   1.074
  649SOL    HW1 2846   4.070   5.009   1.120
  649SOL    HW2 2847   3.969   5.037   0.994
  650SOL     OW 2848   4.851   4.151   0.733
  650SOL    HW1 2849   4.852   4.104   0.645
  650SOL    HW2 2850   4.914   4.106   0.797
  651SOL     OW 2851   0.974   5.576   6.460
  651SOL    HW1 2852   0.986   5.592   6.558
  651SOL    HW2 2853   1.061   5.549   6.419
  652SOL     OW 2854   4.153   1.199   2.916
  652SOL    HW1 2855   4.138   1.217   3.014
  652SOL    HW2 2856   4.075   1.149   2.879
  653SOL     OW 2857   3.729   4.918   3.408
  653SOL    HW1 2858   3.701   4.942   3.501
  653SOL    HW2 2859   3.820   4.876   3.410
  654SOL     OW 2860   6.021   4.830   0.436
  654SOL    HW1 2861   5.930   4.847   0.474
  654SOL    HW2 2862   6.035   4.732   0.425
  655SOL     OW 2863   0.756   0.735   0.532
  655SOL    HW1 2864   0.731   0.639   0.542
  655SOL    HW2 2865   0.846   0.750   0.572
  656SOL     OW 2866   2.904   6.344   2.197
  656SOL    HW1 2867   2.844   6.413   2.236
  656SOL    HW2 2868   2.884   6.255   2.239
  657SOL     OW 2869   3.278   1.802   6.834
  657SOL    HW1 2870   3.326   1.848   6.908
  657SOL    HW2 2871   3.183   1.834   6.830
  658SOL     OW 2872   3.593   4.826   6.012
  658SOL    HW1 2873   3.613   4.731   6.036
  658SOL    HW2 2874   3.517   4.829   5.947
  659SOL     OW 2875   3.005   0.117   0.004
  659SOL    HW1 2876   3.072   0.176   0.050
  659SOL    HW2 2877   2.914   0.137   0.041
  660SOL     OW 2878   3.771   5.501   3.158
  660SOL    HW1 2879   3.742   5.591   3.127
  660SOL    HW2 2880   3.794   5.504   3.255
  661SOL     OW 2881   5.412   5.469   3.272
  661SOL    HW1 2882   5.502   5.437   3.243
  661SOL    HW2 2883   5.413   5.487   3.371
  662SOL     OW 2884   3.387   1.357   0.246
  662SOL    HW1 2885   3.461   1.330   0.185
  662SOL    HW2 2886   3.425   1.404   0.325
  663SOL     OW 2887   2.382   4.420   4.981
  663SOL    HW1 2888   2.443   4.499   4.971
  663SOL    HW2 2889   2.382   4.390   5.077
  664SOL     OW 2890   6.466   1.045   6.924
  664SOL    HW1 2891   6.466   0.966   6.986
  664SOL    HW2 2892   6.528   1.027   6.847
  665SOL     OW 2893   2.470   5.702   2.968
  665SOL    HW1 2894   2.516   5.726   2.883
  665SOL    HW2 2895   2.538   5.666   3.033
  666SOL     OW 2896   4.075   1.061   1.967
  666SOL    HW1 2897   4.131   1.007   1.904
  666SOL    HW2 2898   4.118   1.150   1.982
  667SOL     OW 2899   1.064   6.829   2.626
  667SOL    HW1 2900   1.089   6.854   2.719
  667SOL    HW2 2901   1.010   6.745   2.627
  668SOL     OW 2902   5.471   3.491   0.575
  668SOL    HW1 2903   5.391   3.432   0.562
  668SOL    HW2 2904   5.513   3.471   0.664
  669SOL     OW 2905   4.944   1.632   2.855
  669SOL    HW1 2906   5.032   1.678   2.849
  669SOL    HW2 2907   4.957   1.533   2.843
  670SOL     OW 2908   2.525   1.896   3.103
  670SOL    HW1 2909   2.525   1.799   3.126
  670SOL    HW2 2910   2.521   1.907   3.004
  671SOL     OW 2911   3.440   6.733   1.443
  671SOL    HW1 2912   3.480   6.645   1.417
  671SOL    HW2 2913   3.349   6.743   1.402
  672SOL     OW 2914   1.357   6.764   2.631
  672SOL    HW1 2915   1.278   6.794   2.685
  672SOL    HW2 2916   1.351   6.802   2.539
  673SOL     OW 2917   5.738   6.607   0.111
  673SOL    HW1 2918   5.793   6.594   0.028
  673SOL    HW2 2919   5.694   6.697   0.107
  674SOL     OW 2920   7.000   1.195   4.220
  674SOL    HW1 2921   0.001   1.165   4.129
  674SOL    HW2 2922   0.017   1.135   4.288
  675SOL     OW 2923   6.181   2.782   2.696
  675SOL    HW1 2924   6.110   2.726   2.654
  675SOL    HW2 2925   6.238   2.724   2.754
  676SOL     OW 2926   1.874   6.012   5.937
  676SOL    HW1 2927   1.946   5.990   6.002
  676SOL    HW2 2928   1.790   5.965   5.962
  677SOL     OW 2929   4.831   1.335   1.000
  677SOL    HW1 2930   4.894   1.326   1.077
  677SOL    HW2 2931   4.849   1.263   0.933
  678SOL     OW 2932   2.095   4.922   4.883
  678SOL    HW1 2933   2.029   4.856   4.846
  678SOL    HW2 2934   2.181   4.876   4.901
  679SOL     OW 2935   5.559   1.416   5.204
  679SOL    HW1 2936   5.555   1.460   5.294
  679SOL    HW2 2937   5.474   1.434   5.155
  680SOL     OW 2938   4.643   0.224   4.207
  680SOL    HW1 2939   4.559   0.209   4.155
  680SOL    HW2 2940   4.681   0.136   4.236
  681SOL     OW 2941   4.504   5.091   2.618
  681SOL    HW1 2942   4.457   5.078   2.531
  681SOL    HW2 2943   4.438   5.118   2.688
  682SOL     OW 2944   0.671   1.030   3.375
  682SOL    HW1 2945   0.661   0.939   3.415
  682SOL    HW2 2946   0.616   1.096   3.425
  683SOL     OW 2947   4.150   3.695   1.027
  683SOL    HW1 2948   4.177   3.696   0.930
  683SOL    HW2 2949   4.161   3.603   1.063
  684SOL     OW 2950   6.793   0.974   6.373
  684SOL    HW1 2951   6.749   1.011   6.455
  684SOL    HW2 2952   6.775   0.876   6.367
  685SOL     OW 2953   3.638   0.457   3.096
  685SOL    HW1 2954   3.729   0.492   3.073
  685SOL    HW2 2955   3.620   0.472   3.193
  686SOL     OW 2956   4.887   0.291   5.198
  686SOL    HW1 2957   4.940   0.250   5.124
  686SOL    HW2 2958   4.806   0.336   5.160
  687SOL     OW 2959   1.170   2.142   3.846
  687SOL    HW1 2960   1.258   2.112   3.883
  687SOL    HW2 2961   1.136   2.072   3.783
  688SOL     OW 2962   6.653   1.302   6.798
  688SOL    HW1 2963   6.713   1.277   6.874
  688SOL    HW2 2964   6.590   1.374   6.828
  689SOL     OW 2965   1.123   5.479   5.893
  689SOL    HW1 2966   1.159   5.569   5.920
  689SOL    HW2 2967   1.183   5.408   5.929
  690SOL     OW 2968   5.935   3.334   2.764
  690SOL    HW1 2969   5.937   3.244   2.722
  690SOL    HW2 2970   5.930   3.404   2.693
  691SOL     OW 2971   5.258   1.275   0.765
  691SOL    HW1 2972   5.170   1.313   0.738
  691SOL    HW2 2973   5.323   1.349   0.780
  692SOL     OW 2974   2.471   0.706   4.968
  692SOL    HW1 2975   2.439   0.668   5.054
  692SOL    HW2 2976   2.396   0.752   4.921
  693SOL     OW 2977   5.298   5.775   4.081
  693SOL    HW1 2978   5.255   5.810   3.998
  693SOL    HW2 2979   5.395   5.755   4.063
  694SOL     OW 2980   4.467   6.243   5.677
  694SOL    HW1 2981   4.378   6.280   5.652
  694SOL    HW2 2982   4.506   6.195   5.598
  695SOL     OW 2983   3.194   0.512   4.123
  695SOL    HW1 2984   3.247   0.535   4.205
  695SOL    HW2 2985   3.122   0.580   4.109
  696SOL     OW 2986   5.160   4.706   3.125
  696SOL    HW1 2987   5.081   4.763   3.147
  696SOL    HW2 2988   5.224   4.708   3.202
  697SOL     OW 2989   0.681   5.834   2.203
  697SOL    HW1 2990   0.710   5.917   2.250
  697SOL    HW2 2991   0.759   5.773   2.190
  698SOL     OW 2992   5.640   6.619   0.395
  698SOL    HW1 2993   5.680   6.551   0.457
  698SOL    HW2 2994   5.710   6.649   0.329
  699SOL     OW 2995   2.427   2.561   0.968
  699SOL    HW1 2996   2.432   2.589   1.064
  699SOL    HW2 2997   2.498   2.493   0.949
  700SOL     OW 2998   3.388   0.686   3.127
  700SOL    HW1 2999   3.478   0.703   3.165
  700SOL    HW2 3000   3.329   0.644   3.196
  701SOL     OW 3001   5.929   5.211   1.382
  701SOL    HW1 3002   5.859   5.280   1.400
  701SOL    HW2 3003   5.905   5.160   1.300
  702SOL     OW 3004   3.332   0.968   4.407
  702SOL    HW1 3005   3.339   0.996   4.311
  702SOL    HW2 3006   3.378   1.036   4.464
  703SOL     OW 3007   2.851   2.080   6.216
  703SOL    HW1 3008   2.869   2.148   6.145
  703SOL    HW2 3009   2.838   2.125   6.304
  704SOL     OW 3010   1.438   2.588   5.754
  704SOL    HW1 3011   1.400   2.626   5.670
  704SOL    HW2 3012   1.531   2.624   5.768
  705SOL     OW 3013   0.366   6.267   5.102
  705SOL    HW1 3014   0.292   6.264   5.035
  705SOL    HW2 3015   0.333   6.236   5.191
  706SOL     OW 3016   4.513   0.671   4.950
  706SOL    HW1 3017   4.427   0.646   4.905
  706SOL    HW2 3018   4.521   0.770   4.955
  707SOL     OW 3019   3.482   5.066   3.830
  707SOL    HW1 3020   3.383   5.057   3.821
  707SOL    HW2 3021   3.526   5.031   3.748
  708SOL     OW 3022   3.755   0.092   3.637
  708SOL    HW1 3023   3.779   0.109   3.542
  708SOL    HW2 3024   3.723   0.177   3.679
  709SOL     OW 3025   2.673   0.283   1.470
  709SOL    HW1 3026   2.640   0.190   1.450
  709SOL    HW2 3027   2.595   0.342   1.492
  710SOL     OW 3028   4.543   2.772   1.739
  710SOL    HW1 3029   4.638   2.759   1.712
  710SOL    HW2 3030   4.534   2.859   1.788
  711SOL     OW 3031   0.255   2.252   6.223
  711SOL    HW1 3032   0.192   2.176   6.214
  711SOL    HW2 3033   0.219   2.317   6.290
  712SOL     OW 3034   5.378   4.344   0.509
  712SOL    HW1 3035   5.401   4.275   0.440
  712SOL    HW2 3036   5.292   4.320   0.554
  713SOL     OW 3037   4.080   2.782   5.359
  713SOL    HW1 3038   4.096   2.865   5.307
  713SOL    HW2 3039   4.124   2.705   5.312
  714SOL     OW 3040   5.087   5.336   3.407
  714SOL    HW1 3041   5.073   5.349   3.309
  714SOL    HW2 3042   5.075   5.239   3.430
  715SOL     OW 3043   6.611   5.415   5.299
  715SOL    HW1 3044   6.524   5.441   5.257
  715SOL    HW2 3045   6.613   5.316   5.313
  716SOL     OW 3046   2.047   2.007   2.547
  716SOL    HW1 3047   2.015   2.079   2.609
  716SOL    HW2 3048   1.973   1.941   2.532
  717SOL     OW 3049   5.202   4.574   4.531
  717SOL    HW1 3050   5.289   4.567   4.580
  717SOL    HW2 3051   5.213   4.542   4.437
  718SOL     OW 3052   5.876   1.548   5.053
  718SOL    HW1 3053   5.849   1.627   5.108
  718SOL    HW2 3054   5.949   1.573   4.990
  719SOL     OW 3055   5.550   0.233   3.253
  719SOL    HW1 3056   5.474   0.201   3.196
  719SOL    HW2 3057   5.580   0.323   3.221
  720SOL     OW 3058   2.455   1.566   0.193
  720SOL    HW1 3059   2.502   1.504   0.256
  720SOL    HW2 3060   2.356   1.560   0.208
  721SOL     OW 3061   0.393   1.757   3.305
  721SOL    HW1 3062   0.447   1.680   3.338
  721SOL    HW2 3063   0.411   1.771   3.207
  722SOL     OW 3064   4.281   6.577   0.245
  722SOL    HW1 3065   4.190   6.539   0.228
  722SOL    HW2 3066   4.346   6.502   0.259
  723SOL     OW 3067   2.371   5.554   3.495
  723SOL    HW1 3068   2.355   5.649   3.522
  723SOL    HW2 3069   2.469   5.533   3.502
  724SOL     OW 3070   0.751   1.486   4.150
  724SOL    HW1 3071   0.726   1.398   4.109
  724SOL    HW2 3072   0.822   1.471   4.219
  725SOL     OW 3073   1.364   3.499   2.620
  725SOL    HW1 3074   1.273   3.461   2.639
  725SOL    HW2 3075   1.380   3.577   2.680
  726SOL     OW 3076   1.671   4.461   0.833
  726SOL    HW1 3077   1.737   4.488   0.903
  726SOL    HW2 3078   1.579   4.464   0.872
  727SOL     OW 3079   4.535   5.883   5.393
  727SOL    HW1 3080   4.602   5.810   5.383
  727SOL    HW2 3081   4.464   5.855   5.458
  728SOL     OW 3082   6.724   3.574   4.214
  728SOL    HW1 3083   6.659   3.506   4.247
  728SOL    HW2 3084   6.768   3.541   4.130
  729SOL     OW 3085   0.371   3.896   1.757
  729SOL    HW1 3086   0.365   3.820   1.693
  729SOL    HW2 3087   0.290   3.898   1.816
  730SOL     OW 3088   4.808   0.770   3.183
  730SOL    HW1 3089   4.789   0.815   3.270
  730SOL    HW2 3090   4.832   0.839   3.114
  731SOL     OW 3091   4.325   4.969   6.251
  731SOL    HW1 3092   4.348   5.048   6.194
  731SOL    HW2 3093   4.263   4.908   6.201
  732SOL     OW 3094   4.875   1.631   4.499
  732SOL    HW1 3095   4.859   1.601   4.593
  732SOL    HW2 3096   4.962   1.593   4.467
  733SOL     OW 3097   6.245   6.533   3.134
  733SOL    HW1 3098   6.164   6.552   3.190
  733SOL    HW2 3099   6.266   6.436   3.139
  734SOL     OW 3100   6.233   6.385   2.467
  734SOL    HW1 3101   6.290   6.396   2.386
  734SOL    HW2 3102   6.165   6.313   2.450
  735SOL     OW 3103   4.721   0.644   2.467
  735SOL    HW1 3104   4.794   0.710   2.487
  735SOL    HW2 3105   4.641   0.692   2.433
  736SOL     OW 3106   1.349   1.777   4.276
  736SOL    HW1 3107   1.332   1.768   4.178
  736SOL    HW2 3108   1.311   1.864   4.308
  737SOL     OW 3109   4.870   1.072   6.673
  737SOL    HW1 3110   4.856   1.171   6.673
  737SOL    HW2 3111   4.921   1.045   6.592
  738SOL     OW 3112   2.186   4.344   1.018
  738SOL    HW1 3113   2.151   4.289   0.943
  738SOL    HW2 3114   2.265   4.397   0.987
  739SOL     OW 3115   3.047   6.974   4.724
  739SOL    HW1 3116   3.122   0.012   4.740
  739SOL    HW2 3117   3.031   6.966   4.626
  740SOL     OW 3118   5.430   3.436   2.650
  740SOL    HW1 3119   5.505   3.409   2.711
  740SOL    HW2 3120   5.365   3.361   2.642
  741SOL     OW 3121   2.738   0.365   3.216
  741SOL    HW1 3122   2.723   0.464   3.218
  741SOL    HW2 3123   2.790   0.342   3.133
  742SOL     OW 3124   1.909   6.740   1.689
  742SOL    HW1 3125   1.819   6.747   1.733
  742SOL    HW2 3126   1.920   6.815   1.624
  743SOL     OW 3127   0.932   6.764   3.348
  743SOL    HW1 3128   0.858   6.830   3.362
  743SOL    HW2 3129   0.927   6.693   3.418
  744SOL     OW 3130   4.537   2.012   0.228
  744SOL    HW1 3131   4.463   2.000   0.162
  744SOL    HW2 3132   4.614   2.058   0.183
  745SOL     OW 3133   2.723   6.474   4.647
  745SOL    HW1 3134   2.749   6.493   4.742
  745SOL    HW2 3135   2.804   6.453   4.593
  746SOL     OW 3136   6.624   4.513   5.654
  746SOL    HW1 3137   6.628   4.431   5.710
  746SOL    HW2 3138   6.625   4.488   5.557
  747SOL     OW 3139   5.204   6.249   3.187
  747SOL    HW1 3140   5.282   6.221   3.131
  747SOL    HW2 3141   5.120   6.209   3.148
  748SOL     OW 3142   5.595   5.443   2.142
  748SOL    HW1 3143   5.542   5.491   2.211
  748SOL    HW2 3144   5.689   5.433   2.173
  749SOL     OW 3145   5.053   3.557   3.810
  749SOL    HW1 3146   5.041   3.500   3.729
  749SOL    HW2 3147   5.050   3.653   3.784
  750SOL     OW 3148   2.484   2.040   1.697
  750SOL    HW1 3149   2.538   1.964   1.731
  750SOL    HW2 3150   2.480   2.037   1.597
  751SOL     OW 3151   4.668   0.118   0.211
  751SOL    HW1 3152   4.667   0.029   0.257
  751SOL    HW2 3153   4.652   0.190   0.278
  752SOL     OW 3154   3.679   2.465   5.484
  752SOL    HW1 3155   3.684   2.548   5.429
  752SOL    HW2 3156   3.618   2.399   5.440
  753SOL     OW 3157   3.706   3.260   4.813
  753SOL    HW1 3158   3.692   3.359   4.810
  753SOL    HW2 3159   3.650   3.220   4.885
  754SOL     OW 3160   6.077   0.402   0.043
  754SOL    HW1 3161   6.138   0.470   0.003
  754SOL    HW2 3162   5.982   0.434   0.035
  755SOL     OW 3163   4.143   4.480   5.356
  755SOL    HW1 3164   4.226   4.479   5.300
  755SOL    HW2 3165   4.072   4.532   5.309
  756SOL     OW 3166   2.093   5.084   6.182
  756SOL    HW1 3167   2.157   5.151   6.221
  756SOL    HW2 3168   2.144   5.003   6.155
  757SOL     OW 3169   2.616   6.522   2.797
  757SOL    HW1 3170   2.542   6.493   2.857
  757SOL    HW2 3171   2.611   6.620   2.783
  758SOL     OW 3172   3.211   1.462   3.701
  758SOL    HW1 3173   3.202   1.421   3.611
  758SOL    HW2 3174   3.183   1.558   3.696
  759SOL     OW 3175   0.288   2.628   4.480
  759SOL    HW1 3176   0.288   2.528   4.478
  759SOL    HW2 3177   0.369   2.660   4.529
  760SOL     OW 3178   6.446   5.753   3.552
  760SOL    HW1 3179   6.370   5.766   3.489
  760SOL    HW2 3180   6.495   5.840   3.563
  761SOL     OW 3181   3.991   3.294   6.214
  761SOL    HW1 3182   4.036   3.268   6.299
  761SOL    HW2 3183   4.029   3.239   6.139
  762SOL     OW 3184   3.374   5.387   4.233
  762SOL    HW1 3185   3.472   5.377   4.216
  762SOL    HW2 3186   3.323   5.331   4.167
  763SOL     OW 3187   6.080   0.674   0.173
  763SOL    HW1 3188   6.139   0.624   0.110
  763SOL    HW2 3189   6.127   0.686   0.260
  764SOL     OW 3190   5.472   0.208   5.470
  764SOL    HW1 3191   5.438   0.176   5.558
  764SOL    HW2 3192   5.545   0.147   5.438
  765SOL     OW 3193   6.528   6.438   0.792
  765SOL    HW1 3194   6.544   6.419   0.695
  765SOL    HW2 3195   6.472   6.366   0.832
  766SOL     OW 3196   2.123   2.002   5.064
  766SOL    HW1 3197   2.203   2.055   5.038
  766SOL    HW2 3198   2.051   2.063   5.096
  767SOL     OW 3199   7.013   6.069   4.669
  767SOL    HW1 3200   6.976   6.109   4.753
  767SOL    HW2 3201   0.008   5.973   4.685
  768SOL     OW 3202   1.811   5.176   2.255
  768SOL    HW1 3203   1.729   5.230   2.237
  768SOL    HW2 3204   1.891   5.236   2.257
  769SOL     OW 3205   2.554   2.595   4.648
  769SOL    HW1 3206   2.595   2.686   4.655
  769SOL    HW2 3207   2.505   2.574   4.733
  770SOL     OW 3208   1.590   4.402   5.101
  770SOL    HW1 3209   1.530   4.475   5.066
  770SOL    HW2 3210   1.604   4.414   5.199
  771SOL     OW 3211   1.244   5.680   3.288
  771SOL    HW1 3212   1.179   5.755   3.300
  771SOL    HW2 3213   1.203   5.595   3.319
  772SOL     OW 3214   5.672   4.132   0.572
  772SOL    HW1 3215   5.729   4.139   0.490
  772SOL    HW2 3216   5.637   4.039   0.581
  773SOL     OW 3217   0.627   3.684   3.434
  773SOL    HW1 3218   0.583   3.595   3.448
  773SOL    HW2 3219   0.723   3.679   3.464
  774SOL     OW 3220   1.943   0.466   2.892
  774SOL    HW1 3221   2.000   0.426   2.963
  774SOL    HW2 3222   1.957   0.565   2.890
  775SOL     OW 3223   2.150   4.659   2.871
  775SOL    HW1 3224   2.084   4.731   2.892
  775SOL    HW2 3225   2.242   4.689   2.898
  776SOL     OW 3226   2.917   5.290   6.647
  776SOL    HW1 3227   2.980   5.214   6.635
  776SOL    HW2 3228   2.960   5.360   6.704
  777SOL     OW 3229   2.368   4.222   0.077
  777SOL    HW1 3230   2.288   4.162   0.068
  777SOL    HW2 3231   2.451   4.168   0.061
  778SOL     OW 3232   3.039   0.021   1.464
  778SOL    HW1 3233   3.025   0.106   1.514
  778SOL    HW2 3234   2.956   7.024   1.413
  779SOL     OW 3235   6.813   2.079   3.567
  779SOL    HW1 3236   6.781   2.148   3.503
  779SOL    HW2 3237   6.746   2.005   3.571
  780SOL     OW 3238   0.861   1.899   4.070
  780SOL    HW1 3239   0.821   1.856   3.988
  780SOL    HW2 3240   0.947   1.944   4.045
  781SOL     OW 3241   0.693   4.508   0.138
  781SOL    HW1 3242   0.722   4.541   0.048
  781SOL    HW2 3243   0.651   4.418   0.128
  782SOL     OW 3244   1.661   3.354   5.093
  782SOL    HW1 3245   1.737   3.318   5.147
  782SOL    HW2 3246   1.679   3.450   5.071
  783SOL     OW 3247   6.533   5.309   6.217
  783SOL    HW1 3248   6.456   5.294   6.278
  783SOL    HW2 3249   6.613   5.260   6.251
  784SOL     OW 3250   3.077   6.220   0.567
  784SOL    HW1 3251   3.018   6.267   0.502
  784SOL    HW2 3252   3.111   6.135   0.526
  785SOL     OW 3253   1.322   6.872   4.523
  785SOL    HW1 3254   1.415   6.857   4.490
  785SOL    HW2 3255   1.299   6.803   4.592
  786SOL     OW 3256   6.686   1.056   3.360
  786SOL    HW1 3257   6.709   1.143   3.405
  786SOL    HW2 3258   6.610   1.071   3.297
  787SOL     OW 3259   2.462   0.267   0.891
  787SOL    HW1 3260   2.482   0.363   0.911
  787SOL    HW2 3261   2.494   0.246   0.798
  788SOL     OW 3262   2.938   2.464   1.236
  788SOL    HW1 3263   2.962   2.538   1.173
  788SOL    HW2 3264   2.964   2.489   1.329
  789SOL     OW 3265   4.132   4.931   1.836
  789SOL    HW1 3266   4.093   4.841   1.820
  789SOL    HW2 3267   4.230   4.923   1.855
  790SOL     OW 3268   0.500   2.189   2.340
  790SOL    HW1 3269   0.414   2.140   2.350
  790SOL    HW2 3270   0.482   2.285   2.322
  791SOL     OW 3271   3.038   5.321   4.608
  791SOL    HW1 3272   3.114   5.386   4.604
  791SOL    HW2 3273   3.011   5.308   4.703
  792SOL     OW 3274   1.513   0.591   0.642
  792SOL    HW1 3275   1.447   0.525   0.606
  792SOL    HW2 3276   1.465   0.676   0.666
  793SOL     OW 3277   2.628   6.096   4.091
  793SOL    HW1 3278   2.619   6.038   4.010
  793SOL    HW2 3279   2.571   6.177   4.080
  794SOL     OW 3280   3.393   3.200   2.941
  794SOL    HW1 3281   3.321   3.133   2.958
  794SOL    HW2 3282   3.453   3.167   2.867
  795SOL     OW 3283   3.687   0.485   6.599
  795SOL    HW1 3284   3.720   0.476   6.505
  795SOL    HW2 3285   3.613   0.419   6.615
  796SOL     OW 3286   1.415   3.161   6.777
  796SOL    HW1 3287   1.373   3.212   6.702
  796SOL    HW2 3288   1.413   3.217   6.860
  797SOL     OW 3289   4.984   6.994   0.627
  797SOL    HW1 3290   5.014   6.950   0.712
  797SOL    HW2 3291   4.994   6.930   0.551
  798SOL     OW 3292   4.278   6.382   0.590
  798SOL    HW1 3293   4.216   6.369   0.514
  798SOL    HW2 3294   4.229   6.369   0.677
  799SOL     OW 3295   1.645   2.308   5.178
  799SOL    HW1 3296   1.712   2.235   5.193
  799SOL    HW2 3297   1.647   2.336   5.082
  800SOL     OW 3298   5.934   3.086   2.653
  800SOL    HW1 3299   5.836   3.073   2.661
  800SOL    HW2 3300   5.965   3.052   2.564
  801SOL     OW 3301   1.982   5.602   5.537
  801SOL    HW1 3302   2.029   5.669   5.595
  801SOL    HW2 3303   1.972   5.516   5.588
  802SOL     OW 3304   5.434   2.722   6.195
  802SOL    HW1 3305   5.469   2.685   6.109
  802SOL    HW2 3306   5.510   2.754   6.251
  803SOL     OW 3307   2.550   1.157   5.455
  803SOL    HW1 3308   2.607   1.085   5.415
  803SOL    HW2 3309   2.605   1.240   5.468
  804SOL     OW 3310   5.478   0.563   2.493
  804SOL    HW1 3311   5.457   0.547   2.396
  804SOL    HW2 3312   5.518   0.654   2.504
  805SOL     OW 3313   3.774   0.742   3.257
  805SOL    HW1 3314   3.736   0.719   3.347
  805SOL    HW2 3315   3.726   0.822   3.221
  806SOL     OW 3316   2.157   5.898   5.994
  806SOL    HW1 3317   2.193   5.988   6.015
  806SOL    HW2 3318   2.220   5.828   6.026
  807SOL     OW 3319   1.021   5.957   6.053
  807SOL    HW1 3320   0.960   5.957   5.974
  807SOL    HW2 3321   0.986   6.021   6.122
  808SOL     OW 3322   5.779   3.239   0.108
  808SOL    HW1 3323   5.713   3.268   0.039
  808SOL    HW2 3324   5.730   3.212   0.192
  809SOL     OW 3325   2.252   4.719   0.106
  809SOL    HW1 3326   2.348   4.740   0.123
  809SOL    HW2 3327   2.244   4.632   0.058
  810SOL     OW 3328   3.705   3.234   0.071
  810SOL    HW1 3329   3.611   3.215   0.042
  810SOL    HW2 3330   3.768   3.199   0.002
  811SOL     OW 3331   5.739   4.772   4.518
  811SOL    HW1 3332   5.651   4.811   4.490
  811SOL    HW2 3333   5.806   4.845   4.529
  812SOL     OW 3334   0.537   3.129   2.363
  812SOL    HW1 3335   0.465   3.060   2.365
  812SOL    HW2 3336   0.504   3.209   2.313
  813SOL     OW 3337   0.906   2.057   4.475
  813SOL    HW1 3338   0.881   2.106   4.559
  813SOL    HW2 3339   0.825   2.050   4.416
  814SOL     OW 3340   0.617   4.997   2.807
  814SOL    HW1 3341   0.550   5.051   2.858
  814SOL    HW2 3342   0.571   4.920   2.762
  815SOL     OW 3343   4.776   1.658   4.252
  815SOL    HW1 3344   4.818   1.642   4.341
  815SOL    HW2 3345   4.836   1.716   4.197
  816SOL     OW 3346   5.327   4.814   6.644
  816SOL    HW1 3347   5.295   4.839   6.552
  816SOL    HW2 3348   5.390   4.737   6.637
  817SOL     OW 3349   1.099   4.168   6.880
  817SOL    HW1 3350   1.117   4.115   6.797
  817SOL    HW2 3351   1.171   4.236   6.892
  818SOL     OW 3352   6.395   2.674   4.700
  818SOL    HW1 3353   6.444   2.627   4.626
  818SOL    HW2 3354   6.424   2.635   4.788
  819SOL     OW 3355   4.960   1.985   1.670
  819SOL    HW1 3356   4.930   1.961   1.762
  819SOL    HW2 3357   4.888   2.036   1.623
  820SOL     OW 3358   2.114   1.980   4.733
  820SOL    HW1 3359   2.144   1.965   4.827
  820SOL    HW2 3360   2.080   1.894   4.695
  821SOL     OW 3361   5.400   3.524   5.692
  821SOL    HW1 3362   5.439   3.494   5.779
  821SOL    HW2 3363   5.460   3.495   5.617
  822SOL     OW 3364   0.485   4.189   3.320
  822SOL    HW1 3365   0.559   4.169   3.256
  822SOL    HW2 3366   0.397   4.173   3.275
  823SOL     OW 3367   0.943   3.598   5.682
  823SOL    HW1 3368   0.878   3.553   5.620
  823SOL    HW2 3369   1.036   3.566   5.662
  824SOL     OW 3370   5.647   1.353   5.636
  824SOL    HW1 3371   5.706   1.416   5.584
  824SOL    HW2 3372   5.693   1.326   5.720
  825SOL     OW 3373   5.902   5.663   1.078
  825SOL    HW1 3374   5.911   5.578   1.026
  825SOL    HW2 3375   5.954   5.655   1.163
  826SOL     OW 3376   3.673   1.797   6.805
  826SOL    HW1 3377   3.733   1.833   6.876
  826SOL    HW2 3378   3.615   1.725   6.842
  827SOL     OW 3379   3.847   3.789   4.834
  827SOL    HW1 3380   3.852   3.888   4.825
  827SOL    HW2 3381   3.940   3.751   4.831
  828SOL     OW 3382   6.430   5.986   5.517
  828SOL    HW1 3383   6.493   5.930   5.571
  828SOL    HW2 3384   6.337   5.974   5.551
  829SOL     OW 3385   3.155   3.393   2.489
  829SOL    HW1 3386   3.123   3.448   2.566
  829SOL    HW2 3387   3.186   3.454   2.416
  830SOL     OW 3388   6.363   4.534   0.244
  830SOL    HW1 3389   6.397   4.599   0.311
  830SOL    HW2 3390   6.264   4.544   0.234
  831SOL     OW 3391   4.574   0.249   1.401
  831SOL    HW1 3392   4.598   0.223   1.495
  831SOL    HW2 3393   4.658   0.256   1.346
  832SOL     OW 3394   2.794   2.017   4.649
  832SOL    HW1 3395   2.821   2.028   4.745
  832SOL    HW2 3396   2.696   2.035   4.640
  833SOL     OW 3397   2.560   2.160   6.434
  833SOL    HW1 3398   2.478   2.212   6.458
  833SOL    HW2 3399   2.554   2.068   6.475
  834SOL     OW 3400   5.297   3.345   0.147
  834SOL    HW1 3401   5.382   3.310   0.106
  834SOL    HW2 3402   5.299   3.445   0.147
  835SOL     OW 3403   0.649   0.085   4.172
  835SOL    HW1 3404   0.710   0.009   4.193
  835SOL    HW2 3405   0.681   0.132   4.090
  836SOL     OW 3406   3.724   1.241   4.494
  836SOL    HW1 3407   3.726   1.340   4.483
  836SOL    HW2 3408   3.768   1.198   4.415
  837SOL     OW 3409   1.785   0.562   0.576
  837SOL    HW1 3410   1.835   0.520   0.652
  837SOL    HW2 3411   1.688   0.564   0.597
  838SOL     OW 3412   1.768   5.145   3.511
  838SOL    HW1 3413   1.716   5.170   3.593
  838SOL    HW2 3414   1.866   5.158   3.529
  839SOL     OW 3415   1.131   1.789   0.342
  839SOL    HW1 3416   1.141   1.878   0.385
  839SOL    HW2 3417   1.157   1.795   0.246
  840SOL     OW 3418   5.479   5.207   6.645
  840SOL    HW1 3419   5.536   5.289   6.637
  840SOL    HW2 3420   5.530   5.136   6.694
  841SOL     OW 3421   3.217   4.619   6.758
  841SOL    HW1 3422   3.148   4.630   6.687
  841SOL    HW2 3423   3.302   4.586   6.718
  842SOL     OW 3424   3.472   6.438   6.758
  842SOL    HW1 3425   3.516   6.494   6.689
  842SOL    HW2 3426   3.476   6.342   6.731
  843SOL     OW 3427   1.331   1.153   2.348
  843SOL    HW1 3428   1.252   1.173   2.406
  843SOL    HW2 3429   1.414   1.190   2.390
  844SOL     OW 3430   6.137   0.891   1.573
  844SOL    HW1 3431   6.148   0.824   1.499
  844SOL    HW2 3432   6.054   0.869   1.624
  845SOL     OW 3433   3.681   1.183   2.406
  845SOL    HW1 3434   3.764   1.161   2.354
  845SOL    HW2 3435   3.706   1.220   2.495
  846SOL     OW 3436   2.643   1.918   0.612
  846SOL    HW1 3437   2.717   1.964   0.660
  846SOL    HW2 3438   2.648   1.939   0.514
  847SOL     OW 3439   2.779   4.192   1.317
  847SOL    HW1 3440   2.784   4.152   1.408
  847SOL    HW2 3441   2.866   4.238   1.296
  848SOL     OW 3442   0.094   5.673   0.320
  848SOL    HW1 3443   0.067   5.656   0.415
  848SOL    HW2 3444   0.104   5.586   0.272
  849SOL     OW 3445   6.088   3.797   6.487
  849SOL    HW1 3446   6.083   3.727   6.557
  849SOL    HW2 3447   6.180   3.800   6.449
  850SOL     OW 3448   0.765   0.697   5.209
  850SOL    HW1 3449   0.772   0.664   5.115
  850SOL    HW2 3450   0.834   0.769   5.224
  851SOL     OW 3451   6.616   3.226   5.888
  851SOL    HW1 3452   6.692   3.243   5.950
  851SOL    HW2 3453   6.531   3.220   5.940
  852SOL     OW 3454   0.547   4.048   2.387
  852SOL    HW1 3455   0.643   4.062   2.412
  852SOL    HW2 3456   0.535   3.954   2.355
  853SOL     OW 3457   2.766   2.908   6.778
  853SOL    HW1 3458   2.860   2.912   6.812
  853SOL    HW2 3459   2.710   2.854   6.841
  854SOL     OW 3460   5.676   6.729   6.730
  854SOL    HW1 3461   5.718   6.646   6.696
  854SOL    HW2 3462   5.671   6.797   6.657
  855SOL     OW 3463   5.800   1.402   7.024
  855SOL    HW1 3464   5.784   1.493   0.037
  855SOL    HW2 3465   5.898   1.384   7.020
  856SOL     OW 3466   2.078   6.105   0.698
  856SOL    HW1 3467   2.103   6.031   0.761
  856SOL    HW2 3468   1.997   6.152   0.734
  857SOL     OW 3469   6.351   5.240   5.823
  857SOL    HW1 3470   6.326   5.265   5.729
  857SOL    HW2 3471   6.430   5.179   5.821
  858SOL     OW 3472   4.185   3.426   0.576
  858SOL    HW1 3473   4.086   3.409   0.571
  858SOL    HW2 3474   4.224   3.423   0.483
  859SOL     OW 3475   4.491   6.473   5.811
  859SOL    HW1 3476   4.491   6.382   5.768
  859SOL    HW2 3477   4.584   6.507   5.816
  860SOL     OW 3478   5.490   3.415   5.918
  860SOL    HW1 3479   5.427   3.432   5.994
  860SOL    HW2 3480   5.506   3.316   5.910
  861SOL     OW 3481   2.399   5.983   2.537
  861SOL    HW1 3482   2.320   6.032   2.502
  861SOL    HW2 3483   2.431   6.026   2.621
  862SOL     OW 3484   0.566   4.052   3.558
  862SOL    HW1 3485   0.658   4.081   3.584
  862SOL    HW2 3486   0.535   4.105   3.479
  863SOL     OW 3487   0.063   0.465   0.111
  863SOL    HW1 3488   0.145   0.414   0.137
  863SOL    HW2 3489   7.014   0.440   0.171
  864SOL     OW 3490   5.787   0.218   4.840
  864SOL    HW1 3491   5.736   0.239   4.757
  864SOL    HW2 3492   5.748   0.270   4.916
  865SOL     OW 3493   2.169   6.413   4.727
  865SOL    HW1 3494   2.078   6.403   4.687
  865SOL    HW2 3495   2.193   6.329   4.776
  866SOL     OW 3496   3.554   6.340   1.956
  866SOL    HW1 3497   3.465   6.344   1.910
  866SOL    HW2 3498   3.599   6.429   1.950
  867SOL     OW 3499   5.851   2.235   6.675
  867SOL    HW1 3500   5.867   2.270   6.583
  867SOL    HW2 3501   5.771   2.280   6.714
  868SOL     OW 3502   6.958   1.777   2.519
  868SOL    HW1 3503   0.002   1.842   2.545
  868SOL    HW2 3504   6.868   1.812   2.547
  869SOL     OW 3505   6.863   3.813   3.544
  869SOL    HW1 3506   6.854   3.729   3.492
  869SOL    HW2 3507   6.773   3.857   3.552
  870SOL     OW 3508   3.509   5.064   1.961
  870SOL    HW1 3509   3.544   4.970   1.963
  870SOL    HW2 3510   3.423   5.069   2.011
  871SOL     OW 3511   4.137   1.620   3.378
  871SOL    HW1 3512   4.204   1.547   3.361
  871SOL    HW2 3513   4.075   1.592   3.451
  872SOL     OW 3514   6.968   3.235   5.190
  872SOL    HW1 3515   6.966   3.332   5.216
  872SOL    HW2 3516   7.017   3.183   5.260
  873SOL     OW 3517   4.991   6.687   6.126
  873SOL    HW1 3518   5.033   6.774   6.101
  873SOL    HW2 3519   4.998   6.675   6.225
  874SOL     OW 3520   4.592   4.413   0.507
  874SOL    HW1 3521   4.509   4.359   0.522
  874SOL    HW2 3522   4.568   4.500   0.463
  875SOL     OW 3523   5.305   5.269   0.631
  875SOL    HW1 3524   5.329   5.366   0.643
  875SOL    HW2 3525   5.388   5.215   0.619
  876SOL     OW 3526   6.996   6.448   1.353
  876SOL    HW1 3527   7.000   6.349   1.343
  876SOL    HW2 3528   6.905   6.475   1.384
  877SOL     OW 3529   2.867   3.698   6.562
  877SOL    HW1 3530   2.837   3.634   6.632
  877SOL    HW2 3531   2.912   3.648   6.488
  878SOL     OW 3532   4.074   6.490   4.080
  878SOL    HW1 3533   3.996   6.548   4.055
  878SOL    HW2 3534   4.072   6.407   4.024
  879SOL     OW 3535   6.081   0.473   0.895
  879SOL    HW1 3536   6.052   0.512   0.808
  879SOL    HW2 3537   6.156   0.408   0.879
  880SOL     OW 3538   2.926   3.241   2.708
  880SOL    HW1 3539   2.954   3.337   2.705
  880SOL    HW2 3540   2.863   3.227   2.784
  881SOL     OW 3541   4.173   1.820   6.875
  881SOL    HW1 3542   4.096   1.760   6.852
  881SOL    HW2 3543   4.140   1.900   6.924
  882SOL     OW 3544   1.413   3.422   4.172
  882SOL    HW1 3545   1.435   3.334   4.130
  882SOL    HW2 3546   1.498   3.468   4.198
  883SOL     OW 3547   2.742   0.229   2.433
  883SOL    HW1 3548   2.711   0.191   2.346
  883SOL    HW2 3549   2.785   0.317   2.418
  884SOL     OW 3550   4.552   3.353   5.631
  884SOL    HW1 3551   4.546   3.367   5.532
  884SOL    HW2 3552   4.613   3.421   5.671
  885SOL     OW 3553   3.928   2.148   6.374
  885SOL    HW1 3554   3.958   2.239   6.344
  885SOL    HW2 3555   3.829   2.147   6.384
  886SOL     OW 3556   3.667   0.247   6.916
  886SOL    HW1 3557   3.649   0.339   6.950
  886SOL    HW2 3558   3.581   0.200   6.899
  887SOL     OW 3559   4.239   1.431   4.257
  887SOL    HW1 3560   4.265   1.520   4.218
  887SOL    HW2 3561   4.195   1.376   4.186
  888SOL     OW 3562   0.095   0.134   3.425
  888SOL    HW1 3563   0.099   0.225   3.467
  888SOL    HW2 3564   0.019   0.083   3.465
  889SOL     OW 3565   1.144   3.679   0.055
  889SOL    HW1 3566   1.097   3.635   0.132
  889SOL    HW2 3567   1.226   3.627   0.031
  890SOL     OW 3568   2.545   5.524   3.758
  890SOL    HW1 3569   2.524   5.426   3.763
  890SOL    HW2 3570   2.582   5.546   3.668
  891SOL     OW 3571   5.641   5.706   0.861
  891SOL    HW1 3572   5.642   5.652   0.777
  891SOL    HW2 3573   5.600   5.653   0.935
  892SOL     OW 3574   3.059   4.844   6.207
  892SOL    HW1 3575   3.054   4.747   6.230
  892SOL    HW2 3576   3.001   4.896   6.269
  893SOL     OW 3577   2.539   6.784   2.785
  893SOL    HW1 3578   2.472   6.836   2.837
  893SOL    HW2 3579   2.613   6.845   2.756
  894SOL     OW 3580   1.405   3.919   1.555
  894SOL    HW1 3581   1.415   3.820   1.543
  894SOL    HW2 3582   1.308   3.941   1.570
  895SOL     OW 3583   0.369   6.177   3.636
  895SOL    HW1 3584   0.373   6.246   3.563
  895SOL    HW2 3585   0.319   6.214   3.714
  896SOL     OW 3586   6.514   6.252   5.212
  896SOL    HW1 3587   6.493   6.289   5.303
  896SOL    HW2 3588   6.487   6.156   5.208
  897SOL     OW 3589   5.469   0.529   6.578
  897SOL    HW1 3590   5.436   0.602   6.519
  897SOL    HW2 3591   5.425   0.443   6.552
  898SOL     OW 3592   3.996   6.050   2.907
  898SOL    HW1 3593   3.964   5.967   2.954
  898SOL    HW2 3594   3.941   6.128   2.935
  899SOL     OW 3595   6.962   4.976   6.418
  899SOL    HW1 3596   6.876   4.951   6.374
  899SOL    HW2 3597   6.995   5.063   6.381
  900SOL     OW 3598   5.830   6.186   0.972
  900SOL    HW1 3599   5.884   6.156   0.893
  900SOL    HW2 3600   5.795   6.105   1.020
  901SOL     OW 3601   1.463   0.977   2.055
  901SOL    HW1 3602   1.482   0.921   2.135
  901SOL    HW2 3603   1.427   1.066   2.084
  902SOL     OW 3604   6.415   4.134   1.491
  902SOL    HW1 3605   6.322   4.103   1.508
  902SOL    HW2 3606   6.417   4.189   1.407
  903SOL     OW 3607   6.599   2.441   0.241
  903SOL    HW1 3608   6.699   2.436   0.235
  903SOL    HW2 3609   6.572   2.449   0.337
  904SOL     OW 3610   3.129   1.770   3.020
  904SOL    HW1 3611   3.061   1.712   2.975
  904SOL    HW2 3612   3.123   1.863   2.984
  905SOL     OW 3613   5.751   2.689   6.681
  905SOL    HW1 3614   5.763   2.652   6.773
  905SOL    HW2 3615   5.776   2.620   6.613
  906SOL     OW 3616   6.483   3.069   6.373
  906SOL    HW1 3617   6.525   3.158   6.352
  906SOL    HW2 3618   6.501   3.046   6.468
  907SOL     OW 3619   4.846   3.633   0.007
  907SOL    HW1 3620   4.895   3.573   0.070
  907SOL    HW2 3621   4.905   3.652   6.954
  908SOL     OW 3622   2.873   4.786   2.445
  908SOL    HW1 3623   2.778   4.816   2.447
  908SOL    HW2 3624   2.884   4.715   2.375
  909SOL     OW 3625   5.410   5.160   6.392
  909SOL    HW1 3626   5.316   5.186   6.371
  909SOL    HW2 3627   5.428   5.178   6.489
  910SOL     OW 3628   2.585   3.436   1.355
  910SOL    HW1 3629   2.620   3.348   1.387
  910SOL    HW2 3630   2.537   3.424   1.268
  911SOL     OW 3631   1.213   5.475   6.344
  911SOL    HW1 3632   1.304   5.460   6.307
  911SOL    HW2 3633   1.144   5.437   6.282
  912SOL     OW 3634   4.999   2.324   3.093
  912SOL    HW1 3635   5.085   2.273   3.087
  912SOL    HW2 3636   4.923   2.264   3.069
  913SOL     OW 3637   5.263   0.091   3.181
  913SOL    HW1 3638   5.270   7.023   3.212
  913SOL    HW2 3639   5.242   0.093   3.083
  914SOL     OW 3640   2.519   6.839   6.985
  914SOL    HW1 3641   2.582   6.772   7.024
  914SOL    HW2 3642   2.478   6.801   6.901
  915SOL     OW 3643   6.028   5.837   0.729
  915SOL    HW1 3644   6.043   5.752   0.780
  915SOL    HW2 3645   5.967   5.820   0.652
  916SOL     OW 3646   0.844   2.410   2.253
  916SOL    HW1 3647   0.785   2.394   2.332
  916SOL    HW2 3648   0.833   2.334   2.188
  917SOL     OW 3649   6.927   0.114   0.482
  917SOL    HW1 3650   6.842   0.074   0.517
  917SOL    HW2 3651   7.001   0.097   0.547
  918SOL     OW 3652   1.881   5.247   0.659
  918SOL    HW1 3653   1.941   5.294   0.595
  918SOL    HW2 3654   1.874   5.301   0.744
  919SOL     OW 3655   5.541   1.594   4.234
  919SOL    HW1 3656   5.449   1.555   4.225
  919SOL    HW2 3657   5.534   1.692   4.249
  920SOL     OW 3658   2.878   4.819   2.124
  920SOL    HW1 3659   2.975   4.844   2.114
  920SOL    HW2 3660   2.851   4.761   2.047
  921SOL     OW 3661   4.984   5.960   4.750
  921SOL    HW1 3662   4.988   6.002   4.841
  921SOL    HW2 3663   5.048   6.007   4.689
  922SOL     OW 3664   4.148   3.475   3.657
  922SOL    HW1 3665   4.142   3.502   3.560
  922SOL    HW2 3666   4.219   3.530   3.702
  923SOL     OW 3667   2.410   3.335   5.551
  923SOL    HW1 3668   2.318   3.323   5.589
  923SOL    HW2 3669   2.467   3.257   5.579
  924SOL     OW 3670   0.075   3.678   3.078
  924SOL    HW1 3671   0.067   3.613   3.154
  924SOL    HW2 3672   0.144   3.646   3.013
  925SOL     OW 3673   5.997   1.814   0.127
  925SOL    HW1 3674   6.005   1.907   0.090
  925SOL    HW2 3675   6.031   1.749   0.059
  926SOL     OW 3676   0.131   1.416   2.156
  926SOL    HW1 3677   0.125   1.491   2.090
  926SOL    HW2 3678   0.144   1.453   2.248
  927SOL     OW 3679   5.521   4.100   3.602
  927SOL    HW1 3680   5.512   4.156   3.685
  927SOL    HW2 3681   5.596   4.135   3.547
  928SOL     OW 3682   2.928   5.678   0.214
  928SOL    HW1 3683   2.925   5.610   0.287
  928SOL    HW2 3684   2.882   5.643   0.133
  929SOL     OW 3685   6.651   1.565   5.425
  929SOL    HW1 3686   6.661   1.648   5.480
  929SOL    HW2 3687   6.682   1.486   5.478
  930SOL     OW 3688   5.451   5.553   5.598
  930SOL    HW1 3689   5.451   5.506   5.687
  930SOL    HW2 3690   5.435   5.650   5.611
  931SOL     OW 3691   6.364   2.608   2.987
  931SOL    HW1 3692   6.379   2.698   2.947
  931SOL    HW2 3693   6.448   2.577   3.032
  932SOL     OW 3694   3.246   0.639   3.750
  932SOL    HW1 3695   3.169   0.669   3.693
  932SOL    HW2 3696   3.298   0.719   3.780
  933SOL     OW 3697   1.345   5.095   2.290
  933SOL    HW1 3698   1.256   5.049   2.284
  933SOL    HW2 3699   1.414   5.030   2.320
  934SOL     OW 3700   1.809   4.718   6.373
  934SOL    HW1 3701   1.757   4.682   6.450
  934SOL    HW2 3702   1.753   4.783   6.322
  935SOL     OW 3703   5.495   3.305   3.780
  935SOL    HW1 3704   5.513   3.320   3.878
  935SOL    HW2 3705   5.545   3.224   3.750
  936SOL     OW 3706   1.827   0.442   6.452
  936SOL    HW1 3707   1.763   0.518   6.443
  936SOL    HW2 3708   1.916   0.477   6.483
  937SOL     OW 3709   5.053   1.534   5.756
  937SOL    HW1 3710   5.146   1.522   5.719
  937SOL    HW2 3711   5.033   1.458   5.818
  938SOL     OW 3712   5.424   5.911   4.319
  938SOL    HW1 3713   5.441   6.006   4.295
  938SOL    HW2 3714   5.327   5.889   4.302
  939SOL     OW 3715   0.395   6.763   5.066
  939SOL    HW1 3716   0.342   6.752   5.149
  939SOL    HW2 3717   0.395   6.677   5.015
  940SOL     OW 3718   2.040   4.945   0.463
  940SOL    HW1 3719   2.117   5.005   0.485
  940SOL    HW2 3720   1.954   4.994   0.479
  941SOL     OW 3721   3.191   0.298   6.704
  941SOL    HW1 3722   3.175   0.213   6.654
  941SOL    HW2 3723   3.120   0.365   6.681
  942SOL     OW 3724   0.484   5.091   0.472
  942SOL    HW1 3725   0.462   5.089   0.375
  942SOL    HW2 3726   0.416   5.145   0.521
  943SOL     OW 3727   2.728   5.729   3.155
  943SOL    HW1 3728   2.828   5.734   3.152
  943SOL    HW2 3729   2.698   5.636   3.137
  944SOL     OW 3730   0.433   6.902   4.575
  944SOL    HW1 3731   0.438   6.968   4.500
  944SOL    HW2 3732   0.393   6.816   4.542
  945SOL     OW 3733   0.876   5.540   6.833
  945SOL    HW1 3734   0.862   5.536   6.932
  945SOL    HW2 3735   0.816   5.610   6.793
  946SOL     OW 3736   4.819   3.163   3.311
  946SOL    HW1 3737   4.822   3.201   3.404
  946SOL    HW2 3738   4.866   3.224   3.248
  947SOL     OW 3739   3.923   3.972   4.341
  947SOL    HW1 3740   3.983   3.897   4.368
  947SOL    HW2 3741   3.932   3.989   4.243
  948SOL     OW 3742   4.182   0.426   2.901
  948SOL    HW1 3743   4.182   0.520   2.866
  948SOL    HW2 3744   4.088   0.394   2.911
  949SOL     OW 3745   2.585   6.610   6.350
  949SOL    HW1 3746   2.676   6.590   6.384
  949SOL    HW2 3747   2.557   6.539   6.286
  950SOL     OW 3748   0.066   6.777   2.113
  950SOL    HW1 3749   0.133   6.813   2.178
  950SOL    HW2 3750   7.022   6.727   2.163
  951SOL     OW 3751   2.342   6.859   3.341
  951SOL    HW1 3752   2.395   6.942   3.325
  951SOL    HW2 3753   2.251   6.868   3.300
  952SOL     OW 3754   3.371   1.302   1.871
  952SOL    HW1 3755   3.390   1.369   1.800
  952SOL    HW2 3756   3.443   1.233   1.874
  953SOL     OW 3757   6.145   4.574   5.719
  953SOL    HW1 3758   6.052   4.539   5.734
  953SOL    HW2 3759   6.169   4.562   5.623
  954SOL     OW 3760   4.709   6.075   2.218
  954SOL    HW1 3761   4.808   6.064   2.232
  954SOL    HW2 3762   4.661   5.998   2.258
  955SOL     OW 3763   1.455   4.697   6.783
  955SOL    HW1 3764   1.414   4.667   6.869
  955SOL    HW2 3765   1.504   4.621   6.742
  956SOL     OW 3766   5.760   0.580   1.490
  956SOL    HW1 3767   5.707   0.496   1.489
  956SOL    HW2 3768   5.701   0.656   1.517
  957SOL     OW 3769   5.880   1.892   3.185
  957SOL    HW1 3770   5.849   1.810   3.233
  957SOL    HW2 3771   5.979   1.903   3.199
  958SOL     OW 3772   5.384   0.172   1.781
  958SOL    HW1 3773   5.298   0.142   1.737
  958SOL    HW2 3774   5.398   0.269   1.764
  959SOL     OW 3775   4.145   6.323   4.300
  959SOL    HW1 3776   4.065   6.281   4.258
  959SOL    HW2 3777   4.177   6.399   4.242
  960SOL     OW 3778   0.839   6.979   6.947
  960SOL    HW1 3779   0.899   0.031   6.960
  960SOL    HW2 3780   0.767   6.980   7.017
  961SOL     OW 3781   3.441   0.215   2.577
  961SOL    HW1 3782   3.510   0.202   2.505
  961SOL    HW2 3783   3.353   0.179   2.546
  962SOL     OW 3784   6.557   0.268   5.359
  962SOL    HW1 3785   6.538   0.322   5.441
  962SOL    HW2 3786   6.484   0.282   5.293
  963SOL     OW 3787   5.640   3.240   0.915
  963SOL    HW1 3788   5.572   3.184   0.963
  963SOL    HW2 3789   5.724   3.186   0.903
  964SOL     OW 3790   4.882   4.326   5.089
  964SOL    HW1 3791   4.937   4.406   5.067
  964SOL    HW2 3792   4.921   4.280   5.169
  965SOL     OW 3793   5.984   2.757   3.751
  965SOL    HW1 3794   6.049   2.688   3.783
  965SOL    HW2 3795   5.950   2.809   3.829
  966SOL     OW 3796   4.619   2.041   4.495
  966SOL    HW1 3797   4.593   1.945   4.497
  966SOL    HW2 3798   4.573   2.090   4.569
  967SOL     OW 3799   4.942   3.967   6.058
  967SOL    HW1 3800   4.854   3.941   6.018
  967SOL    HW2 3801   4.935   3.964   6.158
  968SOL     OW 3802   3.448   0.810   1.830
  968SOL    HW1 3803   3.429   0.720   1.871
  968SOL    HW2 3804   3.362   0.851   1.800
  969SOL     OW 3805   3.517   4.325   5.982
  969SOL    HW1 3806   3.438   4.270   6.010
  969SOL    HW2 3807   3.572   4.274   5.916
  970SOL     OW 3808   6.191   0.228   5.861
  970SOL    HW1 3809   6.147   0.317   5.873
  970SOL    HW2 3810   6.194   0.180   5.948
  971SOL     OW 3811   5.641   4.337   2.501
  971SOL    HW1 3812   5.635   4.435   2.481
  971SOL    HW2 3813   5.614   4.321   2.597
  972SOL     OW 3814   0.306   3.145   0.769
  972SOL    HW1 3815   0.308   3.162   0.671
  972SOL    HW2 3816   0.359   3.063   0.790
  973SOL     OW 3817   6.747   3.645   6.457
  973SOL    HW1 3818   6.703   3.592   6.384
  973SOL    HW2 3819   6.680   3.707   6.498
  974SOL     OW 3820   0.127   5.188   3.975
  974SOL    HW1 3821   0.138   5.120   4.047
  974SOL    HW2 3822   0.043   5.171   3.924
  975SOL     OW 3823   2.605   6.816   2.081
  975SOL    HW1 3824   2.683   6.753   2.078
  975SOL    HW2 3825   2.617   6.880   2.156
  976SOL     OW 3826   6.462   3.322   3.039
  976SOL    HW1 3827   6.364   3.307   3.050
  976SOL    HW2 3828   6.478   3.418   3.013
  977SOL     OW 3829   0.388   0.831   2.579
  977SOL    HW1 3830   0.479   0.791   2.571
  977SOL    HW2 3831   0.396   0.930   2.592
  978SOL     OW 3832   5.521   3.274   1.741
  978SOL    HW1 3833   5.612   3.255   1.777
  978SOL    HW2 3834   5.511   3.229   1.652
  979SOL     OW 3835   0.568   4.019   6.530
  979SOL    HW1 3836   0.628   3.943   6.558
  979SOL    HW2 3837   0.609   4.068   6.454
  980SOL     OW 3838   3.296   1.541   4.537
  980SOL    HW1 3839   3.340   1.628   4.561
  980SOL    HW2 3840   3.211   1.560   4.487
  981SOL     OW 3841   6.778   6.257   5.187
  981SOL    HW1 3842   6.838   6.246   5.266
  981SOL    HW2 3843   6.683   6.260   5.218
  982SOL     OW 3844   6.430   0.764   5.223
  982SOL    HW1 3845   6.484   0.848   5.209
  982SOL    HW2 3846   6.460   0.719   5.307
  983SOL     OW 3847   0.394   4.783   4.412
  983SOL    HW1 3848   0.428   4.861   4.358
  983SOL    HW2 3849   0.326   4.733   4.359
  984SOL     OW 3850   0.997   2.277   3.074
  984SOL    HW1 3851   1.062   2.352   3.060
  984SOL    HW2 3852   1.046   2.197   3.109
  985SOL     OW 3853   6.566   4.517   4.982
  985SOL    HW1 3854   6.611   4.429   4.998
  985SOL    HW2 3855   6.541   4.558   5.069
  986SOL     OW 3856   5.230   5.075   1.234
  986SOL    HW1 3857   5.212   5.025   1.149
  986SOL    HW2 3858   5.303   5.029   1.284
  987SOL     OW 3859   5.119   4.924   3.738
  987SOL    HW1 3860   5.073   4.897   3.822
  987SOL    HW2 3861   5.216   4.899   3.743
  988SOL     OW 3862   2.714   4.453   1.442
  988SOL    HW1 3863   2.728   4.449   1.541
  988SOL    HW2 3864   2.740   4.366   1.400
  989SOL     OW 3865   0.356   1.513   1.106
  989SOL    HW1 3866   0.383   1.419   1.087
  989SOL    HW2 3867   0.340   1.562   1.020
  990SOL     OW 3868   3.652   0.290   3.846
  990SOL    HW1 3869   3.554   0.269   3.857
  990SOL    HW2 3870   3.663   0.387   3.825
  991SOL     OW 3871   0.033   4.940   3.515
  991SOL    HW1 3872   7.005   5.008   3.466
  991SOL    HW2 3873   0.112   4.983   3.557
  992SOL     OW 3874   0.600   2.747   1.210
  992SOL    HW1 3875   0.548   2.709   1.134
  992SOL    HW2 3876   0.696   2.760   1.183
  993SOL     OW 3877   1.222   5.003   0.314
  993SOL    HW1 3878   1.271   5.052   0.241
  993SOL    HW2 3879   1.147   4.951   0.273
  994SOL     OW 3880   3.150   6.161   6.598
  994SOL    HW1 3881   3.170   6.082   6.656
  994SOL    HW2 3882   3.235   6.203   6.567
  995SOL     OW 3883   5.956   3.539   5.814
  995SOL    HW1 3884   6.045   3.585   5.814
  995SOL    HW2 3885   5.888   3.600   5.773
  996SOL     OW 3886   3.532   6.268   5.741
  996SOL    HW1 3887   3.607   6.289   5.679
  996SOL    HW2 3888   3.564   6.277   5.836
  997SOL     OW 3889   1.578   5.775   3.752
  997SOL    HW1 3890   1.590   5.846   3.682
  997SOL    HW2 3891   1.508   5.711   3.722
  998SOL     OW 3892   6.515   0.609   6.558
  998SOL    HW1 3893   6.470   0.654   6.481
  998SOL    HW2 3894   6.520   0.672   6.635
  999SOL     OW 3895   4.663   4.294   2.502
  999SOL    HW1 3896   4.640   4.327   2.594
  999SOL    HW2 3897   4.726   4.358   2.459
 1000SOL     OW 3898   4.359   1.964   1.285
 1000SOL    HW1 3899   4.441   1.944   1.231
 1000SOL    HW2 3900   4.294   2.016   1.229
 1001SOL     OW 3901   3.475   6.527   2.230
 1001SOL    HW1 3902   3.493   6.624   2.213
 1001SOL    HW2 3903   3.379   6.515   2.255
 1002SOL     OW 3904   5.352   2.040   1.299
 1002SOL    HW1 3905   5.387   2.131   1.325
 1002SOL    HW2 3906   5.264   2.025   1.343
 1003SOL     OW 3907   0.410   0.273   3.302
 1003SOL    HW1 3908   0.376   0.209   3.371
 1003SOL    HW2 3909   0.419   0.226   3.214
 1004SOL     OW 3910   5.328   1.510   3.837
 1004SOL    HW1 3911   5.252   1.572   3.855
 1004SOL    HW2 3912   5.407   1.561   3.803
 1005SOL     OW 3913   1.358   4.155   2.579
 1005SOL    HW1 3914   1.268   4.127   2.613
 1005SOL    HW2 3915   1.403   4.077   2.536
 1006SOL     OW 3916   2.728   3.678   1.009
 1006SOL    HW1 3917   2.780   3.731   1.077
 1006SOL    HW2 3918   2.684   3.741   0.945
 1007SOL     OW 3919   5.132   1.116   7.006
 1007SOL    HW1 3920   5.106   1.048   0.048
 1007SOL    HW2 3921   5.228   1.141   7.019
 1008SOL     OW 3922   6.778   4.682   4.931
 1008SOL    HW1 3923   6.699   4.623   4.947
 1008SOL    HW2 3924   6.862   4.633   4.954
 1009SOL     OW 3925   6.724   5.507   6.429
 1009SOL    HW1 3926   6.638   5.499   6.479
 1009SOL    HW2 3927   6.706   5.532   6.334
 1010SOL     OW 3928   2.857   3.210   1.156
 1010SOL    HW1 3929   2.921   3.153   1.208
 1010SOL    HW2 3930   2.850   3.300   1.200
 1011SOL     OW 3931   6.341   5.448   2.080
 1011SOL    HW1 3932   6.300   5.428   2.169
 1011SOL    HW2 3933   6.397   5.530   2.086
 1012SOL     OW 3934   4.629   0.345   3.260
 1012SOL    HW1 3935   4.631   0.269   3.195
 1012SOL    HW2 3936   4.719   0.389   3.262
 1013SOL     OW 3937   7.002   0.117   6.685
 1013SOL    HW1 3938   0.053   0.160   6.730
 1013SOL    HW2 3939   6.924   0.179   6.687
 1014SOL     OW 3940   0.907   4.680   4.748
 1014SOL    HW1 3941   0.935   4.748   4.816
 1014SOL    HW2 3942   0.951   4.592   4.769
 1015SOL     OW 3943   3.178   6.566   7.000
 1015SOL    HW1 3944   3.135   6.643   6.953
 1015SOL    HW2 3945   3.217   6.503   6.933
 1016SOL     OW 3946   6.388   4.264   1.746
 1016SOL    HW1 3947   6.386   4.278   1.647
 1016SOL    HW2 3948   6.400   4.167   1.766
 1017SOL     OW 3949   2.249   1.855   2.247
 1017SOL    HW1 3950   2.331   1.910   2.260
 1017SOL    HW2 3951   2.233   1.800   2.328
 1018SOL     OW 3952   0.001   5.882   3.498
 1018SOL    HW1 3953   6.977   5.819   3.440
 1018SOL    HW2 3954   0.080   5.835   3.538
 1019SOL     OW 3955   6.553   4.856   0.801
 1019SOL    HW1 3956   6.614   4.911   0.744
 1019SOL    HW2 3957   6.591   4.849   0.893
 1020SOL     OW 3958   6.434   0.632   0.585
 1020SOL    HW1 3959   6.512   0.691   0.567
 1020SOL    HW2 3960   6.411   0.635   0.682
 1021SOL     OW 3961   6.966   6.206   1.583
 1021SOL    HW1 3962   6.953   6.181   1.487
 1021SOL    HW2 3963   0.031   6.178   1.612
 1022SOL     OW 3964   2.442   5.995   6.624
 1022SOL    HW1 3965   2.426   6.072   6.685
 1022SOL    HW2 3966   2.365   5.931   6.632
 1023SOL     OW 3967   0.747   1.577   3.107
 1023SOL    HW1 3968   0.806   1.510   3.151
 1023SOL    HW2 3969   0.784   1.669   3.122
 1024SOL     OW 3970   1.838   2.029   4.855
 1024SOL    HW1 3971   1.839   2.118   4.808
 1024SOL    HW2 3972   1.920   1.978   4.830
 1025SOL     OW 3973   4.581   3.501   0.586
 1025SOL    HW1 3974   4.533   3.414   0.579
 1025SOL    HW2 3975   4.547   3.563   0.514
 1026SOL     OW 3976   3.295   2.693   1.081
 1026SOL    HW1 3977   3.346   2.612   1.113
 1026SOL    HW2 3978   3.351   2.774   1.094
 1027SOL     OW 3979   0.626   6.703   1.001
 1027SOL    HW1 3980   0.582   6.616   0.979
 1027SOL    HW2 3981   0.557   6.774   1.010
 1028SOL     OW 3982   1.655   6.039   2.783
 1028SOL    HW1 3983   1.594   6.053   2.704
 1028SOL    HW2 3984   1.616   5.970   2.844
 1029SOL     OW 3985   1.025   0.870   6.371
 1029SOL    HW1 3986   0.995   0.837   6.461
 1029SOL    HW2 3987   1.124   0.861   6.363
 1030SOL     OW 3988   3.734   3.241   1.496
 1030SOL    HW1 3989   3.689   3.323   1.459
 1030SOL    HW2 3990   3.668   3.185   1.546
 1031SOL     OW 3991   3.296   3.744   1.332
 1031SOL    HW1 3992   3.288   3.801   1.414
 1031SOL    HW2 3993   3.225   3.673   1.335
 1032SOL     OW 3994   2.255   2.015   5.985
 1032SOL    HW1 3995   2.285   1.934   5.935
 1032SOL    HW2 3996   2.291   2.012   6.078
 1033SOL     OW 3997   1.127   6.349   1.846
 1033SOL    HW1 3998   1.198   6.287   1.878
 1033SOL    HW2 3999   1.049   6.296   1.811
 1034SOL     OW 4000   3.312   0.002   4.022
 1034SOL    HW1 4001   3.231   6.971   4.019
 1034SOL    HW2 4002   3.338   0.019   4.117
 1035SOL     OW 4003   1.072   2.008   5.867
 1035SOL    HW1 4004   1.037   1.915   5.880
 1035SOL    HW2 4005   1.152   2.004   5.807
 1036SOL     OW 4006   4.932   1.778   1.093
 1036SOL    HW1 4007   4.839   1.800   1.067
 1036SOL    HW2 4008   4.997   1.829   1.036
 1037SOL     OW 4009   1.393   2.882   2.405
 1037SOL    HW1 4010   1.323   2.861   2.474
 1037SOL    HW2 4011   1.460   2.946   2.443
 1038SOL     OW 4012   2.880   6.473   0.139
 1038SOL    HW1 4013   2.947   6.538   0.175
 1038SOL    HW2 4014   2.860   6.495   0.043
 1039SOL     OW 4015   3.447   2.885   3.580
 1039SOL    HW1 4016   3.357   2.927   3.573
 1039SOL    HW2 4017   3.467   2.834   3.496
 1040SOL     OW 4018   3.896   0.582   3.099
 1040SOL    HW1 4019   3.842   0.645   3.156
 1040SOL    HW2 4020   3.924   0.629   3.016
 1041SOL     OW 4021   6.819   6.216   6.457
 1041SOL    HW1 4022   6.766   6.173   6.530
 1041SOL    HW2 4023   6.810   6.315   6.463
 1042SOL     OW 4024   5.408   4.963   2.934
 1042SOL    HW1 4025   5.452   4.904   3.001
 1042SOL    HW2 4026   5.477   5.012   2.881
 1043SOL     OW 4027   3.107   2.208   3.824
 1043SOL    HW1 4028   3.106   2.227   3.726
 1043SOL    HW2 4029   3.184   2.148   3.846
 1044SOL     OW 4030   5.629   4.656   1.633
 1044SOL    HW1 4031   5.668   4.682   1.721
 1044SOL    HW2 4032   5.687   4.589   1.588
 1045SOL     OW 4033   2.300   0.842   3.226
 1045SOL    HW1 4034   2.245   0.760   3.209
 1045SOL    HW2 4035   2.241   0.920   3.243
 1046SOL     OW 4036   2.938   1.518   0.780
 1046SOL    HW1 4037   2.876   1.563   0.716
 1046SOL    HW2 4038   2.922   1.419   0.778
 1047SOL     OW 4039   3.499   6.279   3.179
 1047SOL    HW1 4040   3.556   6.313   3.104
 1047SOL    HW2 4041   3.552   6.279   3.264
 1048SOL     OW 4042   1.635   6.525   2.058
 1048SOL    HW1 4043   1.565   6.515   1.988
 1048SOL    HW2 4044   1.592   6.537   2.147
 1049SOL     OW 4045   4.206   6.240   5.244
 1049SOL    HW1 4046   4.197   6.183   5.326
 1049SOL    HW2 4047   4.115   6.269   5.214
 1050SOL     OW 4048   3.328   5.233   3.040
 1050SOL    HW1 4049   3.243   5.257   2.992
 1050SOL    HW2 4050   3.314   5.244   3.138
 1051SOL     OW 4051   0.457   7.014   6.672
 1051SOL    HW1 4052   0.376   6.985   6.622
 1051SOL    HW2 4053   0.466   6.959   6.755
 1052SOL     OW 4054   3.607   0.994   0.069
 1052SOL    HW1 4055   3.597   0.950   7.007
 1052SOL    HW2 4056   3.586   0.929   0.142
 1053SOL     OW 4057   5.708   2.732   3.193
 1053SOL    HW1 4058   5.710   2.683   3.106
 1053SOL    HW2 4059   5.613   2.749   3.220
 1054SOL     OW 4060   3.214   5.074   6.158
 1054SOL    HW1 4061   3.148   5.149   6.158
 1054SOL    HW2 4062   3.165   4.987   6.165
 1055SOL     OW 4063   5.132   6.304   6.480
 1055SOL    HW1 4064   5.131   6.396   6.518
 1055SOL    HW2 4065   5.217   6.258   6.506
 1056SOL     OW 4066   2.677   3.892   6.524
 1056SOL    HW1 4067   2.755   3.830   6.522
 1056SOL    HW2 4068   2.701   3.978   6.479
 1057SOL     OW 4069   2.812   1.912   1.108
 1057SOL    HW1 4070   2.883   1.878   1.045
 1057SOL    HW2 4071   2.812   1.856   1.191
 1058SOL     OW 4072   2.282   2.783   2.405
 1058SOL    HW1 4073   2.329   2.734   2.332
 1058SOL    HW2 4074   2.238   2.865   2.368
 1059SOL     OW 4075   2.868   6.323   1.782
 1059SOL    HW1 4076   2.780   6.320   1.830
 1059SOL    HW2 4077   2.941   6.298   1.845
 1060SOL     OW 4078   5.916   6.447   5.331
 1060SOL    HW1 4079   5.974   6.519   5.370
 1060SOL    HW2 4080   5.861   6.407   5.404
 1061SOL     OW 4081   6.674   4.007   0.278
 1061SOL    HW1 4082   6.605   3.982   0.210
 1061SOL    HW2 4083   6.719   4.092   0.251
 1062SOL     OW 4084   3.666   6.480   5.073
 1062SOL    HW1 4085   3.574   6.519   5.075
 1062SOL    HW2 4086   3.683   6.439   4.983
 1063SOL     OW 4087   2.768   6.130   5.933
 1063SOL    HW1 4088   2.828   6.202   5.898
 1063SOL    HW2 4089   2.770   6.052   5.871
 1064SOL     OW 4090   1.623   3.592   0.511
 1064SOL    HW1 4091   1.715   3.612   0.543
 1064SOL    HW2 4092   1.587   3.512   0.559
 1065SOL     OW 4093   4.252   1.014   4.126
 1065SOL    HW1 4094   4.329   1.051   4.177
 1065SOL    HW2 4095   4.166   1.040   4.171
 1066SOL     OW 4096   4.735   7.017   1.900
 1066SOL    HW1 4097   4.731   6.919   1.880
 1066SOL    HW2 4098   4.827   0.014   1.933
 1067SOL     OW 4099   2.309   1.056   0.248
 1067SOL    HW1 4100   2.392   1.097   0.287
 1067SOL    HW2 4101   2.238   1.052   0.318
 1068SOL     OW 4102   6.029   3.449   1.220
 1068SOL    HW1 4103   6.109   3.507   1.240
 1068SOL    HW2 4104   5.947   3.506   1.217
 1069SOL     OW 4105   6.791   3.879   1.846
 1069SOL    HW1 4106   6.769   3.976   1.837
 1069SOL    HW2 4107   6.714   3.824   1.814
 1070SOL     OW 4108   1.003   6.973   1.927
 1070SOL    HW1 4109   0.964   6.887   1.893
 1070SOL    HW2 4110   1.067   7.009   1.860
 1071SOL     OW 4111   7.011   3.102   5.850
 1071SOL    HW1 4112   6.987   3.177   5.788
 1071SOL    HW2 4113   6.997   3.015   5.803
 1072SOL     OW 4114   2.496   1.262   2.088
 1072SOL    HW1 4115   2.552   1.190   2.046
 1072SOL    HW2 4116   2.441   1.222   2.161
 1073SOL     OW 4117   4.839   2.005   3.243
 1073SOL    HW1 4118   4.927   2.008   3.291
 1073SOL    HW2 4119   4.768   1.973   3.305
 1074SOL     OW 4120   2.674   4.478   1.711
 1074SOL    HW1 4121   2.599   4.544   1.711
 1074SOL    HW2 4122   2.743   4.506   1.778
 1075SOL     OW 4123   5.771   3.605   5.397
 1075SOL    HW1 4124   5.738   3.661   5.321
 1075SOL    HW2 4125   5.804   3.518   5.361
 1076SOL     OW 4126   2.155   3.836   4.709
 1076SOL    HW1 4127   2.240   3.859   4.756
 1076SOL    HW2 4128   2.083   3.900   4.737
 1077SOL     OW 4129   0.362   6.984   0.099
 1077SOL    HW1 4130   0.324   6.929   0.174
 1077SOL    HW2 4131   0.299   0.032   0.077
 1078SOL     OW 4132   6.861   6.706   4.078
 1078SOL    HW1 4133   6.859   6.613   4.041
 1078SOL    HW2 4134   6.947   6.750   4.054
 1079SOL     OW 4135   1.063   6.805   2.303
 1079SOL    HW1 4136   1.002   6.863   2.249
 1079SOL    HW2 4137   1.084   6.851   2.389
 1080SOL     OW 4138   2.553   5.139   6.754
 1080SOL    HW1 4139   2.477   5.190   6.795
 1080SOL    HW2 4140   2.542   5.042   6.774
 1081SOL     OW 4141   6.940   5.561   4.323
 1081SOL    HW1 4142   6.948   5.658   4.342
 1081SOL    HW2 4143   7.016   5.512   4.367
 1082SOL     OW 4144   5.405   6.811   6.148
 1082SOL    HW1 4145   5.434   6.842   6.058
 1082SOL    HW2 4146   5.307   6.824   6.158
 1083SOL     OW 4147   4.870   4.203   1.106
 1083SOL    HW1 4148   4.849   4.291   1.063
 1083SOL    HW2 4149   4.839   4.128   1.048
 1084SOL     OW 4150   6.894   0.535   5.908
 1084SOL    HW1 4151   6.839   0.533   5.992
 1084SOL    HW2 4152   6.869   0.457   5.850
 1085SOL     OW 4153   1.293   3.806   4.457
 1085SOL    HW1 4154   1.342   3.887   4.488
 1085SOL    HW2 4155   1.213   3.792   4.516
 1086SOL     OW 4156   6.141   5.566   0.784
 1086SOL    HW1 4157   6.073   5.511   0.735
 1086SOL    HW2 4158   6.161   5.523   0.872
 1087SOL     OW 4159   2.849   0.211   5.290
 1087SOL    HW1 4160   2.831   0.170   5.200
 1087SOL    HW2 4161   2.922   0.161   5.335
 1088SOL     OW 4162   6.751   4.692   3.584
 1088SOL    HW1 4163   6.665   4.672   3.536
 1088SOL    HW2 4164   6.770   4.620   3.650
 1089SOL     OW 4165   6.527   4.237   4.200
 1089SOL    HW1 4166   6.557   4.274   4.288
 1089SOL    HW2 4167   6.587   4.162   4.173
 1090SOL     OW 4168   5.084   1.533   4.988
 1090SOL    HW1 4169   5.099   1.435   5.001
 1090SOL    HW2 4170   5.035   1.548   4.903
 1091SOL     OW 4171   2.476   2.576   3.375
 1091SOL    HW1 4172   2.564   2.549   3.336
 1091SOL    HW2 4173   2.478   2.564   3.474
 1092SOL     OW 4174   0.935   5.651   1.109
 1092SOL    HW1 4175   0.880   5.583   1.061
 1092SOL    HW2 4176   0.979   5.711   1.043
 1093SOL     OW 4177   1.895   6.925   2.240
 1093SOL    HW1 4178   1.947   6.911   2.157
 1093SOL    HW2 4179   1.950   6.976   2.306
 1094SOL     OW 4180   0.877   0.240   2.973
 1094SOL    HW1 4181   0.883   0.142   2.953
 1094SOL    HW2 4182   0.950   0.288   2.925
 1095SOL     OW 4183   6.250   3.478   0.267
 1095SOL    HW1 4184   6.192   3.428   0.204
 1095SOL    HW2 4185   6.295   3.414   0.329
 1096SOL     OW 4186   2.938   5.244   1.699
 1096SOL    HW1 4187   2.853   5.272   1.655
 1096SOL    HW2 4188   2.964   5.312   1.767
 1097SOL     OW 4189   3.382   5.354   4.541
 1097SOL    HW1 4190   3.414   5.352   4.446
 1097SOL    HW2 4191   3.417   5.437   4.585
 1098SOL     OW 4192   5.993   4.705   1.016
 1098SOL    HW1 4193   6.075   4.672   0.969
 1098SOL    HW2 4194   5.943   4.766   0.955
 1099SOL     OW 4195   4.665   0.372   5.876
 1099SOL    HW1 4196   4.757   0.404   5.858
 1099SOL    HW2 4197   4.602   0.449   5.875
 1100SOL     OW 4198   3.359   1.824   3.883
 1100SOL    HW1 4199   3.296   1.787   3.815
 1100SOL    HW2 4200   3.351   1.923   3.887
 1101SOL     OW 4201   6.314   3.153   6.000
 1101SOL    HW1 4202   6.312   3.145   6.100
 1101SOL    HW2 4203   6.221   3.160   5.965
 1102SOL     OW 4204   2.903   1.235   4.218
 1102SOL    HW1 4205   2.950   1.151   4.192
 1102SOL    HW2 4206   2.821   1.213   4.270
 1103SOL     OW 4207   2.406   6.783   6.736
 1103SOL    HW1 4208   2.384   6.686   6.737
 1103SOL    HW2 4209   2.322   6.837   6.741
 1104SOL     OW 4210   0.461   3.218   3.946
 1104SOL    HW1 4211   0.384   3.176   3.993
 1104SOL    HW2 4212   0.466   3.183   3.852
 1105SOL     OW 4213   5.569   0.798   5.535
 1105SOL    HW1 4214   5.621   0.876   5.571
 1105SOL    HW2 4215   5.498   0.831   5.473
 1106SOL     OW 4216   0.272   2.183   0.683
 1106SOL    HW1 4217   0.370   2.164   0.676
 1106SOL    HW2 4218   0.238   2.214   0.594
 1107SOL     OW 4219   1.058   1.030   0.499
 1107SOL    HW1 4220   1.057   0.933   0.526
 1107SOL    HW2 4221   1.097   1.039   0.408
 1108SOL     OW 4222   2.545   6.360   4.387
 1108SOL    HW1 4223   2.487   6.373   4.467
 1108SOL    HW2 4224   2.641   6.357   4.415
 1109SOL     OW 4225   5.101   1.633   4.201
 1109SOL    HW1 4226   5.161   1.713   4.208
 1109SOL    HW2 4227   5.092   1.590   4.290
 1110SOL     OW 4228   3.372   0.876   2.687
 1110SOL    HW1 4229   3.394   0.845   2.594
 1110SOL    HW2 4230   3.329   0.967   2.682
 1111SOL     OW 4231   4.971   3.719   6.792
 1111SOL    HW1 4232   4.945   3.749   6.701
 1111SOL    HW2 4233   5.069   3.700   6.795
 1112SOL     OW 4234   5.082   0.127   2.269
 1112SOL    HW1 4235   5.022   0.165   2.340
 1112SOL    HW2 4236   5.163   0.185   2.259
 1113SOL     OW 4237   5.374   4.653   2.652
 1113SOL    HW1 4238   5.319   4.605   2.584
 1113SOL    HW2 4239   5.317   4.678   2.730
 1114SOL     OW 4240   3.898   3.476   5.615
 1114SOL    HW1 4241   3.811   3.518   5.642
 1114SOL    HW2 4242   3.907   3.387   5.659
 1115SOL     OW 4243   2.977   4.472   5.907
 1115SOL    HW1 4244   3.059   4.471   5.849
 1115SOL    HW2 4245   2.951   4.566   5.926
 1116SOL     OW 4246   4.711   6.893   6.282
 1116SOL    HW1 4247   4.650   6.896   6.361
 1116SOL    HW2 4248   4.806   6.887   6.313
 1117SOL     OW 4249   1.206   3.242   1.950
 1117SOL    HW1 4250   1.267   3.168   1.978
 1117SOL    HW2 4251   1.258   3.310   1.898
 1118SOL     OW 4252   3.498   4.730   7.021
 1118SOL    HW1 4253   3.425   4.790   0.027
 1118SOL    HW2 4254   3.504   4.737   6.921
 1119SOL     OW 4255   3.772   4.884   3.908
 1119SOL    HW1 4256   3.741   4.860   4.000
 1119SOL    HW2 4257   3.814   4.975   3.909
 1120SOL     OW 4258   6.496   4.880   1.279
 1120SOL    HW1 4259   6.537   4.810   1.337
 1120SOL    HW2 4260   6.405   4.904   1.314
 1121SOL     OW 4261   6.480   4.965   4.574
 1121SOL    HW1 4262   6.462   4.922   4.486
 1121SOL    HW2 4263   6.575   4.996   4.576
 1122SOL     OW 4264   5.494   2.982   1.810
 1122SOL    HW1 4265   5.501   3.061   1.871
 1122SOL    HW2 4266   5.415   2.927   1.836
 1123SOL     OW 4267   4.038   1.783   3.114
 1123SOL    HW1 4268   4.008   1.759   3.206
 1123SOL    HW2 4269   4.114   1.723   3.087
 1124SOL     OW 4270   2.228   2.842   4.837
 1124SOL    HW1 4271   2.300   2.848   4.906
 1124SOL    HW2 4272   2.150   2.898   4.866
 1125SOL     OW 4273   0.976   3.843   3.655
 1125SOL    HW1 4274   1.044   3.778   3.689
 1125SOL    HW2 4275   0.912   3.797   3.594
 1126SOL     OW 4276   3.414   5.386   4.875
 1126SOL    HW1 4277   3.428   5.478   4.912
 1126SOL    HW2 4278   3.502   5.347   4.850
 1127SOL     OW 4279   5.803   6.528   3.286
 1127SOL    HW1 4280   5.716   6.564   3.251
 1127SOL    HW2 4281   5.841   6.464   3.219
 1128SOL     OW 4282   5.938   1.406   3.176
 1128SOL    HW1 4283   5.907   1.352   3.254
 1128SOL    HW2 4284   5.945   1.348   3.095
 1129SOL     OW 4285   1.951   0.468   0.790
 1129SOL    HW1 4286   2.033   0.422   0.756
 1129SOL    HW2 4287   1.927   0.432   0.880
 1130SOL     OW 4288   2.201   4.437   2.351
 1130SOL    HW1 4289   2.248   4.354   2.383
 1130SOL    HW2 4290   2.258   4.517   2.370
 1131SOL     OW 4291   1.480   6.022   4.195
 1131SOL    HW1 4292   1.526   6.029   4.106
 1131SOL    HW2 4293   1.540   5.977   4.260
 1132SOL     OW 4294   3.411   1.222   2.368
 1132SOL    HW1 4295   3.499   1.181   2.389
 1132SOL    HW2 4296   3.422   1.291   2.296
 1133SOL     OW 4297   1.288   6.913   4.929
 1133SOL    HW1 4298   1.255   6.895   5.022
 1133SOL    HW2 4299   1.386   6.895   4.925
 1134SOL     OW 4300   3.871   6.851   1.548
 1134SOL    HW1 4301   3.883   6.950   1.541
 1134SOL    HW2 4302   3.918   6.818   1.630
 1135SOL     OW 4303   2.097   5.865   3.796
 1135SOL    HW1 4304   2.069   5.913   3.879
 1135SOL    HW2 4305   2.152   5.785   3.821
 1136SOL     OW 4306   2.221   5.886   1.833
 1136SOL    HW1 4307   2.290   5.950   1.799
 1136SOL    HW2 4308   2.153   5.936   1.886
 1137SOL     OW 4309   0.533   5.146   5.522
 1137SOL    HW1 4310   0.529   5.049   5.497
 1137SOL    HW2 4311   0.464   5.197   5.470
 1138SOL     OW 4312   2.272   2.854   4.556
 1138SOL    HW1 4313   2.260   2.945   4.516
 1138SOL    HW2 4314   2.276   2.861   4.655
 1139SOL     OW 4315   2.598   5.527   4.505
 1139SOL    HW1 4316   2.676   5.470   4.532
 1139SOL    HW2 4317   2.539   5.475   4.443
 1140SOL     OW 4318   1.205   1.532   1.264
 1140SOL    HW1 4319   1.246   1.476   1.191
 1140SOL    HW2 4320   1.218   1.629   1.242
 1141SOL     OW 4321   5.967   4.794   6.198
 1141SOL    HW1 4322   5.969   4.829   6.105
 1141SOL    HW2 4323   5.905   4.715   6.203
 1142SOL     OW 4324   2.871   6.848   2.494
 1142SOL    HW1 4325   2.886   6.764   2.546
 1142SOL    HW2 4326   2.911   6.838   2.403
 1143SOL     OW 4327   1.338   3.916   2.102
 1143SOL    HW1 4328   1.425   3.966   2.109
 1143SOL    HW2 4329   1.285   3.952   2.026
 1144SOL     OW 4330   5.326   4.582   1.945
 1144SOL    HW1 4331   5.317   4.541   1.855
 1144SOL    HW2 4332   5.328   4.681   1.937
 1145SOL     OW 4333   6.897   1.292   0.977
 1145SOL    HW1 4334   6.924   1.276   1.072
 1145SOL    HW2 4335   6.929   1.381   0.947
 1146SOL     OW 4336   1.064   1.231   1.661
 1146SOL    HW1 4337   1.133   1.292   1.699
 1146SOL    HW2 4338   1.102   1.139   1.651
 1147SOL     OW 4339   3.200   6.575   1.044
 1147SOL    HW1 4340   3.216   6.621   0.957
 1147SOL    HW2 4341   3.188   6.477   1.028
 1148SOL     OW 4342   4.498   5.276   3.676
 1148SOL    HW1 4343   4.456   5.339   3.610
 1148SOL    HW2 4344   4.458   5.292   3.767
 1149SOL     OW 4345   4.750   2.826   1.486
 1149SOL    HW1 4346   4.838   2.865   1.456
 1149SOL    HW2 4347   4.686   2.901   1.506
 1150SOL     OW 4348   2.036   4.475   6.870
 1150SOL    HW1 4349   2.079   4.497   6.782
 1150SOL    HW2 4350   1.938   4.461   6.856
 1151SOL     OW 4351   6.620   5.782   4.258
 1151SOL    HW1 4352   6.574   5.791   4.347
 1151SOL    HW2 4353   6.568   5.831   4.188
 1152SOL     OW 4354   3.944   0.198   6.480
 1152SOL    HW1 4355   3.897   0.112   6.500
 1152SOL    HW2 4356   3.879   0.263   6.440
 1153SOL     OW 4357   6.289   0.872   1.066
 1153SOL    HW1 4358   6.199   0.842   1.034
 1153SOL    HW2 4359   6.286   0.969   1.090
 1154SOL     OW 4360   2.237   2.490   1.649
 1154SOL    HW1 4361   2.236   2.534   1.739
 1154SOL    HW2 4362   2.184   2.405   1.654
 1155SOL     OW 4363   2.734   5.945   4.978
 1155SOL    HW1 4364   2.739   6.018   4.908
 1155SOL    HW2 4365   2.799   5.965   5.051
 1156SOL     OW 4366   3.326   2.103   3.924
 1156SOL    HW1 4367   3.323   2.110   4.024
 1156SOL    HW2 4368   3.410   2.145   3.890
 1157SOL     OW 4369   3.825   1.086   5.757
 1157SOL    HW1 4370   3.798   0.993   5.781
 1157SOL    HW2 4371   3.758   1.126   5.695
 1158SOL     OW 4372   5.852   6.018   3.105
 1158SOL    HW1 4373   5.905   5.976   3.031
 1158SOL    HW2 4374   5.915   6.051   3.176
 1159SOL     OW 4375   6.363   6.498   2.250
 1159SOL    HW1 4376   6.459   6.526   2.246
 1159SOL    HW2 4377   6.341   6.445   2.168
 1160SOL     OW 4378   5.213   0.994   1.165
 1160SOL    HW1 4379   5.181   0.901   1.149
 1160SOL    HW2 4380   5.266   1.025   1.086
 1161SOL     OW 4381   0.376   5.636   0.084
 1161SOL    HW1 4382   0.439   5.573   0.040
 1161SOL    HW2 4383   0.297   5.585   0.120
 1162SOL     OW 4384   2.412   2.511   4.882
 1162SOL    HW1 4385   2.324   2.544   4.849
 1162SOL    HW2 4386   2.401   2.471   4.973
 1163SOL     OW 4387   6.319   3.691   1.910
 1163SOL    HW1 4388   6.300   3.593   1.907
 1163SOL    HW2 4389   6.305   3.726   2.002
 1164SOL     OW 4390   4.885   2.099   4.583
 1164SOL    HW1 4391   4.800   2.061   4.549
 1164SOL    HW2 4392   4.867   2.158   4.662
 1165SOL     OW 4393   4.206   6.363   3.012
 1165SOL    HW1 4394   4.160   6.278   3.038
 1165SOL    HW2 4395   4.144   6.419   2.957
 1166SOL     OW 4396   2.273   5.772   6.671
 1166SOL    HW1 4397   2.177   5.777   6.699
 1166SOL    HW2 4398   2.288   5.689   6.618
 1167SOL     OW 4399   5.519   4.540   2.353
 1167SOL    HW1 4400   5.478   4.485   2.280
 1167SOL    HW2 4401   5.459   4.616   2.375
 1168SOL     OW 4402   6.145   1.904   3.292
 1168SOL    HW1 4403   6.110   1.930   3.382
 1168SOL    HW2 4404   6.136   1.805   3.279
 1169SOL     OW 4405   5.556   0.451   5.354
 1169SOL    HW1 4406   5.477   0.501   5.320
 1169SOL    HW2 4407   5.527   0.387   5.425
 1170SOL     OW 4408   4.826   6.540   3.694
 1170SOL    HW1 4409   4.738   6.575   3.661
 1170SOL    HW2 4410   4.886   6.617   3.715
 1171SOL     OW 4411   1.146   0.155   1.083
 1171SOL    HW1 4412   1.132   0.177   1.179
 1171SOL    HW2 4413   1.107   0.065   1.063
 1172SOL     OW 4414   0.067   3.869   6.462
 1172SOL    HW1 4415   0.160   3.900   6.443
 1172SOL    HW2 4416   0.021   3.847   6.376
 1173SOL     OW 4417   3.196   1.619   0.636
 1173SOL    HW1 4418   3.265   1.683   0.669
 1173SOL    HW2 4419   3.114   1.668   0.609
 1174SOL     OW 4420   3.599   3.187   1.179
 1174SOL    HW1 4421   3.513   3.156   1.219
 1174SOL    HW2 4422   3.648   3.109   1.141
 1175SOL     OW 4423   3.247   3.326   4.322
 1175SOL    HW1 4424   3.230   3.248   4.262
 1175SOL    HW2 4425   3.333   3.312   4.372
 1176SOL     OW 4426   4.994   3.983   6.324
 1176SOL    HW1 4427   4.960   4.075   6.345
 1176SOL    HW2 4428   5.092   3.978   6.344
 1177SOL     OW 4429   6.372   2.092   4.905
 1177SOL    HW1 4430   6.451   2.113   4.963
 1177SOL    HW2 4431   6.400   2.094   4.809
 1178SOL     OW 4432   3.308   5.055   0.259
 1178SOL    HW1 4433   3.228   5.061   0.199
 1178SOL    HW2 4434   3.279   5.027   0.350
 1179SOL     OW 4435   2.342   5.621   0.579
 1179SOL    HW1 4436   2.430   5.598   0.621
 1179SOL    HW2 4437   2.281   5.658   0.649
 1180SOL     OW 4438   3.670   5.935   0.762
 1180SOL    HW1 4439   3.655   6.018   0.707
 1180SOL    HW2 4440   3.589   5.918   0.818
 1181SOL     OW 4441   0.636   5.857   0.465
 1181SOL    HW1 4442   0.549   5.815   0.440
 1181SOL    HW2 4443   0.628   5.956   0.463
 1182SOL     OW 4444   4.201   5.244   3.102
 1182SOL    HW1 4445   4.108   5.248   3.065
 1182SOL    HW2 4446   4.224   5.150   3.124
 1183SOL     OW 4447   1.838   3.674   6.117
 1183SOL    HW1 4448   1.821   3.734   6.195
 1183SOL    HW2 4449   1.884   3.726   6.044
 1184SOL     OW 4450   1.988   6.787   5.212
 1184SOL    HW1 4451   2.041   6.859   5.167
 1184SOL    HW2 4452   2.020   6.778   5.307
 1185SOL     OW 4453   0.004   0.957   6.507
 1185SOL    HW1 4454   6.962   0.967   6.435
 1185SOL    HW2 4455   6.999   1.002   6.590
 1186SOL     OW 4456   5.201   6.391   4.660
 1186SOL    HW1 4457   5.274   6.459   4.658
 1186SOL    HW2 4458   5.119   6.431   4.702
 1187SOL     OW 4459   6.211   0.191   5.594
 1187SOL    HW1 4460   6.222   0.208   5.692
 1187SOL    HW2 4461   6.116   0.165   5.576
 1188SOL     OW 4462   2.590   6.553   5.159
 1188SOL    HW1 4463   2.513   6.522   5.103
 1188SOL    HW2 4464   2.639   6.626   5.112
 1189SOL     OW 4465   6.143   3.466   3.279
 1189SOL    HW1 4466   6.241   3.479   3.296
 1189SOL    HW2 4467   6.099   3.554   3.261
 1190SOL     OW 4468   1.872   6.381   2.532
 1190SOL    HW1 4469   1.918   6.453   2.584
 1190SOL    HW2 4470   1.871   6.405   2.435
 1191SOL     OW 4471   4.554   5.566   2.636
 1191SOL    HW1 4472   4.615   5.498   2.597
 1191SOL    HW2 4473   4.466   5.564   2.588
 1192SOL     OW 4474   4.413   6.055   3.202
 1192SOL    HW1 4475   4.367   5.987   3.145
 1192SOL    HW2 4476   4.451   6.127   3.144
 1193SOL     OW 4477   6.652   5.187   3.526
 1193SOL    HW1 4478   6.703   5.103   3.541
 1193SOL    HW2 4479   6.614   5.220   3.612
 1194SOL     OW 4480   4.371   0.810   1.336
 1194SOL    HW1 4481   4.364   0.816   1.436
 1194SOL    HW2 4482   4.312   0.736   1.303
 1195SOL     OW 4483   6.066   2.714   2.301
 1195SOL    HW1 4484   6.025   2.654   2.233
 1195SOL    HW2 4485   6.138   2.666   2.350
 1196SOL     OW 4486   6.341   6.398   4.346
 1196SOL    HW1 4487   6.304   6.465   4.412
 1196SOL    HW2 4488   6.273   6.382   4.274
 1197SOL     OW 4489   3.166   6.693   0.782
 1197SOL    HW1 4490   3.136   6.599   0.762
 1197SOL    HW2 4491   3.111   6.757   0.729
 1198SOL     OW 4492   0.843   2.002   0.314
 1198SOL    HW1 4493   0.803   1.982   0.224
 1198SOL    HW2 4494   0.943   2.004   0.305
 1199SOL     OW 4495   5.065   4.920   1.943
 1199SOL    HW1 4496   5.050   4.868   2.027
 1199SOL    HW2 4497   5.004   4.887   1.871
 1200SOL     OW 4498   3.017   3.722   2.180
 1200SOL    HW1 4499   2.937   3.663   2.185
 1200SOL    HW2 4500   3.009   3.781   2.099
 1201SOL     OW 4501   1.917   1.884   4.349
 1201SOL    HW1 4502   1.866   1.950   4.294
 1201SOL    HW2 4503   1.990   1.844   4.294
 1202SOL     OW 4504   0.058   5.620   6.410
 1202SOL    HW1 4505   0.047   5.641   6.313
 1202SOL    HW2 4506   7.002   5.647   6.459
 1203SOL     OW 4507   4.861   5.952   5.816
 1203SOL    HW1 4508   4.783   5.894   5.842
 1203SOL    HW2 4509   4.832   6.017   5.746
 1204SOL     OW 4510   1.871   0.665   2.269
 1204SOL    HW1 4511   1.793   0.603   2.269
 1204SOL    HW2 4512   1.920   0.658   2.355
 1205SOL     OW 4513   5.040   4.024   1.435
 1205SOL    HW1 4514   5.078   4.057   1.349
 1205SOL    HW2 4515   5.038   4.098   1.502
 1206SOL     OW 4516   3.261   3.164   4.995
 1206SOL    HW1 4517   3.195   3.216   4.942
 1206SOL    HW2 4518   3.216   3.124   5.075
 1207SOL     OW 4519   2.146   6.530   2.161
 1207SOL    HW1 4520   2.225   6.495   2.211
 1207SOL    HW2 4521   2.164   6.525   2.063
 1208SOL     OW 4522   3.462   3.357   6.805
 1208SOL    HW1 4523   3.370   3.344   6.767
 1208SOL    HW2 4524   3.464   3.324   6.899
 1209SOL     OW 4525   3.509   6.998   5.447
 1209SOL    HW1 4526   3.452   6.958   5.375
 1209SOL    HW2 4527   3.567   0.042   5.407
 1210SOL     OW 4528   3.066   1.003   3.206
 1210SOL    HW1 4529   3.012   0.921   3.187
 1210SOL    HW2 4530   3.120   0.990   3.288
 1211SOL     OW 4531   0.718   3.997   0.657
 1211SOL    HW1 4532   0.765   4.025   0.740
 1211SOL    HW2 4533   0.750   4.053   0.580
 1212SOL     OW 4534   0.849   6.862   6.557
 1212SOL    HW1 4535   0.801   6.813   6.630
 1212SOL    HW2 4536   0.849   6.960   6.577
 1213SOL     OW 4537   5.672   2.703   0.573
 1213SOL    HW1 4538   5.578   2.687   0.605
 1213SOL    HW2 4539   5.700   2.795   0.601
 1214SOL     OW 4540   6.952   2.264   1.245
 1214SOL    HW1 4541   7.022   2.279   1.314
 1214SOL    HW2 4542   6.983   2.193   1.182
 1215SOL     OW 4543   0.940   4.603   4.487
 1215SOL    HW1 4544   0.972   4.646   4.571
 1215SOL    HW2 4545   0.967   4.506   4.487
 1216SOL     OW 4546   4.430   0.420   6.543
 1216SOL    HW1 4547   4.486   0.367   6.606
 1216SOL    HW2 4548   4.348   0.453   6.591
 1217SOL     OW 4549   2.302   4.557   0.524
 1217SOL    HW1 4550   2.272   4.496   0.598
 1217SOL    HW2 4551   2.369   4.510   0.467
 1218SOL     OW 4552   1.572   3.991   3.907
 1218SOL    HW1 4553   1.628   3.990   3.824
 1218SOL    HW2 4554   1.475   3.997   3.882
 1219SOL     OW 4555   4.121   5.902   2.371
 1219SOL    HW1 4556   4.137   5.900   2.469
 1219SOL    HW2 4557   4.060   5.978   2.348
 1220SOL     OW 4558   1.073   4.288   2.556
 1220SOL    HW1 4559   1.017   4.338   2.622
 1220SOL    HW2 4560   1.157   4.339   2.538
 1221SOL     OW 4561   5.839   3.739   6.361
 1221SOL    HW1 4562   5.804   3.662   6.414
 1221SOL    HW2 4563   5.937   3.750   6.380
 1222SOL     OW 4564   0.045   6.269   6.987
 1222SOL    HW1 4565   0.024   6.214   0.041
 1222SOL    HW2 4566   0.066   6.363   7.015
 1223SOL     OW 4567   3.216   6.355   0.338
 1223SOL    HW1 4568   3.236   6.297   0.416
 1223SOL    HW2 4569   3.267   6.323   0.258
 1224SOL     OW 4570   2.561   0.056   1.370
 1224SOL    HW1 4571   2.471   0.079   1.408
 1224SOL    HW2 4572   2.555   0.055   1.271
 1225SOL     OW 4573   3.325   4.292   6.415
 1225SOL    HW1 4574   3.395   4.221   6.417
 1225SOL    HW2 4575   3.304   4.316   6.320
 1226SOL     OW 4576   1.793   4.940   1.283
 1226SOL    HW1 4577   1.696   4.932   1.307
 1226SOL    HW2 4578   1.847   4.896   1.355
 1227SOL     OW 4579   6.954   4.092   6.524
 1227SOL    HW1 4580   7.018   4.018   6.505
 1227SOL    HW2 4581   7.003   4.169   6.565
 1228SOL     OW 4582   4.661   2.060   6.161
 1228SOL    HW1 4583   4.603   1.990   6.203
 1228SOL    HW2 4584   4.713   2.020   6.085
 1229SOL     OW 4585   3.446   4.778   6.513
 1229SOL    HW1 4586   3.476   4.804   6.421
 1229SOL    HW2 4587   3.490   4.837   6.580
 1230SOL     OW 4588   4.445   6.690   3.383
 1230SOL    HW1 4589   4.418   6.641   3.300
 1230SOL    HW2 4590   4.523   6.749   3.364
 1231SOL     OW 4591   1.992   3.266   4.948
 1231SOL    HW1 4592   2.018   3.355   4.985
 1231SOL    HW2 4593   1.896   3.269   4.919
 1232SOL     OW 4594   1.397   2.842   5.138
 1232SOL    HW1 4595   1.458   2.887   5.072
 1232SOL    HW2 4596   1.452   2.786   5.200
 1233SOL     OW 4597   0.737   3.795   5.258
 1233SOL    HW1 4598   0.669   3.722   5.256
 1233SOL    HW2 4599   0.818   3.766   5.207
 1234SOL     OW 4600   5.759   4.124   4.353
 1234SOL    HW1 4601   5.842   4.166   4.390
 1234SOL    HW2 4602   5.683   4.189   4.360
 1235SOL     OW 4603   6.339   5.454   3.361
 1235SOL    HW1 4604   6.276   5.460   3.438
 1235SOL    HW2 4605   6.428   5.492   3.387
 1236SOL     OW 4606   5.826   0.472   6.959
 1236SOL    HW1 4607   5.841   0.526   6.876
 1236SOL    HW2 4608   5.779   0.387   6.936
 1237SOL     OW 4609   3.125   5.133   6.541
 1237SOL    HW1 4610   3.185   5.063   6.579
 1237SOL    HW2 4611   3.086   5.100   6.454
 1238SOL     OW 4612   1.940   1.622   0.900
 1238SOL    HW1 4613   1.926   1.610   0.802
 1238SOL    HW2 4614   2.000   1.701   0.915
 1239SOL     OW 4615   6.636   6.116   6.622
 1239SOL    HW1 4616   6.551   6.078   6.585
 1239SOL    HW2 4617   6.679   6.049   6.682
 1240SOL     OW 4618   4.813   6.213   1.793
 1240SOL    HW1 4619   4.873   6.138   1.763
 1240SOL    HW2 4620   4.848   6.300   1.758
 1241SOL     OW 4621   6.568   3.790   4.222
 1241SOL    HW1 4622   6.634   3.718   4.199
 1241SOL    HW2 4623   6.548   3.787   4.320
 1242SOL     OW 4624   2.359   3.868   0.517
 1242SOL    HW1 4625   2.430   3.843   0.451
 1242SOL    HW2 4626   2.269   3.846   0.480
 1243SOL     OW 4627   2.170   4.923   5.214
 1243SOL    HW1 4628   2.178   4.968   5.126
 1243SOL    HW2 4629   2.230   4.967   5.281
 1244SOL     OW 4630   0.455   1.074   3.909
 1244SOL    HW1 4631   0.451   1.099   3.813
 1244SOL    HW2 4632   0.541   1.027   3.928
 1245SOL     OW 4633   3.363   3.584   0.122
 1245SOL    HW1 4634   3.459   3.567   0.099
 1245SOL    HW2 4635   3.348   3.682   0.135
 1246SOL     OW 4636   1.988   6.182   2.349
 1246SOL    HW1 4637   2.007   6.270   2.305
 1246SOL    HW2 4638   1.994   6.191   2.448
 1247SOL     OW 4639   2.123   6.555   6.194
 1247SOL    HW1 4640   2.156   6.473   6.241
 1247SOL    HW2 4641   2.024   6.560   6.202
 1248SOL     OW 4642   2.030   5.339   4.038
 1248SOL    HW1 4643   2.020   5.243   4.063
 1248SOL    HW2 4644   1.962   5.394   4.088
 1249SOL     OW 4645   5.665   3.034   3.418
 1249SOL    HW1 4646   5.745   3.013   3.475
 1249SOL    HW2 4647   5.696   3.065   3.328
 1250SOL     OW 4648   1.327   4.437   4.345
 1250SOL    HW1 4649   1.381   4.478   4.272
 1250SOL    HW2 4650   1.252   4.384   4.305
 1251SOL     OW 4651   3.826   0.182   4.722
 1251SOL    HW1 4652   3.890   0.259   4.716
 1251SOL    HW2 4653   3.734   0.217   4.740
 1252SOL     OW 4654   3.646   4.343   5.604
 1252SOL    HW1 4655   3.642   4.413   5.675
 1252SOL    HW2 4656   3.599   4.375   5.522
 1253SOL     OW 4657   3.926   5.290   3.045
 1253SOL    HW1 4658   3.887   5.379   3.065
 1253SOL    HW2 4659   3.885   5.253   2.962
 1254SOL     OW 4660   6.443   1.927   2.921
 1254SOL    HW1 4661   6.479   2.019   2.905
 1254SOL    HW2 4662   6.343   1.928   2.914
 1255SOL     OW 4663   6.941   6.873   6.716
 1255SOL    HW1 4664   7.000   6.952   6.698
 1255SOL    HW2 4665   6.872   6.865   6.644
 1256SOL     OW 4666   4.854   0.488   3.277
 1256SOL    HW1 4667   4.911   0.463   3.355
 1256SOL    HW2 4668   4.855   0.588   3.266
 1257SOL     OW 4669   6.618   1.177   3.850
 1257SOL    HW1 4670   6.630   1.143   3.943
 1257SOL    HW2 4671   6.531   1.144   3.813
 1258SOL     OW 4672   6.918   0.038   3.573
 1258SOL    HW1 4673   6.927   0.031   3.672
 1258SOL    HW2 4674   6.879   0.127   3.549
 1259SOL     OW 4675   4.051   2.191   4.426
 1259SOL    HW1 4676   3.954   2.186   4.402
 1259SOL    HW2 4677   4.104   2.219   4.346
 1260SOL     OW 4678   1.240   0.600   6.985
 1260SOL    HW1 4679   1.233   0.691   0.002
 1260SOL    HW2 4680   1.251   0.611   6.887
 1261SOL     OW 4681   6.901   5.123   0.816
 1261SOL    HW1 4682   6.845   5.066   0.756
 1261SOL    HW2 4683   6.976   5.068   0.854
 1262SOL     OW 4684   5.352   5.791   0.947
 1262SOL    HW1 4685   5.361   5.818   1.043
 1262SOL    HW2 4686   5.402   5.856   0.889
 1263SOL     OW 4687   1.206   2.367   3.426
 1263SOL    HW1 4688   1.177   2.442   3.487
 1263SOL    HW2 4689   1.218   2.283   3.480
 1264SOL     OW 4690   0.888   2.690   5.296
 1264SOL    HW1 4691   0.971   2.642   5.327
 1264SOL    HW2 4692   0.812   2.625   5.293
 1265SOL     OW 4693   6.030   6.730   4.705
 1265SOL    HW1 4694   6.033   6.671   4.786
 1265SOL    HW2 4695   6.015   6.674   4.624
 1266SOL     OW 4696   2.109   0.552   4.784
 1266SOL    HW1 4697   2.050   0.574   4.707
 1266SOL    HW2 4698   2.127   0.453   4.785
 1267SOL     OW 4699   4.223   0.157   2.513
 1267SOL    HW1 4700   4.148   0.176   2.449
 1267SOL    HW2 4701   4.208   0.068   2.556
 1268SOL     OW 4702   4.418   2.674   5.342
 1268SOL    HW1 4703   4.413   2.767   5.379
 1268SOL    HW2 4704   4.366   2.669   5.257
 1269SOL     OW 4705   6.232   2.130   4.358
 1269SOL    HW1 4706   6.304   2.199   4.359
 1269SOL    HW2 4707   6.144   2.174   4.375
 1270SOL     OW 4708   0.113   5.360   3.598
 1270SOL    HW1 4709   0.030   5.344   3.651
 1270SOL    HW2 4710   0.099   5.329   3.504
 1271SOL     OW 4711   1.372   1.401   1.483
 1271SOL    HW1 4712   1.349   1.304   1.489
 1271SOL    HW2 4713   1.366   1.432   1.389
 1272SOL     OW 4714   6.534   4.427   0.030
 1272SOL    HW1 4715   6.610   4.486   0.001
 1272SOL    HW2 4716   6.477   4.477   0.096
 1273SOL     OW 4717   1.418   4.610   5.097
 1273SOL    HW1 4718   1.426   4.694   5.043
 1273SOL    HW2 4719   1.347   4.622   5.166
 1274SOL     OW 4720   0.754   5.378   2.791
 1274SOL    HW1 4721   0.726   5.302   2.732
 1274SOL    HW2 4722   0.718   5.464   2.755
 1275SOL     OW 4723   2.607   0.928   2.538
 1275SOL    HW1 4724   2.607   0.965   2.445
 1275SOL    HW2 4725   2.547   0.985   2.596
 1276SOL     OW 4726   5.371   4.868   3.694
 1276SOL    HW1 4727   5.423   4.888   3.776
 1276SOL    HW2 4728   5.420   4.903   3.614
 1277SOL     OW 4729   0.148   6.348   0.721
 1277SOL    HW1 4730   0.231   6.381   0.676
 1277SOL    HW2 4731   0.154   6.367   0.819
 1278SOL     OW 4732   1.061   5.485   2.727
 1278SOL    HW1 4733   1.014   5.487   2.816
 1278SOL    HW2 4734   1.159   5.473   2.741
 1279SOL     OW 4735   2.075   2.300   0.199
 1279SOL    HW1 4736   1.985   2.315   0.157
 1279SOL    HW2 4737   2.101   2.380   0.253
 1280SOL     OW 4738   2.159   2.000   3.316
 1280SOL    HW1 4739   2.133   2.066   3.246
 1280SOL    HW2 4740   2.180   2.048   3.401
 1281SOL     OW 4741   4.282   5.993   4.248
 1281SOL    HW1 4742   4.292   6.017   4.152
 1281SOL    HW2 4743   4.367   6.012   4.297
 1282SOL     OW 4744   6.727   2.595   1.399
 1282SOL    HW1 4745   6.649   2.532   1.398
 1282SOL    HW2 4746   6.698   2.682   1.359
 1283SOL     OW 4747   6.553   3.555   4.917
 1283SOL    HW1 4748   6.526   3.537   5.011
 1283SOL    HW2 4749   6.605   3.640   4.912
 1284SOL     OW 4750   4.033   1.844   2.224
 1284SOL    HW1 4751   3.986   1.837   2.312
 1284SOL    HW2 4752   3.992   1.917   2.170
 1285SOL     OW 4753   4.029   1.204   5.245
 1285SOL    HW1 4754   3.939   1.185   5.205
 1285SOL    HW2 4755   4.071   1.280   5.195
 1286SOL     OW 4756   4.724   1.834   2.035
 1286SOL    HW1 4757   4.744   1.857   2.131
 1286SOL    HW2 4758   4.739   1.736   2.020
 1287SOL     OW 4759   6.496   4.462   4.719
 1287SOL    HW1 4760   6.477   4.459   4.817
 1287SOL    HW2 4761   6.411   4.452   4.668
 1288SOL     OW 4762   4.454   4.166   6.723
 1288SOL    HW1 4763   4.487   4.078   6.688
 1288SOL    HW2 4764   4.370   4.151   6.776
 1289SOL     OW 4765   0.006   0.119   1.653
 1289SOL    HW1 4766   7.015   0.105   1.751
 1289SOL    HW2 4767   7.017   0.034   1.604
 1290SOL     OW 4768   1.568   0.039   6.393
 1290SOL    HW1 4769   1.574   0.128   6.438
 1290SOL    HW2 4770   1.638   7.005   6.429
 1291SOL     OW 4771   6.895   5.274   3.130
 1291SOL    HW1 4772   6.804   5.296   3.094
 1291SOL    HW2 4773   6.897   5.291   3.228
 1292SOL     OW 4774   1.047   6.550   2.279
 1292SOL    HW1 4775   1.086   6.508   2.361
 1292SOL    HW2 4776   1.051   6.650   2.288
 1293SOL     OW 4777   3.075   1.462   7.010
 1293SOL    HW1 4778   3.037   1.371   7.026
 1293SOL    HW2 4779   3.086   1.477   6.911
 1294SOL     OW 4780   2.292   3.619   5.353
 1294SOL    HW1 4781   2.382   3.662   5.339
 1294SOL    HW2 4782   2.300   3.520   5.339
 1295SOL     OW 4783   6.352   4.723   0.639
 1295SOL    HW1 4784   6.378   4.632   0.609
 1295SOL    HW2 4785   6.427   4.765   0.690
 1296SOL     OW 4786   5.243   6.902   5.595
 1296SOL    HW1 4787   5.150   6.869   5.607
 1296SOL    HW2 4788   5.264   6.907   5.497
 1297SOL     OW 4789   0.364   0.118   2.081
 1297SOL    HW1 4790   0.417   0.158   2.006
 1297SOL    HW2 4791   0.268   0.114   2.055
 1298SOL     OW 4792   5.013   6.100   2.306
 1298SOL    HW1 4793   5.020   6.057   2.396
 1298SOL    HW2 4794   4.947   6.175   2.309
 1299SOL     OW 4795   1.274   3.454   5.105
 1299SOL    HW1 4796   1.337   3.436   5.181
 1299SOL    HW2 4797   1.286   3.549   5.074
 1300SOL     OW 4798   1.323   4.296   2.144
 1300SOL    HW1 4799   1.401   4.240   2.170
 1300SOL    HW2 4800   1.244   4.272   2.201
 1301SOL     OW 4801   0.858   0.509   1.191
 1301SOL    HW1 4802   0.806   0.436   1.235
 1301SOL    HW2 4803   0.886   0.575   1.260
 1302SOL     OW 4804   5.278   6.924   4.482
 1302SOL    HW1 4805   5.251   6.843   4.533
 1302SOL    HW2 4806   5.217   7.000   4.503
 1303SOL     OW 4807   3.833   6.120   1.455
 1303SOL    HW1 4808   3.845   6.062   1.375
 1303SOL    HW2 4809   3.919   6.165   1.477
 1304SOL     OW 4810   0.944   1.379   0.833
 1304SOL    HW1 4811   0.921   1.440   0.908
 1304SOL    HW2 4812   0.999   1.427   0.766
 1305SOL     OW 4813   5.312   3.798   6.600
 1305SOL    HW1 4814   5.351   3.865   6.663
 1305SOL    HW2 4815   5.275   3.846   6.520
 1306SOL     OW 4816   2.590   5.612   4.019
 1306SOL    HW1 4817   2.563   5.709   4.019
 1306SOL    HW2 4818   2.567   5.572   3.930
 1307SOL     OW 4819   2.904   2.245   3.420
 1307SOL    HW1 4820   2.819   2.286   3.453
 1307SOL    HW2 4821   2.963   2.224   3.498
 1308SOL     OW 4822   0.192   5.251   5.723
 1308SOL    HW1 4823   0.150   5.291   5.642
 1308SOL    HW2 4824   0.241   5.321   5.774
 1309SOL     OW 4825   5.293   4.285   6.565
 1309SOL    HW1 4826   5.362   4.249   6.627
 1309SOL    HW2 4827   5.203   4.278   6.607
 1310SOL     OW 4828   1.335   3.977   3.526
 1310SOL    HW1 4829   1.315   4.075   3.530
 1310SOL    HW2 4830   1.295   3.932   3.606
 1311SOL     OW 4831   0.044   5.919   0.542
 1311SOL    HW1 4832   0.088   5.983   0.605
 1311SOL    HW2 4833   0.047   5.956   0.449
 1312SOL     OW 4834   2.475   0.693   6.324
 1312SOL    HW1 4835   2.500   0.717   6.418
 1312SOL    HW2 4836   2.456   0.776   6.272
 1313SOL     OW 4837   6.470   5.701   2.689
 1313SOL    HW1 4838   6.492   5.612   2.649
 1313SOL    HW2 4839   6.470   5.771   2.618
 1314SOL     OW 4840   2.583   1.533   5.240
 1314SOL    HW1 4841   2.610   1.618   5.285
 1314SOL    HW2 4842   2.524   1.553   5.162
 1315SOL     OW 4843   5.989   1.537   3.785
 1315SOL    HW1 4844   6.061   1.545   3.853
 1315SOL    HW2 4845   5.983   1.442   3.754
 1316SOL     OW 4846   4.282   0.581   4.809
 1316SOL    HW1 4847   4.272   0.660   4.748
 1316SOL    HW2 4848   4.210   0.584   4.879
 1317SOL     OW 4849   2.901   3.333   5.850
 1317SOL    HW1 4850   2.847   3.260   5.807
 1317SOL    HW2 4851   2.964   3.371   5.783
 1318SOL     OW 4852   2.036   2.632   6.177
 1318SOL    HW1 4853   1.988   2.559   6.225
 1318SOL    HW2 4854   1.998   2.720   6.205
 1319SOL     OW 4855   0.208   6.737   0.651
 1319SOL    HW1 4856   0.138   6.726   0.722
 1319SOL    HW2 4857   0.256   6.651   0.637
 1320SOL     OW 4858   3.508   2.751   5.875
 1320SOL    HW1 4859   3.598   2.725   5.841
 1320SOL    HW2 4860   3.470   2.677   5.930
 1321SOL     OW 4861   5.207   2.494   6.883
 1321SOL    HW1 4862   5.196   2.430   6.807
 1321SOL    HW2 4863   5.276   2.562   6.860
 1322SOL     OW 4864   3.268   1.368   0.788
 1322SOL    HW1 4865   3.193   1.432   0.770
 1322SOL    HW2 4866   3.355   1.414   0.772
 1323SOL     OW 4867   3.830   6.930   0.635
 1323SOL    HW1 4868   3.738   6.903   0.662
 1323SOL    HW2 4869   3.873   6.857   0.581
 1324SOL     OW 4870   1.446   3.560   0.072
 1324SOL    HW1 4871   1.500   3.519   7.025
 1324SOL    HW2 4872   1.474   3.655   0.084
 1325SOL     OW 4873   2.599   5.212   6.268
 1325SOL    HW1 4874   2.666   5.235   6.338
 1325SOL    HW2 4875   2.615   5.268   6.187
 1326SOL     OW 4876   5.089   3.190   3.591
 1326SOL    HW1 4877   5.044   3.217   3.676
 1326SOL    HW2 4878   5.167   3.131   3.612
 1327SOL     OW 4879   6.231   5.927   1.405
 1327SOL    HW1 4880   6.198   6.001   1.464
 1327SOL    HW2 4881   6.330   5.919   1.415
 1328SOL     OW 4882   1.581   3.386   5.721
 1328SOL    HW1 4883   1.678   3.406   5.729
 1328SOL    HW2 4884   1.545   3.361   5.811
 1329SOL     OW 4885   0.809   2.854   3.019
 1329SOL    HW1 4886   0.843   2.807   2.937
 1329SOL    HW2 4887   0.746   2.927   2.992
 1330SOL     OW 4888   6.516   3.246   1.394
 1330SOL    HW1 4889   6.526   3.337   1.436
 1330SOL    HW2 4890   6.589   3.232   1.327
 1331SOL     OW 4891   4.610   1.809   3.036
 1331SOL    HW1 4892   4.556   1.883   3.075
 1331SOL    HW2 4893   4.705   1.817   3.067
 1332SOL     OW 4894   1.644   5.896   0.272
 1332SOL    HW1 4895   1.589   5.970   0.311
 1332SOL    HW2 4896   1.611   5.808   0.305
 1333SOL     OW 4897   3.634   4.027   3.371
 1333SOL    HW1 4898   3.617   3.942   3.421
 1333SOL    HW2 4899   3.633   4.104   3.435
 1334SOL     OW 4900   0.159   3.320   2.200
 1334SOL    HW1 4901   0.223   3.270   2.142
 1334SOL    HW2 4902   0.209   3.386   2.256
 1335SOL     OW 4903   1.457   3.408   2.257
 1335SOL    HW1 4904   1.435   3.472   2.184
 1335SOL    HW2 4905   1.494   3.459   2.335
 1336SOL     OW 4906   3.201   0.611   5.329
 1336SOL    HW1 4907   3.232   0.653   5.244
 1336SOL    HW2 4908   3.172   0.682   5.393
 1337SOL     OW 4909   6.859   1.306   3.426
 1337SOL    HW1 4910   6.848   1.338   3.520
 1337SOL    HW2 4911   6.936   1.241   3.422
 1338SOL     OW 4912   6.242   4.586   5.476
 1338SOL    HW1 4913   6.227   4.680   5.446
 1338SOL    HW2 4914   6.328   4.552   5.437
 1339SOL     OW 4915   0.323   0.781   6.718
 1339SOL    HW1 4916   0.308   0.692   6.762
 1339SOL    HW2 4917   0.420   0.792   6.697
 1340SOL     OW 4918   4.426   2.213   1.650
 1340SOL    HW1 4919   4.369   2.264   1.714
 1340SOL    HW2 4920   4.470   2.136   1.697
 1341SOL     OW 4921   4.764   7.006   6.973
 1341SOL    HW1 4922   4.731   6.923   6.930
 1341SOL    HW2 4923   4.782   6.989   0.044
 1342SOL     OW 4924   2.263   6.393   0.973
 1342SOL    HW1 4925   2.285   6.380   0.876
 1342SOL    HW2 4926   2.189   6.459   0.982
 1343SOL     OW 4927   5.741   6.195   3.499
 1343SOL    HW1 4928   5.832   6.206   3.461
 1343SOL    HW2 4929   5.714   6.278   3.549
 1344SOL     OW 4930   0.185   0.291   4.984
 1344SOL    HW1 4931   0.172   0.244   4.896
 1344SOL    HW2 4932   0.278   0.274   5.017
 1345SOL     OW 4933   0.082   5.928   1.205
 1345SOL    HW1 4934   0.126   5.913   1.293
 1345SOL    HW2 4935   0.012   5.858   1.191
 1346SOL     OW 4936   2.803   5.228   5.908
 1346SOL    HW1 4937   2.766   5.299   5.968
 1346SOL    HW2 4938   2.759   5.233   5.818
 1347SOL     OW 4939   1.398   6.836   6.684
 1347SOL    HW1 4940   1.316   6.883   6.715
 1347SOL    HW2 4941   1.378   6.784   6.601
 1348SOL     OW 4942   0.527   6.418   5.250
 1348SOL    HW1 4943   0.487   6.355   5.183
 1348SOL    HW2 4944   0.544   6.370   5.336
 1349SOL     OW 4945   4.971   3.228   3.832
 1349SOL    HW1 4946   4.945   3.134   3.853
 1349SOL    HW2 4947   4.942   3.289   3.906
 1350SOL     OW 4948   3.798   3.630   0.431
 1350SOL    HW1 4949   3.814   3.549   0.487
 1350SOL    HW2 4950   3.722   3.683   0.470
 1351SOL     OW 4951   6.700   2.360   5.558
 1351SOL    HW1 4952   6.730   2.361   5.463
 1351SOL    HW2 4953   6.603   2.387   5.563
 1352SOL     OW 4954   0.023   0.373   2.256
 1352SOL    HW1 4955   7.015   0.415   2.340
 1352SOL    HW2 4956   6.975   0.329   2.208
 1353SOL     OW 4957   0.700   1.050   0.979
 1353SOL    HW1 4958   0.726   1.052   0.882
 1353SOL    HW2 4959   0.630   0.980   0.993
 1354SOL     OW 4960   5.262   5.050   2.130
 1354SOL    HW1 4961   5.197   4.975   2.139
 1354SOL    HW2 4962   5.237   5.107   2.052
 1355SOL     OW 4963   6.259   3.464   5.179
 1355SOL    HW1 4964   6.208   3.509   5.252
 1355SOL    HW2 4965   6.196   3.408   5.124
 1356SOL     OW 4966   3.355   3.116   1.337
 1356SOL    HW1 4967   3.346   3.020   1.362
 1356SOL    HW2 4968   3.370   3.170   1.420
 1357SOL     OW 4969   6.883   3.533   5.592
 1357SOL    HW1 4970   6.848   3.609   5.536
 1357SOL    HW2 4971   6.816   3.510   5.662
 1358SOL     OW 4972   1.716   6.771   6.691
 1358SOL    HW1 4973   1.707   6.756   6.592
 1358SOL    HW2 4974   1.707   6.869   6.710
 1359SOL     OW 4975   6.857   4.225   1.943
 1359SOL    HW1 4976   6.824   4.282   1.866
 1359SOL    HW2 4977   6.857   4.280   2.026
 1360SOL     OW 4978   2.306   2.252   6.817
 1360SOL    HW1 4979   2.349   2.342   6.811
 1360SOL    HW2 4980   2.376   2.182   6.803
 1361SOL     OW 4981   6.758   5.077   4.623
 1361SOL    HW1 4982   6.851   5.041   4.614
 1361SOL    HW2 4983   6.735   5.086   4.719
 1362SOL     OW 4984   3.206   2.985   2.923
 1362SOL    HW1 4985   3.166   2.984   2.832
 1362SOL    HW2 4986   3.286   2.925   2.925
 1363SOL     OW 4987   0.749   6.221   5.167
 1363SOL    HW1 4988   0.744   6.131   5.124
 1363SOL    HW2 4989   0.760   6.210   5.266
 1364SOL     OW 4990   3.642   4.229   1.337
 1364SOL    HW1 4991   3.567   4.224   1.271
 1364SOL    HW2 4992   3.682   4.139   1.350
 1365SOL     OW 4993   0.282   3.625   0.088
 1365SOL    HW1 4994   0.250   3.622   7.020
 1365SOL    HW2 4995   0.209   3.593   0.149
 1366SOL     OW 4996   2.712   6.891   4.872
 1366SOL    HW1 4997   2.725   6.981   4.914
 1366SOL    HW2 4998   2.722   6.898   4.773
 1367SOL     OW 4999   1.971   0.942   2.515
 1367SOL    HW1 5000   2.044   0.913   2.576
 1367SOL    HW2 5001   2.001   0.932   2.420
 1368SOL     OW 5002   5.970   6.582   4.164
 1368SOL    HW1 5003   6.037   6.512   4.138
 1368SOL    HW2 5004   5.890   6.538   4.204
 1369SOL     OW 5005   0.688   0.734   3.097
 1369SOL    HW1 5006   0.619   0.700   3.161
 1369SOL    HW2 5007   0.663   0.707   3.004
 1370SOL     OW 5008   2.439   1.063   1.715
 1370SOL    HW1 5009   2.369   1.127   1.750
 1370SOL    HW2 5010   2.402   1.014   1.636
 1371SOL     OW 5011   3.934   0.723   6.553
 1371SOL    HW1 5012   4.008   0.671   6.511
 1371SOL    HW2 5013   3.853   0.719   6.495
 1372SOL     OW 5014   3.338   2.024   2.289
 1372SOL    HW1 5015   3.374   2.062   2.203
 1372SOL    HW2 5016   3.239   2.035   2.290
 1373SOL     OW 5017   1.334   5.868   1.279
 1373SOL    HW1 5018   1.412   5.832   1.229
 1373SOL    HW2 5019   1.364   5.899   1.369
 1374SOL     OW 5020   4.925   2.600   0.482
 1374SOL    HW1 5021   4.954   2.672   0.545
 1374SOL    HW2 5022   4.895   2.520   0.534
 1375SOL     OW 5023   0.631   4.032   5.774
 1375SOL    HW1 5024   0.562   4.035   5.702
 1375SOL    HW2 5025   0.703   3.967   5.750
 1376SOL     OW 5026   4.839   1.724   2.382
 1376SOL    HW1 5027   4.807   1.816   2.406
 1376SOL    HW2 5028   4.936   1.715   2.404
 1377SOL     OW 5029   0.369   5.300   4.942
 1377SOL    HW1 5030   0.316   5.234   4.995
 1377SOL    HW2 5031   0.447   5.332   4.996
 1378SOL     OW 5032   1.252   2.320   0.442
 1378SOL    HW1 5033   1.262   2.415   0.413
 1378SOL    HW2 5034   1.337   2.291   0.487
 1379SOL     OW 5035   3.832   5.928   1.978
 1379SOL    HW1 5036   3.913   5.893   2.024
 1379SOL    HW2 5037   3.831   6.028   1.982
 1380SOL     OW 5038   6.445   6.532   2.577
 1380SOL    HW1 5039   6.351   6.501   2.561
 1380SOL    HW2 5040   6.448   6.592   2.657
 1381SOL     OW 5041   6.073   1.494   1.395
 1381SOL    HW1 5042   6.012   1.452   1.461
 1381SOL    HW2 5043   6.166   1.460   1.409
 1382SOL     OW 5044   6.172   4.936   6.434
 1382SOL    HW1 5045   6.226   4.859   6.400
 1382SOL    HW2 5046   6.125   4.980   6.358
 1383SOL     OW 5047   2.554   0.188   0.642
 1383SOL    HW1 5048   2.490   0.112   0.634
 1383SOL    HW2 5049   2.638   0.168   0.590
 1384SOL     OW 5050   3.280   1.918   2.672
 1384SOL    HW1 5051   3.231   1.958   2.749
 1384SOL    HW2 5052   3.316   1.991   2.614
 1385SOL     OW 5053   5.678   3.040   2.760
 1385SOL    HW1 5054   5.617   3.006   2.832
 1385SOL    HW2 5055   5.721   3.125   2.791
 1386SOL     OW 5056   2.224   2.486   4.133
 1386SOL    HW1 5057   2.174   2.463   4.049
 1386SOL    HW2 5058   2.159   2.517   4.202
 1387SOL     OW 5059   2.798   0.580   4.969
 1387SOL    HW1 5060   2.742   0.518   4.915
 1387SOL    HW2 5061   2.745   0.661   4.993
 1388SOL     OW 5062   6.545   0.616   5.014
 1388SOL    HW1 5063   6.496   0.661   5.089
 1388SOL    HW2 5064   6.636   0.588   5.045
 1389SOL     OW 5065   6.655   0.776   4.716
 1389SOL    HW1 5066   6.579   0.744   4.659
 1389SOL    HW2 5067   6.619   0.836   4.787
 1390SOL     OW 5068   4.698   2.620   2.511
 1390SOL    HW1 5069   4.686   2.671   2.426
 1390SOL    HW2 5070   4.701   2.522   2.490
 1391SOL     OW 5071   5.955   1.240   4.941
 1391SOL    HW1 5072   5.914   1.299   4.872
 1391SOL    HW2 5073   5.927   1.145   4.924
 1392SOL     OW 5074   4.338   5.230   6.029
 1392SOL    HW1 5075   4.284   5.177   5.964
 1392SOL    HW2 5076   4.276   5.279   6.091
 1393SOL     OW 5077   5.962   0.593   6.334
 1393SOL    HW1 5078   6.029   0.667   6.339
 1393SOL    HW2 5079   6.001   0.511   6.376
 1394SOL     OW 5080   4.130   0.038   3.932
 1394SOL    HW1 5081   4.069   0.113   3.907
 1394SOL    HW2 5082   4.101   0.001   4.021
 1395SOL     OW 5083   0.942   5.331   2.292
 1395SOL    HW1 5084   0.921   5.376   2.379
 1395SOL    HW2 5085   1.020   5.376   2.249
 1396SOL     OW 5086   2.089   1.490   4.003
 1396SOL    HW1 5087   2.142   1.497   3.919
 1396SOL    HW2 5088   1.991   1.487   3.981
 1397SOL     OW 5089   1.015   5.674   4.428
 1397SOL    HW1 5090   0.996   5.720   4.341
 1397SOL    HW2 5091   0.929   5.646   4.470
 1398SOL     OW 5092   0.999   6.410   0.655
 1398SOL    HW1 5093   1.046   6.461   0.728
 1398SOL    HW2 5094   0.909   6.381   0.687
 1399SOL     OW 5095   4.394   0.457   0.340
 1399SOL    HW1 5096   4.378   0.407   0.255
 1399SOL    HW2 5097   4.307   0.479   0.383
 1400SOL     OW 5098   7.011   0.470   4.960
 1400SOL    HW1 5099   0.048   0.395   4.939
 1400SOL    HW2 5100   6.964   0.498   4.877
 1401SOL     OW 5101   5.555   0.287   2.414
 1401SOL    HW1 5102   5.546   0.374   2.461
 1401SOL    HW2 5103   5.559   0.213   2.481
 1402SOL     OW 5104   6.933   4.991   2.762
 1402SOL    HW1 5105   6.860   4.930   2.791
 1402SOL    HW2 5106   6.954   5.056   2.836
 1403SOL     OW 5107   3.211   3.354   6.688
 1403SOL    HW1 5108   3.208   3.452   6.705
 1403SOL    HW2 5109   3.143   3.331   6.618
 1404SOL     OW 5110   3.647   6.600   0.513
 1404SOL    HW1 5111   3.679   6.675   0.456
 1404SOL    HW2 5112   3.724   6.545   0.543
 1405SOL     OW 5113   0.838   4.042   1.551
 1405SOL    HW1 5114   0.749   4.082   1.531
 1405SOL    HW2 5115   0.831   3.942   1.549
 1406SOL     OW 5116   2.109   3.377   0.645
 1406SOL    HW1 5117   2.087   3.359   0.741
 1406SOL    HW2 5118   2.173   3.454   0.639
 1407SOL     OW 5119   0.378   3.087   1.303
 1407SOL    HW1 5120   0.463   3.100   1.354
 1407SOL    HW2 5121   0.369   3.159   1.234
 1408SOL     OW 5122   5.618   6.696   1.238
 1408SOL    HW1 5123   5.570   6.665   1.155
 1408SOL    HW2 5124   5.704   6.646   1.247
 1409SOL     OW 5125   6.522   0.838   5.937
 1409SOL    HW1 5126   6.616   0.807   5.920
 1409SOL    HW2 5127   6.524   0.935   5.964
 1410SOL     OW 5128   3.680   0.845   6.065
 1410SOL    HW1 5129   3.737   0.922   6.035
 1410SOL    HW2 5130   3.585   0.876   6.076
 1411SOL     OW 5131   3.544   5.117   6.916
 1411SOL    HW1 5132   3.569   5.088   7.008
 1411SOL    HW2 5133   3.623   5.159   6.871
 1412SOL     OW 5134   2.609   2.779   6.942
 1412SOL    HW1 5135   2.511   2.768   6.926
 1412SOL    HW2 5136   2.634   2.733   0.001
 1413SOL     OW 5137   1.345   1.951   4.923
 1413SOL    HW1 5138   1.313   2.030   4.870
 1413SOL    HW2 5139   1.432   1.973   4.965
 1414SOL     OW 5140   0.571   4.229   2.740
 1414SOL    HW1 5141   0.650   4.290   2.735
 1414SOL    HW2 5142   0.602   4.134   2.739
 1415SOL     OW 5143   2.700   1.340   4.843
 1415SOL    HW1 5144   2.748   1.417   4.886
 1415SOL    HW2 5145   2.607   1.335   4.879
 1416SOL     OW 5146   4.398   0.352   4.721
 1416SOL    HW1 5147   4.371   0.440   4.761
 1416SOL    HW2 5148   4.406   0.362   4.621
 1417SOL     OW 5149   3.532   3.534   6.137
 1417SOL    HW1 5150   3.453   3.478   6.113
 1417SOL    HW2 5151   3.607   3.475   6.168
 1418SOL     OW 5152   4.049   4.363   5.578
 1418SOL    HW1 5153   4.090   4.392   5.491
 1418SOL    HW2 5154   4.121   4.344   5.644
 1419SOL     OW 5155   1.249   5.862   2.187
 1419SOL    HW1 5156   1.235   5.767   2.214
 1419SOL    HW2 5157   1.194   5.883   2.106
 1420SOL     OW 5158   2.708   6.685   3.138
 1420SOL    HW1 5159   2.721   6.773   3.184
 1420SOL    HW2 5160   2.610   6.665   3.132
 1421SOL     OW 5161   1.092   4.833   5.953
 1421SOL    HW1 5162   1.082   4.739   5.986
 1421SOL    HW2 5163   1.005   4.863   5.913
 1422SOL     OW 5164   2.329   3.160   6.285
 1422SOL    HW1 5165   2.364   3.194   6.197
 1422SOL    HW2 5166   2.288   3.070   6.272
 1423SOL     OW 5167   4.016   0.951   4.551
 1423SOL    HW1 5168   4.047   0.884   4.619
 1423SOL    HW2 5169   3.962   1.022   4.596
 1424SOL     OW 5170   6.134   2.924   0.650
 1424SOL    HW1 5171   6.144   2.987   0.574
 1424SOL    HW2 5172   6.130   2.975   0.736
 1425SOL     OW 5173   5.434   0.050   3.489
 1425SOL    HW1 5174   5.447   0.072   3.585
 1425SOL    HW2 5175   5.480   0.117   3.432
 1426SOL     OW 5176   3.496   1.223   0.005
 1426SOL    HW1 5177   3.470   1.225   6.935
 1426SOL    HW2 5178   3.546   1.138   0.024
 1427SOL     OW 5179   1.508   0.488   3.622
 1427SOL    HW1 5180   1.484   0.441   3.707
 1427SOL    HW2 5181   1.467   0.579   3.622
 1428SOL     OW 5182   1.048   2.798   3.745
 1428SOL    HW1 5183   0.988   2.878   3.745
 1428SOL    HW2 5184   1.108   2.801   3.825
 1429SOL     OW 5185   6.329   1.032   1.758
 1429SOL    HW1 5186   6.402   0.987   1.809
 1429SOL    HW2 5187   6.322   0.990   1.667
 1430SOL     OW 5188   2.142   3.404   4.252
 1430SOL    HW1 5189   2.170   3.314   4.220
 1430SOL    HW2 5190   2.166   3.414   4.349
 1431SOL     OW 5191   2.811   1.297   0.166
 1431SOL    HW1 5192   2.768   1.379   0.128
 1431SOL    HW2 5193   2.861   1.249   0.094
 1432SOL     OW 5194   3.166   0.837   2.135
 1432SOL    HW1 5195   3.227   0.869   2.208
 1432SOL    HW2 5196   3.071   0.853   2.162
 1433SOL     OW 5197   2.780   0.289   4.156
 1433SOL    HW1 5198   2.740   0.381   4.154
 1433SOL    HW2 5199   2.778   0.249   4.065
 1434SOL     OW 5200   6.383   4.117   0.394
 1434SOL    HW1 5201   6.411   4.034   0.442
 1434SOL    HW2 5202   6.464   4.163   0.357
 1435SOL     OW 5203   1.649   0.533   3.919
 1435SOL    HW1 5204   1.747   0.545   3.910
 1435SOL    HW2 5205   1.628   0.437   3.939
 1436SOL     OW 5206   5.384   1.031   0.534
 1436SOL    HW1 5207   5.324   1.008   0.611
 1436SOL    HW2 5208   5.477   1.046   0.567
 1437SOL     OW 5209   4.300   0.608   0.036
 1437SOL    HW1 5210   4.334   0.671   0.105
 1437SOL    HW2 5211   4.374   0.548   0.006
 1438SOL     OW 5212   2.169   0.387   2.376
 1438SOL    HW1 5213   2.252   0.331   2.387
 1438SOL    HW2 5214   2.178   0.442   2.293
 1439SOL     OW 5215   0.331   4.590   6.813
 1439SOL    HW1 5216   0.315   4.676   6.764
 1439SOL    HW2 5217   0.354   4.611   6.908
 1440SOL     OW 5218   3.561   3.187   2.727
 1440SOL    HW1 5219   3.578   3.092   2.698
 1440SOL    HW2 5220   3.477   3.220   2.686
 1441SOL     OW 5221   6.613   2.860   4.331
 1441SOL    HW1 5222   6.578   2.859   4.237
 1441SOL    HW2 5223   6.676   2.784   4.344
 1442SOL     OW 5224   5.441   6.666   6.861
 1442SOL    HW1 5225   5.525   6.693   6.815
 1442SOL    HW2 5226   5.405   6.744   6.912
 1443SOL     OW 5227   1.188   2.460   2.996
 1443SOL    HW1 5228   1.173   2.536   3.059
 1443SOL    HW2 5229   1.285   2.435   2.995
 1444SOL     OW 5230   5.665   0.730   4.995
 1444SOL    HW1 5231   5.586   0.735   5.055
 1444SOL    HW2 5232   5.649   0.660   4.924
 1445SOL     OW 5233   6.304   2.398   0.835
 1445SOL    HW1 5234   6.286   2.303   0.808
 1445SOL    HW2 5235   6.302   2.456   0.754
 1446SOL     OW 5236   3.978   0.462   0.923
 1446SOL    HW1 5237   4.029   0.386   0.883
 1446SOL    HW2 5238   3.905   0.426   0.981
 1447SOL     OW 5239   5.160   1.257   4.986
 1447SOL    HW1 5240   5.250   1.213   4.978
 1447SOL    HW2 5241   5.123   1.239   5.077
 1448SOL     OW 5242   5.756   0.075   6.678
 1448SOL    HW1 5243   5.706   0.004   6.629
 1448SOL    HW2 5244   5.854   0.061   6.666
 1449SOL     OW 5245   4.794   5.586   0.830
 1449SOL    HW1 5246   4.698   5.596   0.856
 1449SOL    HW2 5247   4.808   5.620   0.737
 1450SOL     OW 5248   5.368   2.197   4.128
 1450SOL    HW1 5249   5.422   2.228   4.050
 1450SOL    HW2 5250   5.282   2.248   4.131
 1451SOL     OW 5251   1.398   0.080   2.098
 1451SOL    HW1 5252   1.411   0.143   2.021
 1451SOL    HW2 5253   1.439   0.119   2.180
 1452SOL     OW 5254   4.259   0.162   4.853
 1452SOL    HW1 5255   4.282   0.072   4.817
 1452SOL    HW2 5256   4.325   0.229   4.819
 1453SOL     OW 5257   4.652   4.430   4.351
 1453SOL    HW1 5258   4.595   4.504   4.387
 1453SOL    HW2 5259   4.716   4.400   4.421
 1454SOL     OW 5260   4.559   4.198   1.298
 1454SOL    HW1 5261   4.548   4.134   1.374
 1454SOL    HW2 5262   4.572   4.146   1.213
 1455SOL     OW 5263   2.309   2.322   1.331
 1455SOL    HW1 5264   2.284   2.416   1.308
 1455SOL    HW2 5265   2.369   2.322   1.412
 1456SOL     OW 5266   6.642   5.193   4.052
 1456SOL    HW1 5267   6.681   5.274   4.097
 1456SOL    HW2 5268   6.566   5.158   4.107
 1457SOL     OW 5269   1.766   0.464   3.570
 1457SOL    HW1 5270   1.772   0.386   3.507
 1457SOL    HW2 5271   1.673   0.500   3.569
 1458SOL     OW 5272   6.776   5.344   0.080
 1458SOL    HW1 5273   6.832   5.281   0.134
 1458SOL    HW2 5274   6.691   5.298   0.053
 1459SOL     OW 5275   2.539   0.074   1.110
 1459SOL    HW1 5276   2.487   0.146   1.065
 1459SOL    HW2 5277   2.575   0.011   1.041
 1460SOL     OW 5278   0.747   6.458   0.774
 1460SOL    HW1 5279   0.732   6.554   0.799
 1460SOL    HW2 5280   0.703   6.399   0.842
 1461SOL     OW 5281   4.500   4.795   1.613
 1461SOL    HW1 5282   4.526   4.883   1.574
 1461SOL    HW2 5283   4.450   4.809   1.698
 1462SOL     OW 5284   5.233   0.412   5.104
 1462SOL    HW1 5285   5.232   0.357   5.187
 1462SOL    HW2 5286   5.165   0.485   5.112
 1463SOL     OW 5287   0.372   1.079   5.017
 1463SOL    HW1 5288   0.328   1.019   4.950
 1463SOL    HW2 5289   0.349   1.048   5.110
 1464SOL     OW 5290   0.344   0.154   1.381
 1464SOL    HW1 5291   0.369   0.126   1.473
 1464SOL    HW2 5292   0.353   0.077   1.318
 1465SOL     OW 5293   0.417   0.036   4.814
 1465SOL    HW1 5294   0.330   0.083   4.800
 1465SOL    HW2 5295   0.430   6.995   4.742
 1466SOL     OW 5296   5.534   4.922   4.393
 1466SOL    HW1 5297   5.454   4.881   4.348
 1466SOL    HW2 5298   5.613   4.916   4.333
 1467SOL     OW 5299   6.007   3.843   2.782
 1467SOL    HW1 5300   6.029   3.923   2.728
 1467SOL    HW2 5301   5.908   3.837   2.795
 1468SOL     OW 5302   5.369   6.179   2.955
 1468SOL    HW1 5303   5.418   6.112   2.899
 1468SOL    HW2 5304   5.365   6.267   2.906
 1469SOL     OW 5305   0.373   1.104   2.530
 1469SOL    HW1 5306   0.426   1.184   2.502
 1469SOL    HW2 5307   0.307   1.082   2.458
 1470SOL     OW 5308   0.176   0.700   3.361
 1470SOL    HW1 5309   0.119   0.736   3.287
 1470SOL    HW2 5310   0.165   0.757   3.443
 1471SOL     OW 5311   6.210   0.624   0.409
 1471SOL    HW1 5312   6.290   0.602   0.465
 1471SOL    HW2 5313   6.151   0.544   0.402
 1472SOL     OW 5314   4.459   5.892   5.126
 1472SOL    HW1 5315   4.487   5.874   5.220
 1472SOL    HW2 5316   4.374   5.945   5.126
 1473SOL     OW 5317   6.030   4.230   3.394
 1473SOL    HW1 5318   6.056   4.318   3.357
 1473SOL    HW2 5319   6.012   4.239   3.492
 1474SOL     OW 5320   4.641   5.040   3.655
 1474SOL    HW1 5321   4.599   5.131   3.647
 1474SOL    HW2 5322   4.590   4.986   3.722
 1475SOL     OW 5323   0.038   0.822   3.164
 1475SOL    HW1 5324   7.002   0.795   3.091
 1475SOL    HW2 5325   7.021   0.890   3.222
 1476SOL     OW 5326   6.013   1.866   1.448
 1476SOL    HW1 5327   5.958   1.839   1.528
 1476SOL    HW2 5328   5.955   1.868   1.367
 1477SOL     OW 5329   3.008   6.292   3.372
 1477SOL    HW1 5330   2.937   6.357   3.347
 1477SOL    HW2 5331   3.097   6.325   3.338
 1478SOL     OW 5332   6.903   4.873   1.992
 1478SOL    HW1 5333   6.808   4.858   1.963
 1478SOL    HW2 5334   6.904   4.912   2.084
 1479SOL     OW 5335   0.967   5.245   1.004
 1479SOL    HW1 5336   0.984   5.154   1.043
 1479SOL    HW2 5337   0.887   5.285   1.047
 1480SOL     OW 5338   2.692   0.936   0.268
 1480SOL    HW1 5339   2.704   0.865   0.337
 1480SOL    HW2 5340   2.640   1.012   0.308
 1481SOL     OW 5341   6.999   2.279   5.956
 1481SOL    HW1 5342   0.071   2.293   5.961
 1481SOL    HW2 5343   6.955   2.320   6.035
 1482SOL     OW 5344   5.816   1.154   6.247
 1482SOL    HW1 5345   5.904   1.171   6.291
 1482SOL    HW2 5346   5.744   1.203   6.295
 1483SOL     OW 5347   6.098   2.852   6.614
 1483SOL    HW1 5348   6.028   2.913   6.651
 1483SOL    HW2 5349   6.084   2.760   6.651
 1484SOL     OW 5350   0.033   6.742   3.152
 1484SOL    HW1 5351   6.979   6.773   3.102
 1484SOL    HW2 5352   0.081   6.821   3.190
 1485SOL     OW 5353   5.856   2.887   3.963
 1485SOL    HW1 5354   5.759   2.911   3.951
 1485SOL    HW2 5355   5.867   2.833   4.046
 1486SOL     OW 5356   4.907   2.380   1.814
 1486SOL    HW1 5357   4.830   2.326   1.848
 1486SOL    HW2 5358   4.873   2.453   1.755
 1487SOL     OW 5359   6.766   1.379   5.578
 1487SOL    HW1 5360   6.864   1.364   5.570
 1487SOL    HW2 5361   6.716   1.297   5.550
 1488SOL     OW 5362   4.507   2.157   2.861
 1488SOL    HW1 5363   4.444   2.088   2.898
 1488SOL    HW2 5364   4.456   2.224   2.807
 1489SOL     OW 5365   3.913   4.928   5.220
 1489SOL    HW1 5366   3.831   4.985   5.215
 1489SOL    HW2 5367   3.940   4.901   5.128
 1490SOL     OW 5368   2.213   2.530   0.821
 1490SOL    HW1 5369   2.297   2.540   0.874
 1490SOL    HW2 5370   2.135   2.520   0.884
 1491SOL     OW 5371   6.932   2.328   5.667
 1491SOL    HW1 5372   6.940   2.298   5.762
 1491SOL    HW2 5373   6.835   2.334   5.643
 1492SOL     OW 5374   5.234   2.689   1.874
 1492SOL    HW1 5375   5.200   2.697   1.781
 1492SOL    HW2 5376   5.177   2.745   1.935
 1493SOL     OW 5377   5.425   0.754   5.094
 1493SOL    HW1 5378   5.385   0.791   5.009
 1493SOL    HW2 5379   5.357   0.758   5.167
 1494SOL     OW 5380   5.102   2.234   3.991
 1494SOL    HW1 5381   5.014   2.281   3.998
 1494SOL    HW2 5382   5.123   2.217   3.895
 1495SOL     OW 5383   1.986   2.482   2.355
 1495SOL    HW1 5384   1.894   2.452   2.378
 1495SOL    HW2 5385   2.014   2.554   2.419
 1496SOL     OW 5386   0.898   1.388   3.237
 1496SOL    HW1 5387   0.996   1.368   3.240
 1496SOL    HW2 5388   0.848   1.305   3.215
 1497SOL     OW 5389   5.121   4.445   5.797
 1497SOL    HW1 5390   5.174   4.378   5.849
 1497SOL    HW2 5391   5.037   4.466   5.847
 1498SOL     OW 5392   1.871   5.774   0.123
 1498SOL    HW1 5393   1.880   5.858   0.069
 1498SOL    HW2 5394   1.797   5.785   0.189
 1499SOL     OW 5395   0.332   4.581   4.838
 1499SOL    HW1 5396   0.251   4.545   4.791
 1499SOL    HW2 5397   0.368   4.659   4.787
 1500SOL     OW 5398   3.845   6.526   5.276
 1500SOL    HW1 5399   3.860   6.619   5.309
 1500SOL    HW2 5400   3.767   6.525   5.213
 1501SOL     OW 5401   4.196   0.506   6.679
 1501SOL    HW1 5402   4.270   0.573   6.682
 1501SOL    HW2 5403   4.163   0.498   6.585
 1502SOL     OW 5404   6.646   6.493   0.101
 1502SOL    HW1 5405   6.561   6.516   0.149
 1502SOL    HW2 5406   6.626   6.423   0.031
 1503SOL     OW 5407   3.411   3.662   5.329
 1503SOL    HW1 5408   3.371   3.664   5.237
 1503SOL    HW2 5409   3.345   3.700   5.394
 1504SOL     OW 5410   2.817   6.261   4.360
 1504SOL    HW1 5411   2.859   6.351   4.366
 1504SOL    HW2 5412   2.843   6.219   4.273
 1505SOL     OW 5413   4.960   4.985   1.533
 1505SOL    HW1 5414   4.978   4.895   1.492
 1505SOL    HW2 5415   4.904   5.039   1.472
 1506SOL     OW 5416   0.773   6.282   2.957
 1506SOL    HW1 5417   0.731   6.342   3.026
 1506SOL    HW2 5418   0.704   6.256   2.889
 1507SOL     OW 5419   1.924   1.011   6.435
 1507SOL    HW1 5420   1.897   1.103   6.408
 1507SOL    HW2 5421   2.022   0.999   6.419
 1508SOL     OW 5422   4.651   6.901   0.395
 1508SOL    HW1 5423   4.584   6.836   0.359
 1508SOL    HW2 5424   4.636   6.913   0.493
 1509SOL     OW 5425   5.293   1.494   0.527
 1509SOL    HW1 5426   5.314   1.547   0.609
 1509SOL    HW2 5427   5.198   1.462   0.531
 1510SOL     OW 5428   0.038   1.986   3.679
 1510SOL    HW1 5429   7.010   2.023   3.604
 1510SOL    HW2 5430   0.135   1.996   3.658
 1511SOL     OW 5431   1.308   2.773   0.602
 1511SOL    HW1 5432   1.250   2.846   0.566
 1511SOL    HW2 5433   1.402   2.787   0.571
 1512SOL     OW 5434   5.814   0.251   2.269
 1512SOL    HW1 5435   5.726   0.244   2.316
 1512SOL    HW2 5436   5.889   0.239   2.334
 1513SOL     OW 5437   3.717   1.147   2.774
 1513SOL    HW1 5438   3.629   1.111   2.745
 1513SOL    HW2 5439   3.738   1.230   2.722
 1514SOL     OW 5440   5.412   1.349   5.827
 1514SOL    HW1 5441   5.478   1.376   5.897
 1514SOL    HW2 5442   5.452   1.362   5.736
 1515SOL     OW 5443   6.582   5.088   4.818
 1515SOL    HW1 5444   6.516   5.048   4.754
 1515SOL    HW2 5445   6.609   5.018   4.885
 1516SOL     OW 5446   0.602   1.231   1.122
 1516SOL    HW1 5447   0.649   1.146   1.099
 1516SOL    HW2 5448   0.611   1.296   1.046
 1517SOL     OW 5449   3.483   4.977   3.304
 1517SOL    HW1 5450   3.571   4.941   3.335
 1517SOL    HW2 5451   3.468   4.950   3.209
 1518SOL     OW 5452   0.974   4.803   1.610
 1518SOL    HW1 5453   0.966   4.729   1.677
 1518SOL    HW2 5454   0.942   4.770   1.521
 1519SOL     OW 5455   0.063   4.939   0.899
 1519SOL    HW1 5456   0.096   4.848   0.873
 1519SOL    HW2 5457   0.108   4.968   0.984
 1520SOL     OW 5458   1.243   2.775   2.604
 1520SOL    HW1 5459   1.302   2.712   2.654
 1520SOL    HW2 5460   1.157   2.728   2.581
 1521SOL     OW 5461   2.541   4.170   5.816
 1521SOL    HW1 5462   2.629   4.216   5.822
 1521SOL    HW2 5463   2.540   4.091   5.878
 1522SOL     OW 5464   0.633   2.548   6.728
 1522SOL    HW1 5465   0.635   2.640   6.765
 1522SOL    HW2 5466   0.716   2.499   6.755
 1523SOL     OW 5467   6.700   1.408   0.661
 1523SOL    HW1 5468   6.619   1.440   0.612
 1523SOL    HW2 5469   6.682   1.408   0.760
 1524SOL     OW 5470   6.294   1.088   2.959
 1524SOL    HW1 5471   6.304   0.988   2.955
 1524SOL    HW2 5472   6.286   1.124   2.866
 1525SOL     OW 5473   4.809   1.973   5.949
 1525SOL    HW1 5474   4.726   1.981   5.894
 1525SOL    HW2 5475   4.884   1.938   5.893
 1526SOL     OW 5476   6.836   1.894   0.775
 1526SOL    HW1 5477   6.880   1.834   0.707
 1526SOL    HW2 5478   6.906   1.935   0.833
 1527SOL     OW 5479   3.140   1.985   5.698
 1527SOL    HW1 5480   3.220   2.044   5.695
 1527SOL    HW2 5481   3.060   2.038   5.728
 1528SOL     OW 5482   5.054   6.057   3.410
 1528SOL    HW1 5483   4.955   6.039   3.412
 1528SOL    HW2 5484   5.086   6.057   3.316
 1529SOL     OW 5485   3.042   0.987   5.046
 1529SOL    HW1 5486   3.110   0.999   4.974
 1529SOL    HW2 5487   3.066   1.045   5.124
 1530SOL     OW 5488   3.271   6.954   2.335
 1530SOL    HW1 5489   3.187   6.901   2.340
 1530SOL    HW2 5490   3.250   0.021   2.306
 1531SOL     OW 5491   6.576   0.020   5.822
 1531SOL    HW1 5492   6.634   6.977   5.863
 1531SOL    HW2 5493   6.613   0.047   5.733
 1532SOL     OW 5494   3.689   2.104   5.117
 1532SOL    HW1 5495   3.620   2.123   5.048
 1532SOL    HW2 5496   3.656   2.034   5.179
 1533SOL     OW 5497   5.540   2.955   6.905
 1533SOL    HW1 5498   5.449   2.972   6.944
 1533SOL    HW2 5499   5.556   3.018   6.829
 1534SOL     OW 5500   6.825   6.795   1.544
 1534SOL    HW1 5501   6.754   6.844   1.596
 1534SOL    HW2 5502   6.821   6.698   1.568
 1535SOL     OW 5503   4.725   5.421   3.973
 1535SOL    HW1 5504   4.665   5.434   4.052
 1535SOL    HW2 5505   4.735   5.323   3.955
 1536SOL     OW 5506   3.044   5.632   3.549
 1536SOL    HW1 5507   3.078   5.607   3.459
 1536SOL    HW2 5508   3.026   5.549   3.603
 1537SOL     OW 5509   2.396   5.257   4.174
 1537SOL    HW1 5510   2.418   5.353   4.192
 1537SOL    HW2 5511   2.479   5.206   4.155
 1538SOL     OW 5512   3.028   5.016   6.855
 1538SOL    HW1 5513   3.103   4.971   6.807
 1538SOL    HW2 5514   2.945   5.009   6.800
 1539SOL     OW 5515   3.270   4.827   1.955
 1539SOL    HW1 5516   3.362   4.790   1.947
 1539SOL    HW2 5517   3.274   4.927   1.957
 1540SOL     OW 5518   6.924   0.030   5.395
 1540SOL    HW1 5519   7.015   0.061   5.424
 1540SOL    HW2 5520   6.933   6.975   5.338
 1541SOL     OW 5521   4.559   2.014   0.782
 1541SOL    HW1 5522   4.565   1.919   0.813
 1541SOL    HW2 5523   4.547   2.075   0.860
 1542SOL     OW 5524   0.978   6.114   1.296
 1542SOL    HW1 5525   0.902   6.146   1.240
 1542SOL    HW2 5526   1.007   6.024   1.263
 1543SOL     OW 5527   3.268   3.935   4.273
 1543SOL    HW1 5528   3.297   4.004   4.339
 1543SOL    HW2 5529   3.348   3.886   4.238
 1544SOL     OW 5530   3.590   3.769   2.801
 1544SOL    HW1 5531   3.669   3.824   2.828
 1544SOL    HW2 5532   3.518   3.779   2.870
 1545SOL     OW 5533   6.864   0.474   4.319
 1545SOL    HW1 5534   6.871   0.375   4.330
 1545SOL    HW2 5535   6.802   0.494   4.243
 1546SOL     OW 5536   0.415   6.287   6.015
 1546SOL    HW1 5537   0.486   6.353   6.041
 1546SOL    HW2 5538   0.441   6.244   5.929
 1547SOL     OW 5539   3.571   6.187   6.688
 1547SOL    HW1 5540   3.655   6.169   6.636
 1547SOL    HW2 5541   3.571   6.132   6.772
 1548SOL     OW 5542   6.344   4.319   3.851
 1548SOL    HW1 5543   6.435   4.284   3.876
 1548SOL    HW2 5544   6.349   4.367   3.764
 1549SOL     OW 5545   6.263   1.725   1.497
 1549SOL    HW1 5546   6.167   1.747   1.480
 1549SOL    HW2 5547   6.321   1.796   1.457
 1550SOL     OW 5548   2.506   6.204   3.288
 1550SOL    HW1 5549   2.481   6.247   3.201
 1550SOL    HW2 5550   2.519   6.106   3.274
 1551SOL     OW 5551   0.784   3.125   1.104
 1551SOL    HW1 5552   0.709   3.124   1.037
 1551SOL    HW2 5553   0.749   3.095   1.193
 1552SOL     OW 5554   1.042   6.932   0.673
 1552SOL    HW1 5555   1.084   6.855   0.624
 1552SOL    HW2 5556   1.027   7.008   0.609
 1553SOL     OW 5557   5.688   1.905   6.157
 1553SOL    HW1 5558   5.716   1.810   6.144
 1553SOL    HW2 5559   5.769   1.961   6.176
 1554SOL     OW 5560   3.022   1.710   1.260
 1554SOL    HW1 5561   2.932   1.667   1.265
 1554SOL    HW2 5562   3.076   1.686   1.340
 1555SOL     OW 5563   3.848   0.692   6.221
 1555SOL    HW1 5564   3.793   0.717   6.142
 1555SOL    HW2 5565   3.941   0.727   6.210
 1556SOL     OW 5566   3.394   1.871   0.086
 1556SOL    HW1 5567   3.464   1.943   0.096
 1556SOL    HW2 5568   3.308   1.904   0.125
 1557SOL     OW 5569   1.852   3.110   0.174
 1557SOL    HW1 5570   1.891   3.183   0.230
 1557SOL    HW2 5571   1.919   3.081   0.105
 1558SOL     OW 5572   5.620   3.147   5.896
 1558SOL    HW1 5573   5.649   3.051   5.905
 1558SOL    HW2 5574   5.677   3.192   5.828
 1559SOL     OW 5575   2.537   5.025   3.760
 1559SOL    HW1 5576   2.483   4.941   3.752
 1559SOL    HW2 5577   2.578   5.047   3.672
 1560SOL     OW 5578   3.950   1.786   0.851
 1560SOL    HW1 5579   4.042   1.768   0.886
 1560SOL    HW2 5580   3.935   1.885   0.848
 1561SOL     OW 5581   6.072   5.988   1.177
 1561SOL    HW1 5582   6.131   5.961   1.252
 1561SOL    HW2 5583   6.082   6.086   1.160
 1562SOL     OW 5584   3.062   0.413   2.332
 1562SOL    HW1 5585   2.968   0.444   2.347
 1562SOL    HW2 5586   3.112   0.414   2.419
 1563SOL     OW 5587   2.841   2.341   3.994
 1563SOL    HW1 5588   2.845   2.258   4.051
 1563SOL    HW2 5589   2.914   2.337   3.926
 1564SOL     OW 5590   0.895   1.231   2.938
 1564SOL    HW1 5591   0.805   1.249   2.897
 1564SOL    HW2 5592   0.883   1.206   3.034
 1565SOL     OW 5593   4.317   1.196   4.907
 1565SOL    HW1 5594   4.416   1.181   4.894
 1565SOL    HW2 5595   4.278   1.235   4.824
 1566SOL     OW 5596   5.853   4.930   3.342
 1566SOL    HW1 5597   5.839   4.921   3.243
 1566SOL    HW2 5598   5.812   4.852   3.389
 1567SOL     OW 5599   5.425   0.933   4.603
 1567SOL    HW1 5600   5.424   1.020   4.555
 1567SOL    HW2 5601   5.393   0.861   4.542
 1568SOL     OW 5602   3.002   5.166   1.210
 1568SOL    HW1 5603   3.086   5.112   1.208
 1568SOL    HW2 5604   2.945   5.136   1.286
 1569SOL     OW 5605   3.120   1.182   2.992
 1569SOL    HW1 5606   3.157   1.272   3.016
 1569SOL    HW2 5607   3.105   1.129   3.075
 1570SOL     OW 5608   3.264   5.861   6.104
 1570SOL    HW1 5609   3.255   5.938   6.167
 1570SOL    HW2 5610   3.271   5.776   6.156
 1571SOL     OW 5611   0.476   2.910   3.610
 1571SOL    HW1 5612   0.498   3.004   3.637
 1571SOL    HW2 5613   0.486   2.850   3.689
 1572SOL     OW 5614   2.749   5.173   2.504
 1572SOL    HW1 5615   2.707   5.229   2.433
 1572SOL    HW2 5616   2.678   5.123   2.553
 1573SOL     OW 5617   5.859   6.013   0.080
 1573SOL    HW1 5618   5.886   6.080   0.011
 1573SOL    HW2 5619   5.820   6.060   0.159
 1574SOL     OW 5620   0.054   3.990   3.415
 1574SOL    HW1 5621   6.998   3.993   3.472
 1574SOL    HW2 5622   0.127   4.040   3.461
 1575SOL     OW 5623   0.000   2.343   0.196
 1575SOL    HW1 5624   0.030   2.409   0.266
 1575SOL    HW2 5625   0.078   2.287   0.168
 1576SOL     OW 5626   0.971   6.807   1.493
 1576SOL    HW1 5627   1.014   6.727   1.451
 1576SOL    HW2 5628   0.901   6.844   1.431
 1577SOL     OW 5629   3.738   5.818   5.414
 1577SOL    HW1 5630   3.658   5.765   5.443
 1577SOL    HW2 5631   3.816   5.757   5.403
 1578SOL     OW 5632   4.966   0.881   1.151
 1578SOL    HW1 5633   4.878   0.894   1.196
 1578SOL    HW2 5634   5.022   0.962   1.162
 1579SOL     OW 5635   1.966   2.793   1.724
 1579SOL    HW1 5636   2.013   2.842   1.797
 1579SOL    HW2 5637   2.004   2.820   1.635
 1580SOL     OW 5638   3.034   3.497   2.706
 1580SOL    HW1 5639   3.072   3.551   2.782
 1580SOL    HW2 5640   2.984   3.558   2.645
 1581SOL     OW 5641   6.365   4.802   5.695
 1581SOL    HW1 5642   6.297   4.730   5.677
 1581SOL    HW2 5643   6.388   4.848   5.609
 1582SOL     OW 5644   4.491   6.289   5.145
 1582SOL    HW1 5645   4.540   6.210   5.108
 1582SOL    HW2 5646   4.398   6.262   5.170
 1583SOL     OW 5647   1.060   5.091   4.689
 1583SOL    HW1 5648   1.134   5.159   4.690
 1583SOL    HW2 5649   1.039   5.065   4.595
 1584SOL     OW 5650   0.282   4.635   0.346
 1584SOL    HW1 5651   0.309   4.581   0.425
 1584SOL    HW2 5652   0.350   4.706   0.329
 1585SOL     OW 5653   4.213   6.458   3.463
 1585SOL    HW1 5654   4.181   6.464   3.558
 1585SOL    HW2 5655   4.287   6.391   3.457
 1586SOL     OW 5656   3.362   5.981   3.597
 1586SOL    HW1 5657   3.390   5.987   3.501
 1586SOL    HW2 5658   3.412   6.049   3.651
 1587SOL     OW 5659   2.954   6.183   6.427
 1587SOL    HW1 5660   3.018   6.177   6.504
 1587SOL    HW2 5661   2.980   6.259   6.368
 1588SOL     OW 5662   6.642   1.595   3.454
 1588SOL    HW1 5663   6.617   1.529   3.525
 1588SOL    HW2 5664   6.629   1.553   3.364
 1589SOL     OW 5665   6.603   4.498   4.080
 1589SOL    HW1 5666   6.662   4.529   4.154
 1589SOL    HW2 5667   6.564   4.409   4.103
 1590SOL     OW 5668   6.386   2.624   3.867
 1590SOL    HW1 5669   6.415   2.676   3.948
 1590SOL    HW2 5670   6.359   2.688   3.795
 1591SOL     OW 5671   1.392   6.235   1.358
 1591SOL    HW1 5672   1.393   6.325   1.314
 1591SOL    HW2 5673   1.299   6.215   1.391
 1592SOL     OW 5674   7.020   4.253   6.208
 1592SOL    HW1 5675   0.019   4.195   6.131
 1592SOL    HW2 5676   6.937   4.217   6.251
 1593SOL     OW 5677   3.384   0.167   6.887
 1593SOL    HW1 5678   3.305   0.188   6.944
 1593SOL    HW2 5679   3.354   0.120   6.804
 1594SOL     OW 5680   5.820   0.378   2.562
 1594SOL    HW1 5681   5.892   0.382   2.493
 1594SOL    HW2 5682   5.826   0.458   2.621
 1595SOL     OW 5683   7.021   3.935   0.506
 1595SOL    HW1 5684   7.009   4.034   0.514
 1595SOL    HW2 5685   0.049   3.914   0.425
 1596SOL     OW 5686   4.323   4.683   3.504
 1596SOL    HW1 5687   4.299   4.651   3.412
 1596SOL    HW2 5688   4.241   4.685   3.561
 1597SOL     OW 5689   3.792   6.125   6.510
 1597SOL    HW1 5690   3.748   6.053   6.456
 1597SOL    HW2 5691   3.887   6.135   6.480
 1598SOL     OW 5692   1.543   4.422   0.079
 1598SOL    HW1 5693   1.531   4.520   0.094
 1598SOL    HW2 5694   1.475   4.389   0.014
 1599SOL     OW 5695   4.677   5.908   2.875
 1599SOL    HW1 5696   4.621   5.827   2.892
 1599SOL    HW2 5697   4.671   5.970   2.954
 1600SOL     OW 5698   3.931   0.473   2.231
 1600SOL    HW1 5699   3.905   0.566   2.206
 1600SOL    HW2 5700   4.003   0.441   2.169
 1601SOL     OW 5701   6.401   0.398   5.543
 1601SOL    HW1 5702   6.326   0.332   5.545
 1601SOL    HW2 5703   6.365   0.490   5.556
 1602SOL     OW 5704   3.547   5.741   3.589
 1602SOL    HW1 5705   3.627   5.801   3.583
 1602SOL    HW2 5706   3.464   5.796   3.588
 1603SOL     OW 5707   3.430   5.544   3.383
 1603SOL    HW1 5708   3.429   5.635   3.342
 1603SOL    HW2 5709   3.465   5.478   3.316
 1604SOL     OW 5710   4.051   5.280   1.853
 1604SOL    HW1 5711   4.053   5.380   1.848
 1604SOL    HW2 5712   4.003   5.252   1.936
 1605SOL     OW 5713   4.625   5.206   0.857
 1605SOL    HW1 5714   4.627   5.242   0.764
 1605SOL    HW2 5715   4.616   5.282   0.922
 1606SOL     OW 5716   3.562   5.863   4.863
 1606SOL    HW1 5717   3.594   5.909   4.780
 1606SOL    HW2 5718   3.495   5.921   4.910
 1607SOL     OW 5719   4.528   5.678   2.873
 1607SOL    HW1 5720   4.514   5.625   2.789
 1607SOL    HW2 5721   4.543   5.615   2.949
 1608SOL     OW 5722   5.335   1.630   3.391
 1608SOL    HW1 5723   5.339   1.685   3.475
 1608SOL    HW2 5724   5.342   1.689   3.312
 1609SOL     OW 5725   2.430   6.789   1.357
 1609SOL    HW1 5726   2.486   6.872   1.363
 1609SOL    HW2 5727   2.488   6.710   1.343
 1610SOL     OW 5728   5.545   6.665   0.970
 1610SOL    HW1 5729   5.449   6.661   0.998
 1610SOL    HW2 5730   5.557   6.736   0.901
 1611SOL     OW 5731   1.319   4.697   1.060
 1611SOL    HW1 5732   1.363   4.787   1.066
 1611SOL    HW2 5733   1.243   4.692   1.125
 1612SOL     OW 5734   3.932   0.469   1.870
 1612SOL    HW1 5735   3.895   0.492   1.780
 1612SOL    HW2 5736   3.883   0.520   1.941
 1613SOL     OW 5737   6.793   5.814   2.534
 1613SOL    HW1 5738   6.844   5.897   2.552
 1613SOL    HW2 5739   6.817   5.744   2.602
 1614SOL     OW 5740   6.528   1.639   6.356
 1614SOL    HW1 5741   6.469   1.668   6.431
 1614SOL    HW2 5742   6.622   1.629   6.389
 1615SOL     OW 5743   0.899   4.005   6.400
 1615SOL    HW1 5744   0.865   3.927   6.452
 1615SOL    HW2 5745   0.966   3.974   6.333
 1616SOL     OW 5746   1.626   1.380   4.893
 1616SOL    HW1 5747   1.660   1.458   4.840
 1616SOL    HW2 5748   1.561   1.328   4.838
 1617SOL     OW 5749   6.452   6.617   2.973
 1617SOL    HW1 5750   6.371   6.606   3.030
 1617SOL    HW2 5751   6.532   6.586   3.024
 1618SOL     OW 5752   2.994   5.703   3.147
 1618SOL    HW1 5753   3.059   5.679   3.219
 1618SOL    HW2 5754   3.032   5.776   3.090
 1619SOL     OW 5755   1.277   4.067   0.201
 1619SOL    HW1 5756   1.199   4.025   0.154
 1619SOL    HW2 5757   1.244   4.145   0.255
 1620SOL     OW 5758   3.379   5.334   5.253
 1620SOL    HW1 5759   3.338   5.334   5.344
 1620SOL    HW2 5760   3.445   5.409   5.246
 1621SOL     OW 5761   5.249   5.970   0.530
 1621SOL    HW1 5762   5.206   6.060   0.525
 1621SOL    HW2 5763   5.344   5.981   0.562
 1622SOL     OW 5764   6.626   4.619   4.557
 1622SOL    HW1 5765   6.706   4.670   4.586
 1622SOL    HW2 5766   6.584   4.574   4.636
 1623SOL     OW 5767   0.255   2.387   3.223
 1623SOL    HW1 5768   0.184   2.419   3.160
 1623SOL    HW2 5769   0.213   2.367   3.312
 1624SOL     OW 5770   4.162   2.179   1.164
 1624SOL    HW1 5771   4.094   2.125   1.214
 1624SOL    HW2 5772   4.177   2.266   1.210
 1625SOL     OW 5773   0.436   6.154   1.135
 1625SOL    HW1 5774   0.476   6.077   1.185
 1625SOL    HW2 5775   0.406   6.224   1.199
 1626SOL     OW 5776   2.875   2.395   1.645
 1626SOL    HW1 5777   2.778   2.407   1.620
 1626SOL    HW2 5778   2.886   2.413   1.743
 1627SOL     OW 5779   4.071   1.918   5.371
 1627SOL    HW1 5780   4.128   1.851   5.420
 1627SOL    HW2 5781   4.081   2.007   5.415
 1628SOL     OW 5782   5.303   6.377   0.875
 1628SOL    HW1 5783   5.390   6.375   0.924
 1628SOL    HW2 5784   5.315   6.425   0.788
 1629SOL     OW 5785   1.956   0.660   3.613
 1629SOL    HW1 5786   1.889   0.586   3.610
 1629SOL    HW2 5787   1.916   0.743   3.575
 1630SOL     OW 5788   0.381   4.178   6.848
 1630SOL    HW1 5789   0.476   4.170   6.819
 1630SOL    HW2 5790   0.358   4.103   6.910
 1631SOL     OW 5791   6.446   3.928   0.120
 1631SOL    HW1 5792   6.448   3.844   0.174
 1631SOL    HW2 5793   6.351   3.957   0.106
 1632SOL     OW 5794   6.452   5.528   2.451
 1632SOL    HW1 5795   6.512   5.457   2.487
 1632SOL    HW2 5796   6.472   5.543   2.354
 1633SOL     OW 5797   5.649   3.918   4.483
 1633SOL    HW1 5798   5.698   3.894   4.568
 1633SOL    HW2 5799   5.704   3.983   4.431
 1634SOL     OW 5800   6.822   1.766   4.690
 1634SOL    HW1 5801   6.784   1.822   4.763
 1634SOL    HW2 5802   6.919   1.749   4.707
 1635SOL     OW 5803   4.018   6.487   2.828
 1635SOL    HW1 5804   3.925   6.518   2.811
 1635SOL    HW2 5805   4.062   6.467   2.740
 1636SOL     OW 5806   6.206   6.138   1.563
 1636SOL    HW1 5807   6.172   6.114   1.654
 1636SOL    HW2 5808   6.222   6.236   1.558
 1637SOL     OW 5809   0.855   0.236   2.080
 1637SOL    HW1 5810   0.836   0.324   2.123
 1637SOL    HW2 5811   0.814   0.163   2.134
 1638SOL     OW 5812   6.023   2.331   2.022
 1638SOL    HW1 5813   6.019   2.232   2.018
 1638SOL    HW2 5814   6.046   2.368   1.932
 1639SOL     OW 5815   5.657   2.380   2.777
 1639SOL    HW1 5816   5.586   2.360   2.844
 1639SOL    HW2 5817   5.615   2.397   2.688
 1640SOL     OW 5818   6.964   0.377   6.892
 1640SOL    HW1 5819   7.016   0.417   6.967
 1640SOL    HW2 5820   6.919   0.294   6.924
 1641SOL     OW 5821   6.255   2.498   3.258
 1641SOL    HW1 5822   6.233   2.409   3.219
 1641SOL    HW2 5823   6.207   2.570   3.208
 1642SOL     OW 5824   6.849   2.582   6.106
 1642SOL    HW1 5825   6.802   2.664   6.137
 1642SOL    HW2 5826   6.948   2.597   6.110
 1643SOL     OW 5827   2.445   5.830   3.986
 1643SOL    HW1 5828   2.401   5.772   3.917
 1643SOL    HW2 5829   2.401   5.920   3.985
 1644SOL     OW 5830   5.748   2.850   1.668
 1644SOL    HW1 5831   5.796   2.815   1.588
 1644SOL    HW2 5832   5.671   2.906   1.639
 1645SOL     OW 5833   2.161   0.731   5.243
 1645SOL    HW1 5834   2.137   0.828   5.235
 1645SOL    HW2 5835   2.088   0.683   5.291
 1646SOL     OW 5836   1.248   4.704   0.803
 1646SOL    HW1 5837   1.159   4.657   0.796
 1646SOL    HW2 5838   1.280   4.699   0.898
 1647SOL     OW 5839   5.381   2.542   3.961
 1647SOL    HW1 5840   5.431   2.467   3.918
 1647SOL    HW2 5841   5.322   2.507   4.033
 1648SOL     OW 5842   5.372   6.183   1.315
 1648SOL    HW1 5843   5.319   6.123   1.255
 1648SOL    HW2 5844   5.463   6.144   1.329
 1649SOL     OW 5845   3.623   0.459   3.380
 1649SOL    HW1 5846   3.557   0.479   3.452
 1649SOL    HW2 5847   3.710   0.430   3.421
 1650SOL     OW 5848   2.883   4.234   6.768
 1650SOL    HW1 5849   2.919   4.240   6.861
 1650SOL    HW2 5850   2.888   4.139   6.737
 1651SOL     OW 5851   0.951   2.764   3.382
 1651SOL    HW1 5852   1.032   2.726   3.426
 1651SOL    HW2 5853   0.901   2.691   3.335
 1652SOL     OW 5854   0.185   3.466   1.423
 1652SOL    HW1 5855   0.137   3.535   1.369
 1652SOL    HW2 5856   0.125   3.434   1.497
 1653SOL     OW 5857   0.239   4.700   3.437
 1653SOL    HW1 5858   0.243   4.676   3.535
 1653SOL    HW2 5859   0.145   4.695   3.405
 1654SOL     OW 5860   6.759   2.825   2.687
 1654SOL    HW1 5861   6.716   2.874   2.611
 1654SOL    HW2 5862   6.708   2.841   2.771
 1655SOL     OW 5863   6.822   0.297   5.278
 1655SOL    HW1 5864   6.741   0.312   5.335
 1655SOL    HW2 5865   6.859   0.206   5.297
 1656SOL     OW 5866   1.874   4.367   3.233
 1656SOL    HW1 5867   1.838   4.346   3.141
 1656SOL    HW2 5868   1.917   4.286   3.271
 1657SOL     OW 5869   1.029   0.031   5.649
 1657SOL    HW1 5870   0.975   0.114   5.639
 1657SOL    HW2 5871   1.111   0.037   5.593
 1658SOL     OW 5872   5.777   0.003   6.342
 1658SOL    HW1 5873   5.779   0.092   6.296
 1658SOL    HW2 5874   5.871   7.005   6.368
 1659SOL     OW 5875   4.264   6.759   6.366
 1659SOL    HW1 5876   4.234   6.827   6.299
 1659SOL    HW2 5877   4.340   6.706   6.330
 1660SOL     OW 5878   2.526   0.428   2.320
 1660SOL    HW1 5879   2.622   0.450   2.341
 1660SOL    HW2 5880   2.477   0.411   2.406
 1661SOL     OW 5881   4.565   4.656   2.612
 1661SOL    HW1 5882   4.632   4.720   2.648
 1661SOL    HW2 5883   4.561   4.575   2.672
 1662SOL     OW 5884   0.080   1.707   4.766
 1662SOL    HW1 5885   0.098   1.629   4.826
 1662SOL    HW2 5886   0.122   1.690   4.677
 1663SOL     OW 5887   4.900   4.852   7.023
 1663SOL    HW1 5888   4.844   4.814   6.950
 1663SOL    HW2 5889   4.973   4.908   6.983
 1664SOL     OW 5890   1.491   0.085   5.560
 1664SOL    HW1 5891   1.411   0.106   5.617
 1664SOL    HW2 5892   1.460   0.044   5.475
 1665SOL     OW 5893   2.925   4.412   0.243
 1665SOL    HW1 5894   2.873   4.493   0.270
 1665SOL    HW2 5895   3.022   4.424   0.267
 1666SOL     OW 5896   5.848   6.517   5.987
 1666SOL    HW1 5897   5.891   6.529   5.898
 1666SOL    HW2 5898   5.764   6.464   5.977
 1667SOL     OW 5899   0.204   5.876   1.446
 1667SOL    HW1 5900   0.209   5.804   1.514
 1667SOL    HW2 5901   0.295   5.912   1.428
 1668SOL     OW 5902   5.623   4.587   2.783
 1668SOL    HW1 5903   5.670   4.508   2.743
 1668SOL    HW2 5904   5.541   4.607   2.730
 1669SOL     OW 5905   6.219   3.758   5.580
 1669SOL    HW1 5906   6.303   3.739   5.530
 1669SOL    HW2 5907   6.147   3.786   5.517
 1670SOL     OW 5908   2.435   4.803   6.690
 1670SOL    HW1 5909   2.375   4.861   6.744
 1670SOL    HW2 5910   2.419   4.707   6.714
 1671SOL     OW 5911   6.022   2.397   1.052
 1671SOL    HW1 5912   6.115   2.361   1.057
 1671SOL    HW2 5913   5.984   2.377   0.962
 1672SOL     OW 5914   0.523   3.473   0.206
 1672SOL    HW1 5915   0.430   3.493   0.174
 1672SOL    HW2 5916   0.589   3.512   0.141
 1673SOL     OW 5917   1.704   0.928   4.434
 1673SOL    HW1 5918   1.745   0.999   4.377
 1673SOL    HW2 5919   1.771   0.857   4.453
 1674SOL     OW 5920   4.780   1.980   2.498
 1674SOL    HW1 5921   4.682   1.992   2.482
 1674SOL    HW2 5922   4.805   2.022   2.585
 1675SOL     OW 5923   5.456   0.598   1.213
 1675SOL    HW1 5924   5.524   0.668   1.236
 1675SOL    HW2 5925   5.397   0.632   1.140
 1676SOL     OW 5926   1.118   2.212   2.325
 1676SOL    HW1 5927   1.081   2.237   2.235
 1676SOL    HW2 5928   1.051   2.156   2.373
 1677SOL     OW 5929   3.891   3.122   3.519
 1677SOL    HW1 5930   3.906   3.131   3.618
 1677SOL    HW2 5931   3.793   3.122   3.501
 1678SOL     OW 5932   0.791   6.968   1.365
 1678SOL    HW1 5933   0.706   6.962   1.418
 1678SOL    HW2 5934   0.774   7.017   1.280
 1679SOL     OW 5935   0.833   2.133   6.504
 1679SOL    HW1 5936   0.910   2.152   6.444
 1679SOL    HW2 5937   0.783   2.054   6.469
 1680SOL     OW 5938   5.290   2.812   3.905
 1680SOL    HW1 5939   5.335   2.722   3.910
 1680SOL    HW2 5940   5.303   2.861   3.992
 1681SOL     OW 5941   2.376   6.065   4.522
 1681SOL    HW1 5942   2.450   6.096   4.581
 1681SOL    HW2 5943   2.340   5.978   4.555
 1682SOL     OW 5944   3.097   0.532   4.417
 1682SOL    HW1 5945   3.042   0.615   4.408
 1682SOL    HW2 5946   3.038   0.452   4.416
 1683SOL     OW 5947   6.061   4.924   2.798
 1683SOL    HW1 5948   5.961   4.921   2.796
 1683SOL    HW2 5949   6.095   4.865   2.871
 1684SOL     OW 5950   2.481   4.542   2.040
 1684SOL    HW1 5951   2.577   4.535   2.010
 1684SOL    HW2 5952   2.477   4.597   2.123
 1685SOL     OW 5953   6.831   1.708   5.273
 1685SOL    HW1 5954   6.884   1.764   5.337
 1685SOL    HW2 5955   6.774   1.644   5.324
 1686SOL     OW 5956   4.399   5.973   2.692
 1686SOL    HW1 5957   4.326   5.906   2.700
 1686SOL    HW2 5958   4.444   5.964   2.603
 1687SOL     OW 5959   5.443   4.192   1.809
 1687SOL    HW1 5960   5.421   4.277   1.761
 1687SOL    HW2 5961   5.383   4.183   1.889
 1688SOL     OW 5962   1.237   0.867   2.798
 1688SOL    HW1 5963   1.253   0.918   2.713
 1688SOL    HW2 5964   1.245   0.930   2.876
 1689SOL     OW 5965   4.606   0.859   0.805
 1689SOL    HW1 5966   4.644   0.803   0.878
 1689SOL    HW2 5967   4.556   0.936   0.844
 1690SOL     OW 5968   0.496   4.302   3.827
 1690SOL    HW1 5969   0.445   4.382   3.857
 1690SOL    HW2 5970   0.538   4.320   3.738
 1691SOL     OW 5971   4.753   2.874   5.156
 1691SOL    HW1 5972   4.769   2.956   5.211
 1691SOL    HW2 5973   4.743   2.794   5.215
 1692SOL     OW 5974   5.120   5.183   1.715
 1692SOL    HW1 5975   5.055   5.258   1.729
 1692SOL    HW2 5976   5.078   5.114   1.654
 1693SOL     OW 5977   5.474   0.068   5.169
 1693SOL    HW1 5978   5.467   0.024   5.079
 1693SOL    HW2 5979   5.462   0.167   5.159
 1694SOL     OW 5980   4.953   1.773   5.798
 1694SOL    HW1 5981   5.002   1.687   5.788
 1694SOL    HW2 5982   4.920   1.804   5.709
 1695SOL     OW 5983   4.412   0.951   6.859
 1695SOL    HW1 5984   4.358   0.977   6.939
 1695SOL    HW2 5985   4.367   0.986   6.776
 1696SOL     OW 5986   5.162   6.349   0.416
 1696SOL    HW1 5987   5.261   6.361   0.417
 1696SOL    HW2 5988   5.134   6.294   0.495
 1697SOL     OW 5989   5.115   1.894   2.136
 1697SOL    HW1 5990   5.106   1.799   2.166
 1697SOL    HW2 5991   5.195   1.903   2.076
 1698SOL     OW 5992   3.996   0.551   1.516
 1698SOL    HW1 5993   3.960   0.577   1.426
 1698SOL    HW2 5994   4.089   0.584   1.526
 1699SOL     OW 5995   2.573   6.576   0.161
 1699SOL    HW1 5996   2.603   6.536   0.075
 1699SOL    HW2 5997   2.648   6.628   0.201
 1700SOL     OW 5998   6.287   2.409   2.786
 1700SOL    HW1 5999   6.296   2.485   2.850
 1700SOL    HW2 6000   6.190   2.385   2.776
 1701SOL     OW 6001   0.071   5.579   4.591
 1701SOL    HW1 6002   0.069   5.486   4.627
 1701SOL    HW2 6003   0.035   5.642   4.660
 1702SOL     OW 6004   2.106   2.318   6.188
 1702SOL    HW1 6005   2.182   2.266   6.150
 1702SOL    HW2 6006   2.026   2.310   6.128
 1703SOL     OW 6007   2.088   1.941   1.206
 1703SOL    HW1 6008   2.028   1.907   1.279
 1703SOL    HW2 6009   2.106   2.038   1.222
 1704SOL     OW 6010   2.979   2.241   0.892
 1704SOL    HW1 6011   2.992   2.222   0.990
 1704SOL    HW2 6012   3.061   2.283   0.855
 1705SOL     OW 6013   3.881   2.253   0.707
 1705SOL    HW1 6014   3.937   2.334   0.691
 1705SOL    HW2 6015   3.853   2.214   0.619
 1706SOL     OW 6016   5.060   2.110   7.005
 1706SOL    HW1 6017   4.978   2.163   7.026
 1706SOL    HW2 6018   5.142   2.164   7.026
 1707SOL     OW 6019   4.488   1.935   2.517
 1707SOL    HW1 6020   4.518   1.870   2.587
 1707SOL    HW2 6021   4.490   1.892   2.427
 1708SOL     OW 6022   3.168   4.814   2.190
 1708SOL    HW1 6023   3.189   4.793   2.094
 1708SOL    HW2 6024   3.241   4.780   2.248
 1709SOL     OW 6025   4.854   5.091   0.943
 1709SOL    HW1 6026   4.938   5.144   0.930
 1709SOL    HW2 6027   4.779   5.136   0.895
 1710SOL     OW 6028   4.916   5.107   3.171
 1710SOL    HW1 6029   4.854   5.184   3.155
 1710SOL    HW2 6030   4.988   5.107   3.102
 1711SOL     OW 6031   3.949   4.506   6.826
 1711SOL    HW1 6032   3.864   4.477   6.870
 1711SOL    HW2 6033   4.025   4.451   6.861
 1712SOL     OW 6034   0.508   1.413   2.529
 1712SOL    HW1 6035   0.605   1.390   2.523
 1712SOL    HW2 6036   0.498   1.512   2.535
 1713SOL     OW 6037   4.233   0.732   3.292
 1713SOL    HW1 6038   4.197   0.771   3.207
 1713SOL    HW2 6039   4.320   0.687   3.274
 1714SOL     OW 6040   3.756   3.285   0.386
 1714SOL    HW1 6041   3.780   3.286   0.289
 1714SOL    HW2 6042   3.833   3.319   0.440
 1715SOL     OW 6043   1.981   6.708   2.730
 1715SOL    HW1 6044   1.979   6.631   2.794
 1715SOL    HW2 6045   1.949   6.791   2.775
 1716SOL     OW 6046   4.963   1.421   3.715
 1716SOL    HW1 6047   5.005   1.391   3.630
 1716SOL    HW2 6048   5.014   1.383   3.793
 1717SOL     OW 6049   3.224   6.677   5.296
 1717SOL    HW1 6050   3.255   6.583   5.281
 1717SOL    HW2 6051   3.124   6.677   5.303
 1718SOL     OW 6052   1.208   3.097   1.103
 1718SOL    HW1 6053   1.138   3.152   1.147
 1718SOL    HW2 6054   1.253   3.040   1.172
 1719SOL     OW 6055   1.365   5.186   2.800
 1719SOL    HW1 6056   1.296   5.241   2.848
 1719SOL    HW2 6057   1.347   5.089   2.817
 1720SOL     OW 6058   0.868   2.920   5.981
 1720SOL    HW1 6059   0.793   2.855   5.972
 1720SOL    HW2 6060   0.875   2.950   6.077
 1721SOL     OW 6061   1.178   2.077   0.666
 1721SOL    HW1 6062   1.111   2.010   0.698
 1721SOL    HW2 6063   1.133   2.142   0.604
 1722SOL     OW 6064   2.486   2.526   3.633
 1722SOL    HW1 6065   2.536   2.520   3.719
 1722SOL    HW2 6066   2.432   2.444   3.619
 1723SOL     OW 6067   5.853   3.836   0.663
 1723SOL    HW1 6068   5.886   3.761   0.606
 1723SOL    HW2 6069   5.839   3.803   0.757
 1724SOL     OW 6070   5.794   2.275   1.210
 1724SOL    HW1 6071   5.802   2.319   1.300
 1724SOL    HW2 6072   5.863   2.314   1.149
 1725SOL     OW 6073   1.596   6.045   6.705
 1725SOL    HW1 6074   1.521   6.110   6.692
 1725SOL    HW2 6075   1.585   5.999   6.793
 1726SOL     OW 6076   5.591   4.521   3.118
 1726SOL    HW1 6077   5.601   4.442   3.178
 1726SOL    HW2 6078   5.608   4.494   3.024
 1727SOL     OW 6079   2.955   3.822   3.025
 1727SOL    HW1 6080   3.004   3.888   3.083
 1727SOL    HW2 6081   2.970   3.846   2.929
 1728SOL     OW 6082   5.150   2.557   4.132
 1728SOL    HW1 6083   5.108   2.643   4.162
 1728SOL    HW2 6084   5.080   2.498   4.093
 1729SOL     OW 6085   1.164   3.027   2.673
 1729SOL    HW1 6086   1.224   2.951   2.649
 1729SOL    HW2 6087   1.218   3.106   2.700
 1730SOL     OW 6088   2.332   5.230   4.470
 1730SOL    HW1 6089   2.419   5.199   4.508
 1730SOL    HW2 6090   2.345   5.259   4.375
 1731SOL     OW 6091   6.321   4.977   3.652
 1731SOL    HW1 6092   6.330   4.994   3.751
 1731SOL    HW2 6093   6.283   5.059   3.608
 1732SOL     OW 6094   2.590   3.527   5.647
 1732SOL    HW1 6095   2.682   3.513   5.612
 1732SOL    HW2 6096   2.528   3.460   5.605
 1733SOL     OW 6097   2.104   3.522   6.091
 1733SOL    HW1 6098   2.075   3.429   6.115
 1733SOL    HW2 6099   2.043   3.588   6.133
 1734SOL     OW 6100   6.732   3.239   1.221
 1734SOL    HW1 6101   6.811   3.248   1.282
 1734SOL    HW2 6102   6.765   3.222   1.128
 1735SOL     OW 6103   3.845   5.208   6.198
 1735SOL    HW1 6104   3.813   5.235   6.289
 1735SOL    HW2 6105   3.779   5.238   6.129
 1736SOL     OW 6106   5.385   2.703   0.660
 1736SOL    HW1 6107   5.360   2.740   0.570
 1736SOL    HW2 6108   5.306   2.656   0.699
 1737SOL     OW 6109   4.607   1.731   5.288
 1737SOL    HW1 6110   4.645   1.642   5.262
 1737SOL    HW2 6111   4.625   1.797   5.215
 1738SOL     OW 6112   1.681   3.004   3.948
 1738SOL    HW1 6113   1.617   2.957   3.888
 1738SOL    HW2 6114   1.750   3.051   3.894
 1739SOL     OW 6115   5.428   0.702   3.607
 1739SOL    HW1 6116   5.398   0.617   3.564
 1739SOL    HW2 6117   5.502   0.682   3.672
 1740SOL     OW 6118   6.210   3.045   4.798
 1740SOL    HW1 6119   6.300   3.065   4.836
 1740SOL    HW2 6120   6.189   2.949   4.813
 1741SOL     OW 6121   0.100   1.970   4.750
 1741SOL    HW1 6122   0.106   1.872   4.770
 1741SOL    HW2 6123   0.191   2.010   4.753
 1742SOL     OW 6124   6.387   5.991   6.107
 1742SOL    HW1 6125   6.412   6.078   6.150
 1742SOL    HW2 6126   6.383   6.002   6.008
 1743SOL     OW 6127   1.894   1.215   2.601
 1743SOL    HW1 6128   1.892   1.123   2.561
 1743SOL    HW2 6129   1.961   1.217   2.675
 1744SOL     OW 6130   3.576   2.116   4.859
 1744SOL    HW1 6131   3.612   2.112   4.766
 1744SOL    HW2 6132   3.478   2.092   4.857
 1745SOL     OW 6133   6.116   6.623   1.003
 1745SOL    HW1 6134   6.085   6.533   0.975
 1745SOL    HW2 6135   6.044   6.690   0.986
 1746SOL     OW 6136   2.484   4.489   3.328
 1746SOL    HW1 6137   2.476   4.449   3.237
 1746SOL    HW2 6138   2.402   4.542   3.348
 1747SOL     OW 6139   4.466   6.994   2.170
 1747SOL    HW1 6140   4.466   0.064   2.197
 1747SOL    HW2 6141   4.552   6.973   2.123
 1748SOL     OW 6142   6.767   3.168   4.998
 1748SOL    HW1 6143   6.821   3.193   5.078
 1748SOL    HW2 6144   6.732   3.075   5.009
 1749SOL     OW 6145   0.776   4.913   0.995
 1749SOL    HW1 6146   0.726   4.863   1.066
 1749SOL    HW2 6147   0.856   4.957   1.035
 1750SOL     OW 6148   3.871   0.073   6.058
 1750SOL    HW1 6149   3.946   0.129   6.024
 1750SOL    HW2 6150   3.878   7.007   6.019
 1751SOL     OW 6151   6.160   3.172   5.309
 1751SOL    HW1 6152   6.248   3.166   5.263
 1751SOL    HW2 6153   6.087   3.178   5.240
 1752SOL     OW 6154   6.757   0.443   2.365
 1752SOL    HW1 6155   6.762   0.457   2.266
 1752SOL    HW2 6156   6.835   0.487   2.409
 1753SOL     OW 6157   6.309   1.299   1.754
 1753SOL    HW1 6158   6.321   1.200   1.751
 1753SOL    HW2 6159   6.260   1.324   1.838
 1754SOL     OW 6160   2.843   5.527   4.057
 1754SOL    HW1 6161   2.849   5.439   4.010
 1754SOL    HW2 6162   2.747   5.554   4.066
 1755SOL     OW 6163   6.300   6.814   4.725
 1755SOL    HW1 6164   6.207   6.782   4.706
 1755SOL    HW2 6165   6.354   6.739   4.764
 1756SOL     OW 6166   4.752   6.286   0.238
 1756SOL    HW1 6167   4.726   6.373   0.280
 1756SOL    HW2 6168   4.782   6.222   0.309
 1757SOL     OW 6169   2.384   5.415   5.354
 1757SOL    HW1 6170   2.323   5.347   5.395
 1757SOL    HW2 6171   2.369   5.419   5.255
 1758SOL     OW 6172   1.865   6.047   4.694
 1758SOL    HW1 6173   1.868   5.948   4.683
 1758SOL    HW2 6174   1.888   6.071   4.788
 1759SOL     OW 6175   1.411   6.528   0.309
 1759SOL    HW1 6176   1.345   6.489   0.372
 1759SOL    HW2 6177   1.467   6.455   0.268
 1760SOL     OW 6178   6.891   0.874   4.653
 1760SOL    HW1 6179   6.798   0.837   4.653
 1760SOL    HW2 6180   6.887   0.974   4.657
 1761SOL     OW 6181   5.659   1.587   2.735
 1761SOL    HW1 6182   5.719   1.515   2.771
 1761SOL    HW2 6183   5.620   1.557   2.648
 1762SOL     OW 6184   0.895   1.398   5.652
 1762SOL    HW1 6185   0.969   1.414   5.587
 1762SOL    HW2 6186   0.929   1.415   5.745
 1763SOL     OW 6187   0.718   3.872   3.840
 1763SOL    HW1 6188   0.648   3.943   3.847
 1763SOL    HW2 6189   0.689   3.804   3.772
 1764SOL     OW 6190   1.001   5.495   3.063
 1764SOL    HW1 6191   1.037   5.402   3.058
 1764SOL    HW2 6192   1.076   5.561   3.066
 1765SOL     OW 6193   5.666   3.457   2.454
 1765SOL    HW1 6194   5.584   3.476   2.507
 1765SOL    HW2 6195   5.666   3.513   2.371
 1766SOL     OW 6196   4.334   4.715   3.937
 1766SOL    HW1 6197   4.239   4.739   3.915
 1766SOL    HW2 6198   4.335   4.662   4.022
 1767SOL     OW 6199   0.369   4.645   2.395
 1767SOL    HW1 6200   0.332   4.614   2.482
 1767SOL    HW2 6201   0.466   4.619   2.389
 1768SOL     OW 6202   5.161   5.615   2.360
 1768SOL    HW1 6203   5.114   5.671   2.292
 1768SOL    HW2 6204   5.127   5.521   2.355
 1769SOL     OW 6205   6.147   0.352   0.413
 1769SOL    HW1 6206   6.104   0.267   0.443
 1769SOL    HW2 6207   6.173   0.345   0.317
 1770SOL     OW 6208   1.828   4.967   0.781
 1770SOL    HW1 6209   1.742   4.917   0.766
 1770SOL    HW2 6210   1.825   5.054   0.732
 1771SOL     OW 6211   1.927   2.976   6.069
 1771SOL    HW1 6212   1.927   2.969   5.969
 1771SOL    HW2 6213   1.839   2.945   6.105
 1772SOL     OW 6214   2.189   3.976   2.529
 1772SOL    HW1 6215   2.191   3.985   2.629
 1772SOL    HW2 6216   2.189   3.879   2.505
 1773SOL     OW 6217   1.926   6.331   6.561
 1773SOL    HW1 6218   1.932   6.421   6.604
 1773SOL    HW2 6219   1.861   6.336   6.484
 1774SOL     OW 6220   5.413   5.516   0.614
 1774SOL    HW1 6221   5.367   5.544   0.698
 1774SOL    HW2 6222   5.442   5.597   0.563
 1775SOL     OW 6223   2.209   5.468   0.078
 1775SOL    HW1 6224   2.164   5.487   7.017
 1775SOL    HW2 6225   2.166   5.523   0.150
 1776SOL     OW 6226   4.677   2.457   5.214
 1776SOL    HW1 6227   4.674   2.365   5.253
 1776SOL    HW2 6228   4.701   2.523   5.285
 1777SOL     OW 6229   4.903   6.474   6.901
 1777SOL    HW1 6230   4.932   6.383   6.872
 1777SOL    HW2 6231   4.882   6.473   6.999
 1778SOL     OW 6232   5.873   7.019   4.136
 1778SOL    HW1 6233   5.935   0.041   4.075
 1778SOL    HW2 6234   5.907   7.025   4.230
 1779SOL     OW 6235   5.363   0.296   4.185
 1779SOL    HW1 6236   5.265   0.307   4.201
 1779SOL    HW2 6237   5.405   0.248   4.262
 1780SOL     OW 6238   2.063   5.164   5.057
 1780SOL    HW1 6239   2.138   5.219   5.021
 1780SOL    HW2 6240   2.044   5.088   4.995
 1781SOL     OW 6241   4.125   0.948   4.866
 1781SOL    HW1 6242   4.190   1.000   4.921
 1781SOL    HW2 6243   4.175   0.884   4.807
 1782SOL     OW 6244   6.749   1.427   2.584
 1782SOL    HW1 6245   6.816   1.490   2.623
 1782SOL    HW2 6246   6.794   1.341   2.559
 1783SOL     OW 6247   1.756   3.942   6.266
 1783SOL    HW1 6248   1.675   3.922   6.321
 1783SOL    HW2 6249   1.757   4.040   6.243
 1784SOL     OW 6250   3.002   6.812   1.619
 1784SOL    HW1 6251   2.903   6.824   1.628
 1784SOL    HW2 6252   3.039   6.881   1.556
 1785SOL     OW 6253   1.455   6.672   4.923
 1785SOL    HW1 6254   1.454   6.648   4.826
 1785SOL    HW2 6255   1.373   6.635   4.968
 1786SOL     OW 6256   1.232   6.547   0.808
 1786SOL    HW1 6257   1.290   6.617   0.849
 1786SOL    HW2 6258   1.161   6.519   0.873
 1787SOL     OW 6259   2.749   3.092   6.015
 1787SOL    HW1 6260   2.738   3.133   6.105
 1787SOL    HW2 6261   2.825   3.028   6.016
 1788SOL     OW 6262   4.389   4.032   1.515
 1788SOL    HW1 6263   4.457   3.986   1.572
 1788SOL    HW2 6264   4.315   4.067   1.572
 1789SOL     OW 6265   6.244   3.714   2.189
 1789SOL    HW1 6266   6.303   3.659   2.248
 1789SOL    HW2 6267   6.149   3.686   2.202
 1790SOL     OW 6268   2.134   2.071   4.453
 1790SOL    HW1 6269   2.164   2.085   4.548
 1790SOL    HW2 6270   2.063   2.138   4.431
 1791SOL     OW 6271   5.149   0.122   3.503
 1791SOL    HW1 6272   5.091   0.080   3.433
 1791SOL    HW2 6273   5.240   0.140   3.465
 1792SOL     OW 6274   0.354   2.069   5.819
 1792SOL    HW1 6275   0.453   2.055   5.816
 1792SOL    HW2 6276   0.308   1.980   5.817
 1793SOL     OW 6277   0.462   0.887   5.988
 1793SOL    HW1 6278   0.440   0.945   5.911
 1793SOL    HW2 6279   0.496   0.799   5.955
 1794SOL     OW 6280   1.349   0.490   5.967
 1794SOL    HW1 6281   1.381   0.539   5.886
 1794SOL    HW2 6282   1.260   0.527   5.995
 1795SOL     OW 6283   5.678   4.403   0.938
 1795SOL    HW1 6284   5.701   4.383   1.033
 1795SOL    HW2 6285   5.740   4.353   0.877
 1796SOL     OW 6286   0.569   0.328   6.743
 1796SOL    HW1 6287   0.529   0.244   6.705
 1796SOL    HW2 6288   0.615   0.378   6.670
 1797SOL     OW 6289   2.021   4.948   5.473
 1797SOL    HW1 6290   1.977   5.035   5.495
 1797SOL    HW2 6291   2.081   4.960   5.394
 1798SOL     OW 6292   2.504   3.778   5.342
 1798SOL    HW1 6293   2.475   3.847   5.276
 1798SOL    HW2 6294   2.531   3.824   5.428
 1799SOL     OW 6295   3.225   1.363   1.068
 1799SOL    HW1 6296   3.245   1.327   0.977
 1799SOL    HW2 6297   3.287   1.439   1.087
 1800SOL     OW 6298   5.803   3.362   5.265
 1800SOL    HW1 6299   5.784   3.266   5.285
 1800SOL    HW2 6300   5.744   3.392   5.190
 1801SOL     OW 6301   0.883   0.531   3.185
 1801SOL    HW1 6302   0.814   0.586   3.139
 1801SOL    HW2 6303   0.849   0.437   3.196
 1802SOL     OW 6304   6.804   5.085   3.860
 1802SOL    HW1 6305   6.730   5.116   3.920
 1802SOL    HW2 6306   6.848   5.165   3.818
 1803SOL     OW 6307   0.330   0.225   3.699
 1803SOL    HW1 6308   0.407   0.226   3.763
 1803SOL    HW2 6309   0.325   0.135   3.655
 1804SOL     OW 6310   2.471   3.491   5.916
 1804SOL    HW1 6311   2.487   3.501   5.818
 1804SOL    HW2 6312   2.556   3.470   5.963
 1805SOL     OW 6313   6.532   5.342   0.639
 1805SOL    HW1 6314   6.522   5.316   0.735
 1805SOL    HW2 6315   6.507   5.439   0.628
 1806SOL     OW 6316   0.285   1.453   1.415
 1806SOL    HW1 6317   0.340   1.490   1.340
 1806SOL    HW2 6318   0.328   1.475   1.502
 1807SOL     OW 6319   0.021   2.456   2.633
 1807SOL    HW1 6320   0.029   2.415   2.542
 1807SOL    HW2 6321   6.951   2.456   2.661
 1808SOL     OW 6322   5.218   2.060   6.218
 1808SOL    HW1 6323   5.134   2.076   6.270
 1808SOL    HW2 6324   5.248   1.966   6.234
 1809SOL     OW 6325   4.600   0.343   5.243
 1809SOL    HW1 6326   4.598   0.258   5.189
 1809SOL    HW2 6327   4.508   0.381   5.250
 1810SOL     OW 6328   1.058   0.669   4.617
 1810SOL    HW1 6329   1.010   0.584   4.639
 1810SOL    HW2 6330   1.135   0.650   4.556
 1811SOL     OW 6331   3.687   5.509   2.041
 1811SOL    HW1 6332   3.694   5.593   1.988
 1811SOL    HW2 6333   3.594   5.474   2.035
 1812SOL     OW 6334   4.709   6.625   6.104
 1812SOL    HW1 6335   4.670   6.537   6.133
 1812SOL    HW2 6336   4.809   6.622   6.113
 1813SOL     OW 6337   4.937   4.638   2.094
 1813SOL    HW1 6338   4.850   4.649   2.142
 1813SOL    HW2 6339   4.934   4.555   2.038
 1814SOL     OW 6340   6.513   6.110   0.380
 1814SOL    HW1 6341   6.541   6.149   0.291
 1814SOL    HW2 6342   6.588   6.058   0.419
 1815SOL     OW 6343   5.292   6.455   1.264
 1815SOL    HW1 6344   5.226   6.431   1.193
 1815SOL    HW2 6345   5.352   6.376   1.282
 1816SOL     OW 6346   4.047   4.967   5.442
 1816SOL    HW1 6347   3.989   4.976   5.360
 1816SOL    HW2 6348   3.991   4.980   5.524
 1817SOL     OW 6349   0.095   2.211   3.838
 1817SOL    HW1 6350   0.167   2.188   3.903
 1817SOL    HW2 6351   0.082   2.134   3.775
 1818SOL     OW 6352   2.566   1.099   0.632
 1818SOL    HW1 6353   2.573   1.189   0.677
 1818SOL    HW2 6354   2.527   1.033   0.696
 1819SOL     OW 6355   2.015   4.336   2.582
 1819SOL    HW1 6356   1.998   4.250   2.631
 1819SOL    HW2 6357   1.957   4.339   2.500
 1820SOL     OW 6358   3.226   0.080   5.118
 1820SOL    HW1 6359   3.157   0.046   5.054
 1820SOL    HW2 6360   3.193   0.163   5.163
 1821SOL     OW 6361   3.635   1.792   2.423
 1821SOL    HW1 6362   3.612   1.889   2.412
 1821SOL    HW2 6363   3.671   1.757   2.337
 1822SOL     OW 6364   6.836   3.122   3.213
 1822SOL    HW1 6365   6.905   3.178   3.260
 1822SOL    HW2 6366   6.875   3.087   3.128
 1823SOL     OW 6367   4.349   6.620   1.740
 1823SOL    HW1 6368   4.401   6.576   1.814
 1823SOL    HW2 6369   4.252   6.606   1.756
 1824SOL     OW 6370   4.362   3.098   1.687
 1824SOL    HW1 6371   4.436   3.096   1.753
 1824SOL    HW2 6372   4.327   3.192   1.679
 1825SOL     OW 6373   1.132   2.554   5.287
 1825SOL    HW1 6374   1.165   2.462   5.304
 1825SOL    HW2 6375   1.109   2.566   5.191
 1826SOL     OW 6376   3.445   2.045   2.056
 1826SOL    HW1 6377   3.443   1.984   1.977
 1826SOL    HW2 6378   3.510   2.120   2.040
 1827SOL     OW 6379   5.714   5.948   0.752
 1827SOL    HW1 6380   5.802   5.986   0.778
 1827SOL    HW2 6381   5.693   5.869   0.809
 1828SOL     OW 6382   1.668   3.638   5.069
 1828SOL    HW1 6383   1.674   3.685   5.157
 1828SOL    HW2 6384   1.713   3.693   4.998
 1829SOL     OW 6385   3.671   0.381   2.125
 1829SOL    HW1 6386   3.758   0.415   2.160
 1829SOL    HW2 6387   3.683   0.353   2.029
 1830SOL     OW 6388   5.462   0.764   5.942
 1830SOL    HW1 6389   5.463   0.686   6.005
 1830SOL    HW2 6390   5.538   0.758   5.878
 1831SOL     OW 6391   3.371   5.305   0.122
 1831SOL    HW1 6392   3.330   5.302   0.030
 1831SOL    HW2 6393   3.353   5.219   0.169
 1832SOL     OW 6394   2.651   2.651   0.167
 1832SOL    HW1 6395   2.554   2.626   0.168
 1832SOL    HW2 6396   2.681   2.671   0.260
 1833SOL     OW 6397   5.651   1.516   6.607
 1833SOL    HW1 6398   5.632   1.491   6.702
 1833SOL    HW2 6399   5.723   1.457   6.571
 1834SOL     OW 6400   0.414   2.717   5.430
 1834SOL    HW1 6401   0.464   2.636   5.401
 1834SOL    HW2 6402   0.405   2.780   5.353
 1835SOL     OW 6403   6.565   6.677   1.483
 1835SOL    HW1 6404   6.517   6.602   1.528
 1835SOL    HW2 6405   6.660   6.652   1.468
 1836SOL     OW 6406   5.047   2.599   2.328
 1836SOL    HW1 6407   5.024   2.692   2.300
 1836SOL    HW2 6408   5.030   2.536   2.253
 1837SOL     OW 6409   3.371   2.018   6.399
 1837SOL    HW1 6410   3.327   2.010   6.310
 1837SOL    HW2 6411   3.396   1.928   6.433
 1838SOL     OW 6412   5.362   0.682   0.900
 1838SOL    HW1 6413   5.292   0.683   0.972
 1838SOL    HW2 6414   5.333   0.741   0.825
 1839SOL     OW 6415   0.428   0.396   0.680
 1839SOL    HW1 6416   0.384   0.357   0.599
 1839SOL    HW2 6417   0.412   0.337   0.758
 1840SOL     OW 6418   4.473   6.337   3.839
 1840SOL    HW1 6419   4.504   6.432   3.842
 1840SOL    HW2 6420   4.550   6.276   3.853
 1841SOL     OW 6421   1.351   1.226   2.079
 1841SOL    HW1 6422   1.345   1.193   2.174
 1841SOL    HW2 6423   1.294   1.307   2.068
 1842SOL     OW 6424   1.339   5.570   1.445
 1842SOL    HW1 6425   1.321   5.611   1.535
 1842SOL    HW2 6426   1.431   5.594   1.416
 1843SOL     OW 6427   2.641   1.032   5.745
 1843SOL    HW1 6428   2.608   0.970   5.816
 1843SOL    HW2 6429   2.688   0.979   5.674
 1844SOL     OW 6430   6.088   2.939   6.127
 1844SOL    HW1 6431   6.083   2.989   6.041
 1844SOL    HW2 6432   6.182   2.944   6.162
 1845SOL     OW 6433   0.999   2.080   2.724
 1845SOL    HW1 6434   1.073   2.146   2.737
 1845SOL    HW2 6435   1.034   1.988   2.739
 1846SOL     OW 6436   2.784   1.270   1.321
 1846SOL    HW1 6437   2.877   1.301   1.341
 1846SOL    HW2 6438   2.772   1.264   1.222
 1847SOL     OW 6439   1.450   5.677   5.511
 1847SOL    HW1 6440   1.549   5.681   5.495
 1847SOL    HW2 6441   1.430   5.716   5.601
 1848SOL     OW 6442   4.093   6.506   3.237
 1848SOL    HW1 6443   4.139   6.503   3.325
 1848SOL    HW2 6444   4.085   6.414   3.200
 1849SOL     OW 6445   4.596   2.477   2.176
 1849SOL    HW1 6446   4.631   2.570   2.183
 1849SOL    HW2 6447   4.528   2.462   2.249
 1850SOL     OW 6448   4.062   2.043   0.649
 1850SOL    HW1 6449   4.107   2.102   0.581
 1850SOL    HW2 6450   3.997   2.098   0.702
 1851SOL     OW 6451   6.987   4.496   4.976
 1851SOL    HW1 6452   6.936   4.410   4.980
 1851SOL    HW2 6453   0.012   4.508   5.061
 1852SOL     OW 6454   0.713   0.453   2.887
 1852SOL    HW1 6455   0.756   0.373   2.930
 1852SOL    HW2 6456   0.625   0.470   2.930
 1853SOL     OW 6457   0.275   2.289   5.943
 1853SOL    HW1 6458   0.284   2.285   6.042
 1853SOL    HW2 6459   0.288   2.198   5.904
 1854SOL     OW 6460   0.983   6.614   3.594
 1854SOL    HW1 6461   1.077   6.633   3.566
 1854SOL    HW2 6462   0.975   6.619   3.693
 1855SOL     OW 6463   5.595   3.224   4.692
 1855SOL    HW1 6464   5.500   3.238   4.718
 1855SOL    HW2 6465   5.601   3.151   4.625
 1856SOL     OW 6466   4.039   3.334   0.100
 1856SOL    HW1 6467   4.091   3.259   0.141
 1856SOL    HW2 6468   3.984   3.298   0.024
 1857SOL     OW 6469   3.440   1.260   6.771
 1857SOL    HW1 6470   3.445   1.194   6.696
 1857SOL    HW2 6471   3.476   1.348   6.739
 1858SOL     OW 6472   4.787   2.486   3.882
 1858SOL    HW1 6473   4.783   2.562   3.817
 1858SOL    HW2 6474   4.869   2.496   3.939
 1859SOL     OW 6475   6.450   1.467   4.025
 1859SOL    HW1 6476   6.499   1.550   3.999
 1859SOL    HW2 6477   6.513   1.404   4.072
 1860SOL     OW 6478   2.126   0.877   6.043
 1860SOL    HW1 6479   2.094   0.971   6.034
 1860SOL    HW2 6480   2.059   0.815   6.002
 1861SOL     OW 6481   6.727   6.712   4.319
 1861SOL    HW1 6482   6.761   6.625   4.355
 1861SOL    HW2 6483   6.781   6.739   4.240
 1862SOL     OW 6484   2.871   5.434   5.235
 1862SOL    HW1 6485   2.824   5.487   5.305
 1862SOL    HW2 6486   2.840   5.339   5.239
 1863SOL     OW 6487   0.136   2.645   0.969
 1863SOL    HW1 6488   0.200   2.578   1.008
 1863SOL    HW2 6489   0.145   2.731   1.019
 1864SOL     OW 6490   3.959   5.680   2.408
 1864SOL    HW1 6491   3.929   5.694   2.503
 1864SOL    HW2 6492   4.021   5.753   2.382
 1865SOL     OW 6493   6.176   2.226   5.876
 1865SOL    HW1 6494   6.233   2.273   5.808
 1865SOL    HW2 6495   6.166   2.283   5.957
 1866SOL     OW 6496   0.447   5.006   3.482
 1866SOL    HW1 6497   0.390   4.983   3.403
 1866SOL    HW2 6498   0.537   4.964   3.471
 1867SOL     OW 6499   0.819   2.572   1.421
 1867SOL    HW1 6500   0.734   2.567   1.474
 1867SOL    HW2 6501   0.829   2.489   1.366
 1868SOL     OW 6502   5.591   3.392   7.007
 1868SOL    HW1 6503   5.531   3.471   6.995
 1868SOL    HW2 6504   5.639   3.373   6.921
 1869SOL     OW 6505   4.690   0.824   4.511
 1869SOL    HW1 6506   4.679   0.747   4.448
 1869SOL    HW2 6507   4.700   0.789   4.604
 1870SOL     OW 6508   6.446   6.290   5.481
 1870SOL    HW1 6509   6.446   6.193   5.503
 1870SOL    HW2 6510   6.430   6.343   5.565
 1871SOL     OW 6511   0.321   6.591   6.836
 1871SOL    HW1 6512   0.265   6.549   6.907
 1871SOL    HW2 6513   0.320   6.533   6.755
 1872SOL     OW 6514   3.014   3.032   1.631
 1872SOL    HW1 6515   3.032   3.025   1.729
 1872SOL    HW2 6516   3.044   3.121   1.597
 1873SOL     OW 6517   6.457   0.992   0.480
 1873SOL    HW1 6518   6.503   1.080   0.470
 1873SOL    HW2 6519   6.509   0.935   0.544
 1874SOL     OW 6520   0.535   5.344   0.776
 1874SOL    HW1 6521   0.540   5.245   0.787
 1874SOL    HW2 6522   0.616   5.376   0.727
 1875SOL     OW 6523   0.003   5.762   1.940
 1875SOL    HW1 6524   0.086   5.782   1.991
 1875SOL    HW2 6525   7.023   5.664   1.923
 1876SOL     OW 6526   0.422   5.576   1.423
 1876SOL    HW1 6527   0.515   5.601   1.395
 1876SOL    HW2 6528   0.421   5.480   1.453
 1877SOL     OW 6529   1.062   1.653   2.397
 1877SOL    HW1 6530   1.096   1.743   2.369
 1877SOL    HW2 6531   0.986   1.626   2.338
 1878SOL     OW 6532   5.438   4.294   4.123
 1878SOL    HW1 6533   5.511   4.332   4.066
 1878SOL    HW2 6534   5.477   4.255   4.206
 1879SOL     OW 6535   4.524   6.047   4.410
 1879SOL    HW1 6536   4.524   5.990   4.492
 1879SOL    HW2 6537   4.523   6.144   4.437
 1880SOL     OW 6538   6.861   1.390   4.053
 1880SOL    HW1 6539   6.762   1.396   4.066
 1880SOL    HW2 6540   6.899   1.322   4.116
 1881SOL     OW 6541   1.828   1.722   4.047
 1881SOL    HW1 6542   1.819   1.626   4.071
 1881SOL    HW2 6543   1.924   1.751   4.059
 1882SOL     OW 6544   1.671   5.357   0.320
 1882SOL    HW1 6545   1.649   5.325   0.412
 1882SOL    HW2 6546   1.625   5.298   0.253
 1883SOL     OW 6547   1.999   2.407   3.033
 1883SOL    HW1 6548   1.990   2.490   3.088
 1883SOL    HW2 6549   2.011   2.432   2.937
 1884SOL     OW 6550   4.355   1.113   0.334
 1884SOL    HW1 6551   4.431   1.052   0.310
 1884SOL    HW2 6552   4.323   1.161   0.252
 1885SOL     OW 6553   0.084   1.768   0.717
 1885SOL    HW1 6554   0.027   1.705   0.664
 1885SOL    HW2 6555   0.155   1.807   0.658
 1886SOL     OW 6556   3.493   2.399   6.452
 1886SOL    HW1 6557   3.494   2.356   6.361
 1886SOL    HW2 6558   3.586   2.407   6.486
 1887SOL     OW 6559   0.785   6.518   5.065
 1887SOL    HW1 6560   0.719   6.562   5.005
 1887SOL    HW2 6561   0.737   6.465   5.135
 1888SOL     OW 6562   1.817   2.121   5.262
 1888SOL    HW1 6563   1.896   2.167   5.221
 1888SOL    HW2 6564   1.845   2.033   5.299
 1889SOL     OW 6565   2.963   2.673   6.873
 1889SOL    HW1 6566   3.025   2.632   6.807
 1889SOL    HW2 6567   2.958   2.614   6.954
 1890SOL     OW 6568   6.252   6.027   6.779
 1890SOL    HW1 6569   6.291   6.018   6.687
 1890SOL    HW2 6570   6.200   5.945   6.801
 1891SOL     OW 6571   5.207   3.586   6.767
 1891SOL    HW1 6572   5.151   3.503   6.759
 1891SOL    HW2 6573   5.239   3.613   6.677
 1892SOL     OW 6574   3.936   0.150   1.771
 1892SOL    HW1 6575   3.952   0.239   1.814
 1892SOL    HW2 6576   3.924   0.081   1.842
 1893SOL     OW 6577   2.893   1.528   5.212
 1893SOL    HW1 6578   2.799   1.494   5.199
 1893SOL    HW2 6579   2.943   1.519   5.126
 1894SOL     OW 6580   5.131   4.132   1.166
 1894SOL    HW1 6581   5.172   4.123   1.076
 1894SOL    HW2 6582   5.038   4.170   1.157
 1895SOL     OW 6583   4.295   0.324   3.710
 1895SOL    HW1 6584   4.363   0.375   3.762
 1895SOL    HW2 6585   4.264   0.379   3.632
 1896SOL     OW 6586   6.349   2.053   6.225
 1896SOL    HW1 6587   6.429   2.065   6.166
 1896SOL    HW2 6588   6.379   2.025   6.316
 1897SOL     OW 6589   5.488   5.380   3.643
 1897SOL    HW1 6590   5.527   5.320   3.573
 1897SOL    HW2 6591   5.411   5.430   3.604
 1898SOL     OW 6592   5.893   6.592   6.916
 1898SOL    HW1 6593   5.827   6.594   6.840
 1898SOL    HW2 6594   5.986   6.583   6.879
 1899SOL     OW 6595   1.388   2.293   2.825
 1899SOL    HW1 6596   1.439   2.232   2.885
 1899SOL    HW2 6597   1.290   2.276   2.835
 1900SOL     OW 6598   2.945   6.363   1.534
 1900SOL    HW1 6599   3.028   6.310   1.516
 1900SOL    HW2 6600   2.910   6.341   1.625
 1901SOL     OW 6601   1.658   1.577   6.291
 1901SOL    HW1 6602   1.640   1.578   6.389
 1901SOL    HW2 6603   1.595   1.640   6.244
 1902SOL     OW 6604   1.923   2.512   5.082
 1902SOL    HW1 6605   1.999   2.550   5.136
 1902SOL    HW2 6606   1.838   2.556   5.110
 1903SOL     OW 6607   6.588   3.981   4.045
 1903SOL    HW1 6608   6.601   3.924   4.126
 1903SOL    HW2 6609   6.618   3.930   3.964
 1904SOL     OW 6610   0.661   0.810   4.603
 1904SOL    HW1 6611   0.696   0.731   4.553
 1904SOL    HW2 6612   0.637   0.782   4.696
 1905SOL     OW 6613   6.482   2.926   4.619
 1905SOL    HW1 6614   6.447   2.837   4.648
 1905SOL    HW2 6615   6.582   2.925   4.619
 1906SOL     OW 6616   2.758   6.120   6.825
 1906SOL    HW1 6617   2.685   6.089   6.885
 1906SOL    HW2 6618   2.806   6.197   6.868
 1907SOL     OW 6619   3.898   6.022   3.338
 1907SOL    HW1 6620   3.972   5.977   3.387
 1907SOL    HW2 6621   3.836   5.953   3.301
 1908SOL     OW 6622   4.887   0.283   6.632
 1908SOL    HW1 6623   4.796   0.323   6.643
 1908SOL    HW2 6624   4.950   0.353   6.602
 1909SOL     OW 6625   3.865   5.136   4.578
 1909SOL    HW1 6626   3.803   5.202   4.537
 1909SOL    HW2 6627   3.927   5.183   4.641
 1910SOL     OW 6628   5.077   2.816   4.534
 1910SOL    HW1 6629   5.143   2.863   4.591
 1910SOL    HW2 6630   5.000   2.786   4.591
 1911SOL     OW 6631   6.969   3.855   6.218
 1911SOL    HW1 6632   7.020   3.902   6.146
 1911SOL    HW2 6633   6.921   3.777   6.178
 1912SOL     OW 6634   2.716   6.261   3.079
 1912SOL    HW1 6635   2.697   6.308   3.165
 1912SOL    HW2 6636   2.764   6.323   3.017
 1913SOL     OW 6637   1.275   4.290   5.341
 1913SOL    HW1 6638   1.267   4.339   5.428
 1913SOL    HW2 6639   1.358   4.235   5.341
 1914SOL     OW 6640   4.702   1.142   5.623
 1914SOL    HW1 6641   4.739   1.098   5.705
 1914SOL    HW2 6642   4.778   1.172   5.565
 1915SOL     OW 6643   3.420   0.441   5.396
 1915SOL    HW1 6644   3.451   0.418   5.304
 1915SOL    HW2 6645   3.338   0.498   5.390
 1916SOL     OW 6646   4.089   6.627   1.509
 1916SOL    HW1 6647   4.016   6.565   1.480
 1916SOL    HW2 6648   4.073   6.656   1.603
 1917SOL     OW 6649   3.532   2.892   4.101
 1917SOL    HW1 6650   3.547   2.893   4.002
 1917SOL    HW2 6651   3.621   2.887   4.148
 1918SOL     OW 6652   6.083   6.358   4.698
 1918SOL    HW1 6653   6.145   6.354   4.776
 1918SOL    HW2 6654   6.006   6.419   4.720
 1919SOL     OW 6655   6.675   6.811   1.878
 1919SOL    HW1 6656   6.725   6.870   1.943
 1919SOL    HW2 6657   6.624   6.742   1.928
 1920SOL     OW 6658   6.949   6.114   4.337
 1920SOL    HW1 6659   6.885   6.182   4.303
 1920SOL    HW2 6660   6.933   6.099   4.435
 1921SOL     OW 6661   0.929   6.780   6.289
 1921SOL    HW1 6662   0.884   6.842   6.224
 1921SOL    HW2 6663   0.894   6.799   6.381
 1922SOL     OW 6664   3.379   4.464   1.382
 1922SOL    HW1 6665   3.358   4.546   1.436
 1922SOL    HW2 6666   3.459   4.482   1.325
 1923SOL     OW 6667   1.844   2.879   0.889
 1923SOL    HW1 6668   1.843   2.881   0.989
 1923SOL    HW2 6669   1.863   2.786   0.857
 1924SOL     OW 6670   1.073   3.426   2.087
 1924SOL    HW1 6671   1.052   3.426   2.185
 1924SOL    HW2 6672   1.134   3.349   2.066
 1925SOL     OW 6673   3.205   4.014   0.435
 1925SOL    HW1 6674   3.303   4.028   0.446
 1925SOL    HW2 6675   3.171   3.955   0.508
 1926SOL     OW 6676   0.916   0.312   3.750
 1926SOL    HW1 6677   0.947   0.407   3.748
 1926SOL    HW2 6678   0.862   0.293   3.668
 1927SOL     OW 6679   4.098   3.820   0.501
 1927SOL    HW1 6680   4.030   3.871   0.449
 1927SOL    HW2 6681   4.184   3.817   0.450
 1928SOL     OW 6682   6.853   5.172   5.580
 1928SOL    HW1 6683   6.917   5.140   5.510
 1928SOL    HW2 6684   6.761   5.138   5.560
 1929SOL     OW 6685   1.578   6.838   3.315
 1929SOL    HW1 6686   1.520   6.809   3.239
 1929SOL    HW2 6687   1.584   6.762   3.381
 1930SOL     OW 6688   6.465   4.832   6.774
 1930SOL    HW1 6689   6.401   4.899   6.736
 1930SOL    HW2 6690   6.548   4.879   6.803
 1931SOL     OW 6691   0.649   2.238   4.940
 1931SOL    HW1 6692   0.577   2.292   4.897
 1931SOL    HW2 6693   0.725   2.298   4.967
 1932SOL     OW 6694   5.551   2.961   2.512
 1932SOL    HW1 6695   5.589   3.000   2.596
 1932SOL    HW2 6696   5.619   2.965   2.439
 1933SOL     OW 6697   2.490   4.482   1.121
 1933SOL    HW1 6698   2.565   4.488   1.055
 1933SOL    HW2 6699   2.504   4.548   1.195
 1934SOL     OW 6700   0.331   6.323   4.649
 1934SOL    HW1 6701   0.267   6.285   4.582
 1934SOL    HW2 6702   0.399   6.379   4.601
 1935SOL     OW 6703   2.370   0.938   4.086
 1935SOL    HW1 6704   2.369   1.031   4.049
 1935SOL    HW2 6705   2.464   0.909   4.101
 1936SOL     OW 6706   6.678   5.966   5.656
 1936SOL    HW1 6707   6.751   5.920   5.705
 1936SOL    HW2 6708   6.702   6.062   5.643
 1937SOL     OW 6709   4.648   0.082   2.732
 1937SOL    HW1 6710   4.659   0.043   2.824
 1937SOL    HW2 6711   4.649   0.182   2.739
 1938SOL     OW 6712   5.384   0.509   3.824
 1938SOL    HW1 6713   5.396   0.423   3.774
 1938SOL    HW2 6714   5.293   0.546   3.806
 1939SOL     OW 6715   2.175   0.351   3.084
 1939SOL    HW1 6716   2.179   0.306   3.173
 1939SOL    HW2 6717   2.253   0.323   3.028
 1940SOL     OW 6718   6.376   5.467   0.324
 1940SOL    HW1 6719   6.383   5.551   0.271
 1940SOL    HW2 6720   6.467   5.425   0.331
 1941SOL     OW 6721   5.273   5.024   3.227
 1941SOL    HW1 6722   5.261   4.960   3.303
 1941SOL    HW2 6723   5.206   5.004   3.155
 1942SOL     OW 6724   6.641   5.346   3.119
 1942SOL    HW1 6725   6.603   5.275   3.178
 1942SOL    HW2 6726   6.645   5.432   3.170
 1943SOL     OW 6727   3.447   5.101   2.364
 1943SOL    HW1 6728   3.523   5.165   2.379
 1943SOL    HW2 6729   3.363   5.152   2.346
 1944SOL     OW 6730   6.656   0.954   1.722
 1944SOL    HW1 6731   6.614   0.900   1.649
 1944SOL    HW2 6732   6.662   0.899   1.805
 1945SOL     OW 6733   2.864   4.751   4.070
 1945SOL    HW1 6734   2.873   4.801   4.156
 1945SOL    HW2 6735   2.769   4.755   4.039
 1946SOL     OW 6736   1.795   0.158   0.153
 1946SOL    HW1 6737   1.886   0.166   0.193
 1946SOL    HW2 6738   1.774   0.061   0.139
 1947SOL     OW 6739   5.548   6.721   4.051
 1947SOL    HW1 6740   5.613   6.665   4.103
 1947SOL    HW2 6741   5.564   6.817   4.070
 1948SOL     OW 6742   6.035   4.193   5.922
 1948SOL    HW1 6743   6.035   4.111   5.979
 1948SOL    HW2 6744   6.121   4.198   5.871
 1949SOL     OW 6745   5.503   4.190   6.729
 1949SOL    HW1 6746   5.602   4.176   6.735
 1949SOL    HW2 6747   5.457   4.119   6.783
 1950SOL     OW 6748   2.829   4.410   0.791
 1950SOL    HW1 6749   2.825   4.347   0.869
 1950SOL    HW2 6750   2.899   4.379   0.727
 1951SOL     OW 6751   6.894   2.065   0.075
 1951SOL    HW1 6752   6.869   1.976   0.113
 1951SOL    HW2 6753   6.956   2.111   0.139
 1952SOL     OW 6754   4.084   2.170   5.531
 1952SOL    HW1 6755   4.157   2.139   5.591
 1952SOL    HW2 6756   4.124   2.206   5.446
 1953SOL     OW 6757   0.177   3.229   5.388
 1953SOL    HW1 6758   0.234   3.162   5.435
 1953SOL    HW2 6759   0.206   3.238   5.293
 1954SOL     OW 6760   2.206   2.064   3.607
 1954SOL    HW1 6761   2.213   2.087   3.704
 1954SOL    HW2 6762   2.200   1.965   3.596
 1955SOL     OW 6763   6.544   5.870   2.380
 1955SOL    HW1 6764   6.469   5.908   2.434
 1955SOL    HW2 6765   6.619   5.844   2.441
 1956SOL     OW 6766   5.900   6.608   2.447
 1956SOL    HW1 6767   5.881   6.531   2.508
 1956SOL    HW2 6768   5.962   6.578   2.374
 1957SOL     OW 6769   0.795   6.890   5.269
 1957SOL    HW1 6770   0.856   6.890   5.348
 1957SOL    HW2 6771   0.739   6.807   5.270
 1958SOL     OW 6772   4.855   3.200   5.958
 1958SOL    HW1 6773   4.841   3.284   5.906
 1958SOL    HW2 6774   4.953   3.185   5.972
 1959SOL     OW 6775   1.612   2.041   6.562
 1959SOL    HW1 6776   1.610   1.992   6.475
 1959SOL    HW2 6777   1.694   2.098   6.567
 1960SOL     OW 6778   5.139   6.654   1.752
 1960SOL    HW1 6779   5.073   6.587   1.717
 1960SOL    HW2 6780   5.170   6.626   1.843
 1961SOL     OW 6781   5.967   5.303   4.456
 1961SOL    HW1 6782   5.894   5.372   4.456
 1961SOL    HW2 6783   6.027   5.318   4.534
 1962SOL     OW 6784   0.403   6.485   3.278
 1962SOL    HW1 6785   0.329   6.429   3.241
 1962SOL    HW2 6786   0.491   6.448   3.248
 1963SOL     OW 6787   1.637   0.006   2.689
 1963SOL    HW1 6788   1.563   0.025   2.753
 1963SOL    HW2 6789   1.719   7.003   2.739
 1964SOL     OW 6790   5.295   3.976   2.643
 1964SOL    HW1 6791   5.388   3.999   2.675
 1964SOL    HW2 6792   5.276   3.881   2.665
 1965SOL     OW 6793   2.323   5.265   3.583
 1965SOL    HW1 6794   2.346   5.262   3.680
 1965SOL    HW2 6795   2.321   5.360   3.552
 1966SOL     OW 6796   6.275   5.757   5.724
 1966SOL    HW1 6797   6.329   5.819   5.782
 1966SOL    HW2 6798   6.228   5.690   5.781
 1967SOL     OW 6799   4.693   2.475   4.928
 1967SOL    HW1 6800   4.681   2.446   5.023
 1967SOL    HW2 6801   4.683   2.574   4.922
 1968SOL     OW 6802   3.219   5.391   5.680
 1968SOL    HW1 6803   3.140   5.336   5.708
 1968SOL    HW2 6804   3.188   5.482   5.654
 1969SOL     OW 6805   6.514   2.463   1.522
 1969SOL    HW1 6806   6.427   2.504   1.493
 1969SOL    HW2 6807   6.505   2.430   1.616
 1970SOL     OW 6808   2.059   0.203   3.556
 1970SOL    HW1 6809   2.082   0.157   3.642
 1970SOL    HW2 6810   2.081   0.300   3.563
 1971SOL     OW 6811   0.519   6.884   6.042
 1971SOL    HW1 6812   0.541   6.806   5.984
 1971SOL    HW2 6813   0.536   6.861   6.138
 1972SOL     OW 6814   0.983   4.818   4.246
 1972SOL    HW1 6815   0.889   4.782   4.249
 1972SOL    HW2 6816   1.047   4.741   4.241
 1973SOL     OW 6817   2.764   3.244   0.616
 1973SOL    HW1 6818   2.780   3.289   0.704
 1973SOL    HW2 6819   2.691   3.292   0.567
 1974SOL     OW 6820   5.771   0.771   4.249
 1974SOL    HW1 6821   5.737   0.863   4.232
 1974SOL    HW2 6822   5.870   0.772   4.257
 1975SOL     OW 6823   3.189   0.991   3.476
 1975SOL    HW1 6824   3.168   1.040   3.560
 1975SOL    HW2 6825   3.279   0.948   3.484
 1976SOL     OW 6826   6.797   4.823   0.273
 1976SOL    HW1 6827   6.890   4.786   0.278
 1976SOL    HW2 6828   6.755   4.795   0.187
 1977SOL     OW 6829   2.006   2.969   4.963
 1977SOL    HW1 6830   1.933   2.933   5.022
 1977SOL    HW2 6831   1.997   3.068   4.955
 1978SOL     OW 6832   6.559   1.468   5.105
 1978SOL    HW1 6833   6.637   1.410   5.130
 1978SOL    HW2 6834   6.505   1.487   5.187
 1979SOL     OW 6835   6.209   5.232   3.577
 1979SOL    HW1 6836   6.191   5.194   3.486
 1979SOL    HW2 6837   6.291   5.288   3.573
 1980SOL     OW 6838   4.155   0.293   1.385
 1980SOL    HW1 6839   4.215   0.255   1.315
 1980SOL    HW2 6840   4.070   0.325   1.344
 1981SOL     OW 6841   4.649   3.197   1.637
 1981SOL    HW1 6842   4.622   3.152   1.722
 1981SOL    HW2 6843   4.745   3.175   1.617
 1982SOL     OW 6844   5.557   6.723   4.783
 1982SOL    HW1 6845   5.557   6.625   4.765
 1982SOL    HW2 6846   5.603   6.741   4.870
 1983SOL     OW 6847   0.642   3.510   2.751
 1983SOL    HW1 6848   0.666   3.431   2.808
 1983SOL    HW2 6849   0.726   3.553   2.717
 1984SOL     OW 6850   4.102   0.302   5.984
 1984SOL    HW1 6851   4.180   0.243   5.966
 1984SOL    HW2 6852   4.134   0.386   6.028
 1985SOL     OW 6853   1.362   0.365   1.468
 1985SOL    HW1 6854   1.355   0.330   1.562
 1985SOL    HW2 6855   1.279   0.341   1.417
 1986SOL     OW 6856   1.216   2.045   6.180
 1986SOL    HW1 6857   1.243   1.952   6.156
 1986SOL    HW2 6858   1.118   2.058   6.165
 1987SOL     OW 6859   2.719   3.273   6.243
 1987SOL    HW1 6860   2.818   3.263   6.232
 1987SOL    HW2 6861   2.698   3.296   6.338
 1988SOL     OW 6862   4.849   2.943   0.725
 1988SOL    HW1 6863   4.922   2.878   0.747
 1988SOL    HW2 6864   4.773   2.894   0.682
 1989SOL     OW 6865   2.775   0.470   4.425
 1989SOL    HW1 6866   2.741   0.561   4.448
 1989SOL    HW2 6867   2.714   0.427   4.359
 1990SOL     OW 6868   2.589   1.054   2.296
 1990SOL    HW1 6869   2.497   1.087   2.276
 1990SOL    HW2 6870   2.632   1.020   2.213
 1991SOL     OW 6871   3.745   5.375   4.505
 1991SOL    HW1 6872   3.744   5.414   4.413
 1991SOL    HW2 6873   3.734   5.448   4.572
 1992SOL     OW 6874   2.244   6.614   5.319
 1992SOL    HW1 6875   2.288   6.627   5.408
 1992SOL    HW2 6876   2.282   6.679   5.253
 1993SOL     OW 6877   3.872   3.314   5.384
 1993SOL    HW1 6878   3.832   3.402   5.408
 1993SOL    HW2 6879   3.972   3.322   5.383
 1994SOL     OW 6880   6.230   2.411   2.196
 1994SOL    HW1 6881   6.231   2.325   2.246
 1994SOL    HW2 6882   6.148   2.416   2.140
 1995SOL     OW 6883   5.159   2.433   1.298
 1995SOL    HW1 6884   5.207   2.381   1.369
 1995SOL    HW2 6885   5.076   2.385   1.272
 1996SOL     OW 6886   3.133   4.577   7.000
 1996SOL    HW1 6887   3.034   4.595   7.002
 1996SOL    HW2 6888   3.169   4.603   6.910
 1997SOL     OW 6889   5.634   1.011   3.685
 1997SOL    HW1 6890   5.604   1.070   3.761
 1997SOL    HW2 6891   5.564   1.012   3.613
 1998SOL     OW 6892   3.027   4.802   5.163
 1998SOL    HW1 6893   3.029   4.825   5.260
 1998SOL    HW2 6894   2.952   4.739   5.145
 1999SOL     OW 6895   1.702   0.960   2.428
 1999SOL    HW1 6896   1.775   0.925   2.486
 1999SOL    HW2 6897   1.655   1.035   2.474
 2000SOL     OW 6898   3.864   2.136   4.877
 2000SOL    HW1 6899   3.925   2.149   4.955
 2000SOL    HW2 6900   3.770   2.158   4.905
 2001SOL     OW 6901   3.289   2.738   0.484
 2001SOL    HW1 6902   3.244   2.817   0.443
 2001SOL    HW2 6903   3.220   2.673   0.517
 2002SOL     OW 6904   1.965   4.715   4.718
 2002SOL    HW1 6905   1.958   4.625   4.762
 2002SOL    HW2 6906   1.929   4.709   4.625
 2003SOL     OW 6907   6.163   5.832   3.905
 2003SOL    HW1 6908   6.210   5.754   3.947
 2003SOL    HW2 6909   6.230   5.894   3.865
 2004SOL     OW 6910   3.199   0.792   5.967
 2004SOL    HW1 6911   3.202   0.802   5.867
 2004SOL    HW2 6912   3.266   0.854   6.008
 2005SOL     OW 6913   2.925   6.328   5.875
 2005SOL    HW1 6914   2.988   6.297   5.946
 2005SOL    HW2 6915   2.966   6.312   5.785
 2006SOL     OW 6916   4.033   4.757   3.948
 2006SOL    HW1 6917   4.056   4.765   4.045
 2006SOL    HW2 6918   3.948   4.805   3.929
 2007SOL     OW 6919   6.015   5.186   0.179
 2007SOL    HW1 6920   5.927   5.200   0.134
 2007SOL    HW2 6921   6.005   5.198   0.277
 2008SOL     OW 6922   0.364   5.791   3.851
 2008SOL    HW1 6923   0.357   5.722   3.924
 2008SOL    HW2 6924   0.438   5.854   3.872
 2009SOL     OW 6925   0.478   0.274   1.889
 2009SOL    HW1 6926   0.525   0.356   1.921
 2009SOL    HW2 6927   0.476   0.274   1.789
 2010SOL     OW 6928   1.747   6.841   0.940
 2010SOL    HW1 6929   1.739   6.785   0.858
 2010SOL    HW2 6930   1.796   6.926   0.918
 2011SOL     OW 6931   6.965   2.559   5.324
 2011SOL    HW1 6932   6.896   2.487   5.313
 2011SOL    HW2 6933   7.024   2.538   5.402
 2012SOL     OW 6934   0.935   3.813   1.245
 2012SOL    HW1 6935   0.881   3.734   1.214
 2012SOL    HW2 6936   0.979   3.792   1.332
 2013SOL     OW 6937   4.486   1.605   2.136
 2013SOL    HW1 6938   4.573   1.562   2.113
 2013SOL    HW2 6939   4.410   1.545   2.109
 2014SOL     OW 6940   2.572   5.887   3.666
 2014SOL    HW1 6941   2.652   5.878   3.606
 2014SOL    HW2 6942   2.489   5.872   3.614
 2015SOL     OW 6943   3.184   6.864   6.747
 2015SOL    HW1 6944   3.256   6.852   6.816
 2015SOL    HW2 6945   3.217   6.832   6.658
 2016SOL     OW 6946   6.478   5.015   3.855
 2016SOL    HW1 6947   6.544   5.028   3.929
 2016SOL    HW2 6948   6.515   4.950   3.788
 2017SOL     OW 6949   2.671   5.886   2.194
 2017SOL    HW1 6950   2.719   5.971   2.215
 2017SOL    HW2 6951   2.616   5.859   2.273
 2018SOL     OW 6952   0.778   5.175   5.615
 2018SOL    HW1 6953   0.788   5.143   5.709
 2018SOL    HW2 6954   0.681   5.171   5.590
 2019SOL     OW 6955   6.276   1.525   2.295
 2019SOL    HW1 6956   6.270   1.580   2.212
 2019SOL    HW2 6957   6.340   1.450   2.280
 2020SOL     OW 6958   2.228   6.251   3.100
 2020SOL    HW1 6959   2.215   6.197   3.016
 2020SOL    HW2 6960   2.156   6.229   3.165
 2021SOL     OW 6961   0.899   6.728   1.752
 2021SOL    HW1 6962   0.979   6.669   1.758
 2021SOL    HW2 6963   0.902   6.780   1.667
 2022SOL     OW 6964   2.404   3.952   1.339
 2022SOL    HW1 6965   2.504   3.960   1.328
 2022SOL    HW2 6966   2.361   4.034   1.300
 2023SOL     OW 6967   6.899   1.005   5.708
 2023SOL    HW1 6968   6.982   1.033   5.661
 2023SOL    HW2 6969   6.829   0.981   5.641
 2024SOL     OW 6970   5.730   1.315   3.628
 2024SOL    HW1 6971   5.730   1.229   3.679
 2024SOL    HW2 6972   5.644   1.363   3.644
 2025SOL     OW 6973   6.630   1.050   1.377
 2025SOL    HW1 6974   6.605   1.102   1.295
 2025SOL    HW2 6975   6.648   1.114   1.452
 2026SOL     OW 6976   1.655   1.738   5.412
 2026SOL    HW1 6977   1.562   1.714   5.383
 2026SOL    HW2 6978   1.719   1.669   5.380
 2027SOL     OW 6979   0.643   1.322   2.847
 2027SOL    HW1 6980   0.550   1.286   2.844
 2027SOL    HW2 6981   0.640   1.422   2.839
 2028SOL     OW 6982   4.085   2.857   6.968
 2028SOL    HW1 6983   4.116   2.889   6.879
 2028SOL    HW2 6984   3.987   2.835   6.963
 2029SOL     OW 6985   1.628   0.360   0.217
 2029SOL    HW1 6986   1.697   0.310   0.164
 2029SOL    HW2 6987   1.559   0.397   0.154
 2030SOL     OW 6988   1.892   0.727   3.230
 2030SOL    HW1 6989   1.813   0.782   3.259
 2030SOL    HW2 6990   1.885   0.636   3.270
 2031SOL     OW 6991   5.037   6.888   2.337
 2031SOL    HW1 6992   5.126   6.844   2.323
 2031SOL    HW2 6993   5.051   6.987   2.345
 2032SOL     OW 6994   5.108   6.680   1.233
 2032SOL    HW1 6995   5.060   6.663   1.318
 2032SOL    HW2 6996   5.182   6.613   1.222
 2033SOL     OW 6997   5.747   5.195   0.100
 2033SOL    HW1 6998   5.716   5.239   0.016
 2033SOL    HW2 6999   5.675   5.135   0.135
 2034SOL     OW 7000   2.179   0.362   2.709
 2034SOL    HW1 7001   2.116   0.403   2.775
 2034SOL    HW2 7002   2.137   0.362   2.619
 2035SOL     OW 7003   1.331   3.062   2.187
 2035SOL    HW1 7004   1.334   2.989   2.255
 2035SOL    HW2 7005   1.416   3.114   2.189
 2036SOL     OW 7006   1.699   4.709   0.705
 2036SOL    HW1 7007   1.639   4.761   0.766
 2036SOL    HW2 7008   1.682   4.611   0.716
 2037SOL     OW 7009   0.219   1.107   6.381
 2037SOL    HW1 7010   0.254   1.156   6.461
 2037SOL    HW2 7011   0.158   1.034   6.410
 2038SOL     OW 7012   0.713   0.822   4.885
 2038SOL    HW1 7013   0.721   0.921   4.885
 2038SOL    HW2 7014   0.636   0.794   4.941
 2039SOL     OW 7015   0.776   5.779   2.558
 2039SOL    HW1 7016   0.842   5.834   2.609
 2039SOL    HW2 7017   0.722   5.839   2.498
 2040SOL     OW 7018   3.979   3.350   4.750
 2040SOL    HW1 7019   3.970   3.294   4.667
 2040SOL    HW2 7020   3.892   3.351   4.799
 2041SOL     OW 7021   6.076   4.415   6.112
 2041SOL    HW1 7022   6.063   4.355   6.034
 2041SOL    HW2 7023   6.110   4.504   6.081
 2042SOL     OW 7024   4.093   5.464   6.863
 2042SOL    HW1 7025   4.074   5.465   6.765
 2042SOL    HW2 7026   4.185   5.429   6.879
 2043SOL     OW 7027   5.108   4.799   2.189
 2043SOL    HW1 7028   5.050   4.731   2.145
 2043SOL    HW2 7029   5.061   4.837   2.269
 2044SOL     OW 7030   6.584   0.651   1.590
 2044SOL    HW1 7031   6.567   0.606   1.678
 2044SOL    HW2 7032   6.670   0.618   1.552
 2045SOL     OW 7033   1.795   5.175   6.156
 2045SOL    HW1 7034   1.779   5.146   6.062
 2045SOL    HW2 7035   1.886   5.146   6.185
 2046SOL     OW 7036   6.115   0.527   5.087
 2046SOL    HW1 7037   6.092   0.496   4.994
 2046SOL    HW2 7038   6.134   0.625   5.086
 2047SOL     OW 7039   5.396   2.637   0.161
 2047SOL    HW1 7040   5.481   2.660   0.207
 2047SOL    HW2 7041   5.414   2.619   0.064
 2048SOL     OW 7042   4.391   0.256   5.535
 2048SOL    HW1 7043   4.483   0.247   5.498
 2048SOL    HW2 7044   4.396   0.303   5.624
 2049SOL     OW 7045   5.093   0.196   0.459
 2049SOL    HW1 7046   5.073   0.127   0.529
 2049SOL    HW2 7047   5.141   0.152   0.383
 2050SOL     OW 7048   5.752   2.320   4.062
 2050SOL    HW1 7049   5.764   2.221   4.058
 2050SOL    HW2 7050   5.830   2.365   4.020
 2051SOL     OW 7051   1.777   5.036   0.479
 2051SOL    HW1 7052   1.681   5.014   0.466
 2051SOL    HW2 7053   1.785   5.128   0.518
 2052SOL     OW 7054   0.834   3.377   0.401
 2052SOL    HW1 7055   0.870   3.434   0.475
 2052SOL    HW2 7056   0.900   3.305   0.379
 2053SOL     OW 7057   5.564   0.612   0.323
 2053SOL    HW1 7058   5.616   0.651   0.247
 2053SOL    HW2 7059   5.508   0.683   0.365
 2054SOL     OW 7060   6.037   2.666   1.018
 2054SOL    HW1 7061   6.040   2.568   1.035
 2054SOL    HW2 7062   6.025   2.682   0.920
 2055SOL     OW 7063   5.609   3.026   3.981
 2055SOL    HW1 7064   5.604   3.113   4.029
 2055SOL    HW2 7065   5.543   2.962   4.020
 2056SOL     OW 7066   1.402   0.823   3.408
 2056SOL    HW1 7067   1.374   0.839   3.503
 2056SOL    HW2 7068   1.329   0.776   3.359
 2057SOL     OW 7069   0.036   2.657   4.490
 2057SOL    HW1 7070   0.133   2.633   4.492
 2057SOL    HW2 7071   0.025   2.754   4.511
 2058SOL     OW 7072   6.765   2.106   1.970
 2058SOL    HW1 7073   6.854   2.126   2.009
 2058SOL    HW2 7074   6.775   2.041   1.895
 2059SOL     OW 7075   1.487   1.563   6.849
 2059SOL    HW1 7076   1.405   1.615   6.822
 2059SOL    HW2 7077   1.568   1.617   6.831
 2060SOL     OW 7078   0.993   5.180   2.673
 2060SOL    HW1 7079   1.019   5.277   2.664
 2060SOL    HW2 7080   0.902   5.166   2.635
 2061SOL     OW 7081   6.494   1.705   1.747
 2061SOL    HW1 7082   6.537   1.709   1.837
 2061SOL    HW2 7083   6.409   1.653   1.753
 2062SOL     OW 7084   4.454   0.569   3.340
 2062SOL    HW1 7085   4.514   0.490   3.328
 2062SOL    HW2 7086   4.485   0.623   3.418
 2063SOL     OW 7087   2.161   2.609   6.600
 2063SOL    HW1 7088   2.124   2.545   6.533
 2063SOL    HW2 7089   2.255   2.585   6.621
 2064SOL     OW 7090   0.812   2.401   0.223
 2064SOL    HW1 7091   0.803   2.481   0.165
 2064SOL    HW2 7092   0.812   2.318   0.166
 2065SOL     OW 7093   6.272   3.399   1.908
 2065SOL    HW1 7094   6.281   3.346   1.992
 2065SOL    HW2 7095   6.317   3.351   1.833
 2066SOL     OW 7096   1.550   6.527   4.454
 2066SOL    HW1 7097   1.501   6.527   4.541
 2066SOL    HW2 7098   1.648   6.531   4.471
 2067SOL     OW 7099   6.487   6.937   1.457
 2067SOL    HW1 7100   6.495   6.839   1.474
 2067SOL    HW2 7101   6.547   6.987   1.518
 2068SOL     OW 7102   1.591   1.975   5.085
 2068SOL    HW1 7103   1.661   2.042   5.058
 2068SOL    HW2 7104   1.553   2.000   5.174
 2069SOL     OW 7105   0.504   2.048   1.585
 2069SOL    HW1 7106   0.554   2.065   1.670
 2069SOL    HW2 7107   0.566   2.059   1.508
 2070SOL     OW 7108   0.871   1.037   2.713
 2070SOL    HW1 7109   0.943   1.031   2.644
 2070SOL    HW2 7110   0.907   1.082   2.795
 2071SOL     OW 7111   1.597   6.831   4.465
 2071SOL    HW1 7112   1.579   6.794   4.373
 2071SOL    HW2 7113   1.687   6.801   4.496
 2072SOL     OW 7114   4.910   5.356   1.656
 2072SOL    HW1 7115   4.975   5.367   1.581
 2072SOL    HW2 7116   4.847   5.433   1.656
 2073SOL     OW 7117   2.774   6.658   6.103
 2073SOL    HW1 7118   2.804   6.745   6.143
 2073SOL    HW2 7119   2.739   6.598   6.176
 2074SOL     OW 7120   5.605   1.299   2.095
 2074SOL    HW1 7121   5.582   1.310   1.998
 2074SOL    HW2 7122   5.527   1.329   2.151
 2075SOL     OW 7123   4.617   3.571   6.808
 2075SOL    HW1 7124   4.674   3.537   6.882
 2075SOL    HW2 7125   4.667   3.566   6.722
 2076SOL     OW 7126   4.950   0.417   1.096
 2076SOL    HW1 7127   4.921   0.449   1.006
 2076SOL    HW2 7128   5.042   0.378   1.090
 2077SOL     OW 7129   5.705   0.683   2.766
 2077SOL    HW1 7130   5.624   0.661   2.820
 2077SOL    HW2 7131   5.775   0.613   2.781
 2078SOL     OW 7132   3.219   5.200   5.457
 2078SOL    HW1 7133   3.289   5.128   5.457
 2078SOL    HW2 7134   3.213   5.240   5.549
 2079SOL     OW 7135   5.613   1.193   3.928
 2079SOL    HW1 7136   5.662   1.247   3.997
 2079SOL    HW2 7137   5.519   1.224   3.921
 2080SOL     OW 7138   2.799   2.319   4.316
 2080SOL    HW1 7139   2.810   2.394   4.252
 2080SOL    HW2 7140   2.885   2.270   4.326
 2081SOL     OW 7141   0.575   6.703   5.272
 2081SOL    HW1 7142   0.530   6.746   5.194
 2081SOL    HW2 7143   0.538   6.611   5.285
 2082SOL     OW 7144   5.489   0.696   1.591
 2082SOL    HW1 7145   5.443   0.718   1.677
 2082SOL    HW2 7146   5.421   0.671   1.522
 2083SOL     OW 7147   3.156   5.664   5.683
 2083SOL    HW1 7148   3.081   5.705   5.734
 2083SOL    HW2 7149   3.157   5.702   5.590
 2084SOL     OW 7150   0.040   2.741   3.425
 2084SOL    HW1 7151   0.095   2.816   3.462
 2084SOL    HW2 7152   0.023   2.673   3.496
 2085SOL     OW 7153   5.495   0.121   6.005
 2085SOL    HW1 7154   5.479   0.219   5.992
 2085SOL    HW2 7155   5.457   0.093   6.094
 2086SOL     OW 7156   2.951   5.161   0.768
 2086SOL    HW1 7157   3.010   5.102   0.714
 2086SOL    HW2 7158   2.996   5.250   0.781
 2087SOL     OW 7159   5.126   0.034   3.932
 2087SOL    HW1 7160   5.215   0.017   3.974
 2087SOL    HW2 7161   5.123   0.128   3.898
 2088SOL     OW 7162   3.386   0.065   0.696
 2088SOL    HW1 7163   3.410   0.064   0.599
 2088SOL    HW2 7164   3.303   0.011   0.710
 2089SOL     OW 7165   4.040   0.504   0.010
 2089SOL    HW1 7166   4.008   0.510   6.942
 2089SOL    HW2 7167   4.130   0.546   0.017
 2090SOL     OW 7168   3.450   3.309   4.494
 2090SOL    HW1 7169   3.423   3.326   4.589
 2090SOL    HW2 7170   3.475   3.396   4.451
 2091SOL     OW 7171   2.055   4.838   0.924
 2091SOL    HW1 7172   2.046   4.767   0.855
 2091SOL    HW2 7173   1.981   4.905   0.913
 2092SOL     OW 7174   6.170   6.414   0.632
 2092SOL    HW1 7175   6.205   6.338   0.577
 2092SOL    HW2 7176   6.204   6.500   0.596
 2093SOL     OW 7177   1.244   2.780   1.713
 2093SOL    HW1 7178   1.148   2.765   1.739
 2093SOL    HW2 7179   1.296   2.805   1.795
 2094SOL     OW 7180   6.050   6.907   2.227
 2094SOL    HW1 7181   6.044   6.808   2.241
 2094SOL    HW2 7182   6.145   6.932   2.208
 2095SOL     OW 7183   6.180   5.077   5.102
 2095SOL    HW1 7184   6.241   5.129   5.162
 2095SOL    HW2 7185   6.085   5.095   5.126
 2096SOL     OW 7186   4.704   4.202   2.891
 2096SOL    HW1 7187   4.636   4.163   2.829
 2096SOL    HW2 7188   4.738   4.131   2.953
 2097SOL     OW 7189   0.377   2.604   0.285
 2097SOL    HW1 7190   0.452   2.618   0.221
 2097SOL    HW2 7191   0.326   2.689   0.296
 2098SOL     OW 7192   4.370   0.545   4.199
 2098SOL    HW1 7193   4.302   0.599   4.149
 2098SOL    HW2 7194   4.367   0.450   4.168
 2099SOL     OW 7195   3.079   1.678   4.432
 2099SOL    HW1 7196   3.081   1.746   4.506
 2099SOL    HW2 7197   2.993   1.627   4.436
 2100SOL     OW 7198   4.573   3.933   6.641
 2100SOL    HW1 7199   4.584   3.836   6.659
 2100SOL    HW2 7200   4.644   3.964   6.578
 2101SOL     OW 7201   6.955   0.002   3.846
 2101SOL    HW1 7202   6.965   6.955   3.912
 2101SOL    HW2 7203   7.021   0.075   3.866
 2102SOL     OW 7204   0.258   4.879   2.452
 2102SOL    HW1 7205   0.172   4.863   2.500
 2102SOL    HW2 7206   0.300   4.791   2.429
 2103SOL     OW 7207   3.291   3.908   6.396
 2103SOL    HW1 7208   3.320   3.970   6.469
 2103SOL    HW2 7209   3.368   3.850   6.369
 2104SOL     OW 7210   1.253   3.578   5.508
 2104SOL    HW1 7211   1.300   3.602   5.423
 2104SOL    HW2 7212   1.318   3.584   5.584
 2105SOL     OW 7213   5.731   5.450   1.735
 2105SOL    HW1 7214   5.677   5.454   1.818
 2105SOL    HW2 7215   5.827   5.466   1.756
 2106SOL     OW 7216   4.848   5.553   6.785
 2106SOL    HW1 7217   4.939   5.554   6.744
 2106SOL    HW2 7218   4.855   5.536   6.883
 2107SOL     OW 7219   4.143   4.174   6.283
 2107SOL    HW1 7220   4.227   4.158   6.231
 2107SOL    HW2 7221   4.067   4.125   6.241
 2108SOL     OW 7222   5.553   5.162   6.116
 2108SOL    HW1 7223   5.617   5.089   6.091
 2108SOL    HW2 7224   5.530   5.154   6.213
 2109SOL     OW 7225   5.719   6.856   3.036
 2109SOL    HW1 7226   5.718   6.939   3.093
 2109SOL    HW2 7227   5.680   6.780   3.088
 2110SOL     OW 7228   2.543   4.596   6.464
 2110SOL    HW1 7229   2.474   4.665   6.445
 2110SOL    HW2 7230   2.500   4.519   6.512
 2111SOL     OW 7231   1.128   2.762   0.165
 2111SOL    HW1 7232   1.065   2.801   0.233
 2111SOL    HW2 7233   1.172   2.835   0.113
 2112SOL     OW 7234   4.715   3.104   1.321
 2112SOL    HW1 7235   4.789   3.038   1.334
 2112SOL    HW2 7236   4.640   3.082   1.384
 2113SOL     OW 7237   0.141   0.759   2.481
 2113SOL    HW1 7238   0.224   0.782   2.532
 2113SOL    HW2 7239   0.081   0.839   2.478
 2114SOL     OW 7240   2.246   4.009   6.730
 2114SOL    HW1 7241   2.163   4.028   6.678
 2114SOL    HW2 7242   2.313   4.082   6.714
 2115SOL     OW 7243   2.400   4.655   2.403
 2115SOL    HW1 7244   2.480   4.686   2.352
 2115SOL    HW2 7245   2.397   4.701   2.492
 2116SOL     OW 7246   0.188   4.181   3.217
 2116SOL    HW1 7247   0.089   4.194   3.225
 2116SOL    HW2 7248   0.209   4.131   3.133
 2117SOL     OW 7249   0.446   5.085   0.801
 2117SOL    HW1 7250   0.380   5.144   0.753
 2117SOL    HW2 7251   0.411   4.991   0.804
 2118SOL     OW 7252   6.873   3.758   2.076
 2118SOL    HW1 7253   6.846   3.793   1.986
 2118SOL    HW2 7254   6.799   3.771   2.141
 2119SOL     OW 7255   2.803   6.119   1.291
 2119SOL    HW1 7256   2.874   6.135   1.222
 2119SOL    HW2 7257   2.727   6.183   1.277
 2120SOL     OW 7258   6.901   4.989   2.242
 2120SOL    HW1 7259   6.872   5.069   2.190
 2120SOL    HW2 7260   6.932   5.017   2.333
 2121SOL     OW 7261   0.744   5.170   4.703
 2121SOL    HW1 7262   0.825   5.137   4.655
 2121SOL    HW2 7263   0.676   5.096   4.708
 2122SOL     OW 7264   4.707   4.309   4.790
 2122SOL    HW1 7265   4.756   4.335   4.707
 2122SOL    HW2 7266   4.743   4.361   4.867
 2123SOL     OW 7267   6.114   4.768   3.334
 2123SOL    HW1 7268   6.102   4.807   3.425
 2123SOL    HW2 7269   6.054   4.690   3.323
 2124SOL     OW 7270   1.903   2.282   0.569
 2124SOL    HW1 7271   1.928   2.376   0.592
 2124SOL    HW2 7272   1.963   2.219   0.618
 2125SOL     OW 7273   3.074   6.900   0.602
 2125SOL    HW1 7274   3.126   6.848   0.534
 2125SOL    HW2 7275   2.976   6.884   0.587
 2126SOL     OW 7276   2.727   0.701   0.414
 2126SOL    HW1 7277   2.650   0.670   0.470
 2126SOL    HW2 7278   2.810   0.652   0.441
 2127SOL     OW 7279   5.606   3.346   5.087
 2127SOL    HW1 7280   5.569   3.424   5.036
 2127SOL    HW2 7281   5.656   3.286   5.026
 2128SOL     OW 7282   0.559   5.034   4.522
 2128SOL    HW1 7283   0.635   4.980   4.559
 2128SOL    HW2 7284   0.594   5.102   4.458
 2129SOL     OW 7285   3.887   1.892   5.636
 2129SOL    HW1 7286   3.894   1.976   5.582
 2129SOL    HW2 7287   3.956   1.893   5.708
 2130SOL     OW 7288   4.440   6.120   2.118
 2130SOL    HW1 7289   4.424   6.214   2.147
 2130SOL    HW2 7290   4.525   6.086   2.158
 2131SOL     OW 7291   6.739   1.811   0.466
 2131SOL    HW1 7292   6.668   1.792   0.398
 2131SOL    HW2 7293   6.698   1.853   0.547
 2132SOL     OW 7294   2.218   3.156   0.474
 2132SOL    HW1 7295   2.310   3.177   0.439
 2132SOL    HW2 7296   2.184   3.233   0.527
 2133SOL     OW 7297   3.111   2.490   6.036
 2133SOL    HW1 7298   3.095   2.531   5.946
 2133SOL    HW2 7299   3.025   2.484   6.086
 2134SOL     OW 7300   1.130   0.154   0.245
 2134SOL    HW1 7301   1.076   0.133   0.163
 2134SOL    HW2 7302   1.204   0.087   0.254
 2135SOL     OW 7303   0.670   3.714   4.066
 2135SOL    HW1 7304   0.704   3.778   3.997
 2135SOL    HW2 7305   0.653   3.625   4.023
 2136SOL     OW 7306   2.156   5.750   2.150
 2136SOL    HW1 7307   2.123   5.762   2.057
 2136SOL    HW2 7308   2.256   5.752   2.151
 2137SOL     OW 7309   2.300   5.668   3.825
 2137SOL    HW1 7310   2.384   5.664   3.771
 2137SOL    HW2 7311   2.271   5.575   3.848
 2138SOL     OW 7312   5.129   1.679   2.369
 2138SOL    HW1 7313   5.127   1.603   2.433
 2138SOL    HW2 7314   5.191   1.658   2.294
 2139SOL     OW 7315   2.704   0.939   5.393
 2139SOL    HW1 7316   2.738   0.886   5.315
 2139SOL    HW2 7317   2.662   0.876   5.459
 2140SOL     OW 7318   2.367   1.123   5.712
 2140SOL    HW1 7319   2.414   1.039   5.736
 2140SOL    HW2 7320   2.411   1.166   5.633
 2141SOL     OW 7321   6.341   4.483   2.632
 2141SOL    HW1 7322   6.333   4.384   2.647
 2141SOL    HW2 7323   6.313   4.531   2.715
 2142SOL     OW 7324   1.978   1.221   2.920
 2142SOL    HW1 7325   1.925   1.138   2.933
 2142SOL    HW2 7326   1.921   1.301   2.939
 2143SOL     OW 7327   1.458   4.774   0.383
 2143SOL    HW1 7328   1.546   4.726   0.390
 2143SOL    HW2 7329   1.463   4.859   0.435
 2144SOL     OW 7330   5.842   5.864   4.207
 2144SOL    HW1 7331   5.815   5.858   4.303
 2144SOL    HW2 7332   5.915   5.797   4.190
 2145SOL     OW 7333   4.132   0.050   3.491
 2145SOL    HW1 7334   4.087   0.087   3.573
 2145SOL    HW2 7335   4.211   0.107   3.469
 2146SOL     OW 7336   1.947   2.825   0.625
 2146SOL    HW1 7337   1.896   2.863   0.702
 2146SOL    HW2 7338   2.041   2.858   0.627
 2147SOL     OW 7339   5.913   0.972   4.908
 2147SOL    HW1 7340   5.931   0.917   4.990
 2147SOL    HW2 7341   5.815   0.976   4.891
 2148SOL     OW 7342   0.438   3.271   6.753
 2148SOL    HW1 7343   0.375   3.311   6.686
 2148SOL    HW2 7344   0.521   3.326   6.757
 2149SOL     OW 7345   0.574   0.241   7.006
 2149SOL    HW1 7346   0.589   0.287   6.919
 2149SOL    HW2 7347   0.481   0.258   0.012
 2150SOL     OW 7348   2.421   3.374   1.152
 2150SOL    HW1 7349   2.363   3.296   1.173
 2150SOL    HW2 7350   2.364   3.449   1.117
 2151SOL     OW 7351   1.240   5.434   0.424
 2151SOL    HW1 7352   1.167   5.398   0.483
 2151SOL    HW2 7353   1.316   5.464   0.481
 2152SOL     OW 7354   3.768   5.883   3.713
 2152SOL    HW1 7355   3.785   5.968   3.664
 2152SOL    HW2 7356   3.828   5.877   3.793
 2153SOL     OW 7357   4.712   1.268   3.579
 2153SOL    HW1 7358   4.683   1.335   3.647
 2153SOL    HW2 7359   4.641   1.199   3.567
 2154SOL     OW 7360   2.970   7.020   3.114
 2154SOL    HW1 7361   2.952   6.969   3.030
 2154SOL    HW2 7362   3.069   0.005   3.127
 2155SOL     OW 7363   4.958   6.840   1.079
 2155SOL    HW1 7364   4.952   6.909   1.152
 2155SOL    HW2 7365   4.993   6.754   1.117
 2156SOL     OW 7366   5.665   1.938   4.135
 2156SOL    HW1 7367   5.705   1.974   4.051
 2156SOL    HW2 7368   5.709   1.851   4.157
 2157SOL     OW 7369   3.572   5.700   3.862
 2157SOL    HW1 7370   3.478   5.704   3.896
 2157SOL    HW2 7371   3.571   5.698   3.762
 2158SOL     OW 7372   3.606   0.485   0.025
 2158SOL    HW1 7373   3.691   0.523   0.062
 2158SOL    HW2 7374   3.532   0.501   0.090
 2159SOL     OW 7375   1.368   0.591   5.623
 2159SOL    HW1 7376   1.350   0.507   5.673
 2159SOL    HW2 7377   1.282   0.630   5.590
 2160SOL     OW 7378   5.580   6.044   0.241
 2160SOL    HW1 7379   5.612   6.040   0.336
 2160SOL    HW2 7380   5.577   6.140   0.211
 2161SOL     OW 7381   1.107   2.408   2.519
 2161SOL    HW1 7382   1.099   2.314   2.485
 2161SOL    HW2 7383   1.083   2.472   2.447
 2162SOL     OW 7384   0.869   6.946   2.161
 2162SOL    HW1 7385   0.925   6.979   2.085
 2162SOL    HW2 7386   0.772   6.964   2.141
 2163SOL     OW 7387   1.577   3.044   2.533
 2163SOL    HW1 7388   1.565   3.132   2.580
 2163SOL    HW2 7389   1.610   2.976   2.598
 2164SOL     OW 7390   1.600   2.663   2.564
 2164SOL    HW1 7391   1.658   2.737   2.597
 2164SOL    HW2 7392   1.506   2.695   2.556
 2165SOL     OW 7393   0.117   1.593   3.907
 2165SOL    HW1 7394   0.095   1.609   4.003
 2165SOL    HW2 7395   0.044   1.630   3.849
 2166SOL     OW 7396   6.842   3.995   2.721
 2166SOL    HW1 7397   6.827   3.905   2.682
 2166SOL    HW2 7398   6.843   3.989   2.821
 2167SOL     OW 7399   2.683   1.950   3.834
 2167SOL    HW1 7400   2.602   1.977   3.887
 2167SOL    HW2 7401   2.764   1.955   3.891
 2168SOL     OW 7402   2.007   1.536   3.058
 2168SOL    HW1 7403   2.104   1.537   3.081
 2168SOL    HW2 7404   1.983   1.620   3.008
 2169SOL     OW 7405   0.468   0.345   1.588
 2169SOL    HW1 7406   0.480   0.312   1.494
 2169SOL    HW2 7407   0.373   0.372   1.602
 2170SOL     OW 7408   0.555   4.163   5.479
 2170SOL    HW1 7409   0.597   4.095   5.418
 2170SOL    HW2 7410   0.614   4.243   5.485
 2171SOL     OW 7411   0.417   5.349   1.599
 2171SOL    HW1 7412   0.482   5.330   1.672
 2171SOL    HW2 7413   0.332   5.385   1.639
 2172SOL     OW 7414   1.040   1.544   4.653
 2172SOL    HW1 7415   0.993   1.632   4.644
 2172SOL    HW2 7416   1.135   1.555   4.623
 2173SOL     OW 7417   5.626   0.329   5.022
 2173SOL    HW1 7418   5.557   0.400   5.009
 2173SOL    HW2 7419   5.660   0.331   5.116
 2174SOL     OW 7420   0.105   6.514   5.547
 2174SOL    HW1 7421   0.068   6.449   5.613
 2174SOL    HW2 7422   0.154   6.587   5.595
 2175SOL     OW 7423   2.906   4.034   5.248
 2175SOL    HW1 7424   2.880   4.005   5.340
 2175SOL    HW2 7425   2.887   4.132   5.237
 2176SOL     OW 7426   5.590   1.909   1.614
 2176SOL    HW1 7427   5.570   1.860   1.529
 2176SOL    HW2 7428   5.679   1.953   1.607
 2177SOL     OW 7429   0.516   0.255   3.894
 2177SOL    HW1 7430   0.528   0.341   3.844
 2177SOL    HW2 7431   0.451   0.269   3.969
 2178SOL     OW 7432   0.938   2.063   2.479
 2178SOL    HW1 7433   0.946   2.072   2.578
 2178SOL    HW2 7434   0.891   1.977   2.457
 2179SOL     OW 7435   1.439   4.179   6.219
 2179SOL    HW1 7436   1.471   4.158   6.127
 2179SOL    HW2 7437   1.340   4.189   6.219
 2180SOL     OW 7438   0.830   6.362   2.299
 2180SOL    HW1 7439   0.896   6.423   2.257
 2180SOL    HW2 7440   0.857   6.344   2.394
 2181SOL     OW 7441   4.022   4.854   4.643
 2181SOL    HW1 7442   4.118   4.879   4.641
 2181SOL    HW2 7443   3.988   4.845   4.549
 2182SOL     OW 7444   0.205   5.157   2.511
 2182SOL    HW1 7445   0.252   5.183   2.595
 2182SOL    HW2 7446   0.225   5.061   2.490
 2183SOL     OW 7447   3.153   2.700   0.138
 2183SOL    HW1 7448   3.072   2.642   0.127
 2183SOL    HW2 7449   3.127   2.786   0.181
 2184SOL     OW 7450   6.364   1.242   6.567
 2184SOL    HW1 7451   6.313   1.300   6.631
 2184SOL    HW2 7452   6.419   1.176   6.619
 2185SOL     OW 7453   0.746   0.543   0.057
 2185SOL    HW1 7454   0.741   0.576   6.989
 2185SOL    HW2 7455   0.828   0.487   0.068
 2186SOL     OW 7456   6.972   4.813   5.418
 2186SOL    HW1 7457   6.967   4.912   5.412
 2186SOL    HW2 7458   0.024   4.787   5.474
 2187SOL     OW 7459   0.327   5.495   3.232
 2187SOL    HW1 7460   0.291   5.530   3.147
 2187SOL    HW2 7461   0.418   5.533   3.249
 2188SOL     OW 7462   2.160   0.486   1.027
 2188SOL    HW1 7463   2.122   0.578   1.040
 2188SOL    HW2 7464   2.108   0.421   1.083
 2189SOL     OW 7465   2.661   2.069   1.343
 2189SOL    HW1 7466   2.705   2.013   1.413
 2189SOL    HW2 7467   2.717   2.070   1.261
 2190SOL     OW 7468   6.202   4.156   2.341
 2190SOL    HW1 7469   6.256   4.236   2.315
 2190SOL    HW2 7470   6.106   4.173   2.317
 2191SOL     OW 7471   2.791   0.197   0.475
 2191SOL    HW1 7472   2.734   0.219   0.396
 2191SOL    HW2 7473   2.879   0.160   0.444
 2192SOL     OW 7474   4.297   1.458   1.059
 2192SOL    HW1 7475   4.263   1.414   0.976
 2192SOL    HW2 7476   4.221   1.479   1.120
 2193SOL     OW 7477   1.423   6.376   6.290
 2193SOL    HW1 7478   1.350   6.355   6.356
 2193SOL    HW2 7479   1.415   6.471   6.261
 2194SOL     OW 7480   0.787   3.564   6.217
 2194SOL    HW1 7481   0.790   3.621   6.135
 2194SOL    HW2 7482   0.742   3.478   6.198
 2195SOL     OW 7483   0.625   4.119   6.282
 2195SOL    HW1 7484   0.592   4.114   6.187
 2195SOL    HW2 7485   0.693   4.048   6.297
 2196SOL     OW 7486   2.861   6.523   5.608
 2196SOL    HW1 7487   2.947   6.472   5.615
 2196SOL    HW2 7488   2.857   6.591   5.682
 2197SOL     OW 7489   2.781   5.204   5.607
 2197SOL    HW1 7490   2.705   5.206   5.541
 2197SOL    HW2 7491   2.861   5.163   5.563
 2198SOL     OW 7492   0.702   0.827   6.490
 2198SOL    HW1 7493   0.722   0.765   6.413
 2198SOL    HW2 7494   0.637   0.897   6.460
 2199SOL     OW 7495   4.319   6.314   4.505
 2199SOL    HW1 7496   4.264   6.302   4.422
 2199SOL    HW2 7497   4.401   6.367   4.483
 2200SOL     OW 7498   2.784   1.816   4.454
 2200SOL    HW1 7499   2.806   1.870   4.535
 2200SOL    HW2 7500   2.716   1.864   4.399
 2201SOL     OW 7501   6.094   3.936   3.792
 2201SOL    HW1 7502   6.020   3.871   3.807
 2201SOL    HW2 7503   6.162   3.926   3.865
 2202SOL     OW 7504   4.021   5.803   2.121
 2202SOL    HW1 7505   4.037   5.778   2.217
 2202SOL    HW2 7506   4.101   5.851   2.086
 2203SOL     OW 7507   2.127   3.323   0.909
 2203SOL    HW1 7508   2.161   3.233   0.880
 2203SOL    HW2 7509   2.202   3.375   0.950
 2204SOL     OW 7510   5.129   3.052   1.172
 2204SOL    HW1 7511   5.114   2.966   1.123
 2204SOL    HW2 7512   5.224   3.058   1.201
 2205SOL     OW 7513   0.754   5.131   0.399
 2205SOL    HW1 7514   0.822   5.146   0.471
 2205SOL    HW2 7515   0.667   5.103   0.439
 2206SOL     OW 7516   2.546   2.160   6.023
 2206SOL    HW1 7517   2.529   2.217   6.104
 2206SOL    HW2 7518   2.583   2.217   5.950
 2207SOL     OW 7519   4.906   6.100   0.783
 2207SOL    HW1 7520   4.812   6.070   0.765
 2207SOL    HW2 7521   4.904   6.182   0.841
 2208SOL     OW 7522   0.786   6.013   4.249
 2208SOL    HW1 7523   0.823   6.101   4.218
 2208SOL    HW2 7524   0.713   6.030   4.316
 2209SOL     OW 7525   3.306   5.641   4.265
 2209SOL    HW1 7526   3.336   5.546   4.258
 2209SOL    HW2 7527   3.256   5.654   4.351
 2210SOL     OW 7528   4.747   6.342   1.295
 2210SOL    HW1 7529   4.690   6.421   1.317
 2210SOL    HW2 7530   4.689   6.265   1.268
 2211SOL     OW 7531   6.958   1.550   0.946
 2211SOL    HW1 7532   6.954   1.641   0.989
 2211SOL    HW2 7533   7.016   1.555   0.865
 2212SOL     OW 7534   2.664   5.904   6.478
 2212SOL    HW1 7535   2.631   5.817   6.441
 2212SOL    HW2 7536   2.592   5.948   6.530
 2213SOL     OW 7537   3.372   2.071   4.278
 2213SOL    HW1 7538   3.333   1.979   4.270
 2213SOL    HW2 7539   3.356   2.106   4.370
 2214SOL     OW 7540   3.942   3.473   6.438
 2214SOL    HW1 7541   3.980   3.380   6.432
 2214SOL    HW2 7542   4.011   3.538   6.407
 2215SOL     OW 7543   4.409   0.007   6.623
 2215SOL    HW1 7544   4.463   0.038   6.702
 2215SOL    HW2 7545   4.341   0.076   6.600
 2216SOL     OW 7546   0.797   6.976   6.151
 2216SOL    HW1 7547   0.756   7.017   6.069
 2216SOL    HW2 7548   0.837   0.021   6.208
 2217SOL     OW 7549   3.914   0.377   3.388
 2217SOL    HW1 7550   3.956   0.340   3.305
 2217SOL    HW2 7551   3.932   0.475   3.395
 2218SOL     OW 7552   0.512   5.309   6.096
 2218SOL    HW1 7553   0.480   5.294   6.190
 2218SOL    HW2 7554   0.484   5.232   6.039
 2219SOL     OW 7555   5.583   0.878   0.782
 2219SOL    HW1 7556   5.593   0.784   0.816
 2219SOL    HW2 7557   5.622   0.884   0.690
 2220SOL     OW 7558   0.618   5.813   5.469
 2220SOL    HW1 7559   0.549   5.847   5.533
 2220SOL    HW2 7560   0.642   5.719   5.492
 2221SOL     OW 7561   6.818   1.336   3.729
 2221SOL    HW1 7562   6.804   1.426   3.772
 2221SOL    HW2 7563   6.745   1.274   3.757
 2222SOL     OW 7564   4.777   5.902   1.684
 2222SOL    HW1 7565   4.709   5.940   1.748
 2222SOL    HW2 7566   4.758   5.935   1.592
 2223SOL     OW 7567   0.063   6.237   5.672
 2223SOL    HW1 7568   0.119   6.229   5.754
 2223SOL    HW2 7569   6.998   6.202   5.690
 2224SOL     OW 7570   5.569   3.890   0.629
 2224SOL    HW1 7571   5.511   3.820   0.588
 2224SOL    HW2 7572   5.664   3.859   0.631
 2225SOL     OW 7573   0.438   7.002   3.596
 2225SOL    HW1 7574   0.517   0.011   3.545
 2225SOL    HW2 7575   0.395   6.928   3.544
 2226SOL     OW 7576   2.454   5.261   0.746
 2226SOL    HW1 7577   2.474   5.355   0.716
 2226SOL    HW2 7578   2.365   5.259   0.791
 2227SOL     OW 7579   4.044   2.158   2.177
 2227SOL    HW1 7580   4.055   2.217   2.097
 2227SOL    HW2 7581   4.115   2.181   2.244
 2228SOL     OW 7582   5.168   4.924   0.151
 2228SOL    HW1 7583   5.199   4.856   0.085
 2228SOL    HW2 7584   5.210   5.012   0.130
 2229SOL     OW 7585   3.540   3.531   4.030
 2229SOL    HW1 7586   3.489   3.583   4.098
 2229SOL    HW2 7587   3.636   3.523   4.058
 2230SOL     OW 7588   5.326   6.522   0.646
 2230SOL    HW1 7589   5.380   6.465   0.584
 2230SOL    HW2 7590   5.308   6.610   0.602
 2231SOL     OW 7591   1.078   0.112   6.667
 2231SOL    HW1 7592   1.147   0.184   6.669
 2231SOL    HW2 7593   0.987   0.151   6.679
 2232SOL     OW 7594   1.519   0.570   5.398
 2232SOL    HW1 7595   1.497   0.488   5.345
 2232SOL    HW2 7596   1.466   0.570   5.482
 2233SOL     OW 7597   2.696   4.004   0.642
 2233SOL    HW1 7598   2.639   3.961   0.572
 2233SOL    HW2 7599   2.668   3.971   0.732
 2234SOL     OW 7600   4.241   1.401   0.799
 2234SOL    HW1 7601   4.263   1.325   0.738
 2234SOL    HW2 7602   4.313   1.470   0.794
 2235SOL     OW 7603   2.460   1.127   2.643
 2235SOL    HW1 7604   2.486   1.221   2.667
 2235SOL    HW2 7605   2.362   1.115   2.658
 2236SOL     OW 7606   2.025   4.184   5.405
 2236SOL    HW1 7607   1.958   4.183   5.331
 2236SOL    HW2 7608   1.978   4.181   5.493
 2237SOL     OW 7609   6.336   4.868   4.986
 2237SOL    HW1 7610   6.310   4.836   4.895
 2237SOL    HW2 7611   6.285   4.951   5.008
 2238SOL     OW 7612   5.336   4.268   2.384
 2238SOL    HW1 7613   5.428   4.257   2.421
 2238SOL    HW2 7614   5.342   4.276   2.284
 2239SOL     OW 7615   3.933   6.676   3.539
 2239SOL    HW1 7616   3.972   6.635   3.621
 2239SOL    HW2 7617   3.990   6.753   3.510
 2240SOL     OW 7618   4.620   5.337   3.388
 2240SOL    HW1 7619   4.692   5.381   3.442
 2240SOL    HW2 7620   4.531   5.372   3.415
 2241SOL     OW 7621   0.172   6.879   1.837
 2241SOL    HW1 7622   0.148   6.827   1.756
 2241SOL    HW2 7623   0.183   6.817   1.915
 2242SOL     OW 7624   4.905   3.040   2.806
 2242SOL    HW1 7625   4.845   3.050   2.727
 2242SOL    HW2 7626   4.986   2.988   2.780
 2243SOL     OW 7627   1.460   6.615   0.561
 2243SOL    HW1 7628   1.462   6.610   0.461
 2243SOL    HW2 7629   1.422   6.531   0.598
 2244SOL     OW 7630   2.337   0.501   0.782
 2244SOL    HW1 7631   2.308   0.415   0.741
 2244SOL    HW2 7632   2.270   0.531   0.850
 2245SOL     OW 7633   0.590   0.524   0.260
 2245SOL    HW1 7634   0.652   0.522   0.182
 2245SOL    HW2 7635   0.523   0.597   0.247
 2246SOL     OW 7636   2.078   1.016   5.197
 2246SOL    HW1 7637   2.019   1.070   5.137
 2246SOL    HW2 7638   2.173   1.024   5.166
 2247SOL     OW 7639   3.108   4.010   2.620
 2247SOL    HW1 7640   3.092   3.981   2.525
 2247SOL    HW2 7641   3.199   4.050   2.627
 2248SOL     OW 7642   5.659   4.072   5.471
 2248SOL    HW1 7643   5.707   4.028   5.395
 2248SOL    HW2 7644   5.679   4.170   5.471
 2249SOL     OW 7645   2.333   6.823   3.822
 2249SOL    HW1 7646   2.371   6.741   3.779
 2249SOL    HW2 7647   2.393   6.901   3.802
 2250SOL     OW 7648   4.337   4.569   6.157
 2250SOL    HW1 7649   4.297   4.660   6.151
 2250SOL    HW2 7650   4.293   4.518   6.231
 2251SOL     OW 7651   5.322   6.805   5.847
 2251SOL    HW1 7652   5.324   6.842   5.754
 2251SOL    HW2 7653   5.320   6.705   5.843
 2252SOL     OW 7654   4.583   1.746   2.701
 2252SOL    HW1 7655   4.487   1.718   2.706
 2252SOL    HW2 7656   4.633   1.680   2.645
 2253SOL     OW 7657   0.694   3.761   0.531
 2253SOL    HW1 7658   0.644   3.698   0.591
 2253SOL    HW2 7659   0.713   3.846   0.581
 2254SOL     OW 7660   3.788   3.500   2.969
 2254SOL    HW1 7661   3.688   3.498   2.966
 2254SOL    HW2 7662   3.824   3.418   2.925
 2255SOL     OW 7663   2.954   4.062   5.798
 2255SOL    HW1 7664   2.992   4.059   5.706
 2255SOL    HW2 7665   3.029   4.070   5.865
 2256SOL     OW 7666   4.988   6.509   2.035
 2256SOL    HW1 7667   4.904   6.464   2.005
 2256SOL    HW2 7668   4.974   6.608   2.036
 2257SOL     OW 7669   0.016   1.464   4.920
 2257SOL    HW1 7670   7.012   1.491   5.012
 2257SOL    HW2 7671   0.077   1.385   4.928
 2258SOL     OW 7672   2.166   6.629   4.528
 2258SOL    HW1 7673   2.206   6.719   4.544
 2258SOL    HW2 7674   2.172   6.606   4.431
 2259SOL     OW 7675   6.549   2.433   4.599
 2259SOL    HW1 7676   6.579   2.442   4.694
 2259SOL    HW2 7677   6.629   2.423   4.540
 2260SOL     OW 7678   1.117   3.960   1.561
 2260SOL    HW1 7679   1.023   3.994   1.550
 2260SOL    HW2 7680   1.119   3.862   1.541
 2261SOL     OW 7681   5.613   3.798   6.982
 2261SOL    HW1 7682   5.575   3.890   6.981
 2261SOL    HW2 7683   5.544   3.733   6.950
 2262SOL     OW 7684   6.411   0.445   4.541
 2262SOL    HW1 7685   6.455   0.462   4.629
 2262SOL    HW2 7686   6.470   0.386   4.485
 2263SOL     OW 7687   1.488   4.342   0.381
 2263SOL    HW1 7688   1.499   4.438   0.405
 2263SOL    HW2 7689   1.518   4.328   0.286
 2264SOL     OW 7690   2.039   6.955   6.311
 2264SOL    HW1 7691   2.115   6.996   6.261
 2264SOL    HW2 7692   2.003   7.021   6.377
 2265SOL     OW 7693   0.975   6.362   3.894
 2265SOL    HW1 7694   1.060   6.328   3.934
 2265SOL    HW2 7695   0.976   6.462   3.893
 2266SOL     OW 7696   4.814   1.391   6.663
 2266SOL    HW1 7697   4.886   1.460   6.649
 2266SOL    HW2 7698   4.777   1.365   6.575
 2267SOL     OW 7699   4.834   3.068   4.459
 2267SOL    HW1 7700   4.769   2.992   4.470
 2267SOL    HW2 7701   4.844   3.115   4.546
 2268SOL     OW 7702   6.581   4.533   6.104
 2268SOL    HW1 7703   6.501   4.487   6.065
 2268SOL    HW2 7704   6.650   4.543   6.033
 2269SOL     OW 7705   1.845   2.891   5.164
 2269SOL    HW1 7706   1.788   2.940   5.230
 2269SOL    HW2 7707   1.818   2.794   5.163
 2270SOL     OW 7708   4.972   2.371   6.266
 2270SOL    HW1 7709   5.019   2.408   6.186
 2270SOL    HW2 7710   4.876   2.356   6.244
 2271SOL     OW 7711   5.833   4.530   6.235
 2271SOL    HW1 7712   5.926   4.505   6.206
 2271SOL    HW2 7713   5.767   4.487   6.173
 2272SOL     OW 7714   6.232   1.221   5.971
 2272SOL    HW1 7715   6.211   1.292   6.037
 2272SOL    HW2 7716   6.250   1.135   6.019
 2273SOL     OW 7717   1.971   2.596   2.100
 2273SOL    HW1 7718   1.985   2.695   2.107
 2273SOL    HW2 7719   1.984   2.554   2.190
 2274SOL     OW 7720   0.796   1.066   0.242
 2274SOL    HW1 7721   0.858   1.076   0.319
 2274SOL    HW2 7722   0.787   0.970   0.218
 2275SOL     OW 7723   5.559   4.873   2.608
 2275SOL    HW1 7724   5.503   4.815   2.549
 2275SOL    HW2 7725   5.656   4.856   2.588
 2276SOL     OW 7726   1.763   1.442   1.581
 2276SOL    HW1 7727   1.673   1.469   1.549
 2276SOL    HW2 7728   1.796   1.365   1.526
 2277SOL     OW 7729   3.132   3.998   3.147
 2277SOL    HW1 7730   3.129   3.984   3.246
 2277SOL    HW2 7731   3.214   4.049   3.124
 2278SOL     OW 7732   0.715   2.203   3.610
 2278SOL    HW1 7733   0.670   2.275   3.555
 2278SOL    HW2 7734   0.812   2.223   3.617
 2279SOL     OW 7735   0.285   5.752   5.357
 2279SOL    HW1 7736   0.338   5.837   5.353
 2279SOL    HW2 7737   0.301   5.699   5.274
 2280SOL     OW 7738   4.781   1.333   4.974
 2280SOL    HW1 7739   4.800   1.239   4.999
 2280SOL    HW2 7740   4.826   1.354   4.887
 2281SOL     OW 7741   4.961   6.614   2.464
 2281SOL    HW1 7742   4.877   6.666   2.446
 2281SOL    HW2 7743   5.039   6.662   2.424
 2282SOL     OW 7744   4.072   5.744   5.553
 2282SOL    HW1 7745   4.016   5.707   5.479
 2282SOL    HW2 7746   4.023   5.737   5.639
 2283SOL     OW 7747   1.061   0.831   3.585
 2283SOL    HW1 7748   1.151   0.875   3.578
 2283SOL    HW2 7749   1.025   0.814   3.494
 2284SOL     OW 7750   1.390   3.012   5.946
 2284SOL    HW1 7751   1.466   2.950   5.967
 2284SOL    HW2 7752   1.317   2.998   6.013
 2285SOL     OW 7753   1.348   4.001   6.936
 2285SOL    HW1 7754   1.318   4.063   7.008
 2285SOL    HW2 7755   1.356   4.051   6.850
 2286SOL     OW 7756   4.800   6.278   3.877
 2286SOL    HW1 7757   4.861   6.339   3.826
 2286SOL    HW2 7758   4.852   6.199   3.910
 2287SOL     OW 7759   1.874   0.914   3.532
 2287SOL    HW1 7760   1.812   0.904   3.455
 2287SOL    HW2 7761   1.933   0.994   3.517
 2288SOL     OW 7762   0.189   5.691   3.456
 2288SOL    HW1 7763   0.261   5.742   3.502
 2288SOL    HW2 7764   0.227   5.608   3.415
 2289SOL     OW 7765   0.905   6.153   2.071
 2289SOL    HW1 7766   0.895   6.154   2.171
 2289SOL    HW2 7767   0.949   6.068   2.042
 2290SOL     OW 7768   0.924   5.099   1.388
 2290SOL    HW1 7769   0.851   5.033   1.403
 2290SOL    HW2 7770   0.883   5.188   1.367
 2291SOL     OW 7771   3.157   1.738   5.708
 2291SOL    HW1 7772   3.157   1.836   5.730
 2291SOL    HW2 7773   3.063   1.706   5.699
 2292SOL     OW 7774   1.262   0.929   4.664
 2292SOL    HW1 7775   1.282   0.882   4.751
 2292SOL    HW2 7776   1.165   0.921   4.644
 2293SOL     OW 7777   5.307   5.740   1.946
 2293SOL    HW1 7778   5.319   5.779   2.037
 2293SOL    HW2 7779   5.391   5.696   1.917
 2294SOL     OW 7780   4.256   6.544   6.890
 2294SOL    HW1 7781   4.196   6.574   6.816
 2294SOL    HW2 7782   4.309   6.621   6.924
 2295SOL     OW 7783   0.610   2.208   1.185
 2295SOL    HW1 7784   0.514   2.223   1.208
 2295SOL    HW2 7785   0.620   2.199   1.086
 2296SOL     OW 7786   3.232   6.974   0.321
 2296SOL    HW1 7787   3.197   0.036   0.353
 2296SOL    HW2 7788   3.195   6.955   0.230
 2297SOL     OW 7789   4.148   4.676   5.592
 2297SOL    HW1 7790   4.071   4.614   5.608
 2297SOL    HW2 7791   4.119   4.747   5.528
 2298SOL     OW 7792   3.582   1.991   1.478
 2298SOL    HW1 7793   3.626   1.925   1.417
 2298SOL    HW2 7794   3.624   1.985   1.569
 2299SOL     OW 7795   5.256   6.291   6.891
 2299SOL    HW1 7796   5.281   6.211   6.946
 2299SOL    HW2 7797   5.157   6.291   6.876
 2300SOL     OW 7798   1.648   5.149   1.686
 2300SOL    HW1 7799   1.650   5.238   1.639
 2300SOL    HW2 7800   1.711   5.086   1.639
 2301SOL     OW 7801   3.812   3.264   2.830
 2301SOL    HW1 7802   3.874   3.186   2.833
 2301SOL    HW2 7803   3.723   3.235   2.794
 2302SOL     OW 7804   3.061   5.465   2.999
 2302SOL    HW1 7805   3.023   5.536   3.058
 2302SOL    HW2 7806   3.093   5.507   2.913
 2303SOL     OW 7807   1.161   2.989   4.440
 2303SOL    HW1 7808   1.211   3.061   4.487
 2303SOL    HW2 7809   1.064   2.994   4.464
 2304SOL     OW 7810   2.303   1.102   3.553
 2304SOL    HW1 7811   2.233   1.119   3.622
 2304SOL    HW2 7812   2.259   1.089   3.463
 2305SOL     OW 7813   3.692   5.543   2.322
 2305SOL    HW1 7814   3.714   5.521   2.227
 2305SOL    HW2 7815   3.769   5.594   2.363
 2306SOL     OW 7816   2.022   4.429   1.689
 2306SOL    HW1 7817   2.066   4.340   1.685
 2306SOL    HW2 7818   1.923   4.418   1.676
 2307SOL     OW 7819   0.740   2.167   2.821
 2307SOL    HW1 7820   0.760   2.236   2.892
 2307SOL    HW2 7821   0.826   2.124   2.791
 2308SOL     OW 7822   0.817   0.641   6.832
 2308SOL    HW1 7823   0.741   0.699   6.803
 2308SOL    HW2 7824   0.857   0.596   6.753
 2309SOL     OW 7825   3.482   5.367   6.720
 2309SOL    HW1 7826   3.563   5.308   6.725
 2309SOL    HW2 7827   3.429   5.345   6.638
 2310SOL     OW 7828   5.864   1.130   1.663
 2310SOL    HW1 7829   5.843   1.033   1.670
 2310SOL    HW2 7830   5.935   1.154   1.729
 2311SOL     OW 7831   2.590   0.118   2.208
 2311SOL    HW1 7832   2.626   0.106   2.115
 2311SOL    HW2 7833   2.610   0.037   2.262
 2312SOL     OW 7834   4.314   0.253   2.740
 2312SOL    HW1 7835   4.283   0.221   2.651
 2312SOL    HW2 7836   4.258   0.331   2.768
 2313SOL     OW 7837   4.726   4.260   2.184
 2313SOL    HW1 7838   4.643   4.260   2.130
 2313SOL    HW2 7839   4.744   4.352   2.219
 2314SOL     OW 7840   6.036   0.808   3.740
 2314SOL    HW1 7841   5.999   0.803   3.832
 2314SOL    HW2 7842   5.973   0.858   3.680
 2315SOL     OW 7843   4.478   4.222   5.893
 2315SOL    HW1 7844   4.408   4.183   5.952
 2315SOL    HW2 7845   4.488   4.319   5.912
 2316SOL     OW 7846   2.977   1.132   6.243
 2316SOL    HW1 7847   2.948   1.104   6.151
 2316SOL    HW2 7848   3.077   1.129   6.248
 2317SOL     OW 7849   6.131   6.361   4.126
 2317SOL    HW1 7850   6.073   6.288   4.162
 2317SOL    HW2 7851   6.156   6.340   4.031
 2318SOL     OW 7852   2.289   4.257   4.356
 2318SOL    HW1 7853   2.278   4.235   4.454
 2318SOL    HW2 7854   2.357   4.329   4.346
 2319SOL     OW 7855   2.034   5.331   4.621
 2319SOL    HW1 7856   2.023   5.354   4.718
 2319SOL    HW2 7857   1.948   5.348   4.573
 2320SOL     OW 7858   1.067   3.367   5.503
 2320SOL    HW1 7859   1.121   3.449   5.483
 2320SOL    HW2 7860   1.088   3.296   5.437
 2321SOL     OW 7861   2.764   4.948   5.976
 2321SOL    HW1 7862   2.667   4.933   5.958
 2321SOL    HW2 7863   2.787   5.044   5.962
 2322SOL     OW 7864   2.132   3.641   2.170
 2322SOL    HW1 7865   2.113   3.713   2.102
 2322SOL    HW2 7866   2.168   3.561   2.124
 2323SOL     OW 7867   2.695   4.910   1.486
 2323SOL    HW1 7868   2.705   4.894   1.584
 2323SOL    HW2 7869   2.703   4.824   1.436
 2324SOL     OW 7870   0.284   5.977   2.197
 2324SOL    HW1 7871   0.354   5.934   2.140
 2324SOL    HW2 7872   0.197   5.929   2.186
 2325SOL     OW 7873   6.812   4.917   1.473
 2325SOL    HW1 7874   6.732   4.950   1.523
 2325SOL    HW2 7875   6.846   4.833   1.516
 2326SOL     OW 7876   1.657   6.635   6.905
 2326SOL    HW1 7877   1.562   6.609   6.892
 2326SOL    HW2 7878   1.691   6.680   6.822
 2327SOL     OW 7879   6.671   0.015   3.137
 2327SOL    HW1 7880   6.665   0.025   3.236
 2327SOL    HW2 7881   6.587   0.048   3.095
 2328SOL     OW 7882   1.531   2.081   2.151
 2328SOL    HW1 7883   1.516   2.158   2.213
 2328SOL    HW2 7884   1.451   2.068   2.094
 2329SOL     OW 7885   1.164   4.257   4.223
 2329SOL    HW1 7886   1.072   4.217   4.233
 2329SOL    HW2 7887   1.231   4.184   4.216
 2330SOL     OW 7888   6.603   2.751   0.259
 2330SOL    HW1 7889   6.566   2.706   0.340
 2330SOL    HW2 7890   6.680   2.810   0.285
 2331SOL     OW 7891   3.914   5.806   0.043
 2331SOL    HW1 7892   3.923   5.759   6.982
 2331SOL    HW2 7893   3.904   5.904   0.027
 2332SOL     OW 7894   6.359   6.890   5.717
 2332SOL    HW1 7895   6.404   6.831   5.651
 2332SOL    HW2 7896   6.425   6.955   5.756
 2333SOL     OW 7897   0.132   4.844   3.147
 2333SOL    HW1 7898   0.100   4.750   3.155
 2333SOL    HW2 7899   0.086   4.901   3.215
 2334SOL     OW 7900   1.471   1.083   6.327
 2334SOL    HW1 7901   1.546   1.018   6.314
 2334SOL    HW2 7902   1.464   1.106   6.425
 2335SOL     OW 7903   6.070   1.722   4.007
 2335SOL    HW1 7904   6.127   1.752   4.084
 2335SOL    HW2 7905   6.114   1.750   3.921
 2336SOL     OW 7906   2.538   1.538   4.069
 2336SOL    HW1 7907   2.629   1.498   4.058
 2336SOL    HW2 7908   2.510   1.583   3.985
 2337SOL     OW 7909   4.148   1.626   1.504
 2337SOL    HW1 7910   4.130   1.640   1.601
 2337SOL    HW2 7911   4.238   1.585   1.492
 2338SOL     OW 7912   0.909   3.444   4.101
 2338SOL    HW1 7913   0.951   3.535   4.098
 2338SOL    HW2 7914   0.816   3.452   4.136
 2339SOL     OW 7915   3.505   3.469   2.991
 2339SOL    HW1 7916   3.425   3.530   2.995
 2339SOL    HW2 7917   3.473   3.374   2.983
 2340SOL     OW 7918   1.085   5.288   6.768
 2340SOL    HW1 7919   1.070   5.379   6.808
 2340SOL    HW2 7920   1.175   5.254   6.795
 2341SOL     OW 7921   2.380   4.770   2.981
 2341SOL    HW1 7922   2.476   4.742   2.987
 2341SOL    HW2 7923   2.341   4.775   3.073
 2342SOL     OW 7924   2.713   6.611   4.154
 2342SOL    HW1 7925   2.692   6.561   4.070
 2342SOL    HW2 7926   2.628   6.628   4.204
 2343SOL     OW 7927   2.176   6.723   3.063
 2343SOL    HW1 7928   2.144   6.805   3.112
 2343SOL    HW2 7929   2.116   6.646   3.084
 2344SOL     OW 7930   6.835   5.331   0.650
 2344SOL    HW1 7931   6.894   5.270   0.703
 2344SOL    HW2 7932   6.739   5.314   0.675
 2345SOL     OW 7933   2.351   5.655   4.594
 2345SOL    HW1 7934   2.276   5.604   4.551
 2345SOL    HW2 7935   2.438   5.629   4.551
 2346SOL     OW 7936   4.188   3.353   5.921
 2346SOL    HW1 7937   4.161   3.277   5.979
 2346SOL    HW2 7938   4.269   3.398   5.959
 2347SOL     OW 7939   1.552   2.107   1.327
 2347SOL    HW1 7940   1.513   2.015   1.325
 2347SOL    HW2 7941   1.588   2.126   1.419
 2348SOL     OW 7942   1.842   6.107   3.685
 2348SOL    HW1 7943   1.933   6.092   3.723
 2348SOL    HW2 7944   1.816   6.203   3.700
 2349SOL     OW 7945   0.969   4.367   6.338
 2349SOL    HW1 7946   0.881   4.394   6.298
 2349SOL    HW2 7947   0.954   4.324   6.426
 2350SOL     OW 7948   5.665   3.593   6.024
 2350SOL    HW1 7949   5.704   3.656   5.956
 2350SOL    HW2 7950   5.598   3.533   5.979
 2351SOL     OW 7951   3.125   4.933   3.317
 2351SOL    HW1 7952   3.041   4.958   3.269
 2351SOL    HW2 7953   3.203   4.942   3.255
 2352SOL     OW 7954   6.553   3.144   3.685
 2352SOL    HW1 7955   6.547   3.130   3.784
 2352SOL    HW2 7956   6.586   3.060   3.642
 2353SOL     OW 7957   4.366   5.325   5.367
 2353SOL    HW1 7958   4.335   5.293   5.278
 2353SOL    HW2 7959   4.359   5.251   5.434
 2354SOL     OW 7960   2.633   2.340   4.558
 2354SOL    HW1 7961   2.609   2.434   4.584
 2354SOL    HW2 7962   2.689   2.342   4.475
 2355SOL     OW 7963   2.261   6.215   4.948
 2355SOL    HW1 7964   2.175   6.165   4.948
 2355SOL    HW2 7965   2.335   6.153   4.973
 2356SOL     OW 7966   1.245   2.910   6.974
 2356SOL    HW1 7967   1.337   2.879   6.997
 2356SOL    HW2 7968   1.251   2.990   6.914
 2357SOL     OW 7969   3.877   1.287   1.738
 2357SOL    HW1 7970   3.853   1.377   1.701
 2357SOL    HW2 7971   3.912   1.229   1.664
 2358SOL     OW 7972   2.437   5.062   5.645
 2358SOL    HW1 7973   2.514   5.003   5.671
 2358SOL    HW2 7974   2.399   5.104   5.728
 2359SOL     OW 7975   0.553   0.338   5.140
 2359SOL    HW1 7976   0.554   0.250   5.188
 2359SOL    HW2 7977   0.556   0.321   5.041
 2360SOL     OW 7978   6.593   3.793   0.709
 2360SOL    HW1 7979   6.626   3.861   0.774
 2360SOL    HW2 7980   6.663   3.776   0.640
 2361SOL     OW 7981   2.776   1.348   6.311
 2361SOL    HW1 7982   2.845   1.280   6.285
 2361SOL    HW2 7983   2.780   1.425   6.248
 2362SOL     OW 7984   2.972   5.396   3.804
 2362SOL    HW1 7985   2.945   5.339   3.881
 2362SOL    HW2 7986   3.071   5.412   3.806
 2363SOL     OW 7987   3.861   1.918   3.690
 2363SOL    HW1 7988   3.772   1.920   3.644
 2363SOL    HW2 7989   3.857   1.854   3.766
 2364SOL     OW 7990   1.139   2.640   2.071
 2364SOL    HW1 7991   1.067   2.656   2.003
 2364SOL    HW2 7992   1.211   2.709   2.060
 2365SOL     OW 7993   6.632   1.961   6.739
 2365SOL    HW1 7994   6.635   2.061   6.739
 2365SOL    HW2 7995   6.642   1.927   6.646
 2366SOL     OW 7996   3.442   4.974   0.610
 2366SOL    HW1 7997   3.441   5.065   0.567
 2366SOL    HW2 7998   3.525   4.964   0.665
 2367SOL     OW 7999   2.069   3.732   7.022
 2367SOL    HW1 8000   2.012   3.651   0.010
 2367SOL    HW2 8001   2.144   3.733   0.061
 2368SOL     OW 8002   5.597   6.963   4.136
 2368SOL    HW1 8003   5.565   6.955   4.230
 2368SOL    HW2 8004   5.689   7.003   4.136
 2369SOL     OW 8005   1.968   6.957   4.441
 2369SOL    HW1 8006   1.995   7.001   4.355
 2369SOL    HW2 8007   2.028   6.879   4.458
 2370SOL     OW 8008   5.738   3.369   6.770
 2370SOL    HW1 8009   5.750   3.468   6.767
 2370SOL    HW2 8010   5.827   3.324   6.767
 2371SOL     OW 8011   2.471   6.483   2.132
 2371SOL    HW1 8012   2.482   6.560   2.195
 2371SOL    HW2 8013   2.509   6.506   2.043
 2372SOL     OW 8014   0.221   2.475   1.890
 2372SOL    HW1 8015   0.151   2.530   1.845
 2372SOL    HW2 8016   0.305   2.477   1.835
 2373SOL     OW 8017   1.807   3.546   5.758
 2373SOL    HW1 8018   1.755   3.600   5.692
 2373SOL    HW2 8019   1.835   3.603   5.834
 2374SOL     OW 8020   6.505   2.547   4.902
 2374SOL    HW1 8021   6.542   2.455   4.912
 2374SOL    HW2 8022   6.533   2.603   4.980
 2375SOL     OW 8023   3.351   5.627   5.886
 2375SOL    HW1 8024   3.330   5.554   5.951
 2375SOL    HW2 8025   3.272   5.643   5.827
 2376SOL     OW 8026   5.691   3.583   3.855
 2376SOL    HW1 8027   5.703   3.588   3.954
 2376SOL    HW2 8028   5.596   3.607   3.832
 2377SOL     OW 8029   3.033   3.924   3.653
 2377SOL    HW1 8030   3.087   3.947   3.734
 2377SOL    HW2 8031   2.959   3.862   3.678
 2378SOL     OW 8032   4.768   2.094   0.088
 2378SOL    HW1 8033   4.772   2.045   0.001
 2378SOL    HW2 8034   4.747   2.190   0.070
 2379SOL     OW 8035   6.692   1.012   0.147
 2379SOL    HW1 8036   6.707   1.099   0.194
 2379SOL    HW2 8037   6.597   1.008   0.115
 2380SOL     OW 8038   0.033   2.741   0.409
 2380SOL    HW1 8039   0.036   2.797   0.492
 2380SOL    HW2 8040   0.039   2.644   0.434
 2381SOL     OW 8041   2.064   5.879   3.403
 2381SOL    HW1 8042   2.102   5.815   3.336
 2381SOL    HW2 8043   2.020   5.828   3.477
 2382SOL     OW 8044   1.676   3.502   4.480
 2382SOL    HW1 8045   1.744   3.431   4.497
 2382SOL    HW2 8046   1.602   3.495   4.547
 2383SOL     OW 8047   6.488   6.814   1.156
 2383SOL    HW1 8048   6.579   6.790   1.122
 2383SOL    HW2 8049   6.419   6.763   1.104
 2384SOL     OW 8050   4.891   2.009   2.268
 2384SOL    HW1 8051   4.879   2.007   2.367
 2384SOL    HW2 8052   4.984   2.037   2.246
 2385SOL     OW 8053   0.233   0.652   7.020
 2385SOL    HW1 8054   0.152   0.602   0.025
 2385SOL    HW2 8055   0.272   0.606   6.940
 2386SOL     OW 8056   5.259   5.949   4.630
 2386SOL    HW1 8057   5.284   5.914   4.721
 2386SOL    HW2 8058   5.306   5.896   4.560
 2387SOL     OW 8059   2.121   1.095   4.562
 2387SOL    HW1 8060   2.132   1.049   4.650
 2387SOL    HW2 8061   2.163   1.039   4.490
 2388SOL     OW 8062   6.749   2.811   3.992
 2388SOL    HW1 8063   6.670   2.776   4.042
 2388SOL    HW2 8064   6.719   2.876   3.922
 2389SOL     OW 8065   4.497   4.468   3.697
 2389SOL    HW1 8066   4.541   4.472   3.787
 2389SOL    HW2 8067   4.398   4.465   3.708
 2390SOL     OW 8068   4.091   3.290   2.660
 2390SOL    HW1 8069   4.078   3.217   2.594
 2390SOL    HW2 8070   4.078   3.379   2.615
 2391SOL     OW 8071   5.139   4.611   6.099
 2391SOL    HW1 8072   5.233   4.645   6.105
 2391SOL    HW2 8073   5.077   4.688   6.085
 2392SOL     OW 8074   2.672   6.824   6.652
 2392SOL    HW1 8075   2.574   6.809   6.658
 2392SOL    HW2 8076   2.703   6.879   6.730
 2393SOL     OW 8077   4.780   4.267   6.036
 2393SOL    HW1 8078   4.855   4.293   6.097
 2393SOL    HW2 8079   4.713   4.213   6.087
 2394SOL     OW 8080   7.018   3.816   4.889
 2394SOL    HW1 8081   0.008   3.722   4.920
 2394SOL    HW2 8082   0.033   3.828   4.798
 2395SOL     OW 8083   4.795   6.907   5.817
 2395SOL    HW1 8084   4.777   7.002   5.792
 2395SOL    HW2 8085   4.830   6.903   5.910
 2396SOL     OW 8086   3.945   5.167   0.793
 2396SOL    HW1 8087   3.914   5.202   0.705
 2396SOL    HW2 8088   4.042   5.189   0.806
 2397SOL     OW 8089   0.326   4.097   4.333
 2397SOL    HW1 8090   0.340   4.185   4.288
 2397SOL    HW2 8091   0.397   4.083   4.402
 2398SOL     OW 8092   5.111   4.008   0.100
 2398SOL    HW1 8093   5.131   4.106   0.099
 2398SOL    HW2 8094   5.186   3.959   0.145
 2399SOL     OW 8095   4.201   0.850   1.070
 2399SOL    HW1 8096   4.226   0.890   1.159
 2399SOL    HW2 8097   4.203   0.920   1.000
 2400SOL     OW 8098   2.369   4.086   0.675
 2400SOL    HW1 8099   2.353   4.004   0.620
 2400SOL    HW2 8100   2.462   4.085   0.711
 2401SOL     OW 8101   5.654   5.813   6.685
 2401SOL    HW1 8102   5.732   5.823   6.747
 2401SOL    HW2 8103   5.596   5.738   6.717
 2402SOL     OW 8104   0.779   0.079   4.559
 2402SOL    HW1 8105   0.831   0.023   4.624
 2402SOL    HW2 8106   0.814   0.064   4.467
 2403SOL     OW 8107   0.991   2.640   5.730
 2403SOL    HW1 8108   1.048   2.692   5.793
 2403SOL    HW2 8109   0.903   2.687   5.719
 2404SOL     OW 8110   2.405   1.437   1.284
 2404SOL    HW1 8111   2.413   1.343   1.317
 2404SOL    HW2 8112   2.328   1.482   1.329
 2405SOL     OW 8113   3.380   4.048   2.664
 2405SOL    HW1 8114   3.400   4.092   2.577
 2405SOL    HW2 8115   3.455   4.063   2.728
 2406SOL     OW 8116   3.662   1.236   1.399
 2406SOL    HW1 8117   3.756   1.219   1.430
 2406SOL    HW2 8118   3.599   1.181   1.453
 2407SOL     OW 8119   5.812   2.100   3.825
 2407SOL    HW1 8120   5.761   2.126   3.742
 2407SOL    HW2 8121   5.802   2.001   3.840
 2408SOL     OW 8122   4.481   4.470   2.288
 2408SOL    HW1 8123   4.462   4.402   2.359
 2408SOL    HW2 8124   4.490   4.424   2.200
 2409SOL     OW 8125   2.342   3.853   1.598
 2409SOL    HW1 8126   2.357   3.898   1.510
 2409SOL    HW2 8127   2.386   3.763   1.597
 2410SOL     OW 8128   3.839   3.498   4.070
 2410SOL    HW1 8129   3.806   3.407   4.048
 2410SOL    HW2 8130   3.859   3.548   3.986
 2411SOL     OW 8131   5.451   6.421   4.978
 2411SOL    HW1 8132   5.399   6.339   5.000
 2411SOL    HW2 8133   5.388   6.499   4.971
 2412SOL     OW 8134   5.693   3.910   1.478
 2412SOL    HW1 8135   5.695   3.869   1.387
 2412SOL    HW2 8136   5.642   3.851   1.540
 2413SOL     OW 8137   5.676   0.318   1.523
 2413SOL    HW1 8138   5.690   0.309   1.424
 2413SOL    HW2 8139   5.758   0.288   1.571
 2414SOL     OW 8140   4.934   3.843   3.735
 2414SOL    HW1 8141   4.972   3.934   3.751
 2414SOL    HW2 8142   4.887   3.841   3.646
 2415SOL     OW 8143   6.127   1.303   2.296
 2415SOL    HW1 8144   6.158   1.398   2.302
 2415SOL    HW2 8145   6.157   1.252   2.376
 2416SOL     OW 8146   5.564   2.100   5.968
 2416SOL    HW1 8147   5.641   2.056   6.014
 2416SOL    HW2 8148   5.511   2.153   6.035
 2417SOL     OW 8149   3.024   3.283   4.881
 2417SOL    HW1 8150   3.010   3.201   4.825
 2417SOL    HW2 8151   2.976   3.272   4.968
 2418SOL     OW 8152   3.407   3.278   3.961
 2418SOL    HW1 8153   3.471   3.219   3.911
 2418SOL    HW2 8154   3.457   3.354   4.002
 2419SOL     OW 8155   0.654   6.864   3.277
 2419SOL    HW1 8156   0.586   6.866   3.204
 2419SOL    HW2 8157   0.648   6.949   3.329
 2420SOL     OW 8158   2.988   0.407   1.864
 2420SOL    HW1 8159   3.073   0.387   1.914
 2420SOL    HW2 8160   2.982   0.505   1.845
 2421SOL     OW 8161   1.939   2.972   4.409
 2421SOL    HW1 8162   2.021   3.028   4.419
 2421SOL    HW2 8163   1.890   2.999   4.326
 2422SOL     OW 8164   5.133   1.862   0.962
 2422SOL    HW1 8165   5.116   1.875   0.864
 2422SOL    HW2 8166   5.228   1.887   0.983
 2423SOL     OW 8167   2.885   6.340   2.522
 2423SOL    HW1 8168   2.861   6.285   2.602
 2423SOL    HW2 8169   2.961   6.298   2.473
 2424SOL     OW 8170   5.697   1.371   0.315
 2424SOL    HW1 8171   5.620   1.429   0.341
 2424SOL    HW2 8172   5.668   1.308   0.243
 2425SOL     OW 8173   6.205   0.460   4.164
 2425SOL    HW1 8174   6.188   0.397   4.239
 2425SOL    HW2 8175   6.197   0.412   4.077
 2426SOL     OW 8176   2.498   4.902   4.710
 2426SOL    HW1 8177   2.539   4.830   4.654
 2426SOL    HW2 8178   2.436   4.861   4.777
 2427SOL     OW 8179   5.938   6.113   4.992
 2427SOL    HW1 8180   5.969   6.108   4.897
 2427SOL    HW2 8181   5.980   6.192   5.037
 2428SOL     OW 8182   0.721   0.466   1.627
 2428SOL    HW1 8183   0.627   0.433   1.632
 2428SOL    HW2 8184   0.721   0.566   1.618
 2429SOL     OW 8185   5.486   5.854   1.237
 2429SOL    HW1 8186   5.535   5.926   1.285
 2429SOL    HW2 8187   5.547   5.775   1.224
 2430SOL     OW 8188   5.921   0.745   2.602
 2430SOL    HW1 8189   5.831   0.739   2.646
 2430SOL    HW2 8190   5.924   0.685   2.522
 2431SOL     OW 8191   4.291   0.883   2.226
 2431SOL    HW1 8192   4.251   0.791   2.222
 2431SOL    HW2 8193   4.232   0.942   2.281
 2432SOL     OW 8194   4.439   6.089   1.819
 2432SOL    HW1 8195   4.382   6.152   1.873
 2432SOL    HW2 8196   4.503   6.042   1.880
 2433SOL     OW 8197   4.549   0.469   7.026
 2433SOL    HW1 8198   4.609   0.498   0.074
 2433SOL    HW2 8199   4.524   0.373   0.013
 2434SOL     OW 8200   3.820   1.053   6.284
 2434SOL    HW1 8201   3.813   1.091   6.192
 2434SOL    HW2 8202   3.895   0.987   6.287
 2435SOL     OW 8203   6.368   5.699   5.204
 2435SOL    HW1 8204   6.299   5.765   5.174
 2435SOL    HW2 8205   6.388   5.712   5.301
 2436SOL     OW 8206   2.455   5.935   0.517
 2436SOL    HW1 8207   2.442   5.888   0.604
 2436SOL    HW2 8208   2.486   6.028   0.533
 2437SOL     OW 8209   0.243   5.967   5.734
 2437SOL    HW1 8210   0.218   6.028   5.809
 2437SOL    HW2 8211   0.160   5.926   5.696
 2438SOL     OW 8212   2.902   2.513   0.820
 2438SOL    HW1 8213   2.963   2.443   0.858
 2438SOL    HW2 8214   2.808   2.492   0.846
 2439SOL     OW 8215   5.978   4.098   5.524
 2439SOL    HW1 8216   5.980   4.001   5.547
 2439SOL    HW2 8217   6.018   4.112   5.434
 2440SOL     OW 8218   5.712   5.116   5.808
 2440SOL    HW1 8219   5.672   5.025   5.818
 2440SOL    HW2 8220   5.651   5.184   5.848
 2441SOL     OW 8221   5.523   2.309   0.410
 2441SOL    HW1 8222   5.493   2.269   0.323
 2441SOL    HW2 8223   5.623   2.313   0.412
 2442SOL     OW 8224   0.861   3.815   4.814
 2442SOL    HW1 8225   0.908   3.789   4.898
 2442SOL    HW2 8226   0.912   3.781   4.735
 2443SOL     OW 8227   2.766   4.489   6.344
 2443SOL    HW1 8228   2.735   4.415   6.285
 2443SOL    HW2 8229   2.687   4.534   6.386
 2444SOL     OW 8230   2.496   3.928   5.944
 2444SOL    HW1 8231   2.459   3.868   6.015
 2444SOL    HW2 8232   2.561   3.878   5.887
 2445SOL     OW 8233   0.454   0.896   1.063
 2445SOL    HW1 8234   0.427   0.800   1.057
 2445SOL    HW2 8235   0.373   0.954   1.068
 2446SOL     OW 8236   6.298   4.797   5.248
 2446SOL    HW1 8237   6.213   4.843   5.274
 2446SOL    HW2 8238   6.317   4.814   5.151
 2447SOL     OW 8239   0.736   1.494   0.381
 2447SOL    HW1 8240   0.808   1.551   0.419
 2447SOL    HW2 8241   0.720   1.415   0.440
 2448SOL     OW 8242   1.115   0.382   4.462
 2448SOL    HW1 8243   1.190   0.318   4.480
 2448SOL    HW2 8244   1.053   0.342   4.395
 2449SOL     OW 8245   0.141   3.784   5.830
 2449SOL    HW1 8246   0.081   3.793   5.750
 2449SOL    HW2 8247   0.142   3.688   5.860
 2450SOL     OW 8248   2.128   3.792   2.990
 2450SOL    HW1 8249   2.122   3.726   2.916
 2450SOL    HW2 8250   2.163   3.747   3.072
 2451SOL     OW 8251   2.067   6.058   3.998
 2451SOL    HW1 8252   2.055   6.082   4.094
 2451SOL    HW2 8253   2.111   6.133   3.950
 2452SOL     OW 8254   1.115   2.553   4.203
 2452SOL    HW1 8255   1.194   2.579   4.147
 2452SOL    HW2 8256   1.143   2.544   4.298
 2453SOL     OW 8257   6.869   3.963   1.512
 2453SOL    HW1 8258   6.937   4.015   1.462
 2453SOL    HW2 8259   6.810   3.913   1.448
 2454SOL     OW 8260   2.940   0.962   2.278
 2454SOL    HW1 8261   3.018   0.985   2.336
 2454SOL    HW2 8262   2.918   1.040   2.219
 2455SOL     OW 8263   5.893   5.787   0.466
 2455SOL    HW1 8264   5.836   5.842   0.405
 2455SOL    HW2 8265   5.915   5.700   0.421
 2456SOL     OW 8266   4.575   6.930   1.301
 2456SOL    HW1 8267   4.521   6.925   1.385
 2456SOL    HW2 8268   4.636   6.851   1.295
 2457SOL     OW 8269   5.607   6.382   1.439
 2457SOL    HW1 8270   5.597   6.285   1.464
 2457SOL    HW2 8271   5.653   6.389   1.351
 2458SOL     OW 8272   0.549   5.443   3.717
 2458SOL    HW1 8273   0.601   5.504   3.776
 2458SOL    HW2 8274   0.473   5.403   3.769
 2459SOL     OW 8275   2.228   0.137   0.940
 2459SOL    HW1 8276   2.183   0.142   0.851
 2459SOL    HW2 8277   2.310   0.194   0.939
 2460SOL     OW 8278   3.058   5.689   1.797
 2460SOL    HW1 8279   3.000   5.771   1.791
 2460SOL    HW2 8280   3.152   5.716   1.818
 2461SOL     OW 8281   5.540   0.846   2.418
 2461SOL    HW1 8282   5.463   0.846   2.353
 2461SOL    HW2 8283   5.626   0.840   2.367
 2462SOL     OW 8284   2.132   4.748   6.412
 2462SOL    HW1 8285   2.077   4.823   6.449
 2462SOL    HW2 8286   2.109   4.733   6.316
 2463SOL     OW 8287   6.656   1.734   4.232
 2463SOL    HW1 8288   6.609   1.743   4.320
 2463SOL    HW2 8289   6.658   1.638   4.205
 2464SOL     OW 8290   1.517   3.363   1.064
 2464SOL    HW1 8291   1.437   3.355   1.123
 2464SOL    HW2 8292   1.488   3.369   0.968
 2465SOL     OW 8293   6.404   5.487   3.634
 2465SOL    HW1 8294   6.480   5.432   3.669
 2465SOL    HW2 8295   6.440   5.569   3.589
 2466SOL     OW 8296   3.743   1.491   2.677
 2466SOL    HW1 8297   3.765   1.588   2.668
 2466SOL    HW2 8298   3.728   1.452   2.587
 2467SOL     OW 8299   6.894   1.262   5.884
 2467SOL    HW1 8300   6.853   1.270   5.975
 2467SOL    HW2 8301   6.893   1.166   5.856
 2468SOL     OW 8302   0.108   4.695   0.756
 2468SOL    HW1 8303   0.047   4.639   0.699
 2468SOL    HW2 8304   0.163   4.635   0.814
 2469SOL     OW 8305   2.938   2.897   5.663
 2469SOL    HW1 8306   2.994   2.835   5.609
 2469SOL    HW2 8307   2.894   2.964   5.602
 2470SOL     OW 8308   5.513   2.987   0.206
 2470SOL    HW1 8309   5.481   2.893   0.193
 2470SOL    HW2 8310   5.442   3.040   0.252
 2471SOL     OW 8311   1.171   0.348   3.566
 2471SOL    HW1 8312   1.146   0.418   3.633
 2471SOL    HW2 8313   1.141   0.376   3.475
 2472SOL     OW 8314   6.086   1.626   3.323
 2472SOL    HW1 8315   6.095   1.531   3.293
 2472SOL    HW2 8316   6.045   1.629   3.414
 2473SOL     OW 8317   0.909   6.778   5.031
 2473SOL    HW1 8318   0.832   6.828   4.992
 2473SOL    HW2 8319   0.880   6.686   5.056
 2474SOL     OW 8320   5.928   5.461   4.799
 2474SOL    HW1 8321   5.878   5.410   4.869
 2474SOL    HW2 8322   5.996   5.400   4.757
 2475SOL     OW 8323   3.960   2.292   0.224
 2475SOL    HW1 8324   3.961   2.193   0.211
 2475SOL    HW2 8325   3.886   2.318   0.286
 2476SOL     OW 8326   0.175   2.149   4.198
 2476SOL    HW1 8327   0.140   2.088   4.270
 2476SOL    HW2 8328   0.120   2.233   4.196
 2477SOL     OW 8329   4.565   5.010   1.458
 2477SOL    HW1 8330   4.494   5.063   1.412
 2477SOL    HW2 8331   4.635   5.072   1.493
 2478SOL     OW 8332   6.651   6.618   3.268
 2478SOL    HW1 8333   6.645   6.714   3.294
 2478SOL    HW2 8334   6.616   6.561   3.342
 2479SOL     OW 8335   0.668   3.808   0.129
 2479SOL    HW1 8336   0.749   3.858   0.156
 2479SOL    HW2 8337   0.597   3.818   0.200
 2480SOL     OW 8338   0.412   3.633   1.596
 2480SOL    HW1 8339   0.330   3.626   1.540
 2480SOL    HW2 8340   0.482   3.686   1.548
 2481SOL     OW 8341   4.333   5.522   2.508
 2481SOL    HW1 8342   4.305   5.443   2.563
 2481SOL    HW2 8343   4.265   5.538   2.437
 2482SOL     OW 8344   4.363   2.419   4.083
 2482SOL    HW1 8345   4.404   2.355   4.018
 2482SOL    HW2 8346   4.391   2.512   4.060
 2483SOL     OW 8347   0.770   1.844   6.478
 2483SOL    HW1 8348   0.870   1.845   6.483
 2483SOL    HW2 8349   0.737   1.754   6.507
 2484SOL     OW 8350   3.309   2.237   6.579
 2484SOL    HW1 8351   3.320   2.160   6.516
 2484SOL    HW2 8352   3.357   2.316   6.543
 2485SOL     OW 8353   0.454   5.981   2.632
 2485SOL    HW1 8354   0.384   5.990   2.560
 2485SOL    HW2 8355   0.411   5.994   2.721
 2486SOL     OW 8356   1.079   4.876   3.260
 2486SOL    HW1 8357   1.066   4.916   3.351
 2486SOL    HW2 8358   1.007   4.908   3.199
 2487SOL     OW 8359   3.251   0.809   0.727
 2487SOL    HW1 8360   3.289   0.763   0.806
 2487SOL    HW2 8361   3.252   0.908   0.742
 2488SOL     OW 8362   3.388   6.331   6.421
 2488SOL    HW1 8363   3.422   6.308   6.330
 2488SOL    HW2 8364   3.367   6.428   6.425
 2489SOL     OW 8365   0.073   5.931   4.216
 2489SOL    HW1 8366   0.109   5.866   4.283
 2489SOL    HW2 8367   0.016   5.998   4.263
 2490SOL     OW 8368   5.011   3.566   1.604
 2490SOL    HW1 8369   5.053   3.642   1.554
 2490SOL    HW2 8370   5.056   3.557   1.693
 2491SOL     OW 8371   1.140   3.983   2.641
 2491SOL    HW1 8372   1.062   4.043   2.657
 2491SOL    HW2 8373   1.119   3.921   2.565
 2492SOL     OW 8374   4.265   2.718   5.987
 2492SOL    HW1 8375   4.278   2.668   5.901
 2492SOL    HW2 8376   4.214   2.803   5.968
 2493SOL     OW 8377   6.201   1.879   4.182
 2493SOL    HW1 8378   6.201   1.888   4.282
 2493SOL    HW2 8379   6.246   1.959   4.142
 2494SOL     OW 8380   4.860   3.859   1.254
 2494SOL    HW1 8381   4.931   3.791   1.271
 2494SOL    HW2 8382   4.884   3.945   1.299
 2495SOL     OW 8383   5.940   1.479   4.117
 2495SOL    HW1 8384   6.006   1.458   4.190
 2495SOL    HW2 8385   5.985   1.531   4.045
 2496SOL     OW 8386   1.018   6.163   6.790
 2496SOL    HW1 8387   1.005   6.122   6.700
 2496SOL    HW2 8388   1.115   6.177   6.807
 2497SOL     OW 8389   5.414   2.233   6.157
 2497SOL    HW1 8390   5.463   2.272   6.234
 2497SOL    HW2 8391   5.336   2.179   6.190
 2498SOL     OW 8392   1.044   3.990   4.615
 2498SOL    HW1 8393   0.995   3.999   4.529
 2498SOL    HW2 8394   1.065   3.893   4.631
 2499SOL     OW 8395   5.881   0.611   5.807
 2499SOL    HW1 8396   5.979   0.600   5.824
 2499SOL    HW2 8397   5.831   0.533   5.846
 2500SOL     OW 8398   4.685   3.104   6.370
 2500SOL    HW1 8399   4.619   3.037   6.404
 2500SOL    HW2 8400   4.769   3.098   6.424
 2501SOL     OW 8401   6.375   4.806   0.356
 2501SOL    HW1 8402   6.342   4.785   0.448
 2501SOL    HW2 8403   6.353   4.901   0.333
 2502SOL     OW 8404   2.069   6.923   3.216
 2502SOL    HW1 8405   2.048   7.006   3.164
 2502SOL    HW2 8406   2.061   6.942   3.313
 2503SOL     OW 8407   4.825   6.164   4.575
 2503SOL    HW1 8408   4.786   6.072   4.584
 2503SOL    HW2 8409   4.925   6.159   4.581
 2504SOL     OW 8410   2.001   4.145   3.334
 2504SOL    HW1 8411   1.955   4.069   3.289
 2504SOL    HW2 8412   2.091   4.115   3.367
 2505SOL     OW 8413   4.553   4.840   3.846
 2505SOL    HW1 8414   4.464   4.796   3.852
 2505SOL    HW2 8415   4.610   4.812   3.923
 2506SOL     OW 8416   0.378   1.272   0.863
 2506SOL    HW1 8417   0.325   1.194   0.896
 2506SOL    HW2 8418   0.316   1.347   0.839
 2507SOL     OW 8419   6.688   5.660   1.041
 2507SOL    HW1 8420   6.629   5.732   1.005
 2507SOL    HW2 8421   6.763   5.701   1.092
 2508SOL     OW 8422   2.379   2.734   2.062
 2508SOL    HW1 8423   2.401   2.667   2.133
 2508SOL    HW2 8424   2.456   2.741   1.999
 2509SOL     OW 8425   5.088   1.992   3.391
 2509SOL    HW1 8426   5.148   2.062   3.428
 2509SOL    HW2 8427   5.082   1.916   3.455
 2510SOL     OW 8428   3.414   5.910   0.879
 2510SOL    HW1 8429   3.457   5.832   0.924
 2510SOL    HW2 8430   3.340   5.945   0.936
 2511SOL     OW 8431   1.096   6.794   4.376
 2511SOL    HW1 8432   1.174   6.844   4.413
 2511SOL    HW2 8433   1.065   6.727   4.444
 2512SOL     OW 8434   5.011   3.055   4.267
 2512SOL    HW1 8435   4.941   3.079   4.335
 2512SOL    HW2 8436   5.078   2.993   4.308
 2513SOL     OW 8437   0.411   4.806   1.301
 2513SOL    HW1 8438   0.447   4.802   1.394
 2513SOL    HW2 8439   0.450   4.885   1.254
 2514SOL     OW 8440   1.038   1.707   4.245
 2514SOL    HW1 8441   0.980   1.735   4.168
 2514SOL    HW2 8442   1.119   1.765   4.249
 2515SOL     OW 8443   0.881   4.687   0.475
 2515SOL    HW1 8444   0.852   4.704   0.381
 2515SOL    HW2 8445   0.960   4.745   0.497
 2516SOL     OW 8446   4.746   6.268   4.178
 2516SOL    HW1 8447   4.742   6.186   4.120
 2516SOL    HW2 8448   4.841   6.287   4.202
 2517SOL     OW 8449   2.624   4.873   0.411
 2517SOL    HW1 8450   2.545   4.852   0.468
 2517SOL    HW2 8451   2.652   4.968   0.426
 2518SOL     OW 8452   2.620   1.897   6.051
 2518SOL    HW1 8453   2.599   1.995   6.056
 2518SOL    HW2 8454   2.644   1.863   6.142
 2519SOL     OW 8455   5.223   4.347   4.826
 2519SOL    HW1 8456   5.131   4.315   4.805
 2519SOL    HW2 8457   5.248   4.420   4.762
 2520SOL     OW 8458   2.484   4.983   2.118
 2520SOL    HW1 8459   2.506   5.072   2.078
 2520SOL    HW2 8460   2.388   4.962   2.103
 2521SOL     OW 8461   6.072   6.915   5.695
 2521SOL    HW1 8462   6.002   6.984   5.681
 2521SOL    HW2 8463   6.160   6.949   5.663
 2522SOL     OW 8464   1.165   3.202   5.304
 2522SOL    HW1 8465   1.253   3.241   5.281
 2522SOL    HW2 8466   1.160   3.108   5.270
 2523SOL     OW 8467   6.774   2.957   6.837
 2523SOL    HW1 8468   6.864   3.001   6.839
 2523SOL    HW2 8469   6.783   2.863   6.804
 2524SOL     OW 8470   0.776   0.099   4.976
 2524SOL    HW1 8471   0.819   0.041   4.906
 2524SOL    HW2 8472   0.714   0.043   5.031
 2525SOL     OW 8473   1.910   4.435   2.845
 2525SOL    HW1 8474   1.925   4.400   2.752
 2525SOL    HW2 8475   1.988   4.491   2.872
 2526SOL     OW 8476   0.688   1.748   5.764
 2526SOL    HW1 8477   0.672   1.846   5.777
 2526SOL    HW2 8478   0.680   1.725   5.667
 2527SOL     OW 8479   5.777   6.781   3.727
 2527SOL    HW1 8480   5.810   6.790   3.821
 2527SOL    HW2 8481   5.815   6.698   3.687
 2528SOL     OW 8482   5.970   5.165   0.441
 2528SOL    HW1 8483   5.892   5.103   0.438
 2528SOL    HW2 8484   6.050   5.116   0.475
 2529SOL     OW 8485   5.301   3.918   5.037
 2529SOL    HW1 8486   5.394   3.904   5.002
 2529SOL    HW2 8487   5.247   3.836   5.020
 2530SOL     OW 8488   1.330   6.955   3.951
 2530SOL    HW1 8489   1.333   6.918   3.858
 2530SOL    HW2 8490   1.235   6.957   3.982
 2531SOL     OW 8491   5.021   1.589   0.307
 2531SOL    HW1 8492   4.944   1.602   0.369
 2531SOL    HW2 8493   5.035   1.491   0.291
 2532SOL     OW 8494   1.470   4.480   5.791
 2532SOL    HW1 8495   1.557   4.528   5.783
 2532SOL    HW2 8496   1.395   4.546   5.779
 2533SOL     OW 8497   6.052   6.386   5.083
 2533SOL    HW1 8498   6.150   6.378   5.100
 2533SOL    HW2 8499   6.006   6.415   5.166
 2534SOL     OW 8500   6.639   1.846   3.512
 2534SOL    HW1 8501   6.578   1.886   3.444
 2534SOL    HW2 8502   6.645   1.748   3.498
 2535SOL     OW 8503   2.173   0.895   2.931
 2535SOL    HW1 8504   2.155   0.925   2.837
 2535SOL    HW2 8505   2.241   0.821   2.929
 2536SOL     OW 8506   6.281   0.914   3.802
 2536SOL    HW1 8507   6.351   0.844   3.783
 2536SOL    HW2 8508   6.191   0.878   3.779
 2537SOL     OW 8509   4.254   5.117   1.525
 2537SOL    HW1 8510   4.220   5.147   1.436
 2537SOL    HW2 8511   4.314   5.037   1.513
 2538SOL     OW 8512   1.661   4.616   4.908
 2538SOL    HW1 8513   1.680   4.666   4.993
 2538SOL    HW2 8514   1.732   4.547   4.893
 2539SOL     OW 8515   2.675   0.482   5.832
 2539SOL    HW1 8516   2.732   0.546   5.883
 2539SOL    HW2 8517   2.728   0.442   5.758
 2540SOL     OW 8518   5.719   1.888   2.239
 2540SOL    HW1 8519   5.800   1.889   2.297
 2540SOL    HW2 8520   5.645   1.839   2.285
 2541SOL     OW 8521   0.496   6.846   5.509
 2541SOL    HW1 8522   0.410   6.895   5.514
 2541SOL    HW2 8523   0.518   6.826   5.413
 2542SOL     OW 8524   3.460   1.563   4.131
 2542SOL    HW1 8525   3.436   1.505   4.054
 2542SOL    HW2 8526   3.522   1.636   4.100
 2543SOL     OW 8527   0.198   2.424   4.789
 2543SOL    HW1 8528   0.118   2.426   4.850
 2543SOL    HW2 8529   0.173   2.380   4.703
 2544SOL     OW 8530   6.175   5.841   2.718
 2544SOL    HW1 8531   6.213   5.751   2.741
 2544SOL    HW2 8532   6.108   5.868   2.788
 2545SOL     OW 8533   6.228   2.205   0.386
 2545SOL    HW1 8534   6.162   2.276   0.408
 2545SOL    HW2 8535   6.180   2.124   0.351
 2546SOL     OW 8536   6.300   4.207   2.673
 2546SOL    HW1 8537   6.344   4.166   2.593
 2546SOL    HW2 8538   6.219   4.154   2.698
 2547SOL     OW 8539   5.524   3.771   0.936
 2547SOL    HW1 8540   5.617   3.783   0.973
 2547SOL    HW2 8541   5.468   3.724   1.004
 2548SOL     OW 8542   0.439   6.394   5.589
 2548SOL    HW1 8543   0.491   6.479   5.580
 2548SOL    HW2 8544   0.343   6.411   5.564
 2549SOL     OW 8545   3.139   3.234   0.524
 2549SOL    HW1 8546   3.068   3.169   0.550
 2549SOL    HW2 8547   3.177   3.276   0.607
 2550SOL     OW 8548   4.056   6.220   6.401
 2550SOL    HW1 8549   4.025   6.233   6.307
 2550SOL    HW2 8550   4.074   6.309   6.443
 2551SOL     OW 8551   3.685   5.056   0.758
 2551SOL    HW1 8552   3.676   5.124   0.831
 2551SOL    HW2 8553   3.747   5.090   0.688
 2552SOL     OW 8554   2.331   5.639   1.910
 2552SOL    HW1 8555   2.292   5.574   1.845
 2552SOL    HW2 8556   2.307   5.732   1.882
 2553SOL     OW 8557   4.406   1.282   0.107
 2553SOL    HW1 8558   4.361   1.320   0.026
 2553SOL    HW2 8559   4.468   1.208   0.080
 2554SOL     OW 8560   1.493   5.944   1.732
 2554SOL    HW1 8561   1.506   6.012   1.803
 2554SOL    HW2 8562   1.548   5.863   1.752
 2555SOL     OW 8563   5.770   6.799   4.601
 2555SOL    HW1 8564   5.856   6.766   4.641
 2555SOL    HW2 8565   5.693   6.756   4.647
 2556SOL     OW 8566   3.957   0.191   0.546
 2556SOL    HW1 8567   3.937   0.119   0.613
 2556SOL    HW2 8568   3.913   0.168   0.459
 2557SOL     OW 8569   2.744   0.915   6.894
 2557SOL    HW1 8570   2.702   0.888   6.981
 2557SOL    HW2 8571   2.706   1.003   6.865
 2558SOL     OW 8572   5.125   3.317   1.245
 2558SOL    HW1 8573   5.098   3.225   1.215
 2558SOL    HW2 8574   5.071   3.385   1.196
 2559SOL     OW 8575   0.947   4.121   4.252
 2559SOL    HW1 8576   0.863   4.134   4.199
 2559SOL    HW2 8577   0.939   4.038   4.307
 2560SOL     OW 8578   4.674   2.218   3.811
 2560SOL    HW1 8579   4.744   2.182   3.749
 2560SOL    HW2 8580   4.693   2.314   3.830
 2561SOL     OW 8581   3.964   0.015   4.399
 2561SOL    HW1 8582   3.931   0.107   4.378
 2561SOL    HW2 8583   3.988   0.010   4.496
 2562SOL     OW 8584   2.226   6.342   4.070
 2562SOL    HW1 8585   2.317   6.329   4.110
 2562SOL    HW2 8586   2.232   6.339   3.970
 2563SOL     OW 8587   3.913   2.429   6.291
 2563SOL    HW1 8588   3.825   2.452   6.331
 2563SOL    HW2 8589   3.976   2.507   6.301
 2564SOL     OW 8590   1.528   1.816   0.227
 2564SOL    HW1 8591   1.575   1.871   0.158
 2564SOL    HW2 8592   1.514   1.870   0.310
 2565SOL     OW 8593   1.072   1.626   0.721
 2565SOL    HW1 8594   1.154   1.582   0.684
 2565SOL    HW2 8595   1.094   1.721   0.745
 2566SOL     OW 8596   2.756   0.841   0.968
 2566SOL    HW1 8597   2.701   0.890   0.901
 2566SOL    HW2 8598   2.726   0.866   1.061
 2567SOL     OW 8599   2.015   1.303   0.094
 2567SOL    HW1 8600   1.992   1.384   0.149
 2567SOL    HW2 8601   1.931   1.264   0.056
 2568SOL     OW 8602   3.402   6.776   0.308
 2568SOL    HW1 8603   3.474   6.781   0.377
 2568SOL    HW2 8604   3.338   6.852   0.321
 2569SOL     OW 8605   1.923   0.311   1.021
 2569SOL    HW1 8606   1.915   0.217   1.052
 2569SOL    HW2 8607   1.858   0.369   1.070
 2570SOL     OW 8608   0.280   5.844   4.822
 2570SOL    HW1 8609   0.260   5.889   4.909
 2570SOL    HW2 8610   0.203   5.785   4.797
 2571SOL     OW 8611   3.386   3.587   4.404
 2571SOL    HW1 8612   3.295   3.545   4.400
 2571SOL    HW2 8613   3.404   3.635   4.318
 2572SOL     OW 8614   1.526   5.269   2.172
 2572SOL    HW1 8615   1.451   5.228   2.223
 2572SOL    HW2 8616   1.536   5.365   2.197
 2573SOL     OW 8617   6.879   1.756   4.417
 2573SOL    HW1 8618   6.817   1.753   4.338
 2573SOL    HW2 8619   6.826   1.744   4.501
 2574SOL     OW 8620   0.825   3.770   2.097
 2574SOL    HW1 8621   0.856   3.810   2.012
 2574SOL    HW2 8622   0.753   3.703   2.078
 2575SOL     OW 8623   5.702   3.669   6.770
 2575SOL    HW1 8624   5.657   3.705   6.688
 2575SOL    HW2 8625   5.694   3.735   6.844
 2576SOL     OW 8626   2.081   0.021   3.785
 2576SOL    HW1 8627   2.098   6.952   3.764
 2576SOL    HW2 8628   1.999   0.030   3.840
 2577SOL     OW 8629   2.533   5.852   1.872
 2577SOL    HW1 8630   2.468   5.840   1.947
 2577SOL    HW2 8631   2.590   5.932   1.889
 2578SOL     OW 8632   4.901   1.816   4.072
 2578SOL    HW1 8633   4.819   1.874   4.080
 2578SOL    HW2 8634   4.974   1.868   4.028
 2579SOL     OW 8635   6.965   1.542   6.197
 2579SOL    HW1 8636   6.998   1.547   6.103
 2579SOL    HW2 8637   6.865   1.551   6.199
 2580SOL     OW 8638   1.500   2.117   5.884
 2580SOL    HW1 8639   1.497   2.071   5.796
 2580SOL    HW2 8640   1.526   2.213   5.871
 2581SOL     OW 8641   6.582   6.950   4.371
 2581SOL    HW1 8642   6.491   6.924   4.404
 2581SOL    HW2 8643   6.636   6.868   4.352
 2582SOL     OW 8644   0.392   5.219   2.742
 2582SOL    HW1 8645   0.333   5.296   2.766
 2582SOL    HW2 8646   0.409   5.163   2.823
 2583SOL     OW 8647   1.875   0.987   6.878
 2583SOL    HW1 8648   1.842   1.080   6.894
 2583SOL    HW2 8649   1.971   0.981   6.905
 2584SOL     OW 8650   5.391   0.117   2.057
 2584SOL    HW1 8651   5.403   0.018   2.063
 2584SOL    HW2 8652   5.380   0.143   1.961
 2585SOL     OW 8653   4.188   1.304   1.352
 2585SOL    HW1 8654   4.261   1.339   1.411
 2585SOL    HW2 8655   4.138   1.381   1.311
 2586SOL     OW 8656   6.561   2.092   4.144
 2586SOL    HW1 8657   6.478   2.081   4.090
 2586SOL    HW2 8658   6.542   2.070   4.239
 2587SOL     OW 8659   6.754   6.642   2.712
 2587SOL    HW1 8660   6.677   6.703   2.696
 2587SOL    HW2 8661   6.742   6.557   2.660
 2588SOL     OW 8662   5.112   0.656   1.722
 2588SOL    HW1 8663   5.068   0.567   1.737
 2588SOL    HW2 8664   5.117   0.676   1.624
 2589SOL     OW 8665   5.662   6.418   0.610
 2589SOL    HW1 8666   5.666   6.457   0.702
 2589SOL    HW2 8667   5.739   6.356   0.596
 2590SOL     OW 8668   4.180   6.414   2.612
 2590SOL    HW1 8669   4.278   6.409   2.593
 2590SOL    HW2 8670   4.148   6.324   2.644
 2591SOL     OW 8671   5.457   0.422   1.687
 2591SOL    HW1 8672   5.404   0.443   1.606
 2591SOL    HW2 8673   5.551   0.402   1.661
 2592SOL     OW 8674   3.179   5.221   1.565
 2592SOL    HW1 8675   3.085   5.223   1.598
 2592SOL    HW2 8676   3.194   5.296   1.501
 2593SOL     OW 8677   3.219   6.839   2.634
 2593SOL    HW1 8678   3.277   6.920   2.628
 2593SOL    HW2 8679   3.211   6.797   2.544
 2594SOL     OW 8680   0.910   6.337   6.146
 2594SOL    HW1 8681   0.910   6.413   6.211
 2594SOL    HW2 8682   1.005   6.311   6.125
 2595SOL     OW 8683   6.128   3.454   4.115
 2595SOL    HW1 8684   6.121   3.357   4.139
 2595SOL    HW2 8685   6.107   3.510   4.196
 2596SOL     OW 8686   4.286   1.958   2.144
 2596SOL    HW1 8687   4.262   2.043   2.098
 2596SOL    HW2 8688   4.204   1.905   2.162
 2597SOL     OW 8689   2.019   2.579   6.862
 2597SOL    HW1 8690   2.051   2.615   6.774
 2597SOL    HW2 8691   1.935   2.526   6.848
 2598SOL     OW 8692   5.948   2.622   2.959
 2598SOL    HW1 8693   5.848   2.627   2.966
 2598SOL    HW2 8694   5.974   2.535   2.917
 2599SOL     OW 8695   4.407   4.395   6.565
 2599SOL    HW1 8696   4.318   4.405   6.520
 2599SOL    HW2 8697   4.409   4.308   6.616
 2600SOL     OW 8698   6.908   3.456   3.516
 2600SOL    HW1 8699   6.881   3.520   3.444
 2600SOL    HW2 8700   6.826   3.418   3.558
 2601SOL     OW 8701   3.571   3.232   5.599
 2601SOL    HW1 8702   3.539   3.195   5.512
 2601SOL    HW2 8703   3.514   3.310   5.625
 2602SOL     OW 8704   6.132   5.644   5.469
 2602SOL    HW1 8705   6.050   5.687   5.431
 2602SOL    HW2 8706   6.172   5.703   5.539
 2603SOL     OW 8707   2.693   2.953   0.144
 2603SOL    HW1 8708   2.621   2.913   0.200
 2603SOL    HW2 8709   2.710   2.895   0.065
 2604SOL     OW 8710   5.644   1.260   1.786
 2604SOL    HW1 8711   5.602   1.316   1.715
 2604SOL    HW2 8712   5.715   1.202   1.746
 2605SOL     OW 8713   4.854   4.344   3.879
 2605SOL    HW1 8714   4.876   4.257   3.923
 2605SOL    HW2 8715   4.755   4.357   3.877
 2606SOL     OW 8716   0.030   4.859   1.766
 2606SOL    HW1 8717   6.988   4.874   1.837
 2606SOL    HW2 8718   0.112   4.818   1.807
 2607SOL     OW 8719   0.676   1.847   4.883
 2607SOL    HW1 8720   0.601   1.784   4.903
 2607SOL    HW2 8721   0.639   1.939   4.870
 2608SOL     OW 8722   5.067   0.336   0.755
 2608SOL    HW1 8723   5.044   0.421   0.708
 2608SOL    HW2 8724   5.025   0.259   0.706
 2609SOL     OW 8725   0.089   2.233   4.557
 2609SOL    HW1 8726   0.066   2.138   4.539
 2609SOL    HW2 8727   0.004   2.286   4.567
 2610SOL     OW 8728   6.025   6.064   4.745
 2610SOL    HW1 8729   6.083   6.145   4.731
 2610SOL    HW2 8730   6.080   5.982   4.730
 2611SOL     OW 8731   3.517   6.343   1.522
 2611SOL    HW1 8732   3.580   6.392   1.462
 2611SOL    HW2 8733   3.506   6.249   1.490
 2612SOL     OW 8734   6.317   6.923   4.463
 2612SOL    HW1 8735   6.295   7.019   4.479
 2612SOL    HW2 8736   6.338   6.878   4.549
 2613SOL     OW 8737   4.216   0.596   1.282
 2613SOL    HW1 8738   4.222   0.517   1.344
 2613SOL    HW2 8739   4.120   0.612   1.258
 2614SOL     OW 8740   0.071   6.316   6.330
 2614SOL    HW1 8741   0.101   6.411   6.328
 2614SOL    HW2 8742   0.038   6.293   6.422
 2615SOL     OW 8743   5.536   5.212   2.014
 2615SOL    HW1 8744   5.539   5.299   2.064
 2615SOL    HW2 8745   5.445   5.171   2.025
 2616SOL     OW 8746   3.836   3.438   2.574
 2616SOL    HW1 8747   3.857   3.422   2.671
 2616SOL    HW2 8748   3.766   3.374   2.544
 2617SOL     OW 8749   3.604   0.390   1.309
 2617SOL    HW1 8750   3.562   0.481   1.320
 2617SOL    HW2 8751   3.533   0.320   1.306
 2618SOL     OW 8752   0.979   0.590   0.866
 2618SOL    HW1 8753   1.043   0.525   0.908
 2618SOL    HW2 8754   0.885   0.563   0.888
 2619SOL     OW 8755   5.222   1.631   1.466
 2619SOL    HW1 8756   5.198   1.712   1.520
 2619SOL    HW2 8757   5.297   1.583   1.512
 2620SOL     OW 8758   1.701   4.372   4.202
 2620SOL    HW1 8759   1.799   4.363   4.216
 2620SOL    HW2 8760   1.664   4.286   4.165
 2621SOL     OW 8761   1.033   4.533   4.200
 2621SOL    HW1 8762   1.074   4.483   4.123
 2621SOL    HW2 8763   1.021   4.472   4.277
 2622SOL     OW 8764   2.981   3.304   6.122
 2622SOL    HW1 8765   2.944   3.297   6.029
 2622SOL    HW2 8766   3.068   3.254   6.127
 2623SOL     OW 8767   3.242   1.054   5.772
 2623SOL    HW1 8768   3.341   1.063   5.783
 2623SOL    HW2 8769   3.196   1.105   5.845
 2624SOL     OW 8770   6.413   2.366   3.989
 2624SOL    HW1 8771   6.415   2.459   3.953
 2624SOL    HW2 8772   6.406   2.302   3.912
 2625SOL     OW 8773   4.524   0.714   5.537
 2625SOL    HW1 8774   4.604   0.690   5.593
 2625SOL    HW2 8775   4.551   0.781   5.468
 2626SOL     OW 8776   2.526   6.265   2.303
 2626SOL    HW1 8777   2.527   6.344   2.243
 2626SOL    HW2 8778   2.534   6.295   2.398
 2627SOL     OW 8779   6.913   0.240   4.735
 2627SOL    HW1 8780   6.883   0.332   4.709
 2627SOL    HW2 8781   6.833   0.187   4.764
 2628SOL     OW 8782   3.539   5.832   5.695
 2628SOL    HW1 8783   3.606   5.847   5.769
 2628SOL    HW2 8784   3.452   5.875   5.720
 2629SOL     OW 8785   3.564   4.371   1.613
 2629SOL    HW1 8786   3.642   4.332   1.662
 2629SOL    HW2 8787   3.556   4.327   1.524
 2630SOL     OW 8788   2.669   2.372   2.424
 2630SOL    HW1 8789   2.616   2.390   2.340
 2630SOL    HW2 8790   2.758   2.335   2.400
 2631SOL     OW 8791   4.653   6.702   4.323
 2631SOL    HW1 8792   4.677   6.666   4.233
 2631SOL    HW2 8793   4.556   6.687   4.341
 2632SOL     OW 8794   4.991   1.606   0.626
 2632SOL    HW1 8795   5.010   1.508   0.633
 2632SOL    HW2 8796   5.071   1.657   0.655
 2633SOL     OW 8797   6.718   2.571   6.434
 2633SOL    HW1 8798   6.668   2.609   6.511
 2633SOL    HW2 8799   6.682   2.480   6.412
 2634SOL     OW 8800   2.378   5.591   1.240
 2634SOL    HW1 8801   2.472   5.598   1.273
 2634SOL    HW2 8802   2.336   5.507   1.275
 2635SOL     OW 8803   5.314   4.607   3.628
 2635SOL    HW1 8804   5.262   4.550   3.691
 2635SOL    HW2 8805   5.296   4.703   3.647
 2636SOL     OW 8806   6.178   0.793   5.097
 2636SOL    HW1 8807   6.255   0.771   5.157
 2636SOL    HW2 8808   6.104   0.834   5.151
 2637SOL     OW 8809   4.909   6.358   2.375
 2637SOL    HW1 8810   4.951   6.445   2.400
 2637SOL    HW2 8811   4.810   6.362   2.392
 2638SOL     OW 8812   5.734   5.755   1.329
 2638SOL    HW1 8813   5.701   5.788   1.418
 2638SOL    HW2 8814   5.797   5.679   1.344
 2639SOL     OW 8815   6.587   6.381   0.522
 2639SOL    HW1 8816   6.678   6.385   0.480
 2639SOL    HW2 8817   6.533   6.311   0.476
 2640SOL     OW 8818   6.841   6.698   6.063
 2640SOL    HW1 8819   6.924   6.725   6.015
 2640SOL    HW2 8820   6.762   6.744   6.023
 2641SOL     OW 8821   5.771   5.005   0.426
 2641SOL    HW1 8822   5.703   4.967   0.364
 2641SOL    HW2 8823   5.756   4.970   0.518
 2642SOL     OW 8824   6.275   7.008   3.962
 2642SOL    HW1 8825   6.239   6.951   4.036
 2642SOL    HW2 8826   6.340   6.955   3.907
 2643SOL     OW 8827   0.668   0.716   2.814
 2643SOL    HW1 8828   0.712   0.626   2.819
 2643SOL    HW2 8829   0.659   0.743   2.718
 2644SOL     OW 8830   0.242   4.961   6.303
 2644SOL    HW1 8831   0.325   4.934   6.255
 2644SOL    HW2 8832   0.190   4.879   6.327
 2645SOL     OW 8833   5.431   5.430   5.349
 2645SOL    HW1 8834   5.503   5.363   5.331
 2645SOL    HW2 8835   5.420   5.442   5.448
 2646SOL     OW 8836   6.514   6.351   6.672
 2646SOL    HW1 8837   6.556   6.261   6.661
 2646SOL    HW2 8838   6.494   6.366   6.769
 2647SOL     OW 8839   3.629   1.975   0.705
 2647SOL    HW1 8840   3.697   1.940   0.640
 2647SOL    HW2 8841   3.633   2.075   0.707
 2648SOL     OW 8842   3.782   0.689   2.482
 2648SOL    HW1 8843   3.861   0.626   2.484
 2648SOL    HW2 8844   3.705   0.647   2.530
 2649SOL     OW 8845   3.882   2.359   5.756
 2649SOL    HW1 8846   3.783   2.348   5.764
 2649SOL    HW2 8847   3.925   2.329   5.841
 2650SOL     OW 8848   0.398   6.461   1.678
 2650SOL    HW1 8849   0.408   6.364   1.656
 2650SOL    HW2 8850   0.488   6.499   1.702
 2651SOL     OW 8851   0.505   0.470   3.472
 2651SOL    HW1 8852   0.459   0.405   3.412
 2651SOL    HW2 8853   0.506   0.560   3.428
 2652SOL     OW 8854   3.112   3.163   2.318
 2652SOL    HW1 8855   3.141   3.169   2.223
 2652SOL    HW2 8856   3.139   3.245   2.368
 2653SOL     OW 8857   6.417   5.987   6.481
 2653SOL    HW1 8858   6.397   5.890   6.493
 2653SOL    HW2 8859   6.440   6.005   6.385
 2654SOL     OW 8860   5.851   2.548   6.223
 2654SOL    HW1 8861   5.935   2.565   6.274
 2654SOL    HW2 8862   5.868   2.483   6.149
 2655SOL     OW 8863   5.321   6.177   4.974
 2655SOL    HW1 8864   5.293   6.229   4.893
 2655SOL    HW2 8865   5.298   6.080   4.960
 2656SOL     OW 8866   5.598   3.300   4.098
 2656SOL    HW1 8867   5.629   3.352   4.177
 2656SOL    HW2 8868   5.500   3.282   4.105
 2657SOL     OW 8869   2.102   2.549   5.752
 2657SOL    HW1 8870   2.161   2.484   5.799
 2657SOL    HW2 8871   2.120   2.642   5.785
 2658SOL     OW 8872   5.753   4.495   5.747
 2658SOL    HW1 8873   5.664   4.452   5.756
 2658SOL    HW2 8874   5.818   4.429   5.710
 2659SOL     OW 8875   0.064   2.857   3.840
 2659SOL    HW1 8876   0.162   2.847   3.860
 2659SOL    HW2 8877   0.025   2.768   3.819
 2660SOL     OW 8878   6.848   1.996   3.209
 2660SOL    HW1 8879   6.878   1.933   3.280
 2660SOL    HW2 8880   6.924   2.014   3.146
 2661SOL     OW 8881   4.359   5.983   1.135
 2661SOL    HW1 8882   4.439   6.037   1.162
 2661SOL    HW2 8883   4.330   6.011   1.044
 2662SOL     OW 8884   3.077   6.751   3.810
 2662SOL    HW1 8885   3.079   6.779   3.906
 2662SOL    HW2 8886   3.166   6.714   3.784
 2663SOL     OW 8887   0.652   3.969   2.705
 2663SOL    HW1 8888   0.605   3.889   2.667
 2663SOL    HW2 8889   0.722   3.939   2.769
 2664SOL     OW 8890   4.098   3.622   1.765
 2664SOL    HW1 8891   4.041   3.643   1.845
 2664SOL    HW2 8892   4.179   3.681   1.765
 2665SOL     OW 8893   3.896   1.146   4.677
 2665SOL    HW1 8894   3.827   1.173   4.610
 2665SOL    HW2 8895   3.881   1.197   4.762
 2666SOL     OW 8896   5.468   5.921   1.721
 2666SOL    HW1 8897   5.462   5.959   1.813
 2666SOL    HW2 8898   5.378   5.922   1.677
 2667SOL     OW 8899   1.208   4.705   3.807
 2667SOL    HW1 8900   1.141   4.634   3.826
 2667SOL    HW2 8901   1.162   4.794   3.800
 2668SOL     OW 8902   0.271   2.514   5.748
 2668SOL    HW1 8903   0.269   2.428   5.799
 2668SOL    HW2 8904   0.363   2.554   5.753
 2669SOL     OW 8905   4.263   4.821   5.286
 2669SOL    HW1 8906   4.212   4.810   5.200
 2669SOL    HW2 8907   4.201   4.850   5.359
 2670SOL     OW 8908   1.513   0.447   6.663
 2670SOL    HW1 8909   1.543   0.448   6.758
 2670SOL    HW2 8910   1.519   0.540   6.625
 2671SOL     OW 8911   2.666   3.793   5.779
 2671SOL    HW1 8912   2.765   3.803   5.793
 2671SOL    HW2 8913   2.646   3.699   5.752
 2672SOL     OW 8914   0.983   4.658   0.792
 2672SOL    HW1 8915   0.925   4.611   0.724
 2672SOL    HW2 8916   0.938   4.742   0.822
 2673SOL     OW 8917   4.525   2.035   3.165
 2673SOL    HW1 8918   4.544   2.013   3.261
 2673SOL    HW2 8919   4.429   2.018   3.146
 2674SOL     OW 8920   5.124   5.277   5.415
 2674SOL    HW1 8921   5.130   5.371   5.450
 2674SOL    HW2 8922   5.043   5.232   5.453
 2675SOL     OW 8923   0.324   4.182   5.620
 2675SOL    HW1 8924   0.294   4.092   5.652
 2675SOL    HW2 8925   0.400   4.171   5.555
 2676SOL     OW 8926   4.376   0.661   1.843
 2676SOL    HW1 8927   4.402   0.674   1.938
 2676SOL    HW2 8928   4.322   0.577   1.835
 2677SOL     OW 8929   2.257   5.082   2.417
 2677SOL    HW1 8930   2.203   5.152   2.371
 2677SOL    HW2 8931   2.196   5.012   2.455
 2678SOL     OW 8932   0.847   5.080   5.905
 2678SOL    HW1 8933   0.857   5.179   5.919
 2678SOL    HW2 8934   0.914   5.049   5.837
 2679SOL     OW 8935   2.541   4.221   1.188
 2679SOL    HW1 8936   2.624   4.206   1.242
 2679SOL    HW2 8937   2.523   4.319   1.180
 2680SOL     OW 8938   0.982   2.464   1.608
 2680SOL    HW1 8939   0.905   2.507   1.562
 2680SOL    HW2 8940   1.045   2.426   1.541
 2681SOL     OW 8941   1.325   2.004   2.425
 2681SOL    HW1 8942   1.412   1.955   2.422
 2681SOL    HW2 8943   1.333   2.084   2.485
 2682SOL     OW 8944   6.033   1.949   3.526
 2682SOL    HW1 8945   6.066   1.990   3.611
 2682SOL    HW2 8946   5.975   2.014   3.478
 2683SOL     OW 8947   1.131   7.026   1.471
 2683SOL    HW1 8948   1.071   6.949   1.450
 2683SOL    HW2 8949   1.120   0.026   1.567
 2684SOL     OW 8950   2.442   6.633   3.108
 2684SOL    HW1 8951   2.420   6.561   3.042
 2684SOL    HW2 8952   2.360   6.687   3.127
 2685SOL     OW 8953   5.645   5.522   5.124
 2685SOL    HW1 8954   5.744   5.529   5.132
 2685SOL    HW2 8955   5.601   5.560   5.205
 2686SOL     OW 8956   1.845   2.727   4.341
 2686SOL    HW1 8957   1.819   2.718   4.245
 2686SOL    HW2 8958   1.847   2.824   4.366
 2687SOL     OW 8959   4.741   5.757   2.638
 2687SOL    HW1 8960   4.732   5.828   2.707
 2687SOL    HW2 8961   4.661   5.697   2.641
 2688SOL     OW 8962   3.833   5.008   6.397
 2688SOL    HW1 8963   3.751   4.952   6.387
 2688SOL    HW2 8964   3.840   5.070   6.319
 2689SOL     OW 8965   6.926   3.043   4.222
 2689SOL    HW1 8966   6.876   3.052   4.136
 2689SOL    HW2 8967   6.862   3.051   4.298
 2690SOL     OW 8968   3.425   3.475   3.501
 2690SOL    HW1 8969   3.361   3.399   3.495
 2690SOL    HW2 8970   3.448   3.491   3.597
 2691SOL     OW 8971   1.052   5.932   2.014
 2691SOL    HW1 8972   1.109   5.991   1.957
 2691SOL    HW2 8973   1.023   5.852   1.961
 2692SOL     OW 8974   0.083   6.757   3.712
 2692SOL    HW1 8975   0.083   6.663   3.679
 2692SOL    HW2 8976   0.069   6.819   3.636
 2693SOL     OW 8977   1.692   4.035   3.036
 2693SOL    HW1 8978   1.781   4.006   3.070
 2693SOL    HW2 8979   1.699   4.127   2.997
 2694SOL     OW 8980   2.266   0.265   3.341
 2694SOL    HW1 8981   2.356   0.283   3.380
 2694SOL    HW2 8982   2.200   0.246   3.414
 2695SOL     OW 8983   4.318   1.888   3.352
 2695SOL    HW1 8984   4.291   1.920   3.442
 2695SOL    HW2 8985   4.253   1.820   3.319
 2696SOL     OW 8986   3.799   3.982   5.569
 2696SOL    HW1 8987   3.731   3.935   5.513
 2696SOL    HW2 8988   3.847   4.050   5.513
 2697SOL     OW 8989   2.545   2.106   4.678
 2697SOL    HW1 8990   2.533   2.186   4.619
 2697SOL    HW2 8991   2.483   2.033   4.648
 2698SOL     OW 8992   2.483   3.344   6.877
 2698SOL    HW1 8993   2.468   3.398   6.794
 2698SOL    HW2 8994   2.512   3.252   6.853
 2699SOL     OW 8995   3.679   5.742   1.886
 2699SOL    HW1 8996   3.746   5.810   1.914
 2699SOL    HW2 8997   3.593   5.787   1.864
 2700SOL     OW 8998   2.113   3.577   2.840
 2700SOL    HW1 8999   2.154   3.486   2.853
 2700SOL    HW2 9000   2.033   3.568   2.780
 2701SOL     OW 9001   3.526   0.037   6.271
 2701SOL    HW1 9002   3.539   0.060   6.175
 2701SOL    HW2 9003   3.436   0.069   6.301
 2702SOL     OW 9004   6.815   0.327   3.508
 2702SOL    HW1 9005   6.866   0.346   3.424
 2702SOL    HW2 9006   6.809   0.410   3.563
 2703SOL     OW 9007   2.188   1.209   2.485
 2703SOL    HW1 9008   2.259   1.266   2.444
 2703SOL    HW2 9009   2.107   1.209   2.426
 2704SOL     OW 9010   2.002   5.289   0.985
 2704SOL    HW1 9011   1.924   5.235   1.014
 2704SOL    HW2 9012   1.981   5.386   0.993
 2705SOL     OW 9013   0.389   4.876   3.106
 2705SOL    HW1 9014   0.438   4.790   3.120
 2705SOL    HW2 9015   0.292   4.863   3.126
 2706SOL     OW 9016   6.950   1.827   2.071
 2706SOL    HW1 9017   6.972   1.905   2.131
 2706SOL    HW2 9018   6.942   1.859   1.977
 2707SOL     OW 9019   2.379   1.397   5.976
 2707SOL    HW1 9020   2.451   1.429   5.914
 2707SOL    HW2 9021   2.309   1.348   5.923
 2708SOL     OW 9022   2.176   2.887   0.992
 2708SOL    HW1 9023   2.272   2.875   1.018
 2708SOL    HW2 9024   2.128   2.799   1.002
 2709SOL     OW 9025   4.645   6.294   0.744
 2709SOL    HW1 9026   4.645   6.366   0.675
 2709SOL    HW2 9027   4.732   6.296   0.794
 2710SOL     OW 9028   5.591   3.824   2.723
 2710SOL    HW1 9029   5.588   3.767   2.805
 2710SOL    HW2 9030   5.581   3.920   2.749
 2711SOL     OW 9031   1.130   0.178   2.149
 2711SOL    HW1 9032   1.041   0.180   2.102
 2711SOL    HW2 9033   1.175   0.091   2.129
 2712SOL     OW 9034   2.868   4.684   0.427
 2712SOL    HW1 9035   2.844   4.781   0.436
 2712SOL    HW2 9036   2.819   4.630   0.495
 2713SOL     OW 9037   2.182   3.183   5.151
 2713SOL    HW1 9038   2.230   3.102   5.116
 2713SOL    HW2 9039   2.101   3.201   5.095
 2714SOL     OW 9040   5.312   6.943   5.341
 2714SOL    HW1 9041   5.371   7.002   5.286
 2714SOL    HW2 9042   5.230   6.920   5.289
 2715SOL     OW 9043   6.623   1.093   6.579
 2715SOL    HW1 9044   6.552   1.032   6.613
 2715SOL    HW2 9045   6.668   1.139   6.656
 2716SOL     OW 9046   0.330   0.119   2.469
 2716SOL    HW1 9047   0.237   0.105   2.435
 2716SOL    HW2 9048   0.361   0.211   2.445
 2717SOL     OW 9049   0.909   0.875   3.034
 2717SOL    HW1 9050   0.819   0.841   3.065
 2717SOL    HW2 9051   0.941   0.818   2.959
 2718SOL     OW 9052   1.795   4.614   3.572
 2718SOL    HW1 9053   1.766   4.600   3.667
 2718SOL    HW2 9054   1.848   4.535   3.541
 2719SOL     OW 9055   3.982   5.263   1.479
 2719SOL    HW1 9056   4.034   5.348   1.486
 2719SOL    HW2 9057   3.925   5.265   1.397
 2720SOL     OW 9058   1.253   6.235   3.907
 2720SOL    HW1 9059   1.328   6.264   3.967
 2720SOL    HW2 9060   1.290   6.177   3.834
 2721SOL     OW 9061   4.008   6.863   4.199
 2721SOL    HW1 9062   4.026   6.938   4.263
 2721SOL    HW2 9063   4.038   6.777   4.240
 2722SOL     OW 9064   1.588   5.768   1.995
 2722SOL    HW1 9065   1.522   5.699   2.025
 2722SOL    HW2 9066   1.583   5.847   2.055
 2723SOL     OW 9067   1.590   1.355   5.476
 2723SOL    HW1 9068   1.688   1.373   5.468
 2723SOL    HW2 9069   1.560   1.303   5.396
 2724SOL     OW 9070   3.677   5.270   6.000
 2724SOL    HW1 9071   3.591   5.268   6.051
 2724SOL    HW2 9072   3.679   5.350   5.941
 2725SOL     OW 9073   2.861   4.919   3.517
 2725SOL    HW1 9074   2.842   4.853   3.589
 2725SOL    HW2 9075   2.920   4.992   3.553
 2726SOL     OW 9076   5.009   5.723   1.541
 2726SOL    HW1 9077   4.932   5.781   1.568
 2726SOL    HW2 9078   5.076   5.720   1.615
 2727SOL     OW 9079   2.205   5.668   3.297
 2727SOL    HW1 9080   2.187   5.597   3.365
 2727SOL    HW2 9081   2.235   5.626   3.212
 2728SOL     OW 9082   3.657   0.359   5.911
 2728SOL    HW1 9083   3.753   0.378   5.893
 2728SOL    HW2 9084   3.621   0.425   5.977
 2729SOL     OW 9085   5.768   5.031   2.799
 2729SOL    HW1 9086   5.681   5.026   2.750
 2729SOL    HW2 9087   5.816   5.115   2.774
 2730SOL     OW 9088   1.942   5.476   1.704
 2730SOL    HW1 9089   1.920   5.462   1.800
 2730SOL    HW2 9090   2.042   5.484   1.693
 2731SOL     OW 9091   3.005   3.780   1.489
 2731SOL    HW1 9092   3.038   3.810   1.579
 2731SOL    HW2 9093   2.968   3.859   1.440
 2732SOL     OW 9094   6.183   1.972   2.918
 2732SOL    HW1 9095   6.127   2.052   2.896
 2732SOL    HW2 9096   6.152   1.894   2.863
 2733SOL     OW 9097   1.514   0.359   5.717
 2733SOL    HW1 9098   1.427   0.312   5.734
 2733SOL    HW2 9099   1.552   0.328   5.630
 2734SOL     OW 9100   2.134   5.843   4.303
 2734SOL    HW1 9101   2.231   5.819   4.293
 2734SOL    HW2 9102   2.126   5.925   4.359
 2735SOL     OW 9103   1.812   4.339   2.292
 2735SOL    HW1 9104   1.742   4.290   2.240
 2735SOL    HW2 9105   1.903   4.312   2.261
 2736SOL     OW 9106   4.092   0.335   5.626
 2736SOL    HW1 9107   4.186   0.300   5.618
 2736SOL    HW2 9108   4.082   0.417   5.571
 2737SOL     OW 9109   4.376   3.481   6.124
 2737SOL    HW1 9110   4.432   3.539   6.066
 2737SOL    HW2 9111   4.435   3.422   6.180
 2738SOL     OW 9112   6.012   5.118   3.793
 2738SOL    HW1 9113   5.924   5.126   3.745
 2738SOL    HW2 9114   6.078   5.179   3.750
 2739SOL     OW 9115   6.309   2.699   1.077
 2739SOL    HW1 9116   6.340   2.772   1.016
 2739SOL    HW2 9117   6.212   2.683   1.064
 2740SOL     OW 9118   6.500   2.206   3.219
 2740SOL    HW1 9119   6.547   2.235   3.136
 2740SOL    HW2 9120   6.401   2.203   3.202
 2741SOL     OW 9121   0.568   2.544   5.735
 2741SOL    HW1 9122   0.647   2.484   5.750
 2741SOL    HW2 9123   0.513   2.507   5.660
 2742SOL     OW 9124   2.240   6.531   5.824
 2742SOL    HW1 9125   2.333   6.493   5.819
 2742SOL    HW2 9126   2.242   6.617   5.874
 2743SOL     OW 9127   5.101   4.532   0.709
 2743SOL    HW1 9128   5.188   4.563   0.671
 2743SOL    HW2 9129   5.036   4.515   0.635
 2744SOL     OW 9130   3.880   1.442   6.600
 2744SOL    HW1 9131   3.846   1.469   6.510
 2744SOL    HW2 9132   3.978   1.460   6.605
 2745SOL     OW 9133   2.452   5.973   0.794
 2745SOL    HW1 9134   2.356   5.964   0.818
 2745SOL    HW2 9135   2.465   6.056   0.739
 2746SOL     OW 9136   1.578   1.907   6.322
 2746SOL    HW1 9137   1.542   1.964   6.248
 2746SOL    HW2 9138   1.658   1.856   6.289
 2747SOL     OW 9139   4.558   5.824   3.968
 2747SOL    HW1 9140   4.472   5.778   3.945
 2747SOL    HW2 9141   4.565   5.909   3.917
 2748SOL     OW 9142   3.603   1.284   4.244
 2748SOL    HW1 9143   3.632   1.196   4.280
 2748SOL    HW2 9144   3.506   1.298   4.263
 2749SOL     OW 9145   4.722   5.293   4.392
 2749SOL    HW1 9146   4.627   5.264   4.401
 2749SOL    HW2 9147   4.729   5.390   4.416
 2750SOL     OW 9148   0.687   6.002   2.447
 2750SOL    HW1 9149   0.721   6.082   2.497
 2750SOL    HW2 9150   0.591   5.987   2.471
 2751SOL     OW 9151   1.047   6.655   6.585
 2751SOL    HW1 9152   1.008   6.631   6.674
 2751SOL    HW2 9153   1.026   6.750   6.563
 2752SOL     OW 9154   6.175   6.274   5.488
 2752SOL    HW1 9155   6.274   6.286   5.483
 2752SOL    HW2 9156   6.135   6.349   5.540
 2753SOL     OW 9157   2.722   5.514   5.614
 2753SOL    HW1 9158   2.714   5.415   5.605
 2753SOL    HW2 9159   2.639   5.558   5.580
 2754SOL     OW 9160   1.180   6.444   4.204
 2754SOL    HW1 9161   1.276   6.469   4.211
 2754SOL    HW2 9162   1.169   6.347   4.225
 2755SOL     OW 9163   3.858   6.029   2.348
 2755SOL    HW1 9164   3.889   6.124   2.358
 2755SOL    HW2 9165   3.820   5.997   2.434
 2756SOL     OW 9166   0.758   2.740   5.610
 2756SOL    HW1 9167   0.696   2.809   5.648
 2756SOL    HW2 9168   0.731   2.650   5.642
 2757SOL     OW 9169   4.331   3.529   6.863
 2757SOL    HW1 9170   4.269   3.604   6.841
 2757SOL    HW2 9171   4.425   3.563   6.866
 2758SOL     OW 9172   6.808   6.432   1.902
 2758SOL    HW1 9173   6.765   6.522   1.900
 2758SOL    HW2 9174   6.889   6.433   1.843
 2759SOL     OW 9175   3.111   3.766   6.040
 2759SOL    HW1 9176   3.157   3.824   6.107
 2759SOL    HW2 9177   3.039   3.713   6.085
 2760SOL     OW 9178   5.628   6.364   3.072
 2760SOL    HW1 9179   5.593   6.340   3.163
 2760SOL    HW2 9180   5.725   6.341   3.067
 2761SOL     OW 9181   1.163   2.663   3.532
 2761SOL    HW1 9182   1.253   2.703   3.516
 2761SOL    HW2 9183   1.115   2.716   3.602
 2762SOL     OW 9184   2.451   2.427   0.293
 2762SOL    HW1 9185   2.463   2.346   0.351
 2762SOL    HW2 9186   2.435   2.507   0.351
 2763SOL     OW 9187   6.477   1.732   4.439
 2763SOL    HW1 9188   6.394   1.783   4.457
 2763SOL    HW2 9189   6.455   1.635   4.428
 2764SOL     OW 9190   0.824   3.030   2.342
 2764SOL    HW1 9191   0.855   2.993   2.430
 2764SOL    HW2 9192   0.726   3.050   2.347
 2765SOL     OW 9193   6.319   6.667   6.560
 2765SOL    HW1 9194   6.278   6.629   6.644
 2765SOL    HW2 9195   6.247   6.678   6.491
 2766SOL     OW 9196   4.811   0.540   0.146
 2766SOL    HW1 9197   4.867   0.459   0.129
 2766SOL    HW2 9198   4.848   0.618   0.096
 2767SOL     OW 9199   0.144   5.347   6.473
 2767SOL    HW1 9200   0.149   5.446   6.466
 2767SOL    HW2 9201   0.178   5.318   6.562
 2768SOL     OW 9202   3.855   0.086   1.514
 2768SOL    HW1 9203   3.869   0.122   1.606
 2768SOL    HW2 9204   3.872   0.158   1.447
 2769SOL     OW 9205   0.453   4.387   5.743
 2769SOL    HW1 9206   0.536   4.408   5.691
 2769SOL    HW2 9207   0.409   4.306   5.705
 2770SOL     OW 9208   2.718   6.256   0.785
 2770SOL    HW1 9209   2.786   6.207   0.839
 2770SOL    HW2 9210   2.638   6.276   0.841
 2771SOL     OW 9211   4.348   6.717   4.996
 2771SOL    HW1 9212   4.256   6.728   5.034
 2771SOL    HW2 9213   4.361   6.622   4.967
 2772SOL     OW 9214   4.748   0.723   3.474
 2772SOL    HW1 9215   4.778   0.647   3.531
 2772SOL    HW2 9216   4.659   0.757   3.506
 2773SOL     OW 9217   5.732   2.867   5.048
 2773SOL    HW1 9218   5.667   2.842   4.976
 2773SOL    HW2 9219   5.810   2.806   5.045
 2774SOL     OW 9220   5.979   1.786   4.405
 2774SOL    HW1 9221   6.069   1.830   4.413
 2774SOL    HW2 9222   5.978   1.703   4.460
 2775SOL     OW 9223   0.630   3.148   4.163
 2775SOL    HW1 9224   0.614   3.225   4.225
 2775SOL    HW2 9225   0.567   3.156   4.085
 2776SOL     OW 9226   5.084   5.077   6.094
 2776SOL    HW1 9227   5.076   5.118   6.003
 2776SOL    HW2 9228   5.169   5.025   6.100
 2777SOL     OW 9229   2.900   2.386   6.213
 2777SOL    HW1 9230   2.852   2.328   6.278
 2777SOL    HW2 9231   2.997   2.390   6.237
 2778SOL     OW 9232   2.677   0.532   6.277
 2778SOL    HW1 9233   2.593   0.585   6.263
 2778SOL    HW2 9234   2.722   0.562   6.361
 2779SOL     OW 9235   4.538   1.048   1.252
 2779SOL    HW1 9236   4.492   0.974   1.300
 2779SOL    HW2 9237   4.636   1.046   1.273
 2780SOL     OW 9238   6.979   1.505   5.172
 2780SOL    HW1 9239   6.957   1.429   5.232
 2780SOL    HW2 9240   6.941   1.589   5.209
 2781SOL     OW 9241   5.568   1.470   3.153
 2781SOL    HW1 9242   5.605   1.377   3.153
 2781SOL    HW2 9243   5.627   1.530   3.206
 2782SOL     OW 9244   5.419   0.387   6.064
 2782SOL    HW1 9245   5.385   0.413   5.974
 2782SOL    HW2 9246   5.452   0.469   6.112
 2783SOL     OW 9247   6.038   3.729   1.782
 2783SOL    HW1 9248   6.135   3.750   1.796
 2783SOL    HW2 9249   6.029   3.638   1.742
 2784SOL     OW 9250   1.018   2.444   0.882
 2784SOL    HW1 9251   1.036   2.432   0.784
 2784SOL    HW2 9252   1.035   2.539   0.908
 2785SOL     OW 9253   6.080   3.035   1.968
 2785SOL    HW1 9254   6.110   2.970   1.899
 2785SOL    HW2 9255   6.131   3.020   2.053
 2786SOL     OW 9256   0.574   6.081   6.674
 2786SOL    HW1 9257   0.534   5.990   6.687
 2786SOL    HW2 9258   0.621   6.085   6.586
 2787SOL     OW 9259   6.951   5.812   0.149
 2787SOL    HW1 9260   7.001   5.789   0.066
 2787SOL    HW2 9261   7.007   5.790   0.229
 2788SOL     OW 9262   3.115   6.877   6.171
 2788SOL    HW1 9263   3.018   6.894   6.185
 2788SOL    HW2 9264   3.147   6.928   6.091
 2789SOL     OW 9265   0.903   1.839   5.274
 2789SOL    HW1 9266   0.809   1.862   5.298
 2789SOL    HW2 9267   0.905   1.797   5.183
 2790SOL     OW 9268   1.135   5.623   2.335
 2790SOL    HW1 9269   1.052   5.676   2.351
 2790SOL    HW2 9270   1.119   5.556   2.262
 2791SOL     OW 9271   0.780   3.388   2.943
 2791SOL    HW1 9272   0.875   3.366   2.920
 2791SOL    HW2 9273   0.726   3.304   2.945
 2792SOL     OW 9274   3.500   1.105   5.871
 2792SOL    HW1 9275   3.466   1.067   5.957
 2792SOL    HW2 9276   3.488   1.204   5.871
 2793SOL     OW 9277   3.651   3.845   0.545
 2793SOL    HW1 9278   3.585   3.894   0.489
 2793SOL    HW2 9279   3.716   3.909   0.584
 2794SOL     OW 9280   0.826   2.549   6.979
 2794SOL    HW1 9281   0.786   2.640   6.968
 2794SOL    HW2 9282   0.899   2.536   6.912
 2795SOL     OW 9283   1.071   6.101   1.666
 2795SOL    HW1 9284   1.096   6.151   1.583
 2795SOL    HW2 9285   0.983   6.133   1.700
 2796SOL     OW 9286   1.909   5.449   6.164
 2796SOL    HW1 9287   1.885   5.354   6.181
 2796SOL    HW2 9288   1.829   5.497   6.127
 2797SOL     OW 9289   5.044   5.352   3.696
 2797SOL    HW1 9290   5.055   5.345   3.596
 2797SOL    HW2 9291   4.957   5.398   3.716
 2798SOL     OW 9292   4.914   1.212   1.426
 2798SOL    HW1 9293   4.957   1.258   1.349
 2798SOL    HW2 9294   4.831   1.261   1.453
 2799SOL     OW 9295   3.445   6.328   4.770
 2799SOL    HW1 9296   3.543   6.307   4.764
 2799SOL    HW2 9297   3.398   6.288   4.691
 2800SOL     OW 9298   5.712   0.362   6.103
 2800SOL    HW1 9299   5.708   0.451   6.148
 2800SOL    HW2 9300   5.632   0.308   6.130
 2801SOL     OW 9301   6.985   4.339   4.533
 2801SOL    HW1 9302   6.911   4.344   4.600
 2801SOL    HW2 9303   6.966   4.402   4.458
 2802SOL     OW 9304   1.702   4.754   5.143
 2802SOL    HW1 9305   1.655   4.744   5.231
 2802SOL    HW2 9306   1.801   4.753   5.158
 2803SOL     OW 9307   4.061   2.445   6.006
 2803SOL    HW1 9308   3.992   2.375   6.022
 2803SOL    HW2 9309   4.135   2.435   6.073
 2804SOL     OW 9310   6.874   2.551   4.105
 2804SOL    HW1 9311   6.956   2.572   4.052
 2804SOL    HW2 9312   6.814   2.493   4.051
 2805SOL     OW 9313   3.429   2.944   1.074
 2805SOL    HW1 9314   3.330   2.949   1.081
 2805SOL    HW2 9315   3.456   2.952   0.978
 2806SOL     OW 9316   0.180   3.371   6.131
 2806SOL    HW1 9317   0.178   3.467   6.159
 2806SOL    HW2 9318   0.103   3.322   6.174
 2807SOL     OW 9319   4.058   0.870   3.682
 2807SOL    HW1 9320   4.045   0.778   3.718
 2807SOL    HW2 9321   4.074   0.934   3.758
 2808SOL     OW 9322   0.320   4.602   5.490
 2808SOL    HW1 9323   0.365   4.668   5.550
 2808SOL    HW2 9324   0.228   4.584   5.522
 2809SOL     OW 9325   0.214   5.620   2.590
 2809SOL    HW1 9326   0.215   5.720   2.580
 2809SOL    HW2 9327   0.133   5.583   2.545
 2810SOL     OW 9328   2.233   6.862   2.829
 2810SOL    HW1 9329   2.187   6.821   2.750
 2810SOL    HW2 9330   2.208   6.813   2.912
 2811SOL     OW 9331   1.086   0.956   1.568
 2811SOL    HW1 9332   1.059   0.920   1.478
 2811SOL    HW2 9333   1.017   0.931   1.636
 2812SOL     OW 9334   1.071   1.222   0.996
 2812SOL    HW1 9335   1.023   1.166   1.064
 2812SOL    HW2 9336   1.006   1.273   0.942
 2813SOL     OW 9337   0.716   3.112   1.952
 2813SOL    HW1 9338   0.809   3.093   1.983
 2813SOL    HW2 9339   0.654   3.042   1.987
 2814SOL     OW 9340   2.690   4.242   0.232
 2814SOL    HW1 9341   2.705   4.171   0.301
 2814SOL    HW2 9342   2.764   4.310   0.236
 2815SOL     OW 9343   0.074   4.540   4.730
 2815SOL    HW1 9344   0.017   4.533   4.812
 2815SOL    HW2 9345   0.045   4.472   4.663
 2816SOL     OW 9346   0.557   5.524   5.482
 2816SOL    HW1 9347   0.591   5.499   5.572
 2816SOL    HW2 9348   0.464   5.561   5.489
 2817SOL     OW 9349   3.444   0.863   2.438
 2817SOL    HW1 9350   3.535   0.896   2.411
 2817SOL    HW2 9351   3.430   0.771   2.403
 2818SOL     OW 9352   2.129   0.349   0.491
 2818SOL    HW1 9353   2.093   0.332   0.399
 2818SOL    HW2 9354   2.145   0.447   0.503
 2819SOL     OW 9355   0.765   0.070   6.641
 2819SOL    HW1 9356   0.797   0.146   6.697
 2819SOL    HW2 9357   0.667   0.055   6.656
 2820SOL     OW 9358   1.414   2.703   6.765
 2820SOL    HW1 9359   1.447   2.767   6.834
 2820SOL    HW2 9360   1.480   2.629   6.753
 2821SOL     OW 9361   3.707   3.420   6.322
 2821SOL    HW1 9362   3.792   3.443   6.368
 2821SOL    HW2 9363   3.712   3.326   6.287
 2822SOL     OW 9364   4.543   2.851   0.065
 2822SOL    HW1 9365   4.599   2.800   0.129
 2822SOL    HW2 9366   4.554   2.814   6.999
 2823SOL     OW 9367   5.009   2.646   1.358
 2823SOL    HW1 9368   5.086   2.595   1.319
 2823SOL    HW2 9369   4.923   2.598   1.338
 2824SOL     OW 9370   1.095   3.643   4.357
 2824SOL    HW1 9371   1.171   3.706   4.372
 2824SOL    HW2 9372   1.130   3.549   4.352
 2825SOL     OW 9373   5.444   1.805   6.238
 2825SOL    HW1 9374   5.461   1.746   6.317
 2825SOL    HW2 9375   5.528   1.850   6.211
 2826SOL     OW 9376   2.677   2.579   6.279
 2826SOL    HW1 9377   2.761   2.527   6.294
 2826SOL    HW2 9378   2.694   2.676   6.296
 2827SOL     OW 9379   6.356   1.085   6.332
 2827SOL    HW1 9380   6.360   1.120   6.425
 2827SOL    HW2 9381   6.365   1.161   6.267
 2828SOL     OW 9382   1.704   3.926   1.178
 2828SOL    HW1 9383   1.766   3.996   1.144
 2828SOL    HW2 9384   1.640   3.967   1.243
 2829SOL     OW 9385   3.310   3.796   2.152
 2829SOL    HW1 9386   3.297   3.806   2.251
 2829SOL    HW2 9387   3.354   3.878   2.116
 2830SOL     OW 9388   3.390   5.997   5.040
 2830SOL    HW1 9389   3.421   6.010   5.134
 2830SOL    HW2 9390   3.312   5.934   5.039
 2831SOL     OW 9391   5.514   1.945   1.970
 2831SOL    HW1 9392   5.432   1.892   1.950
 2831SOL    HW2 9393   5.500   1.996   2.056
 2832SOL     OW 9394   0.942   3.839   1.871
 2832SOL    HW1 9395   1.001   3.759   1.883
 2832SOL    HW2 9396   0.913   3.844   1.775
 2833SOL     OW 9397   1.345   2.465   1.907
 2833SOL    HW1 9398   1.348   2.372   1.870
 2833SOL    HW2 9399   1.250   2.488   1.930
 2834SOL     OW 9400   3.853   6.327   4.579
 2834SOL    HW1 9401   3.789   6.289   4.646
 2834SOL    HW2 9402   3.933   6.363   4.626
 2835SOL     OW 9403   6.550   0.734   6.788
 2835SOL    HW1 9404   6.513   0.736   6.881
 2835SOL    HW2 9405   6.649   0.734   6.792
 2836SOL     OW 9406   2.978   5.747   2.526
 2836SOL    HW1 9407   3.034   5.665   2.535
 2836SOL    HW2 9408   2.919   5.757   2.606
 2837SOL     OW 9409   5.302   4.111   2.031
 2837SOL    HW1 9410   5.220   4.067   2.070
 2837SOL    HW2 9411   5.325   4.192   2.084
 2838SOL     OW 9412   6.444   4.392   6.497
 2838SOL    HW1 9413   6.444   4.442   6.583
 2838SOL    HW2 9414   6.350   4.379   6.466
 2839SOL     OW 9415   6.042   3.457   4.811
 2839SOL    HW1 9416   6.078   3.521   4.743
 2839SOL    HW2 9417   5.947   3.433   4.788
 2840SOL     OW 9418   0.047   0.004   4.204
 2840SOL    HW1 9419   6.977   7.004   4.202
 2840SOL    HW2 9420   0.100   6.957   4.245
 2841SOL     OW 9421   5.809   4.153   2.368
 2841SOL    HW1 9422   5.762   4.065   2.368
 2841SOL    HW2 9423   5.759   4.217   2.425
 2842SOL     OW 9424   1.068   0.584   3.713
 2842SOL    HW1 9425   1.157   0.582   3.759
 2842SOL    HW2 9426   1.063   0.665   3.655
 2843SOL     OW 9427   2.083   2.436   3.898
 2843SOL    HW1 9428   2.018   2.368   3.864
 2843SOL    HW2 9429   2.047   2.528   3.882
 2844SOL     OW 9430   5.103   3.573   0.455
 2844SOL    HW1 9431   5.005   3.581   0.436
 2844SOL    HW2 9432   5.122   3.481   0.491
 2845SOL     OW 9433   3.273   1.488   2.410
 2845SOL    HW1 9434   3.353   1.431   2.392
 2845SOL    HW2 9435   3.299   1.566   2.466
 2846SOL     OW 9436   6.740   0.189   6.589
 2846SOL    HW1 9437   6.677   0.113   6.600
 2846SOL    HW2 9438   6.688   0.274   6.580
 2847SOL     OW 9439   4.449   4.829   1.113
 2847SOL    HW1 9440   4.525   4.880   1.155
 2847SOL    HW2 9441   4.486   4.758   1.054
 2848SOL     OW 9442   0.900   4.311   5.400
 2848SOL    HW1 9443   0.966   4.236   5.403
 2848SOL    HW2 9444   0.905   4.356   5.311
 2849SOL     OW 9445   5.124   0.306   1.605
 2849SOL    HW1 9446   5.086   0.358   1.681
 2849SOL    HW2 9447   5.196   0.359   1.561
 2850SOL     OW 9448   1.507   0.824   2.272
 2850SOL    HW1 9449   1.472   0.750   2.330
 2850SOL    HW2 9450   1.569   0.881   2.326
 2851SOL     OW 9451   3.665   3.020   1.688
 2851SOL    HW1 9452   3.706   3.018   1.779
 2851SOL    HW2 9453   3.583   2.963   1.687
 2852SOL     OW 9454   6.643   4.760   5.768
 2852SOL    HW1 9455   6.551   4.798   5.754
 2852SOL    HW2 9456   6.646   4.666   5.733
 2853SOL     OW 9457   0.050   4.279   5.666
 2853SOL    HW1 9458   0.144   4.246   5.657
 2853SOL    HW2 9459   7.018   4.205   5.701
 2854SOL     OW 9460   4.320   0.644   5.679
 2854SOL    HW1 9461   4.391   0.680   5.619
 2854SOL    HW2 9462   4.329   0.545   5.685
 2855SOL     OW 9463   2.404   1.588   5.033
 2855SOL    HW1 9464   2.311   1.582   5.069
 2855SOL    HW2 9465   2.421   1.682   5.002
 2856SOL     OW 9466   0.939   5.496   3.638
 2856SOL    HW1 9467   1.030   5.454   3.633
 2856SOL    HW2 9468   0.885   5.450   3.708
 2857SOL     OW 9469   7.023   4.650   1.088
 2857SOL    HW1 9470   7.003   4.560   1.048
 2857SOL    HW2 9471   6.944   4.681   1.141
 2858SOL     OW 9472   4.703   4.656   2.313
 2858SOL    HW1 9473   4.644   4.623   2.239
 2858SOL    HW2 9474   4.659   4.640   2.401
 2859SOL     OW 9475   5.681   4.571   1.317
 2859SOL    HW1 9476   5.728   4.506   1.257
 2859SOL    HW2 9477   5.585   4.579   1.288
 2860SOL     OW 9478   0.770   0.118   2.413
 2860SOL    HW1 9479   0.699   0.132   2.481
 2860SOL    HW2 9480   0.851   0.079   2.457
 2861SOL     OW 9481   4.759   4.433   5.792
 2861SOL    HW1 9482   4.684   4.391   5.741
 2861SOL    HW2 9483   4.774   4.382   5.876
 2862SOL     OW 9484   4.599   2.918   6.768
 2862SOL    HW1 9485   4.697   2.935   6.764
 2862SOL    HW2 9486   4.582   2.819   6.775
 2863SOL     OW 9487   5.988   1.407   5.323
 2863SOL    HW1 9488   5.897   1.414   5.284
 2863SOL    HW2 9489   6.025   1.316   5.307
 2864SOL     OW 9490   3.626   4.221   0.397
 2864SOL    HW1 9491   3.598   4.315   0.376
 2864SOL    HW2 9492   3.710   4.201   0.348
 2865SOL     OW 9493   5.734   5.155   4.584
 2865SOL    HW1 9494   5.781   5.236   4.619
 2865SOL    HW2 9495   5.678   5.116   4.657
 2866SOL     OW 9496   3.884   4.138   0.301
 2866SOL    HW1 9497   3.902   4.043   0.328
 2866SOL    HW2 9498   3.961   4.172   0.247
 2867SOL     OW 9499   5.261   6.250   2.406
 2867SOL    HW1 9500   5.168   6.214   2.399
 2867SOL    HW2 9501   5.273   6.324   2.340
 2868SOL     OW 9502   0.709   0.147   5.731
 2868SOL    HW1 9503   0.666   0.146   5.822
 2868SOL    HW2 9504   0.763   0.230   5.721
 2869SOL     OW 9505   6.280   5.541   4.291
 2869SOL    HW1 9506   6.369   5.496   4.281
 2869SOL    HW2 9507   6.267   5.606   4.216
 2870SOL     OW 9508   6.539   2.237   2.356
 2870SOL    HW1 9509   6.524   2.321   2.408
 2870SOL    HW2 9510   6.612   2.185   2.400
 2871SOL     OW 9511   4.556   1.386   2.391
 2871SOL    HW1 9512   4.607   1.319   2.338
 2871SOL    HW2 9513   4.550   1.471   2.340
 2872SOL     OW 9514   2.540   2.062   2.408
 2872SOL    HW1 9515   2.486   2.064   2.492
 2872SOL    HW2 9516   2.565   2.155   2.381
 2873SOL     OW 9517   0.551   6.849   1.412
 2873SOL    HW1 9518   0.515   6.818   1.499
 2873SOL    HW2 9519   0.476   6.855   1.345
 2874SOL     OW 9520   2.607   1.265   3.312
 2874SOL    HW1 9521   2.691   1.317   3.298
 2874SOL    HW2 9522   2.592   1.204   3.235
 2875SOL     OW 9523   2.006   0.115   3.029
 2875SOL    HW1 9524   2.089   0.171   3.024
 2875SOL    HW2 9525   1.929   0.172   3.056
 2876SOL     OW 9526   1.854   0.252   1.869
 2876SOL    HW1 9527   1.948   0.277   1.845
 2876SOL    HW2 9528   1.799   0.335   1.877
 2877SOL     OW 9529   1.325   2.386   6.824
 2877SOL    HW1 9530   1.298   2.381   6.920
 2877SOL    HW2 9531   1.391   2.460   6.811
 2878SOL     OW 9532   3.831   3.201   3.987
 2878SOL    HW1 9533   3.742   3.199   3.942
 2878SOL    HW2 9534   3.902   3.219   3.919
 2879SOL     OW 9535   5.134   4.258   0.021
 2879SOL    HW1 9536   5.128   4.263   6.948
 2879SOL    HW2 9537   5.050   4.295   0.061
 2880SOL     OW 9538   2.138   1.073   3.338
 2880SOL    HW1 9539   2.057   1.112   3.381
 2880SOL    HW2 9540   2.144   1.104   3.243
 2881SOL     OW 9541   5.319   6.051   7.020
 2881SOL    HW1 9542   5.331   6.050   0.093
 2881SOL    HW2 9543   5.242   5.991   6.995
 2882SOL     OW 9544   4.372   6.063   7.003
 2882SOL    HW1 9545   4.278   6.095   7.016
 2882SOL    HW2 9546   4.435   6.139   7.018
 2883SOL     OW 9547   5.918   6.196   4.187
 2883SOL    HW1 9548   5.854   6.202   4.264
 2883SOL    HW2 9549   5.908   6.107   4.143
 2884SOL     OW 9550   5.956   5.245   4.178
 2884SOL    HW1 9551   6.042   5.202   4.152
 2884SOL    HW2 9552   5.959   5.270   4.275
 2885SOL     OW 9553   1.166   2.647   3.180
 2885SOL    HW1 9554   1.143   2.606   3.268
 2885SOL    HW2 9555   1.192   2.743   3.193
 2886SOL     OW 9556   2.259   4.321   5.452
 2886SOL    HW1 9557   2.177   4.273   5.420
 2886SOL    HW2 9558   2.336   4.298   5.393
 2887SOL     OW 9559   0.626   6.081   3.327
 2887SOL    HW1 9560   0.567   6.002   3.344
 2887SOL    HW2 9561   0.704   6.078   3.389
 2888SOL     OW 9562   6.059   6.994   6.427
 2888SOL    HW1 9563   6.128   6.967   6.494
 2888SOL    HW2 9564   6.061   6.931   6.350
 2889SOL     OW 9565   3.698   5.995   2.601
 2889SOL    HW1 9566   3.612   6.004   2.550
 2889SOL    HW2 9567   3.719   6.081   2.646
 2890SOL     OW 9568   1.014   2.051   1.289
 2890SOL    HW1 9569   1.022   2.094   1.198
 2890SOL    HW2 9570   0.968   1.963   1.280
 2891SOL     OW 9571   6.598   2.295   4.899
 2891SOL    HW1 9572   6.632   2.217   4.846
 2891SOL    HW2 9573   6.588   2.268   4.995
 2892SOL     OW 9574   5.784   3.869   2.529
 2892SOL    HW1 9575   5.702   3.837   2.576
 2892SOL    HW2 9576   5.792   3.824   2.440
 2893SOL     OW 9577   6.834   5.360   4.536
 2893SOL    HW1 9578   6.785   5.281   4.573
 2893SOL    HW2 9579   6.806   5.443   4.584
 2894SOL     OW 9580   1.925   5.330   2.626
 2894SOL    HW1 9581   1.844   5.390   2.628
 2894SOL    HW2 9582   1.934   5.283   2.714
 2895SOL     OW 9583   4.344   6.937   5.816
 2895SOL    HW1 9584   4.394   6.862   5.775
 2895SOL    HW2 9585   4.391   6.967   5.899
 2896SOL     OW 9586   5.128   0.002   4.689
 2896SOL    HW1 9587   5.189   0.078   4.712
 2896SOL    HW2 9588   5.062   7.015   4.763
 2897SOL     OW 9589   4.251   4.961   3.136
 2897SOL    HW1 9590   4.186   4.889   3.159
 2897SOL    HW2 9591   4.344   4.923   3.135
 2898SOL     OW 9592   5.429   2.732   2.645
 2898SOL    HW1 9593   5.492   2.795   2.599
 2898SOL    HW2 9594   5.392   2.667   2.578
 2899SOL     OW 9595   6.901   3.936   0.943
 2899SOL    HW1 9596   6.959   3.895   0.873
 2899SOL    HW2 9597   6.865   3.864   1.003
 2900SOL     OW 9598   2.687   3.165   5.761
 2900SOL    HW1 9599   2.614   3.112   5.718
 2900SOL    HW2 9600   2.712   3.123   5.848
 2901SOL     OW 9601   0.448   3.817   3.602
 2901SOL    HW1 9602   0.494   3.905   3.590
 2901SOL    HW2 9603   0.483   3.752   3.534
 2902SOL     OW 9604   6.852   6.359   4.256
 2902SOL    HW1 9605   6.888   6.394   4.169
 2902SOL    HW2 9606   6.753   6.371   4.259
 2903SOL     OW 9607   5.113   4.935   0.403
 2903SOL    HW1 9608   5.177   4.904   0.474
 2903SOL    HW2 9609   5.160   4.938   0.315
 2904SOL     OW 9610   2.216   3.983   5.374
 2904SOL    HW1 9611   2.172   4.073   5.375
 2904SOL    HW2 9612   2.282   3.979   5.299
 2905SOL     OW 9613   1.556   5.900   1.445
 2905SOL    HW1 9614   1.542   5.966   1.519
 2905SOL    HW2 9615   1.650   5.905   1.413
 2906SOL     OW 9616   6.198   5.837   4.202
 2906SOL    HW1 9617   6.107   5.839   4.160
 2906SOL    HW2 9618   6.188   5.830   4.301
 2907SOL     OW 9619   0.657   1.178   4.610
 2907SOL    HW1 9620   0.695   1.138   4.694
 2907SOL    HW2 9621   0.608   1.262   4.633
 2908SOL     OW 9622   4.447   6.743   2.839
 2908SOL    HW1 9623   4.498   6.657   2.835
 2908SOL    HW2 9624   4.370   6.732   2.902
 2909SOL     OW 9625   6.814   6.531   1.567
 2909SOL    HW1 9626   6.761   6.447   1.565
 2909SOL    HW2 9627   6.898   6.517   1.619
 2910SOL     OW 9628   0.269   0.868   3.915
 2910SOL    HW1 9629   0.295   0.773   3.929
 2910SOL    HW2 9630   0.352   0.925   3.912
 2911SOL     OW 9631   6.935   4.489   5.680
 2911SOL    HW1 9632   6.993   4.408   5.674
 2911SOL    HW2 9633   6.859   4.481   5.616
 2912SOL     OW 9634   0.999   1.469   1.836
 2912SOL    HW1 9635   0.911   1.432   1.807
 2912SOL    HW2 9636   1.052   1.495   1.756
 2913SOL     OW 9637   3.156   6.680   2.402
 2913SOL    HW1 9638   3.093   6.724   2.338
 2913SOL    HW2 9639   3.159   6.581   2.383
 2914SOL     OW 9640   4.330   5.667   0.818
 2914SOL    HW1 9641   4.314   5.569   0.827
 2914SOL    HW2 9642   4.370   5.702   0.902
 2915SOL     OW 9643   2.584   0.167   2.683
 2915SOL    HW1 9644   2.514   0.101   2.657
 2915SOL    HW2 9645   2.647   0.182   2.606
 2916SOL     OW 9646   1.533   6.049   0.007
 2916SOL    HW1 9647   1.517   5.951   0.002
 2916SOL    HW2 9648   1.461   6.092   0.060
 2917SOL     OW 9649   2.887   6.861   3.654
 2917SOL    HW1 9650   2.957   6.865   3.726
 2917SOL    HW2 9651   2.907   6.787   3.591
 2918SOL     OW 9652   4.802   2.567   1.632
 2918SOL    HW1 9653   4.725   2.533   1.576
 2918SOL    HW2 9654   4.865   2.619   1.574
 2919SOL     OW 9655   0.628   5.683   4.995
 2919SOL    HW1 9656   0.717   5.669   4.952
 2919SOL    HW2 9657   0.635   5.669   5.093
 2920SOL     OW 9658   1.639   2.496   2.836
 2920SOL    HW1 9659   1.603   2.555   2.763
 2920SOL    HW2 9660   1.707   2.434   2.798
 2921SOL     OW 9661   1.151   6.366   3.648
 2921SOL    HW1 9662   1.059   6.399   3.670
 2921SOL    HW2 9663   1.200   6.345   3.733
 2922SOL     OW 9664   3.709   6.216   4.189
 2922SOL    HW1 9665   3.645   6.170   4.129
 2922SOL    HW2 9666   3.704   6.315   4.175
 2923SOL     OW 9667   6.497   5.268   5.004
 2923SOL    HW1 9668   6.501   5.209   4.924
 2923SOL    HW2 9669   6.483   5.363   4.976
 2924SOL     OW 9670   6.052   1.679   5.318
 2924SOL    HW1 9671   6.149   1.665   5.294
 2924SOL    HW2 9672   5.998   1.604   5.281
 2925SOL     OW 9673   5.441   6.581   5.401
 2925SOL    HW1 9674   5.488   6.637   5.469
 2925SOL    HW2 9675   5.343   6.596   5.408
 2926SOL     OW 9676   6.302   2.811   4.437
 2926SOL    HW1 9677   6.330   2.893   4.488
 2926SOL    HW2 9678   6.361   2.800   4.357
 2927SOL     OW 9679   1.224   1.704   1.945
 2927SOL    HW1 9680   1.180   1.746   1.866
 2927SOL    HW2 9681   1.186   1.613   1.960
 2928SOL     OW 9682   6.331   3.121   0.209
 2928SOL    HW1 9683   6.335   3.035   0.157
 2928SOL    HW2 9684   6.378   3.193   0.158
 2929SOL     OW 9685   2.362   2.270   4.262
 2929SOL    HW1 9686   2.359   2.273   4.362
 2929SOL    HW2 9687   2.284   2.320   4.225
 2930SOL     OW 9688   0.666   3.862   4.305
 2930SOL    HW1 9689   0.668   3.958   4.276
 2930SOL    HW2 9690   0.662   3.803   4.224
 2931SOL     OW 9691   4.836   3.802   5.763
 2931SOL    HW1 9692   4.895   3.870   5.720
 2931SOL    HW2 9693   4.786   3.753   5.691
 2932SOL     OW 9694   5.923   5.078   1.157
 2932SOL    HW1 9695   6.016   5.043   1.168
 2932SOL    HW2 9696   5.904   5.095   1.060
 2933SOL     OW 9697   1.384   6.613   6.852
 2933SOL    HW1 9698   1.401   6.685   6.785
 2933SOL    HW2 9699   1.291   6.578   6.840
 2934SOL     OW 9700   3.681   4.298   0.942
 2934SOL    HW1 9701   3.732   4.262   1.021
 2934SOL    HW2 9702   3.626   4.225   0.903
 2935SOL     OW 9703   0.450   2.218   6.397
 2935SOL    HW1 9704   0.387   2.217   6.319
 2935SOL    HW2 9705   0.510   2.297   6.390
 2936SOL     OW 9706   4.739   6.066   1.459
 2936SOL    HW1 9707   4.807   6.139   1.466
 2936SOL    HW2 9708   4.717   6.049   1.363
 2937SOL     OW 9709   5.210   4.473   2.527
 2937SOL    HW1 9710   5.154   4.415   2.585
 2937SOL    HW2 9711   5.251   4.417   2.454
 2938SOL     OW 9712   0.126   5.198   6.237
 2938SOL    HW1 9713   0.138   5.260   6.315
 2938SOL    HW2 9714   0.194   5.125   6.242
 2939SOL     OW 9715   0.006   6.533   1.752
 2939SOL    HW1 9716   0.055   6.586   1.683
 2939SOL    HW2 9717   0.070   6.505   1.824
 2940SOL     OW 9718   4.269   6.698   4.014
 2940SOL    HW1 9719   4.199   6.637   4.050
 2940SOL    HW2 9720   4.244   6.726   3.921
 2941SOL     OW 9721   1.796   4.827   3.122
 2941SOL    HW1 9722   1.855   4.760   3.168
 2941SOL    HW2 9723   1.701   4.797   3.129
 2942SOL     OW 9724   3.224   1.654   1.437
 2942SOL    HW1 9725   3.217   1.590   1.514
 2942SOL    HW2 9726   3.243   1.603   1.353
 2943SOL     OW 9727   6.141   3.951   3.011
 2943SOL    HW1 9728   6.081   4.031   3.009
 2943SOL    HW2 9729   6.121   3.893   2.932
 2944SOL     OW 9730   1.835   5.650   2.421
 2944SOL    HW1 9731   1.844   5.739   2.467
 2944SOL    HW2 9732   1.778   5.589   2.476
 2945SOL     OW 9733   4.552   4.364   0.902
 2945SOL    HW1 9734   4.528   4.444   0.847
 2945SOL    HW2 9735   4.591   4.395   0.989
 2946SOL     OW 9736   3.819   3.607   5.380
 2946SOL    HW1 9737   3.851   3.697   5.351
 2946SOL    HW2 9738   3.794   3.610   5.477
 2947SOL     OW 9739   6.396   6.207   0.844
 2947SOL    HW1 9740   6.337   6.167   0.914
 2947SOL    HW2 9741   6.390   6.153   0.760
 2948SOL     OW 9742   7.002   3.472   2.342
 2948SOL    HW1 9743   7.016   3.399   2.276
 2948SOL    HW2 9744   0.056   3.531   2.345
 2949SOL     OW 9745   1.647   6.137   0.508
 2949SOL    HW1 9746   1.708   6.102   0.437
 2949SOL    HW2 9747   1.553   6.141   0.473
 2950SOL     OW 9748   6.050   5.194   2.841
 2950SOL    HW1 9749   6.011   5.245   2.765
 2950SOL    HW2 9750   6.049   5.096   2.820
 2951SOL     OW 9751   6.903   1.361   1.657
 2951SOL    HW1 9752   6.841   1.294   1.616
 2951SOL    HW2 9753   6.864   1.452   1.647
 2952SOL     OW 9754   6.729   1.928   5.126
 2952SOL    HW1 9755   6.648   1.892   5.174
 2952SOL    HW2 9756   6.809   1.874   5.151
 2953SOL     OW 9757   1.304   4.709   3.276
 2953SOL    HW1 9758   1.216   4.757   3.271
 2953SOL    HW2 9759   1.317   4.674   3.369
 2954SOL     OW 9760   0.070   4.486   6.335
 2954SOL    HW1 9761   0.041   4.415   6.271
 2954SOL    HW2 9762   0.153   4.456   6.382
 2955SOL     OW 9763   1.935   4.296   5.687
 2955SOL    HW1 9764   1.962   4.240   5.765
 2955SOL    HW2 9765   1.926   4.391   5.715
 2956SOL     OW 9766   5.319   4.714   3.992
 2956SOL    HW1 9767   5.296   4.735   4.087
 2956SOL    HW2 9768   5.416   4.732   3.976
 2957SOL     OW 9769   2.085   5.184   1.232
 2957SOL    HW1 9770   2.060   5.221   1.142
 2957SOL    HW2 9771   2.011   5.200   1.297
 2958SOL     OW 9772   2.440   4.822   2.614
 2958SOL    HW1 9773   2.462   4.874   2.532
 2958SOL    HW2 9774   2.407   4.885   2.685
 2959SOL     OW 9775   6.789   3.582   3.066
 2959SOL    HW1 9776   6.760   3.551   2.975
 2959SOL    HW2 9777   6.887   3.599   3.065
 2960SOL     OW 9778   5.299   6.783   1.016
 2960SOL    HW1 9779   5.233   6.775   1.091
 2960SOL    HW2 9780   5.352   6.867   1.028
 2961SOL     OW 9781   5.427   3.455   1.966
 2961SOL    HW1 9782   5.466   3.432   1.876
 2961SOL    HW2 9783   5.476   3.405   2.037
 2962SOL     OW 9784   6.929   0.379   3.261
 2962SOL    HW1 9785   7.021   0.406   3.291
 2962SOL    HW2 9786   6.906   0.428   3.177
 2963SOL     OW 9787   1.543   0.936   4.938
 2963SOL    HW1 9788   1.565   0.953   4.842
 2963SOL    HW2 9789   1.594   0.855   4.969
 2964SOL     OW 9790   1.497   0.996   6.620
 2964SOL    HW1 9791   1.588   0.960   6.598
 2964SOL    HW2 9792   1.503   1.053   6.702
 2965SOL     OW 9793   0.241   6.935   5.528
 2965SOL    HW1 9794   0.232   0.001   5.493
 2965SOL    HW2 9795   0.195   6.927   5.616
 2966SOL     OW 9796   2.798   5.756   1.945
 2966SOL    HW1 9797   2.884   5.721   1.981
 2966SOL    HW2 9798   2.751   5.807   2.017
 2967SOL     OW 9799   5.203   0.604   4.537
 2967SOL    HW1 9800   5.261   0.523   4.527
 2967SOL    HW2 9801   5.142   0.591   4.615
 2968SOL     OW 9802   1.193   3.608   1.233
 2968SOL    HW1 9803   1.137   3.590   1.153
 2968SOL    HW2 9804   1.285   3.635   1.204
 2969SOL     OW 9805   4.562   3.373   5.342
 2969SOL    HW1 9806   4.490   3.442   5.353
 2969SOL    HW2 9807   4.651   3.418   5.339
 2970SOL     OW 9808   2.803   1.990   5.089
 2970SOL    HW1 9809   2.824   1.993   4.991
 2970SOL    HW2 9810   2.858   2.058   5.137
 2971SOL     OW 9811   5.042   3.087   6.258
 2971SOL    HW1 9812   4.996   3.007   6.221
 2971SOL    HW2 9813   5.061   3.152   6.185
 2972SOL     OW 9814   6.418   5.521   6.509
 2972SOL    HW1 9815   6.371   5.594   6.459
 2972SOL    HW2 9816   6.350   5.465   6.558
 2973SOL     OW 9817   4.576   1.041   3.545
 2973SOL    HW1 9818   4.500   1.018   3.483
 2973SOL    HW2 9819   4.661   1.002   3.508
 2974SOL     OW 9820   4.391   6.908   1.887
 2974SOL    HW1 9821   4.414   6.968   1.964
 2974SOL    HW2 9822   4.443   6.823   1.894
 2975SOL     OW 9823   5.186   4.026   4.262
 2975SOL    HW1 9824   5.125   3.957   4.301
 2975SOL    HW2 9825   5.279   4.013   4.298
 2976SOL     OW 9826   3.927   1.126   2.269
 2976SOL    HW1 9827   3.916   1.093   2.176
 2976SOL    HW2 9828   3.998   1.072   2.315
 2977SOL     OW 9829   1.030   0.355   1.884
 2977SOL    HW1 9830   0.987   0.299   1.954
 2977SOL    HW2 9831   1.018   0.452   1.906
 2978SOL     OW 9832   4.724   5.212   6.544
 2978SOL    HW1 9833   4.695   5.290   6.488
 2978SOL    HW2 9834   4.650   5.146   6.550
 2979SOL     OW 9835   2.830   0.928   4.329
 2979SOL    HW1 9836   2.843   1.013   4.381
 2979SOL    HW2 9837   2.876   0.853   4.375
 2980SOL     OW 9838   3.537   3.552   4.628
 2980SOL    HW1 9839   3.476   3.510   4.695
 2980SOL    HW2 9840   3.482   3.602   4.561
 2981SOL     OW 9841   2.075   0.951   1.412
 2981SOL    HW1 9842   2.130   0.897   1.348
 2981SOL    HW2 9843   1.984   0.910   1.421
 2982SOL     OW 9844   1.838   0.069   0.849
 2982SOL    HW1 9845   1.750   0.118   0.847
 2982SOL    HW2 9846   1.902   0.115   0.787
 2983SOL     OW 9847   6.372   3.085   5.505
 2983SOL    HW1 9848   6.294   3.147   5.514
 2983SOL    HW2 9849   6.428   3.113   5.427
 2984SOL     OW 9850   0.269   5.689   1.630
 2984SOL    HW1 9851   0.345   5.653   1.575
 2984SOL    HW2 9852   0.215   5.612   1.664
 2985SOL     OW 9853   6.812   0.265   5.836
 2985SOL    HW1 9854   6.737   0.203   5.861
 2985SOL    HW2 9855   6.892   0.211   5.808
 2986SOL     OW 9856   3.423   3.539   2.146
 2986SOL    HW1 9857   3.497   3.492   2.192
 2986SOL    HW2 9858   3.429   3.637   2.165
 2987SOL     OW 9859   1.812   6.137   5.298
 2987SOL    HW1 9860   1.912   6.142   5.288
 2987SOL    HW2 9861   1.774   6.229   5.300
 2988SOL     OW 9862   0.210   1.580   6.618
 2988SOL    HW1 9863   0.225   1.502   6.678
 2988SOL    HW2 9864   0.120   1.571   6.574
 2989SOL     OW 9865   5.115   3.204   4.619
 2989SOL    HW1 9866   5.165   3.151   4.550
 2989SOL    HW2 9867   5.042   3.148   4.657
 2990SOL     OW 9868   5.539   1.843   4.372
 2990SOL    HW1 9869   5.579   1.927   4.334
 2990SOL    HW2 9870   5.572   1.830   4.465
 2991SOL     OW 9871   0.371   3.397   0.821
 2991SOL    HW1 9872   0.335   3.303   0.822
 2991SOL    HW2 9873   0.411   3.416   0.731
 2992SOL     OW 9874   0.254   3.573   5.366
 2992SOL    HW1 9875   0.234   3.671   5.359
 2992SOL    HW2 9876   0.223   3.539   5.455
 2993SOL     OW 9877   2.047   3.888   0.653
 2993SOL    HW1 9878   2.116   3.888   0.580
 2993SOL    HW2 9879   1.975   3.953   0.631
 2994SOL     OW 9880   3.636   5.516   5.859
 2994SOL    HW1 9881   3.576   5.561   5.925
 2994SOL    HW2 9882   3.608   5.542   5.766
 2995SOL     OW 9883   4.410   0.162   0.915
 2995SOL    HW1 9884   4.428   0.259   0.899
 2995SOL    HW2 9885   4.484   0.122   0.969
 2996SOL     OW 9886   6.410   0.634   4.125
 2996SOL    HW1 9887   6.407   0.732   4.110
 2996SOL    HW2 9888   6.318   0.599   4.144
 2997SOL     OW 9889   4.912   6.563   4.437
 2997SOL    HW1 9890   4.930   6.488   4.373
 2997SOL    HW2 9891   4.830   6.613   4.407
 2998SOL     OW 9892   2.986   1.205   1.651
 2998SOL    HW1 9893   3.040   1.201   1.735
 2998SOL    HW2 9894   2.891   1.182   1.672
 2999SOL     OW 9895   2.964   4.509   1.053
 2999SOL    HW1 9896   2.986   4.607   1.058
 2999SOL    HW2 9897   2.909   4.492   0.971
 3000SOL     OW 9898   2.828   3.991   5.515
 3000SOL    HW1 9899   2.767   4.069   5.524
 3000SOL    HW2 9900   2.791   3.913   5.566
 3001SOL     OW 9901   5.442   0.616   6.207
 3001SOL    HW1 9902   5.393   0.649   6.288
 3001SOL    HW2 9903   5.541   0.626   6.222
 3002SOL     OW 9904   1.630   1.905   1.765
 3002SOL    HW1 9905   1.576   1.820   1.759
 3002SOL    HW2 9906   1.637   1.933   1.860
 3003SOL     OW 9907   1.842   6.242   0.265
 3003SOL    HW1 9908   1.830   6.194   0.178
 3003SOL    HW2 9909   1.939   6.264   0.278
 3004SOL     OW 9910   2.637   6.468   3.922
 3004SOL    HW1 9911   2.704   6.420   3.867
 3004SOL    HW2 9912   2.604   6.548   3.872
 3005SOL     OW 9913   1.108   2.088   0.357
 3005SOL    HW1 9914   1.156   2.159   0.408
 3005SOL    HW2 9915   1.151   2.077   0.266
 3006SOL     OW 9916   5.285   1.762   6.003
 3006SOL    HW1 9917   5.230   1.834   5.960
 3006SOL    HW2 9918   5.352   1.803   6.064
 3007SOL     OW 9919   5.854   5.613   7.000
 3007SOL    HW1 9920   5.868   5.532   6.943
 3007SOL    HW2 9921   5.848   5.694   6.942
 3008SOL     OW 9922   4.315   3.647   5.582
 3008SOL    HW1 9923   4.357   3.676   5.496
 3008SOL    HW2 9924   4.306   3.547   5.583
 3009SOL     OW 9925   6.772   3.457   1.823
 3009SOL    HW1 9926   6.852   3.451   1.883
 3009SOL    HW2 9927   6.697   3.403   1.862
 3010SOL     OW 9928   4.491   5.715   1.082
 3010SOL    HW1 9929   4.570   5.777   1.079
 3010SOL    HW2 9930   4.421   5.753   1.142
 3011SOL     OW 9931   6.378   0.425   1.018
 3011SOL    HW1 9932   6.473   0.458   1.025
 3011SOL    HW2 9933   6.374   0.350   0.953
 3012SOL     OW 9934   2.016   2.250   5.135
 3012SOL    HW1 9935   1.968   2.331   5.102
 3012SOL    HW2 9936   2.113   2.271   5.145
 3013SOL     OW 9937   0.110   4.810   4.702
 3013SOL    HW1 9938   0.207   4.826   4.684
 3013SOL    HW2 9939   0.096   4.713   4.725
 3014SOL     OW 9940   5.546   0.272   6.301
 3014SOL    HW1 9941   5.531   0.175   6.282
 3014SOL    HW2 9942   5.485   0.327   6.244
 3015SOL     OW 9943   1.367   0.640   6.269
 3015SOL    HW1 9944   1.325   0.726   6.238
 3015SOL    HW2 9945   1.465   0.644   6.253
 3016SOL     OW 9946   2.194   6.251   4.467
 3016SOL    HW1 9947   2.227   6.336   4.508
 3016SOL    HW2 9948   2.261   6.178   4.482
 3017SOL     OW 9949   1.159   5.451   0.173
 3017SOL    HW1 9950   1.063   5.440   0.147
 3017SOL    HW2 9951   1.167   5.459   0.272
 3018SOL     OW 9952   3.594   0.681   1.232
 3018SOL    HW1 9953   3.559   0.710   1.143
 3018SOL    HW2 9954   3.594   0.759   1.295
 3019SOL     OW 9955   1.978   0.724   5.869
 3019SOL    HW1 9956   1.991   0.636   5.824
 3019SOL    HW2 9957   1.891   0.763   5.839
 3020SOL     OW 9958   6.312   4.289   6.900
 3020SOL    HW1 9959   6.377   4.363   6.915
 3020SOL    HW2 9960   6.244   4.289   6.973
 3021SOL     OW 9961   4.103   0.612   5.015
 3021SOL    HW1 9962   4.040   0.687   5.036
 3021SOL    HW2 9963   4.091   0.539   5.082
 3022SOL     OW 9964   4.124   5.914   3.460
 3022SOL    HW1 9965   4.204   5.924   3.401
 3022SOL    HW2 9966   4.105   5.817   3.474
 3023SOL     OW 9967   5.704   5.118   4.289
 3023SOL    HW1 9968   5.799   5.112   4.257
 3023SOL    HW2 9969   5.703   5.148   4.385
 3024SOL     OW 9970   0.411   0.700   0.192
 3024SOL    HW1 9971   0.385   0.782   0.243
 3024SOL    HW2 9972   0.342   0.681   0.122
 3025SOL     OW 9973   4.376   5.681   7.001
 3025SOL    HW1 9974   4.360   5.724   6.913
 3025SOL    HW2 9975   4.396   5.751   0.043
 3026SOL     OW 9976   0.031   0.824   1.912
 3026SOL    HW1 9977   0.070   0.812   2.003
 3026SOL    HW2 9978   0.025   0.735   1.867
 3027SOL     OW 9979   4.579   0.273   0.452
 3027SOL    HW1 9980   4.537   0.214   0.521
 3027SOL    HW2 9981   4.514   0.343   0.424
 3028SOL     OW 9982   3.356   2.879   5.618
 3028SOL    HW1 9983   3.359   2.815   5.695
 3028SOL    HW2 9984   3.444   2.924   5.608
 3029SOL     OW 9985   6.728   3.445   4.522
 3029SOL    HW1 9986   6.709   3.384   4.600
 3029SOL    HW2 9987   6.813   3.418   4.479
 3030SOL     OW 9988   2.288   2.588   6.273
 3030SOL    HW1 9989   2.321   2.650   6.345
 3030SOL    HW2 9990   2.208   2.628   6.229
 3031SOL     OW 9991   1.238   5.672   1.034
 3031SOL    HW1 9992   1.281   5.694   1.121
 3031SOL    HW2 9993   1.165   5.738   1.014
 3032SOL     OW 9994   2.322   0.611   2.891
 3032SOL    HW1 9995   2.321   0.512   2.884
 3032SOL    HW2 9996   2.284   0.651   2.807
 3033SOL     OW 9997   0.405   1.538   5.585
 3033SOL    HW1 9998   0.493   1.572   5.552
 3033SOL    HW2 9999   0.339   1.540   5.510
 3034SOL     OW10000   6.607   4.218   3.913
 3034SOL    HW110001   6.681   4.190   3.853
 3034SOL    HW210002   6.592   4.148   3.983
 3035SOL     OW10003   0.472   3.436   0.517
 3035SOL    HW110004   0.445   3.516   0.463
 3035SOL    HW210005   0.538   3.382   0.464
 3036SOL     OW10006   3.299   2.131   5.260
 3036SOL    HW110007   3.259   2.218   5.232
 3036SOL    HW210008   3.263   2.058   5.203
 3037SOL     OW10009   1.001   5.809   6.714
 3037SOL    HW110010   1.013   5.873   6.638
 3037SOL    HW210011   0.912   5.825   6.757
 3038SOL     OW10012   5.599   4.636   6.303
 3038SOL    HW110013   5.694   4.606   6.296
 3038SOL    HW210014   5.571   4.635   6.399
 3039SOL     OW10015   6.717   3.737   6.097
 3039SOL    HW110016   6.651   3.774   6.032
 3039SOL    HW210017   6.728   3.801   6.173
 3040SOL     OW10018   5.840   5.121   6.366
 3040SOL    HW110019   5.845   5.221   6.371
 3040SOL    HW210020   5.762   5.088   6.420
 3041SOL     OW10021   1.250   4.631   5.729
 3041SOL    HW110022   1.183   4.665   5.795
 3041SOL    HW210023   1.255   4.694   5.651
 3042SOL     OW10024   0.411   4.991   4.177
 3042SOL    HW110025   0.403   5.078   4.226
 3042SOL    HW210026   0.319   4.955   4.158
 3043SOL     OW10027   2.199   5.687   0.812
 3043SOL    HW110028   2.275   5.637   0.852
 3043SOL    HW210029   2.113   5.656   0.851
 3044SOL     OW10030   4.030   3.726   4.447
 3044SOL    HW110031   3.956   3.679   4.494
 3044SOL    HW210032   4.100   3.753   4.513
 3045SOL     OW10033   4.522   1.856   2.258
 3045SOL    HW110034   4.533   1.782   2.191
 3045SOL    HW210035   4.448   1.916   2.229
 3046SOL     OW10036   5.048   6.580   0.708
 3046SOL    HW110037   5.059   6.656   0.771
 3046SOL    HW210038   5.134   6.564   0.659
 3047SOL     OW10039   5.618   1.256   4.858
 3047SOL    HW110040   5.593   1.352   4.855
 3047SOL    HW210041   5.696   1.240   4.797
 3048SOL     OW10042   3.875   4.757   1.109
 3048SOL    HW110043   3.775   4.757   1.110
 3048SOL    HW210044   3.907   4.785   1.018
 3049SOL     OW10045   1.170   1.890   2.213
 3049SOL    HW110046   1.221   1.929   2.289
 3049SOL    HW210047   1.201   1.797   2.195
 3050SOL     OW10048   3.677   2.364   0.096
 3050SOL    HW110049   3.765   2.346   0.052
 3050SOL    HW210050   3.615   2.407   0.031
 3051SOL     OW10051   2.213   5.225   5.601
 3051SOL    HW110052   2.149   5.193   5.670
 3051SOL    HW210053   2.296   5.170   5.604
 3052SOL     OW10054   6.658   0.183   2.264
 3052SOL    HW110055   6.713   0.252   2.312
 3052SOL    HW210056   6.562   0.210   2.266
 3053SOL     OW10057   0.746   4.180   0.469
 3053SOL    HW110058   0.688   4.167   0.389
 3053SOL    HW210059   0.842   4.182   0.440
 3054SOL     OW10060   4.927   0.448   3.004
 3054SOL    HW110061   4.919   0.457   3.104
 3054SOL    HW210062   4.855   0.502   2.960
 3055SOL     OW10063   5.909   6.280   6.958
 3055SOL    HW110064   5.862   6.363   6.926
 3055SOL    HW210065   6.006   6.285   6.936
 3056SOL     OW10066   4.386   1.346   5.924
 3056SOL    HW110067   4.410   1.249   5.916
 3056SOL    HW210068   4.359   1.366   6.018
 3057SOL     OW10069   5.186   3.809   2.918
 3057SOL    HW110070   5.208   3.772   3.008
 3057SOL    HW210071   5.214   3.743   2.848
 3058SOL     OW10072   0.575   4.590   6.136
 3058SOL    HW110073   0.483   4.574   6.101
 3058SOL    HW210074   0.640   4.590   6.059
 3059SOL     OW10075   1.775   1.632   2.798
 3059SOL    HW110076   1.843   1.592   2.737
 3059SOL    HW210077   1.684   1.622   2.758
 3060SOL     OW10078   5.679   4.747   4.199
 3060SOL    HW110079   5.671   4.744   4.099
 3060SOL    HW210080   5.775   4.741   4.224
 3061SOL     OW10081   6.035   0.079   3.886
 3061SOL    HW110082   6.127   0.048   3.911
 3061SOL    HW210083   6.015   0.054   3.792
 3062SOL     OW10084   4.120   4.405   0.882
 3062SOL    HW110085   4.149   4.427   0.789
 3062SOL    HW210086   4.182   4.337   0.921
 3063SOL     OW10087   0.344   4.549   2.663
 3063SOL    HW110088   0.260   4.565   2.715
 3063SOL    HW210089   0.358   4.451   2.652
 3064SOL     OW10090   4.828   2.504   6.775
 3064SOL    HW110091   4.895   2.506   6.701
 3064SOL    HW210092   4.738   2.481   6.739
 3065SOL     OW10093   6.086   1.657   6.945
 3065SOL    HW110094   6.132   1.724   6.887
 3065SOL    HW210095   6.052   1.582   6.887
 3066SOL     OW10096   5.168   6.819   4.997
 3066SOL    HW110097   5.163   6.819   5.096
 3066SOL    HW210098   5.226   6.894   4.966
 3067SOL     OW10099   1.330   2.629   5.509
 3067SOL    HW110100   1.308   2.534   5.489
 3067SOL    HW210101   1.256   2.688   5.476
 3068SOL     OW10102   0.004   0.705   0.709
 3068SOL    HW110103   7.000   0.784   0.656
 3068SOL    HW210104   7.021   0.622   0.652
 3069SOL     OW10105   5.047   6.440   3.825
 3069SOL    HW110106   5.011   6.484   3.743
 3069SOL    HW210107   5.011   6.486   3.906
 3070SOL     OW10108   1.728   0.808   0.867
 3070SOL    HW110109   1.715   0.801   0.768
 3070SOL    HW210110   1.685   0.729   0.911
 3071SOL     OW10111   5.880   4.796   5.364
 3071SOL    HW110112   5.850   4.731   5.294
 3071SOL    HW210113   5.831   4.778   5.449
 3072SOL     OW10114   1.922   6.794   6.124
 3072SOL    HW110115   1.865   6.713   6.140
 3072SOL    HW210116   1.965   6.822   6.210
 3073SOL     OW10117   0.302   5.041   1.738
 3073SOL    HW110118   0.319   4.990   1.654
 3073SOL    HW210119   0.374   5.021   1.804
 3074SOL     OW10120   3.363   2.614   1.798
 3074SOL    HW110121   3.445   2.611   1.742
 3074SOL    HW210122   3.283   2.631   1.740
 3075SOL     OW10123   2.933   5.064   1.444
 3075SOL    HW110124   2.843   5.023   1.460
 3075SOL    HW210125   2.971   5.095   1.532
 3076SOL     OW10126   0.550   0.881   5.225
 3076SOL    HW110127   0.481   0.872   5.153
 3076SOL    HW210128   0.621   0.812   5.213
 3077SOL     OW10129   0.159   4.124   2.309
 3077SOL    HW110130   0.124   4.144   2.217
 3077SOL    HW210131   0.157   4.026   2.325
 3078SOL     OW10132   0.045   3.262   1.643
 3078SOL    HW110133   0.004   3.242   1.733
 3078SOL    HW210134   0.087   3.353   1.645
 3079SOL     OW10135   2.089   3.751   5.456
 3079SOL    HW110136   2.107   3.848   5.439
 3079SOL    HW210137   2.174   3.699   5.442
 3080SOL     OW10138   3.260   4.529   1.111
 3080SOL    HW110139   3.289   4.474   1.189
 3080SOL    HW210140   3.240   4.470   1.034
 3081SOL     OW10141   1.528   3.916   0.347
 3081SOL    HW110142   1.516   3.888   0.442
 3081SOL    HW210143   1.453   3.977   0.320
 3082SOL     OW10144   5.032   5.694   4.844
 3082SOL    HW110145   5.046   5.607   4.795
 3082SOL    HW210146   5.050   5.770   4.781
 3083SOL     OW10147   3.978   5.544   2.065
 3083SOL    HW110148   3.975   5.644   2.074
 3083SOL    HW210149   3.904   5.515   2.004
 3084SOL     OW10150   6.887   4.443   4.297
 3084SOL    HW110151   6.867   4.379   4.223
 3084SOL    HW210152   6.802   4.475   4.338
 3085SOL     OW10153   6.169   5.918   0.424
 3085SOL    HW110154   6.084   5.886   0.466
 3085SOL    HW210155   6.243   5.913   0.491
 3086SOL     OW10156   6.196   6.169   6.439
 3086SOL    HW110157   6.225   6.258   6.405
 3086SOL    HW210158   6.276   6.114   6.463
 3087SOL     OW10159   3.540   0.159   2.208
 3087SOL    HW110160   3.488   0.098   2.148
 3087SOL    HW210161   3.553   0.247   2.162
 3088SOL     OW10162   2.144   3.284   5.606
 3088SOL    HW110163   2.140   3.334   5.692
 3088SOL    HW210164   2.085   3.328   5.538
 3089SOL     OW10165   4.672   5.151   6.152
 3089SOL    HW110166   4.648   5.246   6.133
 3089SOL    HW210167   4.611   5.090   6.101
 3090SOL     OW10168   0.197   2.590   2.348
 3090SOL    HW110169   0.264   2.657   2.318
 3090SOL    HW210170   0.154   2.623   2.432
 3091SOL     OW10171   0.682   2.985   1.383
 3091SOL    HW110172   0.635   3.029   1.459
 3091SOL    HW210173   0.632   2.903   1.356
 3092SOL     OW10174   6.113   1.294   1.993
 3092SOL    HW110175   6.033   1.351   2.012
 3092SOL    HW210176   6.159   1.272   2.079
 3093SOL     OW10177   6.465   5.550   6.989
 3093SOL    HW110178   6.474   5.586   6.896
 3093SOL    HW210179   6.376   5.506   6.999
 3094SOL     OW10180   2.241   1.806   6.844
 3094SOL    HW110181   2.324   1.856   6.820
 3094SOL    HW210182   2.169   1.826   6.777
 3095SOL     OW10183   1.737   4.156   5.846
 3095SOL    HW110184   1.755   4.058   5.842
 3095SOL    HW210185   1.725   4.191   5.753
 3096SOL     OW10186   0.748   2.905   4.018
 3096SOL    HW110187   0.682   2.963   4.065
 3096SOL    HW210188   0.723   2.809   4.031
 3097SOL     OW10189   5.216   2.882   5.308
 3097SOL    HW110190   5.239   2.847   5.399
 3097SOL    HW210191   5.145   2.826   5.267
 3098SOL     OW10192   2.125   3.297   3.393
 3098SOL    HW110193   2.031   3.263   3.387
 3098SOL    HW210194   2.159   3.317   3.301
 3099SOL     OW10195   0.508   6.474   4.500
 3099SOL    HW110196   0.493   6.407   4.427
 3099SOL    HW210197   0.575   6.542   4.470
 3100SOL     OW10198   5.799   4.927   1.617
 3100SOL    HW110199   5.766   5.008   1.664
 3100SOL    HW210200   5.888   4.947   1.574
 3101SOL     OW10201   4.132   6.722   5.124
 3101SOL    HW110202   4.127   6.662   5.204
 3101SOL    HW210203   4.112   6.816   5.151
 3102SOL     OW10204   6.600   5.007   1.909
 3102SOL    HW110205   6.522   4.945   1.907
 3102SOL    HW210206   6.576   5.089   1.962
 3103SOL     OW10207   3.446   1.472   1.660
 3103SOL    HW110208   3.539   1.468   1.695
 3103SOL    HW210209   3.446   1.448   1.563
 3104SOL     OW10210   4.749   1.516   5.192
 3104SOL    HW110211   4.759   1.442   5.126
 3104SOL    HW210212   4.819   1.585   5.177
 3105SOL     OW10213   5.839   3.776   0.077
 3105SOL    HW110214   5.857   3.678   0.063
 3105SOL    HW210215   5.751   3.800   0.036
 3106SOL     OW10216   5.414   1.277   5.484
 3106SOL    HW110217   5.366   1.197   5.520
 3106SOL    HW210218   5.506   1.282   5.522
 3107SOL     OW10219   3.199   1.898   5.128
 3107SOL    HW110220   3.186   1.894   5.227
 3107SOL    HW210221   3.286   1.856   5.105
 3108SOL     OW10222   2.246   4.331   3.236
 3108SOL    HW110223   2.269   4.240   3.271
 3108SOL    HW210224   2.311   4.357   3.165
 3109SOL     OW10225   6.937   6.357   4.607
 3109SOL    HW110226   6.986   6.270   4.607
 3109SOL    HW210227   6.845   6.343   4.570
 3110SOL     OW10228   0.624   5.306   3.051
 3110SOL    HW110229   0.705   5.249   3.067
 3110SOL    HW210230   0.620   5.330   2.954
 3111SOL     OW10231   5.633   4.384   3.949
 3111SOL    HW110232   5.723   4.362   3.912
 3111SOL    HW210233   5.610   4.478   3.926
 3112SOL     OW10234   3.410   1.134   6.279
 3112SOL    HW110235   3.449   1.222   6.253
 3112SOL    HW210236   3.472   1.086   6.341
 3113SOL     OW10237   1.980   6.553   3.160
 3113SOL    HW110238   1.930   6.469   3.181
 3113SOL    HW210239   1.960   6.622   3.230
 3114SOL     OW10240   4.722   1.427   5.873
 3114SOL    HW110241   4.808   1.393   5.836
 3114SOL    HW210242   4.663   1.459   5.799
 3115SOL     OW10243   4.757   5.413   5.438
 3115SOL    HW110244   4.725   5.326   5.402
 3115SOL    HW210245   4.830   5.449   5.380
 3116SOL     OW10246   1.062   0.797   0.198
 3116SOL    HW110247   1.083   0.845   0.112
 3116SOL    HW210248   0.964   0.781   0.204
 3117SOL     OW10249   4.628   0.738   6.381
 3117SOL    HW110250   4.552   0.802   6.371
 3117SOL    HW210251   4.685   0.766   6.459
 3118SOL     OW10252   1.136   1.699   3.183
 3118SOL    HW110253   1.067   1.722   3.114
 3118SOL    HW210254   1.092   1.662   3.264
 3119SOL     OW10255   4.735   5.781   5.052
 3119SOL    HW110256   4.754   5.699   4.998
 3119SOL    HW210257   4.637   5.786   5.072
 3120SOL     OW10258   2.484   5.835   6.108
 3120SOL    HW110259   2.536   5.911   6.148
 3120SOL    HW210260   2.494   5.754   6.166
 3121SOL     OW10261   3.581   1.795   4.036
 3121SOL    HW110262   3.606   1.889   4.056
 3121SOL    HW210263   3.496   1.793   3.983
 3122SOL     OW10264   5.236   5.032   4.828
 3122SOL    HW110265   5.268   5.119   4.791
 3122SOL    HW210266   5.214   4.970   4.752
 3123SOL     OW10267   1.678   1.182   3.334
 3123SOL    HW110268   1.657   1.212   3.427
 3123SOL    HW210269   1.755   1.234   3.299
 3124SOL     OW10270   4.822   0.464   4.527
 3124SOL    HW110271   4.775   0.516   4.455
 3124SOL    HW210272   4.774   0.378   4.543
 3125SOL     OW10273   1.675   1.180   5.082
 3125SOL    HW110274   1.638   1.099   5.036
 3125SOL    HW210275   1.664   1.259   5.022
 3126SOL     OW10276   5.430   4.796   5.602
 3126SOL    HW110277   5.353   4.817   5.541
 3126SOL    HW210278   5.505   4.757   5.548
 3127SOL     OW10279   0.235   0.978   5.275
 3127SOL    HW110280   0.251   0.885   5.308
 3127SOL    HW210281   0.146   0.982   5.228
 3128SOL     OW10282   3.899   0.594   0.687
 3128SOL    HW110283   3.942   0.560   0.771
 3128SOL    HW210284   3.854   0.682   0.707
 3129SOL     OW10285   4.366   3.791   0.362
 3129SOL    HW110286   4.397   3.806   0.456
 3129SOL    HW210287   4.433   3.735   0.314
 3130SOL     OW10288   6.836   5.192   2.067
 3130SOL    HW110289   6.743   5.226   2.054
 3130SOL    HW210290   6.883   5.191   1.979
 3131SOL     OW10291   6.171   4.590   2.831
 3131SOL    HW110292   6.093   4.612   2.771
 3131SOL    HW210293   6.205   4.674   2.873
 3132SOL     OW10294   4.420   4.354   0.234
 3132SOL    HW110295   4.438   4.376   0.138
 3132SOL    HW210296   4.467   4.269   0.258
 3133SOL     OW10297   4.252   0.304   4.097
 3133SOL    HW110298   4.330   0.242   4.092
 3133SOL    HW210299   4.185   0.268   4.163
 3134SOL     OW10300   5.389   5.325   2.583
 3134SOL    HW110301   5.291   5.344   2.574
 3134SOL    HW210302   5.432   5.395   2.640
 3135SOL     OW10303   4.624   5.491   6.389
 3135SOL    HW110304   4.689   5.526   6.456
 3135SOL    HW210305   4.610   5.559   6.318
 3136SOL     OW10306   6.647   1.387   3.247
 3136SOL    HW110307   6.738   1.373   3.286
 3136SOL    HW210308   6.652   1.374   3.147
 3137SOL     OW10309   6.033   6.687   6.487
 3137SOL    HW110310   6.013   6.762   6.423
 3137SOL    HW210311   5.978   6.607   6.463
 3138SOL     OW10312   6.231   6.537   4.554
 3138SOL    HW110313   6.154   6.586   4.514
 3138SOL    HW210314   6.199   6.452   4.597
 3139SOL     OW10315   2.312   5.329   1.291
 3139SOL    HW110316   2.224   5.283   1.292
 3139SOL    HW210317   2.373   5.288   1.359
 3140SOL     OW10318   6.873   6.456   6.752
 3140SOL    HW110319   6.876   6.369   6.802
 3140SOL    HW210320   6.828   6.525   6.808
 3141SOL     OW10321   6.564   1.694   6.675
 3141SOL    HW110322   6.638   1.686   6.609
 3141SOL    HW210323   6.588   1.762   6.744
 3142SOL     OW10324   4.163   0.740   4.144
 3142SOL    HW110325   4.172   0.676   4.068
 3142SOL    HW210326   4.188   0.832   4.115
 3143SOL     OW10327   6.459   1.489   0.575
 3143SOL    HW110328   6.438   1.425   0.501
 3143SOL    HW210329   6.388   1.559   0.579
 3144SOL     OW10330   3.887   3.877   0.318
 3144SOL    HW110331   3.854   3.811   0.385
 3144SOL    HW210332   3.876   3.839   0.226
 3145SOL     OW10333   0.007   6.623   0.439
 3145SOL    HW110334   0.078   6.680   0.479
 3145SOL    HW210335   6.945   6.647   0.477
 3146SOL     OW10336   0.159   0.935   4.883
 3146SOL    HW110337   0.063   0.950   4.859
 3146SOL    HW210338   0.209   0.906   4.801
 3147SOL     OW10339   3.423   5.636   0.747
 3147SOL    HW110340   3.353   5.564   0.753
 3147SOL    HW210341   3.380   5.725   0.761
 3148SOL     OW10342   7.007   5.483   1.931
 3148SOL    HW110343   0.011   5.408   1.989
 3148SOL    HW210344   0.045   5.495   1.856
 3149SOL     OW10345   2.833   1.818   6.813
 3149SOL    HW110346   2.739   1.802   6.844
 3149SOL    HW210347   2.836   1.809   6.713
 3150SOL     OW10348   6.503   5.659   5.451
 3150SOL    HW110349   6.519   5.674   5.549
 3150SOL    HW210350   6.513   5.561   5.431
 3151SOL     OW10351   0.223   0.522   5.621
 3151SOL    HW110352   0.198   0.576   5.702
 3151SOL    HW210353   0.323   0.519   5.613
 3152SOL     OW10354   1.416   3.277   5.940
 3152SOL    HW110355   1.326   3.303   5.906
 3152SOL    HW210356   1.422   3.177   5.946
 3153SOL     OW10357   6.199   5.077   1.144
 3153SOL    HW110358   6.177   5.096   1.048
 3153SOL    HW210359   6.234   5.161   1.187
 3154SOL     OW10360   4.835   1.155   0.212
 3154SOL    HW110361   4.842   1.177   0.115
 3154SOL    HW210362   4.745   1.183   0.247
 3155SOL     OW10363   0.908   4.421   0.331
 3155SOL    HW110364   0.905   4.442   0.429
 3155SOL    HW210365   0.823   4.452   0.288
 3156SOL     OW10366   3.788   4.281   1.769
 3156SOL    HW110367   3.853   4.288   1.693
 3156SOL    HW210368   3.832   4.236   1.846
 3157SOL     OW10369   0.911   1.124   5.606
 3157SOL    HW110370   0.837   1.183   5.638
 3157SOL    HW210371   0.951   1.162   5.522
 3158SOL     OW10372   1.695   0.951   6.236
 3158SOL    HW110373   1.697   0.959   6.137
 3158SOL    HW210374   1.781   0.986   6.274
 3159SOL     OW10375   6.089   0.848   6.936
 3159SOL    HW110376   6.115   0.942   6.919
 3159SOL    HW210377   6.010   0.845   6.997
 3160SOL     OW10378   1.716   0.257   6.091
 3160SOL    HW110379   1.764   0.279   6.006
 3160SOL    HW210380   1.692   0.342   6.139
 3161SOL     OW10381   2.209   2.599   1.898
 3161SOL    HW110382   2.231   2.642   1.985
 3161SOL    HW210383   2.119   2.556   1.904
 3162SOL     OW10384   1.708   5.378   1.161
 3162SOL    HW110385   1.715   5.419   1.070
 3162SOL    HW210386   1.752   5.437   1.228
 3163SOL     OW10387   4.156   4.303   0.170
 3163SOL    HW110388   4.251   4.310   0.200
 3163SOL    HW210389   4.106   4.385   0.196
 3164SOL     OW10390   2.428   6.603   3.391
 3164SOL    HW110391   2.408   6.560   3.303
 3164SOL    HW210392   2.419   6.702   3.382
 3165SOL     OW10393   0.553   6.838   6.324
 3165SOL    HW110394   0.650   6.826   6.344
 3165SOL    HW210395   0.516   6.913   6.379
 3166SOL     OW10396   4.793   1.003   4.774
 3166SOL    HW110397   4.808   1.031   4.869
 3166SOL    HW210398   4.803   0.903   4.767
 3167SOL     OW10399   5.694   2.955   0.645
 3167SOL    HW110400   5.640   3.036   0.667
 3167SOL    HW210401   5.755   2.933   0.721
 3168SOL     OW10402   4.751   2.080   0.613
 3168SOL    HW110403   4.667   2.074   0.667
 3168SOL    HW210404   4.750   2.009   0.543
 3169SOL     OW10405   2.404   4.682   1.709
 3169SOL    HW110406   2.463   4.692   1.789
 3169SOL    HW210407   2.310   4.664   1.738
 3170SOL     OW10408   2.174   3.658   3.249
 3170SOL    HW110409   2.076   3.661   3.233
 3170SOL    HW210410   2.198   3.721   3.323
 3171SOL     OW10411   5.441   2.618   3.565
 3171SOL    HW110412   5.368   2.575   3.512
 3171SOL    HW210413   5.436   2.718   3.554
 3172SOL     OW10414   6.395   4.000   1.823
 3172SOL    HW110415   6.481   4.023   1.870
 3172SOL    HW210416   6.369   3.907   1.846
 3173SOL     OW10417   4.314   2.964   0.573
 3173SOL    HW110418   4.373   2.905   0.629
 3173SOL    HW210419   4.284   3.043   0.628
 3174SOL     OW10420   3.262   3.661   6.548
 3174SOL    HW110421   3.245   3.754   6.515
 3174SOL    HW210422   3.195   3.598   6.508
 3175SOL     OW10423   5.695   0.923   4.716
 3175SOL    HW110424   5.690   0.853   4.786
 3175SOL    HW210425   5.609   0.926   4.665
 3176SOL     OW10426   0.463   4.746   4.664
 3176SOL    HW110427   0.428   4.767   4.573
 3176SOL    HW210428   0.551   4.791   4.678
 3177SOL     OW10429   5.226   3.781   3.660
 3177SOL    HW110430   5.186   3.870   3.683
 3177SOL    HW210431   5.278   3.789   3.575
 3178SOL     OW10432   6.675   1.190   1.599
 3178SOL    HW110433   6.641   1.271   1.647
 3178SOL    HW210434   6.670   1.111   1.660
 3179SOL     OW10435   1.325   1.993   1.979
 3179SOL    HW110436   1.262   1.970   2.053
 3179SOL    HW210437   1.348   1.910   1.928
 3180SOL     OW10438   6.915   6.143   0.185
 3180SOL    HW110439   6.846   6.076   0.213
 3180SOL    HW210440   6.921   6.215   0.254
 3181SOL     OW10441   1.895   6.928   4.856
 3181SOL    HW110442   1.993   6.931   4.835
 3181SOL    HW210443   1.868   6.834   4.875
 3182SOL     OW10444   1.871   1.152   0.772
 3182SOL    HW110445   1.892   1.181   0.865
 3182SOL    HW210446   1.922   1.208   0.707
 3183SOL     OW10447   3.886   3.901   1.051
 3183SOL    HW110448   3.798   3.853   1.056
 3183SOL    HW210449   3.959   3.840   1.083
 3184SOL     OW10450   0.475   2.385   4.787
 3184SOL    HW110451   0.488   2.458   4.719
 3184SOL    HW210452   0.378   2.365   4.796
 3185SOL     OW10453   0.608   5.558   6.636
 3185SOL    HW110454   0.609   5.485   6.704
 3185SOL    HW210455   0.515   5.593   6.624
 3186SOL     OW10456   0.404   1.751   6.620
 3186SOL    HW110457   0.407   1.798   6.531
 3186SOL    HW210458   0.314   1.711   6.634
 3187SOL     OW10459   4.742   5.821   2.344
 3187SOL    HW110460   4.715   5.737   2.299
 3187SOL    HW210461   4.742   5.808   2.444
 3188SOL     OW10462   1.993   5.265   6.631
 3188SOL    HW110463   1.914   5.207   6.651
 3188SOL    HW210464   1.974   5.320   6.550
 3189SOL     OW10465   3.614   1.892   5.267
 3189SOL    HW110466   3.600   1.893   5.366
 3189SOL    HW210467   3.707   1.860   5.247
 3190SOL     OW10468   5.681   6.446   4.521
 3190SOL    HW110469   5.682   6.349   4.494
 3190SOL    HW210470   5.682   6.453   4.620
 3191SOL     OW10471   3.431   5.684   1.239
 3191SOL    HW110472   3.351   5.734   1.208
 3191SOL    HW210473   3.509   5.706   1.181
 3192SOL     OW10474   5.748   2.006   2.543
 3192SOL    HW110475   5.664   1.992   2.491
 3192SOL    HW210476   5.786   1.918   2.569
 3193SOL     OW10477   3.517   0.021   4.776
 3193SOL    HW110478   3.548   0.036   4.682
 3193SOL    HW210479   3.566   0.083   4.838
 3194SOL     OW10480   1.637   0.248   6.541
 3194SOL    HW110481   1.705   0.295   6.484
 3194SOL    HW210482   1.581   0.317   6.589
 3195SOL     OW10483   0.029   1.567   1.379
 3195SOL    HW110484   0.088   1.486   1.375
 3195SOL    HW210485   0.060   1.628   1.452
 3196SOL     OW10486   5.863   0.410   3.727
 3196SOL    HW110487   5.826   0.341   3.665
 3196SOL    HW210488   5.793   0.479   3.746
 3197SOL     OW10489   1.565   0.707   6.546
 3197SOL    HW110490   1.593   0.702   6.450
 3197SOL    HW210491   1.629   0.767   6.595
 3198SOL     OW10492   5.434   2.866   3.377
 3198SOL    HW110493   5.369   2.892   3.449
 3198SOL    HW210494   5.519   2.916   3.390
 3199SOL     OW10495   5.564   4.057   2.866
 3199SOL    HW110496   5.505   4.075   2.944
 3199SOL    HW210497   5.659   4.077   2.890
 3200SOL     OW10498   5.422   3.656   3.770
 3200SOL    HW110499   5.344   3.708   3.737
 3200SOL    HW210500   5.406   3.559   3.756
 3201SOL     OW10501   5.986   4.680   2.675
 3201SOL    HW110502   5.924   4.750   2.641
 3201SOL    HW210503   6.002   4.613   2.602
 3202SOL     OW10504   1.798   3.901   0.000
 3202SOL    HW110505   1.698   3.896   0.006
 3202SOL    HW210506   1.836   3.809   7.026
 3203SOL     OW10507   3.652   6.858   1.285
 3203SOL    HW110508   3.562   6.838   1.326
 3203SOL    HW210509   3.721   6.860   1.356
 3204SOL     OW10510   3.584   1.437   3.073
 3204SOL    HW110511   3.614   1.344   3.094
 3204SOL    HW210512   3.664   1.494   3.052
 3205SOL     OW10513   4.793   3.415   5.799
 3205SOL    HW110514   4.833   3.445   5.713
 3205SOL    HW210515   4.779   3.495   5.859
 3206SOL     OW10516   3.245   3.343   1.214
 3206SOL    HW110517   3.176   3.393   1.265
 3206SOL    HW210518   3.256   3.252   1.254
 3207SOL     OW10519   1.630   5.126   5.547
 3207SOL    HW110520   1.640   5.208   5.603
 3207SOL    HW210521   1.603   5.049   5.606
 3208SOL     OW10522   6.131   5.290   5.993
 3208SOL    HW110523   6.208   5.247   5.945
 3208SOL    HW210524   6.132   5.262   6.089
 3209SOL     OW10525   5.171   5.824   6.898
 3209SOL    HW110526   5.209   5.781   6.980
 3209SOL    HW210527   5.229   5.804   6.820
 3210SOL     OW10528   5.908   6.003   2.081
 3210SOL    HW110529   5.895   5.917   2.033
 3210SOL    HW210530   5.832   6.019   2.144
 3211SOL     OW10531   1.055   5.263   6.222
 3211SOL    HW110532   1.106   5.264   6.136
 3211SOL    HW210533   0.958   5.250   6.203
 3212SOL     OW10534   1.764   0.283   3.069
 3212SOL    HW110535   1.689   0.309   3.007
 3212SOL    HW210536   1.735   0.207   3.127
 3213SOL     OW10537   1.151   6.967   6.333
 3213SOL    HW110538   1.101   6.886   6.304
 3213SOL    HW210539   1.123   6.991   6.426
 3214SOL     OW10540   3.457   1.179   2.643
 3214SOL    HW110541   3.428   1.232   2.723
 3214SOL    HW210542   3.415   1.217   2.560
 3215SOL     OW10543   1.970   3.206   1.112
 3215SOL    HW110544   2.000   3.288   1.065
 3215SOL    HW210545   1.872   3.213   1.133
 3216SOL     OW10546   5.910   4.564   0.736
 3216SOL    HW110547   5.882   4.470   0.760
 3216SOL    HW210548   5.837   4.627   0.762
 3217SOL     OW10549   0.168   6.180   2.967
 3217SOL    HW110550   0.158   6.205   2.871
 3217SOL    HW210551   0.101   6.109   2.991
 3218SOL     OW10552   5.430   0.909   3.061
 3218SOL    HW110553   5.411   0.830   3.003
 3218SOL    HW210554   5.521   0.900   3.101
 3219SOL     OW10555   6.050   1.222   5.622
 3219SOL    HW110556   6.142   1.247   5.653
 3219SOL    HW210557   5.994   1.305   5.614
 3220SOL     OW10558   6.891   4.512   6.496
 3220SOL    HW110559   6.813   4.506   6.433
 3220SOL    HW210560   6.976   4.505   6.443
 3221SOL     OW10561   3.410   1.075   1.010
 3221SOL    HW110562   3.367   1.081   0.921
 3221SOL    HW210563   3.367   1.002   1.064
 3222SOL     OW10564   3.851   1.868   2.928
 3222SOL    HW110565   3.849   1.968   2.930
 3222SOL    HW210566   3.931   1.836   2.979
 3223SOL     OW10567   1.501   5.950   0.819
 3223SOL    HW110568   1.471   5.984   0.908
 3223SOL    HW210569   1.431   5.971   0.750
 3224SOL     OW10570   3.601   1.886   3.635
 3224SOL    HW110571   3.557   1.972   3.660
 3224SOL    HW210572   3.584   1.866   3.539
 3225SOL     OW10573   3.899   0.752   4.036
 3225SOL    HW110574   3.896   0.852   4.037
 3225SOL    HW210575   3.986   0.720   4.073
 3226SOL     OW10576   6.711   0.338   0.602
 3226SOL    HW110577   6.646   0.342   0.526
 3226SOL    HW210578   6.798   0.300   0.569
 3227SOL     OW10579   5.007   4.553   5.012
 3227SOL    HW110580   4.998   4.550   4.913
 3227SOL    HW210581   5.103   4.537   5.037
 3228SOL     OW10582   2.614   4.076   0.027
 3228SOL    HW110583   2.702   4.041   7.021
 3228SOL    HW210584   2.628   4.133   0.108
 3229SOL     OW10585   1.296   1.429   0.700
 3229SOL    HW110586   1.332   1.350   0.750
 3229SOL    HW210587   1.367   1.465   0.639
 3230SOL     OW10588   2.872   6.113   5.620
 3230SOL    HW110589   2.911   6.047   5.684
 3230SOL    HW210590   2.925   6.198   5.624
 3231SOL     OW10591   2.312   2.261   2.545
 3231SOL    HW110592   2.368   2.282   2.625
 3231SOL    HW210593   2.298   2.162   2.539
 3232SOL     OW10594   3.857   5.160   3.903
 3232SOL    HW110595   3.761   5.189   3.910
 3232SOL    HW210596   3.917   5.238   3.917
 3233SOL     OW10597   0.358   1.750   0.435
 3233SOL    HW110598   0.385   1.829   0.380
 3233SOL    HW210599   0.315   1.682   0.376
 3234SOL     OW10600   2.500   2.830   0.709
 3234SOL    HW110601   2.562   2.902   0.739
 3234SOL    HW210602   2.481   2.768   0.786
 3235SOL     OW10603   0.557   0.038   2.902
 3235SOL    HW110604   0.654   0.016   2.908
 3235SOL    HW210605   0.535   0.070   2.810
 3236SOL     OW10606   3.571   2.348   0.332
 3236SOL    HW110607   3.478   2.320   0.308
 3236SOL    HW210608   3.626   2.353   0.249
 3237SOL     OW10609   5.842   1.781   5.162
 3237SOL    HW110610   5.770   1.823   5.217
 3237SOL    HW210611   5.931   1.802   5.202
 3238SOL     OW10612   6.622   5.020   1.620
 3238SOL    HW110613   6.555   5.075   1.571
 3238SOL    HW210614   6.629   5.051   1.714
 3239SOL     OW10615   6.804   6.975   4.538
 3239SOL    HW110616   6.713   6.963   4.499
 3239SOL    HW210617   6.797   7.002   4.634
 3240SOL     OW10618   0.594   0.267   0.252
 3240SOL    HW110619   0.593   0.238   0.157
 3240SOL    HW210620   0.598   0.367   0.256
 3241SOL     OW10621   6.191   1.927   5.828
 3241SOL    HW110622   6.166   2.023   5.840
 3241SOL    HW210623   6.112   1.869   5.847
 3242SOL     OW10624   5.545   3.903   4.849
 3242SOL    HW110625   5.559   4.001   4.832
 3242SOL    HW210626   5.570   3.851   4.767
 3243SOL     OW10627   6.027   4.930   4.289
 3243SOL    HW110628   5.984   4.979   4.366
 3243SOL    HW210629   6.110   4.978   4.262
 3244SOL     OW10630   5.457   0.062   6.846
 3244SOL    HW110631   5.554   0.072   6.871
 3244SOL    HW210632   5.419   0.151   6.821
 3245SOL     OW10633   4.167   1.006   5.389
 3245SOL    HW110634   4.123   1.079   5.337
 3245SOL    HW210635   4.129   1.003   5.481
 3246SOL     OW10636   6.453   0.019   2.840
 3246SOL    HW110637   6.385   0.091   2.827
 3246SOL    HW210638   6.425   6.986   2.915
 3247SOL     OW10639   0.462   4.351   3.545
 3247SOL    HW110640   0.464   4.314   3.452
 3247SOL    HW210641   0.533   4.421   3.555
 3248SOL     OW10642   5.363   2.088   3.543
 3248SOL    HW110643   5.364   2.126   3.451
 3248SOL    HW210644   5.411   2.150   3.605
 3249SOL     OW10645   2.991   3.839   4.064
 3249SOL    HW110646   2.973   3.862   4.159
 3249SOL    HW210647   3.057   3.903   4.025
 3250SOL     OW10648   4.643   5.307   2.522
 3250SOL    HW110649   4.671   5.285   2.429
 3250SOL    HW210650   4.572   5.243   2.552
 3251SOL     OW10651   2.344   1.447   2.648
 3251SOL    HW110652   2.443   1.438   2.653
 3251SOL    HW210653   2.312   1.417   2.558
 3252SOL     OW10654   2.170   1.127   3.089
 3252SOL    HW110655   2.200   1.061   3.021
 3252SOL    HW210656   2.091   1.178   3.054
 3253SOL     OW10657   6.757   3.824   0.475
 3253SOL    HW110658   6.838   3.859   0.522
 3253SOL    HW210659   6.737   3.881   0.395
 3254SOL     OW10660   6.242   0.229   0.866
 3254SOL    HW110661   6.246   0.202   0.770
 3254SOL    HW210662   6.183   0.166   0.916
 3255SOL     OW10663   4.995   5.728   1.268
 3255SOL    HW110664   4.982   5.767   1.177
 3255SOL    HW210665   5.073   5.771   1.312
 3256SOL     OW10666   4.694   2.000   1.417
 3256SOL    HW110667   4.694   2.060   1.496
 3256SOL    HW210668   4.780   1.948   1.415
 3257SOL     OW10669   2.695   2.418   3.310
 3257SOL    HW110670   2.641   2.383   3.233
 3257SOL    HW210671   2.787   2.441   3.279
 3258SOL     OW10672   2.646   5.538   3.496
 3258SOL    HW110673   2.683   5.631   3.493
 3258SOL    HW210674   2.720   5.472   3.487
 3259SOL     OW10675   4.881   4.603   3.822
 3259SOL    HW110676   4.892   4.504   3.815
 3259SOL    HW210677   4.806   4.633   3.763
 3260SOL     OW10678   0.936   4.138   2.832
 3260SOL    HW110679   0.947   4.237   2.830
 3260SOL    HW210680   0.904   4.110   2.923
 3261SOL     OW10681   5.484   6.811   3.767
 3261SOL    HW110682   5.524   6.778   3.853
 3261SOL    HW210683   5.509   6.749   3.693
 3262SOL     OW10684   2.860   2.093   2.747
 3262SOL    HW110685   2.948   2.099   2.699
 3262SOL    HW210686   2.864   2.021   2.816
 3263SOL     OW10687   0.253   1.421   2.663
 3263SOL    HW110688   0.335   1.395   2.613
 3263SOL    HW210689   0.277   1.452   2.755
 3264SOL     OW10690   1.774   4.921   6.990
 3264SOL    HW110691   1.795   4.844   6.930
 3264SOL    HW210692   1.802   4.899   0.057
 3265SOL     OW10693   6.095   5.130   6.220
 3265SOL    HW110694   6.090   5.067   6.142
 3265SOL    HW210695   6.005   5.136   6.263
 3266SOL     OW10696   3.435   5.641   6.693
 3266SOL    HW110697   3.534   5.628   6.701
 3266SOL    HW210698   3.390   5.552   6.697
 3267SOL     OW10699   4.028   6.881   0.837
 3267SOL    HW110700   3.959   6.916   0.774
 3267SOL    HW210701   4.071   6.958   0.886
 3268SOL     OW10702   6.288   5.485   1.619
 3268SOL    HW110703   6.260   5.419   1.550
 3268SOL    HW210704   6.279   5.443   1.710
 3269SOL     OW10705   1.575   4.816   1.881
 3269SOL    HW110706   1.619   4.895   1.837
 3269SOL    HW210707   1.531   4.760   1.811
 3270SOL     OW10708   0.315   3.023   5.508
 3270SOL    HW110709   0.390   3.003   5.445
 3270SOL    HW210710   0.350   3.070   5.589
 3271SOL     OW10711   0.429   2.462   2.581
 3271SOL    HW110712   0.432   2.518   2.663
 3271SOL    HW210713   0.418   2.520   2.500
 3272SOL     OW10714   4.454   6.147   0.587
 3272SOL    HW110715   4.533   6.188   0.633
 3272SOL    HW210716   4.393   6.219   0.554
 3273SOL     OW10717   5.073   2.721   6.040
 3273SOL    HW110718   5.032   2.744   6.129
 3273SOL    HW210719   5.099   2.625   6.040
 3274SOL     OW10720   5.826   0.344   0.488
 3274SOL    HW110721   5.866   0.254   0.473
 3274SOL    HW210722   5.795   0.382   0.400
 3275SOL     OW10723   4.297   0.447   1.556
 3275SOL    HW110724   4.262   0.372   1.500
 3275SOL    HW210725   4.255   0.444   1.646
 3276SOL     OW10726   5.203   0.458   0.430
 3276SOL    HW110727   5.301   0.452   0.451
 3276SOL    HW210728   5.156   0.381   0.471
 3277SOL     OW10729   3.775   2.019   2.154
 3277SOL    HW110730   3.855   2.067   2.189
 3277SOL    HW210731   3.715   2.083   2.107
 3278SOL     OW10732   6.524   0.437   0.191
 3278SOL    HW110733   6.569   0.441   0.102
 3278SOL    HW210734   6.552   0.514   0.247
 3279SOL     OW10735   3.214   0.233   1.970
 3279SOL    HW110736   3.183   0.213   1.877
 3279SOL    HW210737   3.312   0.214   1.977
 3280SOL     OW10738   5.900   4.241   3.924
 3280SOL    HW110739   5.954   4.319   3.958
 3280SOL    HW210740   5.911   4.163   3.986
 3281SOL     OW10741   6.123   3.273   1.054
 3281SOL    HW110742   6.115   3.345   1.123
 3281SOL    HW210743   6.172   3.195   1.094
 3282SOL     OW10744   0.777   4.849   3.917
 3282SOL    HW110745   0.708   4.892   3.858
 3282SOL    HW210746   0.865   4.893   3.903
 3283SOL     OW10747   3.841   1.941   0.505
 3283SOL    HW110748   3.939   1.953   0.523
 3283SOL    HW210749   3.829   1.870   0.436
 3284SOL     OW10750   1.872   6.003   4.364
 3284SOL    HW110751   1.906   6.089   4.325
 3284SOL    HW210752   1.803   6.024   4.433
 3285SOL     OW10753   3.864   1.836   4.952
 3285SOL    HW110754   3.854   1.931   4.922
 3285SOL    HW210755   3.849   1.830   5.050
 3286SOL     OW10756   2.758   1.734   1.329
 3286SOL    HW110757   2.696   1.656   1.332
 3286SOL    HW210758   2.769   1.771   1.421
 3287SOL     OW10759   2.527   0.447   0.092
 3287SOL    HW110760   2.428   0.444   0.106
 3287SOL    HW210761   2.548   0.428   7.023
 3288SOL     OW10762   1.944   6.362   1.654
 3288SOL    HW110763   1.905   6.437   1.600
 3288SOL    HW210764   1.920   6.375   1.751
 3289SOL     OW10765   4.074   1.282   6.912
 3289SOL    HW110766   4.171   1.278   6.888
 3289SOL    HW210767   4.062   1.346   6.988
 3290SOL     OW10768   0.415   5.714   0.384
 3290SOL    HW110769   0.376   5.702   0.293
 3290SOL    HW210770   0.344   5.739   0.449
 3291SOL     OW10771   4.673   6.693   5.347
 3291SOL    HW110772   4.636   6.770   5.399
 3291SOL    HW210773   4.599   6.631   5.321
 3292SOL     OW10774   6.696   2.034   0.992
 3292SOL    HW110775   6.736   1.969   0.927
 3292SOL    HW210776   6.742   2.122   0.984
 3293SOL     OW10777   5.627   5.696   3.377
 3293SOL    HW110778   5.563   5.772   3.390
 3293SOL    HW210779   5.676   5.709   3.290
 3294SOL     OW10780   5.212   2.555   4.930
 3294SOL    HW110781   5.181   2.650   4.927
 3294SOL    HW210782   5.234   2.524   4.838
 3295SOL     OW10783   0.936   2.984   2.564
 3295SOL    HW110784   0.858   3.027   2.610
 3295SOL    HW210785   1.020   3.007   2.613
 3296SOL     OW10786   1.764   0.472   5.764
 3296SOL    HW110787   1.674   0.431   5.783
 3296SOL    HW210788   1.812   0.416   5.696
 3297SOL     OW10789   3.086   1.208   4.713
 3297SOL    HW110790   3.165   1.269   4.704
 3297SOL    HW210791   3.040   1.225   4.799
 3298SOL     OW10792   5.303   3.860   5.832
 3298SOL    HW110793   5.357   3.904   5.904
 3298SOL    HW210794   5.363   3.808   5.772
 3299SOL     OW10795   2.687   4.778   4.335
 3299SOL    HW110796   2.783   4.808   4.335
 3299SOL    HW210797   2.676   4.702   4.272
 3300SOL     OW10798   1.695   0.112   4.330
 3300SOL    HW110799   1.751   0.194   4.345
 3300SOL    HW210800   1.666   0.074   4.417
 3301SOL     OW10801   1.158   1.215   3.000
 3301SOL    HW110802   1.184   1.293   3.057
 3301SOL    HW210803   1.068   1.232   2.960
 3302SOL     OW10804   2.406   5.066   6.128
 3302SOL    HW110805   2.451   4.979   6.107
 3302SOL    HW210806   2.460   5.117   6.194
 3303SOL     OW10807   3.793   2.823   6.937
 3303SOL    HW110808   3.751   2.906   6.901
 3303SOL    HW210809   3.731   2.781   7.004
 3304SOL     OW10810   3.143   5.553   6.735
 3304SOL    HW110811   3.137   5.610   6.654
 3304SOL    HW210812   3.157   5.611   6.816
 3305SOL     OW10813   3.268   2.286   0.958
 3305SOL    HW110814   3.214   2.247   1.033
 3305SOL    HW210815   3.323   2.215   0.916
 3306SOL     OW10816   2.245   0.802   0.137
 3306SOL    HW110817   2.278   0.865   0.208
 3306SOL    HW210818   2.163   0.756   0.169
 3307SOL     OW10819   1.760   6.638   5.334
 3307SOL    HW110820   1.699   6.696   5.389
 3307SOL    HW210821   1.836   6.694   5.300
 3308SOL     OW10822   4.175   4.539   1.433
 3308SOL    HW110823   4.266   4.580   1.443
 3308SOL    HW210824   4.185   4.446   1.397
 3309SOL     OW10825   6.025   3.186   3.631
 3309SOL    HW110826   6.114   3.224   3.655
 3309SOL    HW210827   5.955   3.223   3.692
 3310SOL     OW10828   6.432   5.431   6.009
 3310SOL    HW110829   6.413   5.351   5.952
 3310SOL    HW210830   6.475   5.402   6.094
 3311SOL     OW10831   3.030   3.341   0.278
 3311SOL    HW110832   3.076   3.289   0.349
 3311SOL    HW210833   2.931   3.329   0.286
 3312SOL     OW10834   4.716   2.425   5.769
 3312SOL    HW110835   4.722   2.494   5.841
 3312SOL    HW210836   4.623   2.388   5.766
 3313SOL     OW10837   1.015   0.749   3.337
 3313SOL    HW110838   0.980   0.670   3.286
 3313SOL    HW210839   1.049   0.817   3.272
 3314SOL     OW10840   2.439   5.543   2.609
 3314SOL    HW110841   2.386   5.467   2.647
 3314SOL    HW210842   2.414   5.557   2.514
 3315SOL     OW10843   0.160   5.492   4.909
 3315SOL    HW110844   0.200   5.400   4.904
 3315SOL    HW210845   0.225   5.555   4.951
 3316SOL     OW10846   3.663   2.626   6.152
 3316SOL    HW110847   3.677   2.643   6.250
 3316SOL    HW210848   3.748   2.646   6.103
 3317SOL     OW10849   4.963   2.670   2.781
 3317SOL    HW110850   4.903   2.693   2.704
 3317SOL    HW210851   4.943   2.577   2.812
 3318SOL     OW10852   3.352   2.069   0.814
 3318SOL    HW110853   3.414   2.101   0.743
 3318SOL    HW210854   3.294   1.997   0.777
 3319SOL     OW10855   6.580   5.994   3.540
 3319SOL    HW110856   6.613   5.978   3.447
 3319SOL    HW210857   6.643   6.056   3.587
 3320SOL     OW10858   6.000   6.791   1.394
 3320SOL    HW110859   5.942   6.871   1.412
 3320SOL    HW210860   6.068   6.783   1.466
 3321SOL     OW10861   4.933   1.143   0.782
 3321SOL    HW110862   5.009   1.081   0.805
 3321SOL    HW210863   4.867   1.095   0.724
 3322SOL     OW10864   6.651   4.050   0.896
 3322SOL    HW110865   6.747   4.027   0.913
 3322SOL    HW210866   6.616   4.107   0.970
 3323SOL     OW10867   1.628   2.766   1.544
 3323SOL    HW110868   1.682   2.781   1.462
 3323SOL    HW210869   1.681   2.714   1.611
 3324SOL     OW10870   5.055   5.773   5.743
 3324SOL    HW110871   5.078   5.748   5.837
 3324SOL    HW210872   4.983   5.843   5.744
 3325SOL     OW10873   2.211   4.021   6.144
 3325SOL    HW110874   2.242   3.926   6.151
 3325SOL    HW210875   2.250   4.074   6.219
 3326SOL     OW10876   3.989   0.868   2.607
 3326SOL    HW110877   3.967   0.916   2.691
 3326SOL    HW210878   3.911   0.811   2.580
 3327SOL     OW10879   0.773   5.262   0.025
 3327SOL    HW110880   0.703   5.232   6.988
 3327SOL    HW210881   0.806   5.184   0.078
 3328SOL     OW10882   4.560   2.235   6.631
 3328SOL    HW110883   4.550   2.207   6.726
 3328SOL    HW210884   4.606   2.162   6.580
 3329SOL     OW10885   7.021   5.785   6.208
 3329SOL    HW110886   0.065   5.850   6.235
 3329SOL    HW210887   6.931   5.829   6.214
 3330SOL     OW10888   6.391   3.572   2.796
 3330SOL    HW110889   6.403   3.653   2.738
 3330SOL    HW210890   6.388   3.490   2.738
 3331SOL     OW10891   2.219   3.085   0.799
 3331SOL    HW110892   2.225   3.036   0.712
 3331SOL    HW210893   2.184   3.023   0.869
 3332SOL     OW10894   6.297   4.701   1.116
 3332SOL    HW110895   6.282   4.799   1.125
 3332SOL    HW210896   6.246   4.653   1.186
 3333SOL     OW10897   4.359   5.376   5.706
 3333SOL    HW110898   4.370   5.473   5.682
 3333SOL    HW210899   4.279   5.340   5.659
 3334SOL     OW10900   2.458   4.286   1.663
 3334SOL    HW110901   2.532   4.342   1.700
 3334SOL    HW210902   2.416   4.333   1.585
 3335SOL     OW10903   5.830   4.361   4.893
 3335SOL    HW110904   5.773   4.319   4.963
 3335SOL    HW210905   5.884   4.290   4.847
 3336SOL     OW10906   3.560   5.652   6.109
 3336SOL    HW110907   3.527   5.746   6.105
 3336SOL    HW210908   3.563   5.622   6.204
 3337SOL     OW10909   3.516   1.775   0.942
 3337SOL    HW110910   3.501   1.870   0.971
 3337SOL    HW210911   3.472   1.761   0.853
 3338SOL     OW10912   0.348   4.851   0.821
 3338SOL    HW110913   0.254   4.817   0.819
 3338SOL    HW210914   0.409   4.779   0.854
 3339SOL     OW10915   6.845   5.701   6.554
 3339SOL    HW110916   6.821   5.794   6.527
 3339SOL    HW210917   6.814   5.637   6.483
 3340SOL     OW10918   3.672   6.491   1.352
 3340SOL    HW110919   3.762   6.516   1.315
 3340SOL    HW210920   3.612   6.465   1.276
 3341SOL     OW10921   1.124   0.616   2.326
 3341SOL    HW110922   1.079   0.673   2.395
 3341SOL    HW210923   1.099   0.649   2.235
 3342SOL     OW10924   2.461   6.694   4.305
 3342SOL    HW110925   2.382   6.634   4.314
 3342SOL    HW210926   2.509   6.701   4.392
 3343SOL     OW10927   5.722   2.679   0.997
 3343SOL    HW110928   5.765   2.769   0.987
 3343SOL    HW210929   5.771   2.627   1.067
 3344SOL     OW10930   0.060   3.521   5.887
 3344SOL    HW110931   0.100   3.460   5.956
 3344SOL    HW210932   6.991   3.538   5.910
 3345SOL     OW10933   3.053   3.248   5.497
 3345SOL    HW110934   3.102   3.280   5.578
 3345SOL    HW210935   3.108   3.265   5.415
 3346SOL     OW10936   1.465   6.558   2.282
 3346SOL    HW110937   1.494   6.509   2.364
 3346SOL    HW210938   1.433   6.493   2.214
 3347SOL     OW10939   5.599   4.268   5.051
 3347SOL    HW110940   5.500   4.259   5.061
 3347SOL    HW210941   5.640   4.288   5.141
 3348SOL     OW10942   3.192   3.002   3.587
 3348SOL    HW110943   3.150   3.074   3.531
 3348SOL    HW210944   3.166   3.015   3.683
 3349SOL     OW10945   6.258   3.906   5.264
 3349SOL    HW110946   6.195   3.856   5.205
 3349SOL    HW210947   6.318   3.963   5.207
 3350SOL     OW10948   1.012   1.172   1.356
 3350SOL    HW110949   0.975   1.084   1.325
 3350SOL    HW210950   1.110   1.175   1.336
 3351SOL     OW10951   4.828   1.436   1.740
 3351SOL    HW110952   4.782   1.515   1.781
 3351SOL    HW210953   4.774   1.353   1.756
 3352SOL     OW10954   0.486   4.083   0.470
 3352SOL    HW110955   0.552   4.040   0.530
 3352SOL    HW210956   0.457   4.171   0.509
 3353SOL     OW10957   2.272   6.680   5.593
 3353SOL    HW110958   2.301   6.753   5.654
 3353SOL    HW210959   2.230   6.606   5.646
 3354SOL     OW10960   1.022   1.604   2.674
 3354SOL    HW110961   1.052   1.508   2.680
 3354SOL    HW210962   1.043   1.639   2.583
 3355SOL     OW10963   6.412   1.453   2.636
 3355SOL    HW110964   6.414   1.538   2.688
 3355SOL    HW210965   6.505   1.430   2.607
 3356SOL     OW10966   2.822   3.026   6.505
 3356SOL    HW110967   2.789   2.992   6.417
 3356SOL    HW210968   2.792   2.964   6.578
 3357SOL     OW10969   2.688   4.789   1.781
 3357SOL    HW110970   2.756   4.861   1.787
 3357SOL    HW210971   2.700   4.725   1.857
 3358SOL     OW10972   5.259   4.743   2.878
 3358SOL    HW110973   5.304   4.832   2.883
 3358SOL    HW210974   5.246   4.707   2.970
 3359SOL     OW10975   1.050   1.246   2.248
 3359SOL    HW110976   1.062   1.174   2.179
 3359SOL    HW210977   0.958   1.285   2.239
 3360SOL     OW10978   1.281   0.312   6.670
 3360SOL    HW110979   1.358   0.373   6.686
 3360SOL    HW210980   1.235   0.338   6.585
 3361SOL     OW10981   5.500   6.671   2.735
 3361SOL    HW110982   5.554   6.754   2.724
 3361SOL    HW210983   5.402   6.694   2.736
 3362SOL     OW10984   2.122   1.317   5.429
 3362SOL    HW110985   2.114   1.368   5.514
 3362SOL    HW210986   2.214   1.327   5.392
 3363SOL     OW10987   0.617   1.036   6.869
 3363SOL    HW110988   0.537   1.068   6.919
 3363SOL    HW210989   0.698   1.084   6.902
 3364SOL     OW10990   1.925   4.878   6.543
 3364SOL    HW110991   1.878   4.810   6.486
 3364SOL    HW210992   1.875   4.965   6.538
 3365SOL     OW10993   6.420   1.992   5.684
 3365SOL    HW110994   6.407   1.927   5.609
 3365SOL    HW210995   6.345   1.981   5.750
 3366SOL     OW10996   5.216   1.170   5.839
 3366SOL    HW110997   5.294   1.227   5.813
 3366SOL    HW210998   5.246   1.098   5.901
 3367SOL     OW10999   0.657   0.688   2.085
 3367SOL    HW111000   0.562   0.660   2.071
 3367SOL    HW211001   0.676   0.770   2.030
 3368SOL     OW11002   0.128   5.992   5.414
 3368SOL    HW111003   0.102   5.970   5.508
 3368SOL    HW211004   0.171   5.912   5.372
 3369SOL     OW11005   4.191   0.207   6.643
 3369SOL    HW111006   4.117   0.193   6.577
 3369SOL    HW211007   4.184   0.298   6.682
 3370SOL     OW11008   5.717   6.736   5.005
 3370SOL    HW111009   5.683   6.686   5.084
 3370SOL    HW211010   5.810   6.768   5.023
 3371SOL     OW11011   6.832   5.591   1.664
 3371SOL    HW111012   6.904   5.614   1.598
 3371SOL    HW211013   6.802   5.675   1.710
 3372SOL     OW11014   0.364   1.158   2.817
 3372SOL    HW111015   0.356   1.165   2.718
 3372SOL    HW211016   0.444   1.103   2.841
 3373SOL     OW11017   6.448   2.174   5.366
 3373SOL    HW111018   6.429   2.256   5.420
 3373SOL    HW211019   6.362   2.129   5.342
 3374SOL     OW11020   3.224   5.248   5.043
 3374SOL    HW111021   3.290   5.296   4.985
 3374SOL    HW211022   3.228   5.285   5.136
 3375SOL     OW11023   4.486   4.660   5.317
 3375SOL    HW111024   4.456   4.583   5.374
 3375SOL    HW211025   4.406   4.715   5.291
 3376SOL     OW11026   3.389   3.808   2.436
 3376SOL    HW111027   3.488   3.801   2.433
 3376SOL    HW211028   3.356   3.782   2.527
 3377SOL     OW11029   1.655   6.355   5.383
 3377SOL    HW111030   1.625   6.359   5.478
 3377SOL    HW211031   1.707   6.437   5.361
 3378SOL     OW11032   0.155   1.463   0.803
 3378SOL    HW111033   0.175   1.436   0.709
 3378SOL    HW211034   0.216   1.538   0.830
 3379SOL     OW11035   0.905   4.746   5.663
 3379SOL    HW111036   0.811   4.769   5.637
 3379SOL    HW211037   0.910   4.648   5.684
 3380SOL     OW11038   0.292   4.373   6.467
 3380SOL    HW111039   0.356   4.302   6.438
 3380SOL    HW211040   0.256   4.350   6.558
 3381SOL     OW11041   3.154   2.522   0.560
 3381SOL    HW111042   3.120   2.429   0.542
 3381SOL    HW211043   3.164   2.535   0.659
 3382SOL     OW11044   6.776   0.593   0.804
 3382SOL    HW111045   6.731   0.536   0.736
 3382SOL    HW211046   6.870   0.610   0.776
 3383SOL     OW11047   6.271   5.016   2.534
 3383SOL    HW111048   6.305   4.973   2.451
 3383SOL    HW211049   6.181   4.980   2.557
 3384SOL     OW11050   3.994   3.096   4.250
 3384SOL    HW111051   3.932   3.125   4.176
 3384SOL    HW211052   4.023   3.177   4.302
 3385SOL     OW11053   6.286   3.701   3.402
 3385SOL    HW111054   6.364   3.646   3.373
 3385SOL    HW211055   6.249   3.664   3.488
 3386SOL     OW11056   6.001   4.485   5.348
 3386SOL    HW111057   6.002   4.505   5.250
 3386SOL    HW211058   6.092   4.502   5.386
 3387SOL     OW11059   2.347   2.518   2.700
 3387SOL    HW111060   2.290   2.489   2.624
 3387SOL    HW211061   2.443   2.497   2.681
 3388SOL     OW11062   5.851   2.396   1.456
 3388SOL    HW111063   5.863   2.348   1.543
 3388SOL    HW211064   5.761   2.440   1.454
 3389SOL     OW11065   5.511   4.857   3.416
 3389SOL    HW111066   5.528   4.763   3.385
 3389SOL    HW211067   5.501   4.917   3.336
 3390SOL     OW11068   4.717   2.702   5.351
 3390SOL    HW111069   4.776   2.677   5.428
 3390SOL    HW211070   4.621   2.694   5.379
 3391SOL     OW11071   3.599   2.087   4.541
 3391SOL    HW111072   3.515   2.141   4.533
 3391SOL    HW211073   3.578   1.991   4.522
 3392SOL     OW11074   3.788   6.465   3.783
 3392SOL    HW111075   3.700   6.512   3.773
 3392SOL    HW211076   3.771   6.367   3.796
 3393SOL     OW11077   6.512   0.076   6.747
 3393SOL    HW111078   6.585   0.023   6.791
 3393SOL    HW211079   6.477   0.143   6.812
 3394SOL     OW11080   6.154   2.831   1.784
 3394SOL    HW111081   6.168   2.825   1.685
 3394SOL    HW211082   6.088   2.762   1.812
 3395SOL     OW11083   1.443   3.313   5.282
 3395SOL    HW111084   1.525   3.312   5.225
 3395SOL    HW211085   1.467   3.291   5.376
 3396SOL     OW11086   0.134   4.079   4.041
 3396SOL    HW111087   0.138   4.082   3.941
 3396SOL    HW211088   0.129   3.984   4.072
 3397SOL     OW11089   3.687   6.401   6.005
 3397SOL    HW111090   3.688   6.443   6.096
 3397SOL    HW211091   3.766   6.433   5.953
 3398SOL     OW11092   0.827   6.882   4.222
 3398SOL    HW111093   0.903   6.839   4.270
 3398SOL    HW211094   0.786   6.817   4.158
 3399SOL     OW11095   4.986   4.738   4.220
 3399SOL    HW111096   4.985   4.740   4.120
 3399SOL    HW211097   4.922   4.668   4.252
 3400SOL     OW11098   4.527   2.221   6.920
 3400SOL    HW111099   4.445   2.278   6.910
 3400SOL    HW211100   4.579   2.252   7.000
 3401SOL     OW11101   6.108   4.541   0.261
 3401SOL    HW111102   6.070   4.472   0.322
 3401SOL    HW211103   6.044   4.617   0.252
 3402SOL     OW11104   5.642   5.817   1.944
 3402SOL    HW111105   5.629   5.894   1.881
 3402SOL    HW211106   5.572   5.821   2.015
 3403SOL     OW11107   3.725   1.101   5.128
 3403SOL    HW111108   3.780   1.050   5.062
 3403SOL    HW211109   3.656   1.040   5.168
 3404SOL     OW11110   4.771   0.784   0.415
 3404SOL    HW111111   4.749   0.687   0.409
 3404SOL    HW211112   4.847   0.805   0.353
 3405SOL     OW11113   6.733   3.604   6.796
 3405SOL    HW111114   6.805   3.648   6.743
 3405SOL    HW211115   6.772   3.531   6.853
 3406SOL     OW11116   1.389   3.719   2.796
 3406SOL    HW111117   1.468   3.751   2.744
 3406SOL    HW211118   1.338   3.798   2.831
 3407SOL     OW11119   1.337   5.551   2.785
 3407SOL    HW111120   1.322   5.539   2.883
 3407SOL    HW211121   1.433   5.536   2.763
 3408SOL     OW11122   5.303   4.420   3.128
 3408SOL    HW111123   5.207   4.426   3.104
 3408SOL    HW211124   5.350   4.505   3.102
 3409SOL     OW11125   3.877   0.676   5.371
 3409SOL    HW111126   3.782   0.680   5.404
 3409SOL    HW211127   3.894   0.753   5.309
 3410SOL     OW11128   6.213   7.001   0.663
 3410SOL    HW111129   6.275   0.051   0.645
 3410SOL    HW211130   6.241   6.956   0.748
 3411SOL     OW11131   4.993   2.094   2.775
 3411SOL    HW111132   5.069   2.114   2.837
 3411SOL    HW211133   4.952   2.006   2.801
 3412SOL     OW11134   3.755   4.442   7.013
 3412SOL    HW111135   3.677   4.476   0.039
 3412SOL    HW211136   3.840   4.469   0.032
 3413SOL     OW11137   3.581   2.131   3.454
 3413SOL    HW111138   3.643   2.111   3.377
 3413SOL    HW211139   3.634   2.170   3.529
 3414SOL     OW11140   2.647   2.392   5.166
 3414SOL    HW111141   2.689   2.311   5.125
 3414SOL    HW211142   2.718   2.458   5.190
 3415SOL     OW11143   0.716   4.589   3.939
 3415SOL    HW111144   0.741   4.685   3.945
 3415SOL    HW211145   0.768   4.536   4.006
 3416SOL     OW11146   1.405   5.421   5.410
 3416SOL    HW111147   1.408   5.500   5.471
 3416SOL    HW211148   1.342   5.439   5.334
 3417SOL     OW11149   6.500   6.964   2.280
 3417SOL    HW111150   6.459   6.946   2.191
 3417SOL    HW211151   6.577   0.001   2.269
 3418SOL     OW11152   3.065   1.468   5.620
 3418SOL    HW111153   3.039   1.417   5.701
 3418SOL    HW211154   3.017   1.556   5.618
 3419SOL     OW11155   4.555   4.686   0.398
 3419SOL    HW111156   4.583   4.767   0.450
 3419SOL    HW211157   4.610   4.680   0.315
 3420SOL     OW11158   4.102   2.232   3.637
 3420SOL    HW111159   4.060   2.250   3.726
 3420SOL    HW211160   4.162   2.308   3.612
 3421SOL     OW11161   0.289   5.626   5.105
 3421SOL    HW111162   0.204   5.584   5.136
 3421SOL    HW211163   0.273   5.723   5.084
 3422SOL     OW11164   3.659   1.291   2.142
 3422SOL    HW111165   3.662   1.211   2.202
 3422SOL    HW211166   3.565   1.307   2.112
 3423SOL     OW11167   2.437   0.571   1.070
 3423SOL    HW111168   2.339   0.565   1.049
 3423SOL    HW211169   2.451   0.561   1.168
 3424SOL     OW11170   4.578   0.677   3.090
 3424SOL    HW111171   4.568   0.590   3.138
 3424SOL    HW211172   4.669   0.714   3.109
 3425SOL     OW11173   4.748   4.314   1.771
 3425SOL    HW111174   4.665   4.302   1.826
 3425SOL    HW211175   4.753   4.409   1.741
 3426SOL     OW11176   4.006   4.010   0.806
 3426SOL    HW111177   4.097   3.969   0.796
 3426SOL    HW211178   3.963   3.975   0.890
 3427SOL     OW11179   0.972   1.354   0.326
 3427SOL    HW111180   0.894   1.415   0.312
 3427SOL    HW211181   1.001   1.358   0.421
 3428SOL     OW11182   4.257   4.828   2.387
 3428SOL    HW111183   4.168   4.868   2.366
 3428SOL    HW211184   4.299   4.794   2.304
 3429SOL     OW11185   1.660   3.107   7.009
 3429SOL    HW111186   1.634   3.198   6.978
 3429SOL    HW211187   1.707   3.113   0.070
 3430SOL     OW11188   1.632   6.661   0.155
 3430SOL    HW111189   1.551   6.650   0.212
 3430SOL    HW211190   1.610   6.637   0.061
 3431SOL     OW11191   0.783   5.858   0.892
 3431SOL    HW111192   0.750   5.814   0.975
 3431SOL    HW211193   0.746   5.811   0.812
 3432SOL     OW11194   3.195   1.521   5.913
 3432SOL    HW111195   3.290   1.493   5.899
 3432SOL    HW211196   3.172   1.595   5.850
 3433SOL     OW11197   3.546   1.237   4.873
 3433SOL    HW111198   3.624   1.295   4.895
 3433SOL    HW211199   3.477   1.244   4.945
 3434SOL     OW11200   4.672   2.746   2.214
 3434SOL    HW111201   4.753   2.785   2.171
 3434SOL    HW211202   4.594   2.808   2.200
 3435SOL     OW11203   0.079   1.721   1.617
 3435SOL    HW111204   0.058   1.812   1.582
 3435SOL    HW211205   0.172   1.720   1.654
 3436SOL     OW11206   4.303   6.716   4.415
 3436SOL    HW111207   4.356   6.669   4.486
 3436SOL    HW211208   4.216   6.669   4.402
 3437SOL     OW11209   3.889   6.851   5.662
 3437SOL    HW111210   3.908   6.949   5.663
 3437SOL    HW211211   3.847   6.824   5.748
 3438SOL     OW11212   1.005   2.754   6.512
 3438SOL    HW111213   0.914   2.796   6.509
 3438SOL    HW211214   1.039   2.741   6.419
 3439SOL     OW11215   2.499   6.329   4.114
 3439SOL    HW111216   2.519   6.352   4.209
 3439SOL    HW211217   2.557   6.383   4.054
 3440SOL     OW11218   5.241   3.114   0.834
 3440SOL    HW111219   5.200   3.025   0.813
 3440SOL    HW211220   5.169   3.182   0.845
 3441SOL     OW11221   2.895   0.429   3.702
 3441SOL    HW111222   2.949   0.452   3.622
 3441SOL    HW211223   2.798   0.442   3.683
 3442SOL     OW11224   2.048   4.777   3.544
 3442SOL    HW111225   1.962   4.726   3.545
 3442SOL    HW211226   2.075   4.800   3.638
 3443SOL     OW11227   5.942   1.379   2.724
 3443SOL    HW111228   5.967   1.332   2.809
 3443SOL    HW211229   5.907   1.312   2.658
 3444SOL     OW11230   4.992   5.255   0.124
 3444SOL    HW111231   5.083   5.240   0.163
 3444SOL    HW211232   4.934   5.176   0.145
 3445SOL     OW11233   6.691   4.626   4.291
 3445SOL    HW111234   6.657   4.637   4.384
 3445SOL    HW211235   6.723   4.714   4.256
 3446SOL     OW11236   3.917   7.025   2.620
 3446SOL    HW111237   3.830   6.997   2.661
 3446SOL    HW211238   3.898   0.067   2.548
 3447SOL     OW11239   5.483   6.076   6.786
 3447SOL    HW111240   5.534   5.992   6.766
 3447SOL    HW211241   5.403   6.053   6.841
 3448SOL     OW11242   3.512   1.454   1.375
 3448SOL    HW111243   3.423   1.414   1.357
 3448SOL    HW211244   3.583   1.385   1.365
 3449SOL     OW11245   0.062   6.584   3.368
 3449SOL    HW111246   0.053   6.656   3.300
 3449SOL    HW211247   0.113   6.507   3.329
 3450SOL     OW11248   1.050   1.756   1.702
 3450SOL    HW111249   0.950   1.750   1.705
 3450SOL    HW211250   1.076   1.839   1.652
 3451SOL     OW11251   0.735   5.718   4.183
 3451SOL    HW111252   0.735   5.814   4.210
 3451SOL    HW211253   0.820   5.674   4.214
 3452SOL     OW11254   5.789   1.295   0.569
 3452SOL    HW111255   5.779   1.350   0.486
 3452SOL    HW211256   5.699   1.266   0.601
 3453SOL     OW11257   5.474   5.652   4.727
 3453SOL    HW111258   5.453   5.662   4.825
 3453SOL    HW211259   5.519   5.736   4.695
 3454SOL     OW11260   1.019   0.768   0.631
 3454SOL    HW111261   1.080   0.738   0.558
 3454SOL    HW211262   1.027   0.706   0.709
 3455SOL     OW11263   2.119   2.610   4.349
 3455SOL    HW111264   2.183   2.647   4.416
 3455SOL    HW211265   2.031   2.658   4.355
 3456SOL     OW11266   5.647   6.912   1.477
 3456SOL    HW111267   5.737   6.955   1.470
 3456SOL    HW211268   5.649   6.823   1.431
 3457SOL     OW11269   2.348   5.004   3.195
 3457SOL    HW111270   2.402   5.078   3.236
 3457SOL    HW211271   2.401   4.919   3.196
 3458SOL     OW11272   5.567   6.795   0.645
 3458SOL    HW111273   5.489   6.849   0.615
 3458SOL    HW211274   5.597   6.734   0.571
 3459SOL     OW11275   0.475   5.138   3.929
 3459SOL    HW111276   0.410   5.092   3.990
 3459SOL    HW211277   0.426   5.205   3.873
 3460SOL     OW11278   4.373   3.030   6.877
 3460SOL    HW111279   4.360   2.975   6.959
 3460SOL    HW211280   4.463   3.009   6.837
 3461SOL     OW11281   3.750   6.143   3.607
 3461SOL    HW111282   3.847   6.167   3.614
 3461SOL    HW211283   3.712   6.183   3.523
 3462SOL     OW11284   4.909   3.484   2.897
 3462SOL    HW111285   4.901   3.578   2.932
 3462SOL    HW211286   4.830   3.464   2.839
 3463SOL     OW11287   2.238   3.164   1.171
 3463SOL    HW111288   2.243   3.174   1.270
 3463SOL    HW211289   2.144   3.144   1.144
 3464SOL     OW11290   4.915   3.098   6.517
 3464SOL    HW111291   4.959   3.111   6.428
 3464SOL    HW211292   4.974   3.041   6.575
 3465SOL     OW11293   1.958   3.483   1.972
 3465SOL    HW111294   2.054   3.459   1.985
 3465SOL    HW211295   1.947   3.534   1.887
 3466SOL     OW11296   6.356   4.973   4.320
 3466SOL    HW111297   6.378   5.052   4.263
 3466SOL    HW211298   6.367   4.889   4.267
 3467SOL     OW11299   2.605   2.297   0.781
 3467SOL    HW111300   2.531   2.341   0.728
 3467SOL    HW211301   2.671   2.256   0.718
 3468SOL     OW11302   4.412   1.663   1.207
 3468SOL    HW111303   4.384   1.598   1.137
 3468SOL    HW211304   4.512   1.669   1.209
 3469SOL     OW11305   4.152   6.719   5.561
 3469SOL    HW111306   4.121   6.693   5.653
 3469SOL    HW211307   4.152   6.819   5.554
 3470SOL     OW11308   0.412   2.694   2.227
 3470SOL    HW111309   0.373   2.786   2.232
 3470SOL    HW211310   0.510   2.700   2.245
 3471SOL     OW11311   4.812   4.008   3.072
 3471SOL    HW111312   4.808   4.005   3.172
 3471SOL    HW211313   4.829   3.916   3.037
 3472SOL     OW11314   4.529   1.798   3.623
 3472SOL    HW111315   4.559   1.762   3.711
 3472SOL    HW211316   4.463   1.872   3.638
 3473SOL     OW11317   6.778   4.331   2.869
 3473SOL    HW111318   6.876   4.313   2.863
 3473SOL    HW211319   6.728   4.245   2.862
 3474SOL     OW11320   6.551   5.510   4.188
 3474SOL    HW111321   6.635   5.457   4.201
 3474SOL    HW211322   6.561   5.600   4.231
 3475SOL     OW11323   6.949   4.043   4.578
 3475SOL    HW111324   7.024   3.976   4.571
 3475SOL    HW211325   6.986   4.135   4.564
 3476SOL     OW11326   1.453   2.055   3.306
 3476SOL    HW111327   1.378   2.080   3.366
 3476SOL    HW211328   1.432   1.969   3.260
 3477SOL     OW11329   0.612   3.754   1.379
 3477SOL    HW111330   0.639   3.845   1.349
 3477SOL    HW211331   0.670   3.686   1.335
 3478SOL     OW11332   2.377   0.046   6.882
 3478SOL    HW111333   2.382   7.013   6.962
 3478SOL    HW211334   2.364   0.141   6.912
 3479SOL     OW11335   0.899   3.019   3.817
 3479SOL    HW111336   0.916   3.118   3.820
 3479SOL    HW211337   0.852   2.991   3.900
 3480SOL     OW11338   1.213   5.876   6.913
 3480SOL    HW111339   1.182   5.874   7.007
 3480SOL    HW211340   1.135   5.871   6.851
 3481SOL     OW11341   6.608   0.406   6.088
 3481SOL    HW111342   6.562   0.495   6.091
 3481SOL    HW211343   6.557   0.345   6.027
 3482SOL     OW11344   6.116   3.913   4.684
 3482SOL    HW111345   6.191   3.904   4.749
 3482SOL    HW211346   6.144   3.973   4.609
 3483SOL     OW11347   4.378   2.280   3.389
 3483SOL    HW111348   4.384   2.307   3.485
 3483SOL    HW211349   4.470   2.265   3.353
 3484SOL     OW11350   2.190   3.437   5.841
 3484SOL    HW111351   2.126   3.466   5.912
 3484SOL    HW211352   2.279   3.479   5.858
 3485SOL     OW11353   0.201   1.825   5.936
 3485SOL    HW111354   0.205   1.884   6.016
 3485SOL    HW211355   0.192   1.730   5.966
 3486SOL     OW11356   2.437   0.462   4.714
 3486SOL    HW111357   2.446   0.561   4.711
 3486SOL    HW211358   2.369   0.432   4.647
 3487SOL     OW11359   6.049   1.734   6.630
 3487SOL    HW111360   6.118   1.797   6.665
 3487SOL    HW211361   6.003   1.776   6.551
 3488SOL     OW11362   6.050   0.713   4.215
 3488SOL    HW111363   6.083   0.637   4.158
 3488SOL    HW211364   6.053   0.685   4.311
 3489SOL     OW11365   3.227   0.360   0.499
 3489SOL    HW111366   3.311   0.388   0.453
 3489SOL    HW211367   3.151   0.419   0.470
 3490SOL     OW11368   4.212   5.252   0.631
 3490SOL    HW111369   4.249   5.306   0.556
 3490SOL    HW211370   4.249   5.159   0.626
 3491SOL     OW11371   4.851   3.973   0.216
 3491SOL    HW111372   4.938   3.962   0.168
 3491SOL    HW211373   4.782   3.914   0.175
 3492SOL     OW11374   6.084   4.485   2.486
 3492SOL    HW111375   6.067   4.484   2.387
 3492SOL    HW211376   6.182   4.500   2.502
 3493SOL     OW11377   6.111   3.646   4.584
 3493SOL    HW111378   6.205   3.632   4.614
 3493SOL    HW211379   6.083   3.740   4.605
 3494SOL     OW11380   3.844   1.464   2.010
 3494SOL    HW111381   3.806   1.387   2.062
 3494SOL    HW211382   3.788   1.481   1.929
 3495SOL     OW11383   1.778   3.677   1.746
 3495SOL    HW111384   1.736   3.743   1.684
 3495SOL    HW211385   1.795   3.591   1.697
 3496SOL     OW11386   6.521   5.266   0.890
 3496SOL    HW111387   6.500   5.226   0.979
 3496SOL    HW211388   6.603   5.322   0.897
 3497SOL     OW11389   3.973   0.441   2.514
 3497SOL    HW111390   3.979   0.435   2.415
 3497SOL    HW211391   3.888   0.398   2.545
 3498SOL     OW11392   2.014   2.253   1.220
 3498SOL    HW111393   2.105   2.265   1.180
 3498SOL    HW211394   2.019   2.268   1.319
 3499SOL     OW11395   5.970   5.475   5.655
 3499SOL    HW111396   6.033   5.525   5.596
 3499SOL    HW211397   5.879   5.477   5.616
 3500SOL     OW11398   1.754   2.214   3.602
 3500SOL    HW111399   1.659   2.221   3.634
 3500SOL    HW211400   1.762   2.258   3.513
 3501SOL     OW11401   1.918   7.023   5.988
 3501SOL    HW111402   1.822   0.004   5.960
 3501SOL    HW211403   1.930   6.940   6.042
 3502SOL     OW11404   5.031   3.944   1.869
 3502SOL    HW111405   4.948   3.998   1.852
 3502SOL    HW211406   5.094   3.955   1.792
 3503SOL     OW11407   6.700   6.500   6.520
 3503SOL    HW111408   6.765   6.527   6.591
 3503SOL    HW211409   6.616   6.467   6.562
 3504SOL     OW11410   1.370   0.667   2.058
 3504SOL    HW111411   1.418   0.740   2.106
 3504SOL    HW211412   1.413   0.579   2.079
 3505SOL     OW11413   5.972   5.209   5.794
 3505SOL    HW111414   5.887   5.173   5.831
 3505SOL    HW211415   6.024   5.253   5.867
 3506SOL     OW11416   5.262   4.490   4.236
 3506SOL    HW111417   5.168   4.472   4.206
 3506SOL    HW211418   5.326   4.451   4.170
 3507SOL     OW11419   2.380   6.969   0.327
 3507SOL    HW111420   2.375   6.887   0.270
 3507SOL    HW211421   2.355   0.022   0.273
 3508SOL     OW11422   3.065   2.533   5.356
 3508SOL    HW111423   3.104   2.480   5.281
 3508SOL    HW211424   2.977   2.570   5.328
 3509SOL     OW11425   4.250   5.768   6.776
 3509SOL    HW111426   4.342   5.808   6.771
 3509SOL    HW211427   4.182   5.840   6.766
 3510SOL     OW11428   2.374   0.851   0.932
 3510SOL    HW111429   2.276   0.836   0.917
 3510SOL    HW211430   2.409   0.783   0.996
 3511SOL     OW11431   2.484   4.840   1.238
 3511SOL    HW111432   2.493   4.755   1.290
 3511SOL    HW211433   2.394   4.843   1.195
 3512SOL     OW11434   1.283   4.335   6.989
 3512SOL    HW111435   1.265   4.299   0.054
 3512SOL    HW211436   1.276   4.435   6.991
 3513SOL     OW11437   5.732   2.357   0.132
 3513SOL    HW111438   5.768   2.327   0.220
 3513SOL    HW211439   5.644   2.312   0.114
 3514SOL     OW11440   4.487   0.597   2.843
 3514SOL    HW111441   4.390   0.622   2.844
 3514SOL    HW211442   4.528   0.616   2.932
 3515SOL     OW11443   6.098   5.739   4.919
 3515SOL    HW111444   6.024   5.706   4.861
 3515SOL    HW211445   6.141   5.662   4.967
 3516SOL     OW11446   5.223   0.410   1.068
 3516SOL    HW111447   5.261   0.371   0.985
 3516SOL    HW211448   5.283   0.388   1.145
 3517SOL     OW11449   6.451   1.471   0.202
 3517SOL    HW111450   6.431   1.449   0.107
 3517SOL    HW211451   6.365   1.476   0.254
 3518SOL     OW11452   5.776   1.244   5.258
 3518SOL    HW111453   5.702   1.301   5.223
 3518SOL    HW211454   5.798   1.173   5.190
 3519SOL     OW11455   3.362   0.691   0.400
 3519SOL    HW111456   3.381   0.660   0.493
 3519SOL    HW211457   3.439   0.744   0.366
 3520SOL     OW11458   3.159   5.780   4.998
 3520SOL    HW111459   3.087   5.724   5.040
 3520SOL    HW211460   3.126   5.816   4.911
 3521SOL     OW11461   3.001   2.942   6.938
 3521SOL    HW111462   3.004   2.844   6.915
 3521SOL    HW211463   3.027   2.954   0.007
 3522SOL     OW11464   6.779   5.559   0.265
 3522SOL    HW111465   6.757   5.477   0.211
 3522SOL    HW211466   6.754   5.641   0.213
 3523SOL     OW11467   0.870   5.375   5.913
 3523SOL    HW111468   0.833   5.428   5.990
 3523SOL    HW211469   0.957   5.413   5.884
 3524SOL     OW11470   6.379   1.723   3.287
 3524SOL    HW111471   6.293   1.743   3.241
 3524SOL    HW211472   6.455   1.764   3.236
 3525SOL     OW11473   6.133   4.636   3.928
 3525SOL    HW111474   6.229   4.646   3.902
 3525SOL    HW211475   6.098   4.725   3.958
 3526SOL     OW11476   1.174   5.874   3.632
 3526SOL    HW111477   1.162   5.887   3.533
 3526SOL    HW211478   1.230   5.949   3.668
 3527SOL     OW11479   6.721   2.816   6.130
 3527SOL    HW111480   6.665   2.812   6.047
 3527SOL    HW211481   6.771   2.902   6.132
 3528SOL     OW11482   2.608   6.530   5.434
 3528SOL    HW111483   2.692   6.481   5.460
 3528SOL    HW211484   2.597   6.528   5.335
 3529SOL     OW11485   4.945   5.907   6.758
 3529SOL    HW111486   4.938   5.854   6.674
 3529SOL    HW211487   5.015   5.867   6.817
 3530SOL     OW11488   0.228   6.473   1.898
 3530SOL    HW111489   0.294   6.530   1.947
 3530SOL    HW211490   0.260   6.457   1.805
 3531SOL     OW11491   4.801   1.605   1.478
 3531SOL    HW111492   4.770   1.597   1.383
 3531SOL    HW211493   4.791   1.517   1.524
 3532SOL     OW11494   2.335   1.103   2.244
 3532SOL    HW111495   2.306   1.025   2.190
 3532SOL    HW211496   2.258   1.136   2.299
 3533SOL     OW11497   6.655   1.519   2.332
 3533SOL    HW111498   6.606   1.456   2.272
 3533SOL    HW211499   6.672   1.475   2.420
 3534SOL     OW11500   0.055   1.968   1.456
 3534SOL    HW111501   0.109   2.050   1.436
 3534SOL    HW211502   6.985   1.988   1.444
 3535SOL     OW11503   2.793   5.112   4.800
 3535SOL    HW111504   2.786   5.014   4.820
 3535SOL    HW211505   2.870   5.151   4.851
 3536SOL     OW11506   2.982   2.226   2.518
 3536SOL    HW111507   2.956   2.220   2.421
 3536SOL    HW211508   2.905   2.195   2.574
 3537SOL     OW11509   1.643   5.460   2.812
 3537SOL    HW111510   1.731   5.494   2.848
 3537SOL    HW211511   1.598   5.405   2.882
 3538SOL     OW11512   3.190   5.518   4.743
 3538SOL    HW111513   3.121   5.548   4.808
 3538SOL    HW211514   3.263   5.470   4.791
 3539SOL     OW11515   4.094   3.602   4.210
 3539SOL    HW111516   4.009   3.561   4.176
 3539SOL    HW211517   4.078   3.641   4.300
 3540SOL     OW11518   2.119   1.798   4.153
 3540SOL    HW111519   2.168   1.711   4.160
 3540SOL    HW211520   2.173   1.871   4.196
 3541SOL     OW11521   3.225   3.760   5.121
 3541SOL    HW111522   3.143   3.721   5.164
 3541SOL    HW211523   3.217   3.753   5.022
 3542SOL     OW11524   1.566   4.343   2.477
 3542SOL    HW111525   1.629   4.331   2.401
 3542SOL    HW211526   1.483   4.290   2.460
 3543SOL     OW11527   5.427   2.847   4.132
 3543SOL    HW111528   5.429   2.842   4.232
 3543SOL    HW211529   5.437   2.755   4.094
 3544SOL     OW11530   2.120   4.481   6.056
 3544SOL    HW111531   2.209   4.458   6.097
 3544SOL    HW211532   2.066   4.398   6.046
 3545SOL     OW11533   4.534   5.678   6.206
 3545SOL    HW111534   4.569   5.755   6.260
 3545SOL    HW211535   4.485   5.713   6.127
 3546SOL     OW11536   6.625   5.544   3.308
 3546SOL    HW111537   6.562   5.619   3.287
 3546SOL    HW211538   6.717   5.581   3.324
 3547SOL     OW11539   4.712   5.330   4.695
 3547SOL    HW111540   4.693   5.403   4.629
 3547SOL    HW211541   4.811   5.324   4.710
 3548SOL     OW11542   5.083   2.693   5.151
 3548SOL    HW111543   5.121   2.726   5.065
 3548SOL    HW211544   5.017   2.621   5.134
 3549SOL     OW11545   6.353   4.563   3.171
 3549SOL    HW111546   6.413   4.510   3.111
 3549SOL    HW211547   6.323   4.646   3.124
 3550SOL     OW11548   5.151   1.798   2.760
 3550SOL    HW111549   5.201   1.713   2.745
 3550SOL    HW211550   5.171   1.862   2.685
 3551SOL     OW11551   3.232   6.539   2.746
 3551SOL    HW111552   3.216   6.634   2.719
 3551SOL    HW211553   3.235   6.533   2.846
 3552SOL     OW11554   5.859   6.131   2.773
 3552SOL    HW111555   5.825   6.168   2.859
 3552SOL    HW211556   5.929   6.191   2.736
 3553SOL     OW11557   5.350   2.332   2.418
 3553SOL    HW111558   5.270   2.289   2.375
 3553SOL    HW211559   5.423   2.265   2.428
 3554SOL     OW11560   4.046   4.770   6.874
 3554SOL    HW111561   4.073   4.815   6.959
 3554SOL    HW211562   4.029   4.673   6.891
 3555SOL     OW11563   1.320   2.894   3.226
 3555SOL    HW111564   1.399   2.921   3.282
 3555SOL    HW211565   1.343   2.903   3.129
 3556SOL     OW11566   3.217   0.739   5.660
 3556SOL    HW111567   3.131   0.736   5.608
 3556SOL    HW211568   3.276   0.811   5.623
 3557SOL     OW11569   1.911   0.483   4.598
 3557SOL    HW111570   1.979   0.433   4.546
 3557SOL    HW211571   1.870   0.423   4.667
 3558SOL     OW11572   0.124   6.305   2.104
 3558SOL    HW111573   0.133   6.382   2.041
 3558SOL    HW211574   0.203   6.244   2.094
 3559SOL     OW11575   0.655   1.090   4.879
 3559SOL    HW111576   0.707   1.170   4.908
 3559SOL    HW211577   0.560   1.098   4.909
 3560SOL     OW11578   0.593   6.032   1.702
 3560SOL    HW111579   0.676   6.072   1.663
 3560SOL    HW211580   0.580   6.067   1.795
 3561SOL     OW11581   4.863   4.930   5.721
 3561SOL    HW111582   4.929   4.991   5.765
 3561SOL    HW211583   4.897   4.836   5.722
 3562SOL     OW11584   5.488   0.401   3.551
 3562SOL    HW111585   5.449   0.386   3.461
 3562SOL    HW211586   5.585   0.423   3.543
 3563SOL     OW11587   4.774   0.956   1.350
 3563SOL    HW111588   4.849   1.021   1.361
 3563SOL    HW211589   4.739   0.929   1.440
 3564SOL     OW11590   0.132   4.325   4.183
 3564SOL    HW111591   0.054   4.340   4.243
 3564SOL    HW211592   0.115   4.245   4.125
 3565SOL     OW11593   2.689   0.426   4.779
 3565SOL    HW111594   2.598   0.395   4.749
 3565SOL    HW211595   2.758   0.362   4.745
 3566SOL     OW11596   0.099   3.047   6.199
 3566SOL    HW111597   0.139   2.956   6.205
 3566SOL    HW211598   0.013   3.043   6.149
 3567SOL     OW11599   0.039   3.173   0.836
 3567SOL    HW111600   0.139   3.180   0.842
 3567SOL    HW211601   0.012   3.176   0.740
 3568SOL     OW11602   4.527   4.412   3.423
 3568SOL    HW111603   4.576   4.327   3.408
 3568SOL    HW211604   4.523   4.432   3.521
 3569SOL     OW11605   3.356   4.118   4.427
 3569SOL    HW111606   3.392   4.173   4.502
 3569SOL    HW211607   3.400   4.146   4.341
 3570SOL     OW11608   0.256   1.624   6.225
 3570SOL    HW111609   0.356   1.619   6.227
 3570SOL    HW211610   0.223   1.682   6.299
 3571SOL     OW11611   2.289   6.351   5.395
 3571SOL    HW111612   2.310   6.445   5.366
 3571SOL    HW211613   2.191   6.333   5.381
 3572SOL     OW11614   5.116   4.450   1.744
 3572SOL    HW111615   5.029   4.499   1.740
 3572SOL    HW211616   5.185   4.501   1.693
 3573SOL     OW11617   6.794   3.739   2.626
 3573SOL    HW111618   6.717   3.727   2.563
 3573SOL    HW211619   6.823   3.649   2.659
 3574SOL     OW11620   3.005   2.981   5.889
 3574SOL    HW111621   3.075   3.051   5.874
 3574SOL    HW211622   2.967   2.952   5.801
 3575SOL     OW11623   5.353   6.897   6.994
 3575SOL    HW111624   5.257   6.882   6.972
 3575SOL    HW211625   5.389   6.972   6.939
 3576SOL     OW11626   1.132   3.182   6.573
 3576SOL    HW111627   1.212   3.239   6.559
 3576SOL    HW211628   1.067   3.231   6.633
 3577SOL     OW11629   2.752   2.555   5.681
 3577SOL    HW111630   2.678   2.613   5.648
 3577SOL    HW211631   2.714   2.482   5.738
 3578SOL     OW11632   3.115   3.077   6.724
 3578SOL    HW111633   3.088   3.020   6.802
 3578SOL    HW211634   3.138   3.169   6.756
 3579SOL     OW11635   0.396   3.012   2.660
 3579SOL    HW111636   0.417   3.108   2.640
 3579SOL    HW211637   0.363   2.968   2.576
 3580SOL     OW11638   0.298   4.043   1.530
 3580SOL    HW111639   0.323   4.003   1.619
 3580SOL    HW211640   0.230   3.985   1.486
 3581SOL     OW11641   0.580   0.461   2.576
 3581SOL    HW111642   0.652   0.510   2.527
 3581SOL    HW211643   0.617   0.425   2.662
 3582SOL     OW11644   3.659   4.110   6.145
 3582SOL    HW111645   3.626   4.205   6.142
 3582SOL    HW211646   3.622   4.060   6.067
 3583SOL     OW11647   0.708   5.002   0.755
 3583SOL    HW111648   0.610   5.020   0.758
 3583SOL    HW211649   0.736   4.957   0.839
 3584SOL     OW11650   6.113   4.718   4.514
 3584SOL    HW111651   6.100   4.779   4.436
 3584SOL    HW211652   6.026   4.675   4.538
 3585SOL     OW11653   2.289   1.774   3.331
 3585SOL    HW111654   2.232   1.856   3.328
 3585SOL    HW211655   2.372   1.793   3.385
 3586SOL     OW11656   6.210   2.375   4.610
 3586SOL    HW111657   6.257   2.289   4.587
 3586SOL    HW211658   6.277   2.442   4.641
 3587SOL     OW11659   3.164   6.811   6.459
 3587SOL    HW111660   3.073   6.798   6.500
 3587SOL    HW211661   3.154   6.838   6.364
 3588SOL     OW11662   6.707   4.072   4.442
 3588SOL    HW111663   6.781   4.042   4.503
 3588SOL    HW211664   6.745   4.105   4.356
 3589SOL     OW11665   0.474   0.419   6.404
 3589SOL    HW111666   0.472   0.359   6.324
 3589SOL    HW211667   0.439   0.370   6.483
 3590SOL     OW11668   6.768   4.927   0.633
 3590SOL    HW111669   6.864   4.935   0.605
 3590SOL    HW211670   6.715   4.887   0.559
 3591SOL     OW11671   5.490   2.141   6.851
 3591SOL    HW111672   5.504   2.229   6.806
 3591SOL    HW211673   5.478   2.069   6.782
 3592SOL     OW11674   1.371   6.930   1.598
 3592SOL    HW111675   1.285   6.912   1.551
 3592SOL    HW211676   1.447   6.914   1.536
 3593SOL     OW11677   5.129   3.233   6.029
 3593SOL    HW111678   5.169   3.160   5.975
 3593SOL    HW211679   5.151   3.321   5.987
 3594SOL     OW11680   4.489   5.206   4.746
 3594SOL    HW111681   4.575   5.238   4.707
 3594SOL    HW211682   4.437   5.157   4.675
 3595SOL     OW11683   5.711   6.379   5.593
 3595SOL    HW111684   5.749   6.294   5.629
 3595SOL    HW211685   5.630   6.359   5.538
 3596SOL     OW11686   3.941   1.602   3.611
 3596SOL    HW111687   3.844   1.603   3.633
 3596SOL    HW211688   3.974   1.507   3.609
 3597SOL     OW11689   1.907   3.327   5.291
 3597SOL    HW111690   1.899   3.380   5.375
 3597SOL    HW211691   1.974   3.369   5.230
 3598SOL     OW11692   1.595   5.086   4.760
 3598SOL    HW111693   1.652   5.007   4.782
 3598SOL    HW211694   1.573   5.136   4.845
 3599SOL     OW11695   4.562   1.134   4.839
 3599SOL    HW111696   4.611   1.220   4.831
 3599SOL    HW211697   4.613   1.062   4.792
 3600SOL     OW11698   3.435   3.185   0.723
 3600SOL    HW111699   3.511   3.226   0.775
 3600SOL    HW211700   3.351   3.234   0.743
 3601SOL     OW11701   5.316   0.842   5.445
 3601SOL    HW111702   5.265   0.847   5.359
 3601SOL    HW211703   5.255   0.866   5.521
 3602SOL     OW11704   2.079   2.236   0.824
 3602SOL    HW111705   2.072   2.141   0.792
 3602SOL    HW211706   2.160   2.246   0.881
 3603SOL     OW11707   2.961   0.991   5.750
 3603SOL    HW111708   3.061   0.993   5.742
 3603SOL    HW211709   2.921   1.032   5.668
 3604SOL     OW11710   6.752   0.549   3.657
 3604SOL    HW111711   6.654   0.546   3.637
 3604SOL    HW211712   6.777   0.641   3.686
 3605SOL     OW11713   0.833   5.728   3.485
 3605SOL    HW111714   0.889   5.678   3.551
 3605SOL    HW211715   0.864   5.823   3.480
 3606SOL     OW11716   2.588   6.360   1.788
 3606SOL    HW111717   2.521   6.338   1.717
 3606SOL    HW211718   2.550   6.431   1.848
 3607SOL     OW11719   5.256   3.067   2.876
 3607SOL    HW111720   5.203   3.003   2.820
 3607SOL    HW211721   5.202   3.096   2.955
 3608SOL     OW11722   2.960   2.187   5.200
 3608SOL    HW111723   3.008   2.189   5.287
 3608SOL    HW211724   3.022   2.216   5.127
 3609SOL     OW11725   2.267   0.068   4.367
 3609SOL    HW111726   2.196   0.059   4.298
 3609SOL    HW211727   2.334   0.137   4.338
 3610SOL     OW11728   2.474   6.773   4.966
 3610SOL    HW111729   2.561   6.798   4.923
 3610SOL    HW211730   2.414   6.730   4.899
 3611SOL     OW11731   5.106   5.024   2.985
 3611SOL    HW111732   5.055   5.009   2.901
 3611SOL    HW211733   5.203   5.036   2.965
 3612SOL     OW11734   6.136   1.390   6.433
 3612SOL    HW111735   6.234   1.385   6.452
 3612SOL    HW211736   6.100   1.299   6.414
 3613SOL     OW11737   3.818   5.541   1.331
 3613SOL    HW111738   3.789   5.457   1.286
 3613SOL    HW211739   3.758   5.560   1.408
 3614SOL     OW11740   4.016   4.780   6.419
 3614SOL    HW111741   4.114   4.795   6.434
 3614SOL    HW211742   3.973   4.867   6.395
 3615SOL     OW11743   5.908   2.382   5.632
 3615SOL    HW111744   5.855   2.402   5.549
 3615SOL    HW211745   5.919   2.466   5.685
 3616SOL     OW11746   1.365   1.805   6.719
 3616SOL    HW111747   1.269   1.823   6.698
 3616SOL    HW211748   1.403   1.883   6.768
 3617SOL     OW11749   3.517   6.133   6.281
 3617SOL    HW111750   3.577   6.058   6.310
 3617SOL    HW211751   3.539   6.158   6.186
 3618SOL     OW11752   2.008   4.325   4.668
 3618SOL    HW111753   1.964   4.262   4.605
 3618SOL    HW211754   2.072   4.274   4.727
 3619SOL     OW11755   5.814   3.248   1.280
 3619SOL    HW111756   5.896   3.301   1.262
 3619SOL    HW211757   5.836   3.171   1.340
 3620SOL     OW11758   6.179   5.895   5.161
 3620SOL    HW111759   6.119   5.949   5.220
 3620SOL    HW211760   6.146   5.900   5.067
 3621SOL     OW11761   2.951   3.537   3.566
 3621SOL    HW111762   3.007   3.455   3.573
 3621SOL    HW211763   2.929   3.555   3.470
 3622SOL     OW11764   1.025   6.589   6.847
 3622SOL    HW111765   1.032   6.669   6.907
 3622SOL    HW211766   0.935   6.546   6.860
 3623SOL     OW11767   0.961   4.939   6.218
 3623SOL    HW111768   0.995   4.918   6.310
 3623SOL    HW211769   0.982   4.862   6.157
 3624SOL     OW11770   3.001   1.618   1.616
 3624SOL    HW111771   3.059   1.614   1.697
 3624SOL    HW211772   3.003   1.711   1.578
 3625SOL     OW11773   6.793   2.574   0.928
 3625SOL    HW111774   6.803   2.476   0.909
 3625SOL    HW211775   6.814   2.592   1.024
 3626SOL     OW11776   1.130   2.411   4.995
 3626SOL    HW111777   1.205   2.376   5.051
 3626SOL    HW211778   1.150   2.505   4.967
 3627SOL     OW11779   3.674   2.035   1.733
 3627SOL    HW111780   3.687   2.126   1.770
 3627SOL    HW211781   3.763   1.993   1.714
 3628SOL     OW11782   6.320   1.956   1.348
 3628SOL    HW111783   6.274   1.980   1.433
 3628SOL    HW211784   6.272   1.998   1.271
 3629SOL     OW11785   1.279   1.568   4.544
 3629SOL    HW111786   1.367   1.519   4.543
 3629SOL    HW211787   1.252   1.588   4.449
 3630SOL     OW11788   6.919   2.455   3.393
 3630SOL    HW111789   6.867   2.370   3.405
 3630SOL    HW211790   6.857   2.529   3.368
 3631SOL     OW11791   1.741   6.757   2.410
 3631SOL    HW111792   1.731   6.665   2.374
 3631SOL    HW211793   1.827   6.797   2.378
 3632SOL     OW11794   4.559   4.119   0.810
 3632SOL    HW111795   4.554   4.217   0.830
 3632SOL    HW211796   4.651   4.096   0.778
 3633SOL     OW11797   3.453   3.451   6.432
 3633SOL    HW111798   3.515   3.434   6.356
 3633SOL    HW211799   3.362   3.413   6.411
 3634SOL     OW11800   3.421   5.843   6.881
 3634SOL    HW111801   3.416   5.769   6.814
 3634SOL    HW211802   3.370   5.818   6.963
 3635SOL     OW11803   2.494   6.933   1.784
 3635SOL    HW111804   2.470   6.962   1.877
 3635SOL    HW211805   2.413   6.939   1.726
 3636SOL     OW11806   0.931   4.939   6.770
 3636SOL    HW111807   0.937   4.850   6.724
 3636SOL    HW211808   0.926   5.012   6.703
 3637SOL     OW11809   6.537   3.038   6.959
 3637SOL    HW111810   6.616   3.009   6.905
 3637SOL    HW211811   6.533   2.987   0.018
 3638SOL     OW11812   5.849   4.671   2.927
 3638SOL    HW111813   5.762   4.654   2.879
 3638SOL    HW211814   5.925   4.651   2.865
 3639SOL     OW11815   3.475   3.767   4.189
 3639SOL    HW111816   3.567   3.778   4.227
 3639SOL    HW211817   3.479   3.773   4.089
 3640SOL     OW11818   5.142   2.258   0.522
 3640SOL    HW111819   5.212   2.200   0.563
 3640SOL    HW211820   5.138   2.240   0.424
 3641SOL     OW11821   6.036   3.693   2.535
 3641SOL    HW111822   6.006   3.746   2.614
 3641SOL    HW211823   5.994   3.730   2.452
 3642SOL     OW11824   5.645   3.131   6.192
 3642SOL    HW111825   5.632   3.227   6.169
 3642SOL    HW211826   5.654   3.078   6.108
 3643SOL     OW11827   3.950   5.642   5.336
 3643SOL    HW111828   4.044   5.623   5.307
 3643SOL    HW211829   3.891   5.644   5.256
 3644SOL     OW11830   2.477   0.835   1.539
 3644SOL    HW111831   2.521   0.794   1.459
 3644SOL    HW211832   2.462   0.764   1.608
 3645SOL     OW11833   1.275   4.271   3.548
 3645SOL    HW111834   1.327   4.356   3.541
 3645SOL    HW211835   1.246   4.241   3.457
 3646SOL     OW11836   2.084   4.440   5.121
 3646SOL    HW111837   2.132   4.479   5.200
 3646SOL    HW211838   2.144   4.377   5.073
 3647SOL     OW11839   3.637   6.910   6.894
 3647SOL    HW111840   3.581   6.912   6.811
 3647SOL    HW211841   3.728   6.947   6.873
 3648SOL     OW11842   4.362   5.433   3.494
 3648SOL    HW111843   4.346   5.490   3.575
 3648SOL    HW211844   4.276   5.420   3.445
 3649SOL     OW11845   5.848   2.832   0.295
 3649SOL    HW111846   5.931   2.808   0.345
 3649SOL    HW211847   5.777   2.764   0.314
 3650SOL     OW11848   5.380   5.496   7.007
 3650SOL    HW111849   5.351   5.586   0.013
 3650SOL    HW211850   5.303   5.433   7.011
 3651SOL     OW11851   0.927   2.064   5.634
 3651SOL    HW111852   0.978   2.044   5.718
 3651SOL    HW211853   0.992   2.077   5.558
 3652SOL     OW11854   4.216   1.275   2.241
 3652SOL    HW111855   4.173   1.365   2.241
 3652SOL    HW211856   4.145   1.204   2.242
 3653SOL     OW11857   0.903   1.590   1.034
 3653SOL    HW111858   0.812   1.626   1.016
 3653SOL    HW211859   0.908   1.561   1.130
 3654SOL     OW11860   5.275   6.716   0.477
 3654SOL    HW111861   5.317   6.737   0.388
 3654SOL    HW211862   5.197   6.777   0.492
 3655SOL     OW11863   1.822   2.107   4.192
 3655SOL    HW111864   1.859   2.119   4.100
 3655SOL    HW211865   1.888   2.142   4.259
 3656SOL     OW11866   6.730   6.918   1.256
 3656SOL    HW111867   6.644   6.882   1.292
 3656SOL    HW211868   6.796   6.926   1.331
 3657SOL     OW11869   5.122   5.759   5.077
 3657SOL    HW111870   5.075   5.749   4.989
 3657SOL    HW211871   5.143   5.668   5.113
 3658SOL     OW11872   2.104   4.816   5.702
 3658SOL    HW111873   2.064   4.856   5.619
 3658SOL    HW211874   2.199   4.790   5.684
 3659SOL     OW11875   7.022   1.712   6.418
 3659SOL    HW111876   7.017   1.650   6.340
 3659SOL    HW211877   0.075   1.772   6.410
 3660SOL     OW11878   5.717   5.442   6.671
 3660SOL    HW111879   5.758   5.464   6.583
 3660SOL    HW211880   5.658   5.517   6.700
 3661SOL     OW11881   0.059   2.033   5.111
 3661SOL    HW111882   0.026   1.955   5.056
 3661SOL    HW211883   0.057   2.009   5.208
 3662SOL     OW11884   2.865   1.686   5.690
 3662SOL    HW111885   2.788   1.630   5.723
 3662SOL    HW211886   2.851   1.709   5.594
 3663SOL     OW11887   2.820   2.261   6.419
 3663SOL    HW111888   2.729   2.220   6.429
 3663SOL    HW211889   2.858   2.280   6.509
 3664SOL     OW11890   4.085   1.343   1.915
 3664SOL    HW111891   4.008   1.290   1.880
 3664SOL    HW211892   4.050   1.420   1.969
 3665SOL     OW11893   0.995   5.791   5.788
 3665SOL    HW111894   1.008   5.720   5.718
 3665SOL    HW211895   1.032   5.878   5.755
 3666SOL     OW11896   1.952   2.787   4.639
 3666SOL    HW111897   1.912   2.794   4.548
 3666SOL    HW211898   2.040   2.834   4.640
 3667SOL     OW11899   1.908   0.358   1.457
 3667SOL    HW111900   1.810   0.345   1.465
 3667SOL    HW211901   1.956   0.275   1.487
 3668SOL     OW11902   0.235   1.286   1.699
 3668SOL    HW111903   0.277   1.375   1.712
 3668SOL    HW211904   0.139   1.298   1.675
 3669SOL     OW11905   0.635   1.273   3.558
 3669SOL    HW111906   0.674   1.351   3.607
 3669SOL    HW211907   0.537   1.268   3.576
 3670SOL     OW11908   2.920   5.934   1.765
 3670SOL    HW111909   2.885   6.028   1.762
 3670SOL    HW211910   2.867   5.880   1.830
 3671SOL     OW11911   6.129   0.414   3.856
 3671SOL    HW111912   6.039   0.428   3.815
 3671SOL    HW211913   6.177   0.340   3.810
 3672SOL     OW11914   3.733   6.611   2.778
 3672SOL    HW111915   3.756   6.695   2.827
 3672SOL    HW211916   3.635   6.610   2.758
 3673SOL     OW11917   3.419   6.154   1.174
 3673SOL    HW111918   3.391   6.191   1.263
 3673SOL    HW211919   3.468   6.068   1.187
 3674SOL     OW11920   1.722   4.788   6.041
 3674SOL    HW111921   1.721   4.689   6.033
 3674SOL    HW211922   1.816   4.821   6.037
 3675SOL     OW11923   1.403   0.730   4.187
 3675SOL    HW111924   1.307   0.719   4.159
 3675SOL    HW211925   1.407   0.789   4.268
 3676SOL     OW11926   4.020   1.927   4.150
 3676SOL    HW111927   3.954   1.974   4.210
 3676SOL    HW211928   4.111   1.965   4.165
 3677SOL     OW11929   2.105   0.536   4.037
 3677SOL    HW111930   2.143   0.486   3.959
 3677SOL    HW211931   2.010   0.561   4.018
 3678SOL     OW11932   0.968   0.959   3.834
 3678SOL    HW111933   0.893   1.025   3.831
 3678SOL    HW211934   0.989   0.928   3.742
 3679SOL     OW11935   4.216   0.590   2.548
 3679SOL    HW111936   4.124   0.552   2.559
 3679SOL    HW211937   4.278   0.544   2.611
 3680SOL     OW11938   3.448   1.114   4.617
 3680SOL    HW111939   3.424   1.162   4.701
 3680SOL    HW211940   3.525   1.159   4.574
 3681SOL     OW11941   1.606   6.105   4.492
 3681SOL    HW111942   1.644   6.135   4.580
 3681SOL    HW211943   1.506   6.101   4.499
 3682SOL     OW11944   5.521   1.452   1.596
 3682SOL    HW111945   5.529   1.500   1.684
 3682SOL    HW211946   5.514   1.519   1.522
 3683SOL     OW11947   5.789   1.626   6.135
 3683SOL    HW111948   5.746   1.617   6.045
 3683SOL    HW211949   5.886   1.604   6.128
 3684SOL     OW11950   1.957   6.547   5.740
 3684SOL    HW111951   1.965   6.514   5.646
 3684SOL    HW211952   2.048   6.570   5.775
 3685SOL     OW11953   2.068   6.106   5.246
 3685SOL    HW111954   2.121   6.167   5.186
 3685SOL    HW211955   2.126   6.072   5.319
 3686SOL     OW11956   0.254   3.998   2.983
 3686SOL    HW111957   0.197   3.926   2.942
 3686SOL    HW211958   0.328   3.955   3.035
 3687SOL     OW11959   5.504   5.324   4.420
 3687SOL    HW111960   5.435   5.256   4.445
 3687SOL    HW211961   5.466   5.387   4.352
 3688SOL     OW11962   5.887   2.458   0.603
 3688SOL    HW111963   5.829   2.539   0.598
 3688SOL    HW211964   5.885   2.421   0.696
 3689SOL     OW11965   1.296   6.717   5.731
 3689SOL    HW111966   1.300   6.773   5.649
 3689SOL    HW211967   1.339   6.766   5.807
 3690SOL     OW11968   5.092   5.439   1.475
 3690SOL    HW111969   5.106   5.538   1.477
 3690SOL    HW211970   5.161   5.397   1.416
 3691SOL     OW11971   1.498   3.008   0.924
 3691SOL    HW111972   1.547   2.945   0.865
 3691SOL    HW211973   1.413   3.037   0.880
 3692SOL     OW11974   0.558   3.185   5.634
 3692SOL    HW111975   0.586   3.215   5.543
 3692SOL    HW211976   0.565   3.261   5.699
 3693SOL     OW11977   6.319   1.077   2.145
 3693SOL    HW111978   6.370   1.045   2.226
 3693SOL    HW211979   6.240   1.017   2.131
 3694SOL     OW11980   6.513   0.476   2.503
 3694SOL    HW111981   6.453   0.408   2.460
 3694SOL    HW211982   6.599   0.481   2.451
 3695SOL     OW11983   5.671   3.382   2.809
 3695SOL    HW111984   5.767   3.371   2.784
 3695SOL    HW211985   5.655   3.341   2.898
 3696SOL     OW11986   4.059   0.445   4.508
 3696SOL    HW111987   4.056   0.533   4.460
 3696SOL    HW211988   3.980   0.390   4.483
 3697SOL     OW11989   0.174   6.336   3.189
 3697SOL    HW111990   0.163   6.284   3.104
 3697SOL    HW211991   0.090   6.330   3.243
 3698SOL     OW11992   1.541   0.121   2.961
 3698SOL    HW111993   1.592   0.071   3.032
 3698SOL    HW211994   1.515   0.211   2.996
 3699SOL     OW11995   2.582   2.268   3.494
 3699SOL    HW111996   2.616   2.342   3.435
 3699SOL    HW211997   2.653   2.243   3.560
 3700SOL     OW11998   1.275   5.252   4.552
 3700SOL    HW111999   1.245   5.345   4.530
 3700SOL    HW212000   1.375   5.248   4.553
 3701SOL     OW12001   1.488   0.443   2.155
 3701SOL    HW112002   1.412   0.410   2.211
 3701SOL    HW212003   1.571   0.443   2.210
 3702SOL     OW12004   5.539   4.800   3.118
 3702SOL    HW112005   5.547   4.703   3.098
 3702SOL    HW212006   5.630   4.840   3.125
 3703SOL     OW12007   0.983   1.420   4.291
 3703SOL    HW112008   1.006   1.517   4.278
 3703SOL    HW212009   0.983   1.399   4.388
 3704SOL     OW12010   6.515   2.293   1.046
 3704SOL    HW112011   6.480   2.288   1.139
 3704SOL    HW212012   6.448   2.337   0.987
 3705SOL     OW12013   4.898   4.811   3.189
 3705SOL    HW112014   4.916   4.908   3.207
 3705SOL    HW212015   4.820   4.803   3.126
 3706SOL     OW12016   0.511   3.975   7.021
 3706SOL    HW112017   0.565   3.894   0.018
 3706SOL    HW212018   0.421   3.969   0.039
 3707SOL     OW12019   1.284   4.944   3.683
 3707SOL    HW112020   1.340   4.862   3.689
 3707SOL    HW212021   1.341   5.022   3.657
 3708SOL     OW12022   2.407   6.685   0.969
 3708SOL    HW112023   2.416   6.646   1.061
 3708SOL    HW212024   2.362   6.775   0.975
 3709SOL     OW12025   1.920   1.688   1.976
 3709SOL    HW112026   1.924   1.609   1.916
 3709SOL    HW212027   1.831   1.734   1.966
 3710SOL     OW12028   0.375   4.411   5.290
 3710SOL    HW112029   0.369   4.435   5.387
 3710SOL    HW212030   0.469   4.424   5.259
 3711SOL     OW12031   1.674   5.664   4.592
 3711SOL    HW112032   1.683   5.739   4.526
 3711SOL    HW212033   1.613   5.692   4.666
 3712SOL     OW12034   1.791   5.408   4.529
 3712SOL    HW112035   1.796   5.491   4.584
 3712SOL    HW212036   1.782   5.431   4.432
 3713SOL     OW12037   5.805   0.544   4.016
 3713SOL    HW112038   5.713   0.534   4.054
 3713SOL    HW212039   5.857   0.460   4.035
 3714SOL     OW12040   0.676   4.721   0.653
 3714SOL    HW112041   0.690   4.818   0.671
 3714SOL    HW212042   0.755   4.684   0.603
 3715SOL     OW12043   5.598   5.620   4.018
 3715SOL    HW112044   5.615   5.556   3.943
 3715SOL    HW212045   5.657   5.700   4.007
 3716SOL     OW12046   5.004   5.694   4.503
 3716SOL    HW112047   4.915   5.731   4.530
 3716SOL    HW212048   5.047   5.755   4.437
 3717SOL     OW12049   4.548   1.083   0.962
 3717SOL    HW112050   4.552   1.076   1.061
 3717SOL    HW212051   4.560   1.179   0.934
 3718SOL     OW12052   6.634   6.753   5.893
 3718SOL    HW112053   6.618   6.700   5.810
 3718SOL    HW212054   6.555   6.744   5.954
 3719SOL     OW12055   3.493   4.000   0.378
 3719SOL    HW112056   3.548   4.083   0.383
 3719SOL    HW212057   3.479   3.975   0.282
 3720SOL     OW12058   0.450   3.409   1.340
 3720SOL    HW112059   0.511   3.378   1.413
 3720SOL    HW212060   0.356   3.414   1.375
 3721SOL     OW12061   6.820   5.875   5.869
 3721SOL    HW112062   6.773   5.898   5.954
 3721SOL    HW212063   6.836   5.777   5.865
 3722SOL     OW12064   4.944   5.997   2.854
 3722SOL    HW112065   4.950   6.076   2.914
 3722SOL    HW212066   4.856   5.952   2.868
 3723SOL     OW12067   4.620   3.548   0.258
 3723SOL    HW112068   4.533   3.510   0.225
 3723SOL    HW212069   4.657   3.612   0.191
 3724SOL     OW12070   1.285   4.819   4.805
 3724SOL    HW112071   1.341   4.863   4.875
 3724SOL    HW212072   1.193   4.859   4.805
 3725SOL     OW12073   1.127   5.796   0.145
 3725SOL    HW112074   1.046   5.741   0.124
 3725SOL    HW212075   1.100   5.891   0.159
 3726SOL     OW12076   6.077   3.761   5.085
 3726SOL    HW112077   6.015   3.684   5.081
 3726SOL    HW212078   6.026   3.846   5.070
 3727SOL     OW12079   6.811   3.447   3.986
 3727SOL    HW112080   6.898   3.497   3.989
 3727SOL    HW212081   6.756   3.480   3.908
 3728SOL     OW12082   2.909   2.559   0.088
 3728SOL    HW112083   2.915   2.463   0.115
 3728SOL    HW212084   2.825   2.598   0.126
 3729SOL     OW12085   0.543   0.552   5.317
 3729SOL    HW112086   0.615   0.615   5.286
 3729SOL    HW212087   0.540   0.473   5.256
 3730SOL     OW12088   4.442   5.454   4.090
 3730SOL    HW112089   4.386   5.428   4.168
 3730SOL    HW212090   4.387   5.452   4.007
 3731SOL     OW12091   0.219   2.334   6.853
 3731SOL    HW112092   0.276   2.263   6.813
 3731SOL    HW212093   0.123   2.318   6.832
 3732SOL     OW12094   3.429   2.547   6.696
 3732SOL    HW112095   3.450   2.527   6.600
 3732SOL    HW212096   3.331   2.536   6.711
 3733SOL     OW12097   1.951   1.048   4.009
 3733SOL    HW112098   1.998   0.960   4.019
 3733SOL    HW212099   2.006   1.120   4.050
 3734SOL     OW12100   4.025   6.604   0.841
 3734SOL    HW112101   4.027   6.701   0.820
 3734SOL    HW212102   3.935   6.580   0.877
 3735SOL     OW12103   4.165   6.965   2.699
 3735SOL    HW112104   4.074   6.989   2.667
 3735SOL    HW212105   4.164   6.871   2.734
 3736SOL     OW12106   6.640   0.828   0.878
 3736SOL    HW112107   6.723   0.773   0.885
 3736SOL    HW212108   6.561   0.774   0.906
 3737SOL     OW12109   6.886   2.111   2.586
 3737SOL    HW112110   6.849   2.193   2.629
 3737SOL    HW212111   6.909   2.131   2.490
 3738SOL     OW12112   6.715   6.533   0.984
 3738SOL    HW112113   6.646   6.502   0.919
 3738SOL    HW212114   6.725   6.633   0.976
 3739SOL     OW12115   3.082   3.626   0.301
 3739SOL    HW112116   3.181   3.620   0.284
 3739SOL    HW212117   3.045   3.534   0.312
 3740SOL     OW12118   5.097   5.561   6.009
 3740SOL    HW112119   4.998   5.563   6.013
 3740SOL    HW212120   5.132   5.653   5.991
 3741SOL     OW12121   5.360   3.140   0.367
 3741SOL    HW112122   5.346   3.131   0.466
 3741SOL    HW212123   5.332   3.231   0.338
 3742SOL     OW12124   4.074   5.471   0.365
 3742SOL    HW112125   4.131   5.514   0.295
 3742SOL    HW212126   4.007   5.537   0.399
 3743SOL     OW12127   3.865   3.421   1.316
 3743SOL    HW112128   3.826   3.332   1.338
 3743SOL    HW212129   3.916   3.456   1.394
 3744SOL     OW12130   0.634   0.065   2.186
 3744SOL    HW112131   0.543   0.104   2.167
 3744SOL    HW212132   0.673   0.110   2.266
 3745SOL     OW12133   4.898   3.727   2.360
 3745SOL    HW112134   4.921   3.767   2.271
 3745SOL    HW212135   4.859   3.797   2.419
 3746SOL     OW12136   6.079   0.697   4.497
 3746SOL    HW112137   6.127   0.762   4.556
 3746SOL    HW212138   5.981   0.713   4.501
 3747SOL     OW12139   3.491   6.989   5.721
 3747SOL    HW112140   3.504   6.958   5.627
 3747SOL    HW212141   3.426   6.929   5.767
 3748SOL     OW12142   4.813   1.879   2.818
 3748SOL    HW112143   4.717   1.854   2.807
 3748SOL    HW212144   4.871   1.799   2.797
 3749SOL     OW12145   0.006   6.474   2.596
 3749SOL    HW112146   0.105   6.469   2.603
 3749SOL    HW212147   6.991   6.416   2.666
 3750SOL     OW12148   5.817   4.260   0.769
 3750SOL    HW112149   5.758   4.221   0.698
 3750SOL    HW212150   5.898   4.202   0.780
 3751SOL     OW12151   1.802   3.495   2.228
 3751SOL    HW112152   1.743   3.429   2.181
 3751SOL    HW212153   1.893   3.493   2.186
 3752SOL     OW12154   0.663   6.583   6.602
 3752SOL    HW112155   0.630   6.496   6.640
 3752SOL    HW212156   0.663   6.652   6.674
 3753SOL     OW12157   6.664   6.790   4.891
 3753SOL    HW112158   6.608   6.726   4.839
 3753SOL    HW212159   6.728   6.739   4.949
 3754SOL     OW12160   6.407   6.666   0.908
 3754SOL    HW112161   6.317   6.641   0.943
 3754SOL    HW212162   6.438   6.596   0.843
 3755SOL     OW12163   5.386   3.650   3.153
 3755SOL    HW112164   5.475   3.695   3.151
 3755SOL    HW212165   5.370   3.606   3.064
 3756SOL     OW12166   3.176   0.306   0.087
 3756SOL    HW112167   3.256   0.363   0.109
 3756SOL    HW212168   3.095   0.346   0.130
 3757SOL     OW12169   3.073   5.530   6.333
 3757SOL    HW112170   3.165   5.552   6.300
 3757SOL    HW212171   3.039   5.605   6.389
 3758SOL     OW12172   1.770   1.486   4.318
 3758SOL    HW112173   1.826   1.436   4.384
 3758SOL    HW212174   1.746   1.576   4.355
 3759SOL     OW12175   4.537   4.747   6.375
 3759SOL    HW112176   4.455   4.714   6.423
 3759SOL    HW212177   4.618   4.723   6.429
 3760SOL     OW12178   1.495   2.627   4.975
 3760SOL    HW112179   1.522   2.682   4.897
 3760SOL    HW212180   1.399   2.600   4.965
 3761SOL     OW12181   0.042   6.523   4.366
 3761SOL    HW112182   7.014   6.441   4.344
 3761SOL    HW212183   0.086   6.511   4.454
 3762SOL     OW12184   0.292   3.931   0.183
 3762SOL    HW112185   0.355   3.853   0.178
 3762SOL    HW212186   0.205   3.907   0.142
 3763SOL     OW12187   6.566   3.331   6.579
 3763SOL    HW112188   6.591   3.418   6.620
 3763SOL    HW212189   6.590   3.256   6.641
 3764SOL     OW12190   2.493   0.011   3.722
 3764SOL    HW112191   2.539   0.041   3.639
 3764SOL    HW212192   2.561   7.021   3.793
 3765SOL     OW12193   5.816   0.759   4.529
 3765SOL    HW112194   5.775   0.778   4.440
 3765SOL    HW212195   5.799   0.836   4.590
 3766SOL     OW12196   1.341   0.431   5.217
 3766SOL    HW112197   1.300   0.364   5.156
 3766SOL    HW212198   1.275   0.456   5.288
 3767SOL     OW12199   1.245   5.072   1.301
 3767SOL    HW112200   1.248   5.172   1.308
 3767SOL    HW212201   1.204   5.034   1.384
 3768SOL     OW12202   4.526   6.529   0.585
 3768SOL    HW112203   4.437   6.485   0.582
 3768SOL    HW212204   4.521   6.612   0.641
 3769SOL     OW12205   4.362   6.467   4.865
 3769SOL    HW112206   4.408   6.378   4.860
 3769SOL    HW212207   4.269   6.455   4.900
 3770SOL     OW12208   1.794   2.243   6.849
 3770SOL    HW112209   1.883   2.268   6.811
 3770SOL    HW212210   1.730   2.222   6.775
 3771SOL     OW12211   5.450   2.006   5.738
 3771SOL    HW112212   5.480   2.049   5.823
 3771SOL    HW212213   5.405   1.919   5.759
 3772SOL     OW12214   4.788   1.252   2.638
 3772SOL    HW112215   4.748   1.178   2.584
 3772SOL    HW212216   4.766   1.340   2.594
 3773SOL     OW12217   6.872   2.710   6.771
 3773SOL    HW112218   6.959   2.740   6.733
 3773SOL    HW212219   6.872   2.610   6.779
 3774SOL     OW12220   0.200   1.111   1.954
 3774SOL    HW112221   0.227   1.207   1.944
 3774SOL    HW212222   0.123   1.092   1.893
 3775SOL     OW12223   5.568   3.819   3.605
 3775SOL    HW112224   5.526   3.768   3.680
 3775SOL    HW212225   5.532   3.913   3.605
 3776SOL     OW12226   2.487   3.340   0.597
 3776SOL    HW112227   2.486   3.301   0.689
 3776SOL    HW212228   2.432   3.423   0.596
 3777SOL     OW12229   2.254   4.180   3.703
 3777SOL    HW112230   2.304   4.264   3.727
 3777SOL    HW212231   2.281   4.106   3.764
 3778SOL     OW12232   2.409   5.881   2.108
 3778SOL    HW112233   2.354   5.959   2.138
 3778SOL    HW212234   2.496   5.881   2.157
 3779SOL     OW12235   2.869   5.305   6.370
 3779SOL    HW112236   2.846   5.310   6.467
 3779SOL    HW212237   2.947   5.364   6.350
 3780SOL     OW12238   3.014   6.663   4.755
 3780SOL    HW112239   3.100   6.665   4.806
 3780SOL    HW212240   2.976   6.755   4.750
 3781SOL     OW12241   2.969   5.551   5.014
 3781SOL    HW112242   2.961   5.539   5.113
 3781SOL    HW212243   2.889   5.599   4.979
 3782SOL     OW12244   2.133   1.803   3.648
 3782SOL    HW112245   2.051   1.748   3.668
 3782SOL    HW212246   2.179   1.826   3.734
 3783SOL     OW12247   5.287   6.186   5.252
 3783SOL    HW112248   5.360   6.219   5.312
 3783SOL    HW212249   5.324   6.168   5.161
 3784SOL     OW12250   5.545   1.802   3.316
 3784SOL    HW112251   5.520   1.837   3.406
 3784SOL    HW212252   5.624   1.741   3.324
 3785SOL     OW12253   1.897   1.589   1.365
 3785SOL    HW112254   1.858   1.574   1.457
 3785SOL    HW212255   1.892   1.686   1.343
 3786SOL     OW12256   3.166   5.549   3.307
 3786SOL    HW112257   3.263   5.567   3.325
 3786SOL    HW212258   3.155   5.455   3.274
 3787SOL     OW12259   3.831   1.299   4.056
 3787SOL    HW112260   3.752   1.286   4.116
 3787SOL    HW212261   3.817   1.381   4.001
 3788SOL     OW12262   5.438   2.876   2.169
 3788SOL    HW112263   5.501   2.929   2.112
 3788SOL    HW212264   5.489   2.804   2.216
 3789SOL     OW12265   1.427   4.919   3.181
 3789SOL    HW112266   1.372   4.847   3.226
 3789SOL    HW212267   1.501   4.947   3.243
 3790SOL     OW12268   2.130   3.085   3.656
 3790SOL    HW112269   2.165   3.178   3.643
 3790SOL    HW212270   2.088   3.054   3.571
 3791SOL     OW12271   4.520   0.156   1.921
 3791SOL    HW112272   4.610   0.113   1.927
 3791SOL    HW212273   4.494   0.165   1.825
 3792SOL     OW12274   0.038   6.566   5.303
 3792SOL    HW112275   0.073   6.542   5.394
 3792SOL    HW212276   6.965   6.561   5.303
 3793SOL     OW12277   1.958   0.544   2.516
 3793SOL    HW112278   2.006   0.474   2.463
 3793SOL    HW212279   1.867   0.511   2.541
 3794SOL     OW12280   4.505   6.229   1.568
 3794SOL    HW112281   4.571   6.158   1.541
 3794SOL    HW212282   4.449   6.195   1.643
 3795SOL     OW12283   5.276   6.913   6.729
 3795SOL    HW112284   5.185   6.920   6.769
 3795SOL    HW212285   5.325   6.999   6.742
 3796SOL     OW12286   1.574   3.151   2.271
 3796SOL    HW112287   1.570   3.116   2.365
 3796SOL    HW212288   1.561   3.250   2.272
 3797SOL     OW12289   0.531   4.752   2.670
 3797SOL    HW112290   0.535   4.799   2.582
 3797SOL    HW212291   0.469   4.674   2.664
 3798SOL     OW12292   1.521   4.905   2.179
 3798SOL    HW112293   1.611   4.897   2.136
 3798SOL    HW212294   1.450   4.877   2.114
 3799SOL     OW12295   2.219   0.229   5.651
 3799SOL    HW112296   2.232   0.151   5.591
 3799SOL    HW212297   2.275   0.306   5.619
 3800SOL     OW12298   4.853   2.720   4.695
 3800SOL    HW112299   4.769   2.692   4.649
 3800SOL    HW212300   4.831   2.748   4.789
 3801SOL     OW12301   0.289   6.662   5.696
 3801SOL    HW112302   0.276   6.750   5.742
 3801SOL    HW212303   0.379   6.626   5.719
 3802SOL     OW12304   1.525   1.987   5.338
 3802SOL    HW112305   1.506   2.074   5.383
 3802SOL    HW212306   1.592   1.935   5.392
 3803SOL     OW12307   3.614   0.933   1.324
 3803SOL    HW112308   3.603   0.951   1.421
 3803SOL    HW212309   3.546   0.986   1.273
 3804SOL     OW12310   4.653   2.203   4.269
 3804SOL    HW112311   4.680   2.153   4.351
 3804SOL    HW212312   4.599   2.284   4.295
 3805SOL     OW12313   2.493   4.596   1.368
 3805SOL    HW112314   2.580   4.564   1.406
 3805SOL    HW212315   2.419   4.539   1.405
 3806SOL     OW12316   2.685   1.734   0.147
 3806SOL    HW112317   2.616   1.667   0.173
 3806SOL    HW212318   2.763   1.688   0.107
 3807SOL     OW12319   1.637   6.614   3.477
 3807SOL    HW112320   1.608   6.637   3.570
 3807SOL    HW212321   1.656   6.516   3.471
 3808SOL     OW12322   3.078   0.290   1.427
 3808SOL    HW112323   3.051   0.241   1.344
 3808SOL    HW212324   2.997   0.304   1.485
 3809SOL     OW12325   4.322   1.051   6.612
 3809SOL    HW112326   4.236   1.012   6.581
 3809SOL    HW212327   4.366   1.100   6.537
 3810SOL     OW12328   2.831   3.111   5.462
 3810SOL    HW112329   2.912   3.168   5.475
 3810SOL    HW212330   2.760   3.164   5.414
 3811SOL     OW12331   0.984   5.601   5.156
 3811SOL    HW112332   0.933   5.670   5.207
 3811SOL    HW212333   1.081   5.621   5.160
 3812SOL     OW12334   5.647   1.519   4.915
 3812SOL    HW112335   5.571   1.563   4.963
 3812SOL    HW212336   5.722   1.503   4.980
 3813SOL     OW12337   3.403   5.155   1.326
 3813SOL    HW112338   3.331   5.222   1.308
 3813SOL    HW212339   3.369   5.086   1.391
 3814SOL     OW12340   0.479   6.454   2.333
 3814SOL    HW112341   0.450   6.508   2.254
 3814SOL    HW212342   0.500   6.515   2.409
 3815SOL     OW12343   4.930   2.203   1.332
 3815SOL    HW112344   4.989   2.127   1.357
 3815SOL    HW212345   4.855   2.211   1.398
 3816SOL     OW12346   1.524   6.638   1.055
 3816SOL    HW112347   1.441   6.684   1.025
 3816SOL    HW212348   1.604   6.686   1.018
 3817SOL     OW12349   5.608   2.207   5.495
 3817SOL    HW112350   5.585   2.202   5.398
 3817SOL    HW212351   5.556   2.282   5.537
 3818SOL     OW12352   4.783   5.304   1.917
 3818SOL    HW112353   4.826   5.335   1.832
 3818SOL    HW212354   4.838   5.230   1.957
 3819SOL     OW12355   5.372   4.355   0.102
 3819SOL    HW112356   5.293   4.315   0.055
 3819SOL    HW212357   5.341   4.413   0.177
 3820SOL     OW12358   5.233   6.393   4.163
 3820SOL    HW112359   5.254   6.491   4.160
 3820SOL    HW212360   5.273   6.352   4.245
 3821SOL     OW12361   1.187   3.882   2.318
 3821SOL    HW112362   1.237   3.808   2.362
 3821SOL    HW212363   1.232   3.908   2.233
 3822SOL     OW12364   2.412   5.248   1.806
 3822SOL    HW112365   2.414   5.152   1.778
 3822SOL    HW212366   2.492   5.267   1.864
 3823SOL     OW12367   3.619   2.672   5.317
 3823SOL    HW112368   3.642   2.719   5.232
 3823SOL    HW212369   3.522   2.646   5.316
 3824SOL     OW12370   0.164   2.388   6.427
 3824SOL    HW112371   0.072   2.399   6.466
 3824SOL    HW212372   0.232   2.416   6.494
 3825SOL     OW12373   6.690   6.680   6.327
 3825SOL    HW112374   6.763   6.688   6.259
 3825SOL    HW212375   6.710   6.603   6.388
 3826SOL     OW12376   0.015   2.572   1.758
 3826SOL    HW112377   6.953   2.607   1.789
 3826SOL    HW212378   0.008   2.538   1.664
 3827SOL     OW12379   4.213   3.178   0.701
 3827SOL    HW112380   4.211   3.183   0.801
 3827SOL    HW212381   4.200   3.270   0.663
 3828SOL     OW12382   4.212   0.677   2.826
 3828SOL    HW112383   4.167   0.708   2.742
 3828SOL    HW212384   4.189   0.739   2.901
 3829SOL     OW12385   1.982   5.392   3.723
 3829SOL    HW112386   1.951   5.319   3.783
 3829SOL    HW212387   2.074   5.421   3.751
 3830SOL     OW12388   3.042   0.733   4.824
 3830SOL    HW112389   3.063   0.640   4.795
 3830SOL    HW212390   2.945   0.740   4.845
 3831SOL     OW12391   4.074   1.529   2.321
 3831SOL    HW112392   4.020   1.611   2.302
 3831SOL    HW212393   4.169   1.554   2.338
 3832SOL     OW12394   6.596   0.803   2.516
 3832SOL    HW112395   6.632   0.814   2.424
 3832SOL    HW212396   6.559   0.711   2.527
 3833SOL     OW12397   1.490   4.683   0.114
 3833SOL    HW112398   1.496   4.763   0.054
 3833SOL    HW212399   1.484   4.713   0.209
 3834SOL     OW12400   2.454   1.995   6.787
 3834SOL    HW112401   2.515   1.964   6.860
 3834SOL    HW212402   2.473   1.943   6.704
 3835SOL     OW12403   3.528   5.655   5.488
 3835SOL    HW112404   3.517   5.690   5.581
 3835SOL    HW212405   3.505   5.558   5.486
 3836SOL     OW12406   0.866   3.454   5.948
 3836SOL    HW112407   0.916   3.493   5.872
 3836SOL    HW212408   0.895   3.498   6.033
 3837SOL     OW12409   3.564   3.095   0.497
 3837SOL    HW112410   3.511   3.128   0.575
 3837SOL    HW212411   3.614   3.171   0.456
 3838SOL     OW12412   6.296   3.454   5.639
 3838SOL    HW112413   6.234   3.377   5.628
 3838SOL    HW212414   6.247   3.539   5.620
 3839SOL     OW12415   6.030   6.438   6.155
 3839SOL    HW112416   6.024   6.340   6.175
 3839SOL    HW212417   5.946   6.468   6.111
 3840SOL     OW12418   1.534   1.067   4.114
 3840SOL    HW112419   1.526   1.124   4.196
 3840SOL    HW212420   1.444   1.057   4.071
 3841SOL     OW12421   0.399   3.877   5.034
 3841SOL    HW112422   0.397   3.965   5.081
 3841SOL    HW212423   0.360   3.887   4.943
 3842SOL     OW12424   1.145   5.586   6.810
 3842SOL    HW112425   1.058   5.554   6.850
 3842SOL    HW212426   1.127   5.665   6.752
 3843SOL     OW12427   5.926   3.434   0.930
 3843SOL    HW112428   5.832   3.402   0.918
 3843SOL    HW212429   5.975   3.371   0.990
 3844SOL     OW12430   2.056   4.699   6.169
 3844SOL    HW112431   2.072   4.614   6.118
 3844SOL    HW212432   1.965   4.697   6.210
 3845SOL     OW12433   3.594   3.999   3.950
 3845SOL    HW112434   3.540   3.916   3.941
 3845SOL    HW212435   3.601   4.045   3.861
 3846SOL     OW12436   7.006   4.730   3.746
 3846SOL    HW112437   0.032   4.655   3.707
 3846SOL    HW212438   7.016   4.811   3.689
 3847SOL     OW12439   0.704   0.079   0.411
 3847SOL    HW112440   0.658   0.141   0.349
 3847SOL    HW212441   0.636   0.027   0.464
 3848SOL     OW12442   3.146   5.142   0.468
 3848SOL    HW112443   3.131   5.232   0.429
 3848SOL    HW212444   3.200   5.150   0.552
 3849SOL     OW12445   1.739   1.939   6.001
 3849SOL    HW112446   1.678   2.007   5.959
 3849SOL    HW212447   1.819   1.986   6.038
 3850SOL     OW12448   2.629   3.821   1.689
 3850SOL    HW112449   2.598   3.767   1.768
 3850SOL    HW212450   2.660   3.911   1.720
 3851SOL     OW12451   2.667   2.651   1.500
 3851SOL    HW112452   2.725   2.668   1.420
 3851SOL    HW212453   2.656   2.735   1.552
 3852SOL     OW12454   3.861   0.973   4.949
 3852SOL    HW112455   3.947   0.950   4.904
 3852SOL    HW212456   3.785   0.956   4.886
 3853SOL     OW12457   1.451   3.094   1.872
 3853SOL    HW112458   1.521   3.059   1.934
 3853SOL    HW212459   1.469   3.061   1.780
 3854SOL     OW12460   1.460   3.162   4.088
 3854SOL    HW112461   1.520   3.112   4.026
 3854SOL    HW212462   1.366   3.130   4.077
 3855SOL     OW12463   0.254   2.343   5.363
 3855SOL    HW112464   0.208   2.418   5.409
 3855SOL    HW212465   0.232   2.257   5.408
 3856SOL     OW12466   0.818   6.396   5.556
 3856SOL    HW112467   0.902   6.420   5.507
 3856SOL    HW212468   0.818   6.439   5.646
 3857SOL     OW12469   0.897   6.710   5.886
 3857SOL    HW112470   0.850   6.625   5.860
 3857SOL    HW212471   0.830   6.779   5.912
 3858SOL     OW12472   2.056   5.491   0.648
 3858SOL    HW112473   2.143   5.533   0.623
 3858SOL    HW212474   1.985   5.561   0.648
 3859SOL     OW12475   0.182   2.342   2.142
 3859SOL    HW112476   0.213   2.380   2.055
 3859SOL    HW212477   0.258   2.339   2.206
 3860SOL     OW12478   2.574   6.224   5.345
 3860SOL    HW112479   2.663   6.180   5.335
 3860SOL    HW212480   2.505   6.172   5.295
 3861SOL     OW12481   4.533   4.639   0.838
 3861SOL    HW112482   4.520   4.694   0.756
 3861SOL    HW212483   4.629   4.611   0.845
 3862SOL     OW12484   1.259   5.260   6.044
 3862SOL    HW112485   1.328   5.312   6.094
 3862SOL    HW212486   1.302   5.180   6.002
 3863SOL     OW12487   3.239   2.516   0.824
 3863SOL    HW112488   3.244   2.580   0.901
 3863SOL    HW212489   3.262   2.424   0.856
 3864SOL     OW12490   4.016   1.605   6.842
 3864SOL    HW112491   4.085   1.564   6.902
 3864SOL    HW212492   3.951   1.535   6.814
 3865SOL     OW12493   4.560   0.363   2.747
 3865SOL    HW112494   4.555   0.453   2.791
 3865SOL    HW212495   4.477   0.312   2.764
 3866SOL     OW12496   4.098   6.484   6.494
 3866SOL    HW112497   4.174   6.537   6.457
 3866SOL    HW212498   4.052   6.536   6.565
 3867SOL     OW12499   1.824   3.146   3.713
 3867SOL    HW112500   1.924   3.139   3.719
 3867SOL    HW212501   1.800   3.229   3.663
 3868SOL     OW12502   1.533   5.304   2.986
 3868SOL    HW112503   1.467   5.264   2.921
 3868SOL    HW212504   1.598   5.233   3.014
 3869SOL     OW12505   1.454   2.427   3.326
 3869SOL    HW112506   1.360   2.409   3.353
 3869SOL    HW212507   1.457   2.455   3.230
 3870SOL     OW12508   3.368   4.661   0.405
 3870SOL    HW112509   3.334   4.707   0.323
 3870SOL    HW212510   3.350   4.719   0.485
 3871SOL     OW12511   2.511   1.656   4.644
 3871SOL    HW112512   2.548   1.745   4.666
 3871SOL    HW212513   2.413   1.653   4.667
 3872SOL     OW12514   4.447   3.814   0.613
 3872SOL    HW112515   4.480   3.877   0.683
 3872SOL    HW212516   4.390   3.744   0.657
 3873SOL     OW12517   4.966   4.414   1.965
 3873SOL    HW112518   4.930   4.329   1.927
 3873SOL    HW212519   5.049   4.441   1.915
 3874SOL     OW12520   4.642   6.309   6.081
 3874SOL    HW112521   4.695   6.326   5.998
 3874SOL    HW212522   4.699   6.257   6.146
 3875SOL     OW12523   1.843   4.079   0.646
 3875SOL    HW112524   1.853   4.178   0.639
 3875SOL    HW212525   1.794   4.045   0.566
 3876SOL     OW12526   5.086   4.072   2.516
 3876SOL    HW112527   5.164   4.040   2.570
 3876SOL    HW212528   5.110   4.157   2.470
 3877SOL     OW12529   5.338   0.911   2.616
 3877SOL    HW112530   5.408   0.900   2.546
 3877SOL    HW212531   5.249   0.923   2.572
 3878SOL     OW12532   4.104   5.841   4.717
 3878SOL    HW112533   4.133   5.937   4.710
 3878SOL    HW212534   4.100   5.815   4.813
 3879SOL     OW12535   2.902   5.763   1.193
 3879SOL    HW112536   2.901   5.802   1.285
 3879SOL    HW212537   2.929   5.833   1.127
 3880SOL     OW12538   5.532   2.325   3.905
 3880SOL    HW112539   5.615   2.336   3.960
 3880SOL    HW212540   5.553   2.343   3.809
 3881SOL     OW12541   0.552   5.508   1.153
 3881SOL    HW112542   0.469   5.483   1.102
 3881SOL    HW212543   0.577   5.434   1.215
 3882SOL     OW12544   0.167   6.935   6.580
 3882SOL    HW112545   0.167   6.973   6.672
 3882SOL    HW212546   0.218   6.849   6.579
 3883SOL     OW12547   3.211   1.174   6.093
 3883SOL    HW112548   3.189   1.271   6.091
 3883SOL    HW212549   3.291   1.159   6.151
 3884SOL     OW12550   1.182   4.831   5.538
 3884SOL    HW112551   1.248   4.875   5.476
 3884SOL    HW212552   1.139   4.901   5.596
 3885SOL     OW12553   0.300   2.167   5.042
 3885SOL    HW112554   0.229   2.128   5.100
 3885SOL    HW212555   0.282   2.264   5.026
 3886SOL     OW12556   6.901   5.472   4.892
 3886SOL    HW112557   7.001   5.484   4.897
 3886SOL    HW212558   6.864   5.468   4.985
 3887SOL     OW12559   5.215   3.379   5.527
 3887SOL    HW112560   5.195   3.449   5.459
 3887SOL    HW212561   5.247   3.423   5.611
 3888SOL     OW12562   5.234   1.892   1.732
 3888SOL    HW112563   5.290   1.969   1.701
 3888SOL    HW212564   5.138   1.909   1.710
 3889SOL     OW12565   0.127   5.472   0.149
 3889SOL    HW112566   0.136   5.379   0.114
 3889SOL    HW212567   0.089   5.532   0.078
 3890SOL     OW12568   6.591   3.254   1.991
 3890SOL    HW112569   6.597   3.278   2.088
 3890SOL    HW212570   6.606   3.156   1.980
 3891SOL     OW12571   5.756   5.349   6.192
 3891SOL    HW112572   5.671   5.300   6.172
 3891SOL    HW212573   5.775   5.414   6.118
 3892SOL     OW12574   5.551   6.141   4.221
 3892SOL    HW112575   5.556   6.232   4.179
 3892SOL    HW212576   5.609   6.077   4.170
 3893SOL     OW12577   2.907   6.192   4.101
 3893SOL    HW112578   2.821   6.169   4.055
 3893SOL    HW212579   2.954   6.108   4.129
 3894SOL     OW12580   5.141   5.276   6.347
 3894SOL    HW112581   5.062   5.255   6.290
 3894SOL    HW212582   5.174   5.368   6.325
 3895SOL     OW12583   1.771   1.436   5.824
 3895SOL    HW112584   1.807   1.405   5.911
 3895SOL    HW212585   1.733   1.528   5.834
 3896SOL     OW12586   6.839   2.326   6.192
 3896SOL    HW112587   6.758   2.315   6.249
 3896SOL    HW212588   6.843   2.420   6.157
 3897SOL     OW12589   3.482   6.620   2.638
 3897SOL    HW112590   3.465   6.718   2.631
 3897SOL    HW212591   3.396   6.573   2.659
 3898SOL     OW12592   3.378   3.392   4.794
 3898SOL    HW112593   3.284   3.396   4.759
 3898SOL    HW212594   3.391   3.308   4.846
 3899SOL     OW12595   5.033   1.665   4.735
 3899SOL    HW112596   5.073   1.755   4.751
 3899SOL    HW212597   5.042   1.640   4.639
 3900SOL     OW12598   6.558   2.545   4.298
 3900SOL    HW112599   6.517   2.457   4.323
 3900SOL    HW212600   6.647   2.554   4.343
 3901SOL     OW12601   2.611   5.317   4.756
 3901SOL    HW112602   2.515   5.294   4.739
 3901SOL    HW212603   2.665   5.233   4.762
 3902SOL     OW12604   3.897   4.861   2.192
 3902SOL    HW112605   3.804   4.859   2.228
 3902SOL    HW212606   3.894   4.873   2.093
 3903SOL     OW12607   4.710   2.570   6.000
 3903SOL    HW112608   4.715   2.482   6.049
 3903SOL    HW212609   4.646   2.631   6.047
 3904SOL     OW12610   2.446   6.087   1.127
 3904SOL    HW112611   2.349   6.103   1.110
 3904SOL    HW212612   2.459   6.057   1.222
 3905SOL     OW12613   0.125   0.382   6.088
 3905SOL    HW112614   0.047   0.342   6.040
 3905SOL    HW212615   0.205   0.383   6.028
 3906SOL     OW12616   0.612   6.021   4.704
 3906SOL    HW112617   0.567   6.092   4.758
 3906SOL    HW212618   0.660   5.958   4.766
 3907SOL     OW12619   0.917   1.543   5.365
 3907SOL    HW112620   0.942   1.492   5.282
 3907SOL    HW212621   0.906   1.639   5.342
 3908SOL     OW12622   2.205   0.950   4.319
 3908SOL    HW112623   2.131   0.917   4.260
 3908SOL    HW212624   2.290   0.957   4.266
 3909SOL     OW12625   4.968   2.939   1.366
 3909SOL    HW112626   5.015   2.993   1.296
 3909SOL    HW212627   4.986   2.842   1.351
 3910SOL     OW12628   3.436   2.014   1.075
 3910SOL    HW112629   3.363   2.011   1.143
 3910SOL    HW212630   3.401   2.053   0.990
 3911SOL     OW12631   6.887   0.557   1.197
 3911SOL    HW112632   6.982   0.571   1.169
 3911SOL    HW212633   6.868   0.611   1.279
 3912SOL     OW12634   3.911   3.501   6.824
 3912SOL    HW112635   3.905   3.416   6.876
 3912SOL    HW212636   3.987   3.556   6.859
 3913SOL     OW12637   4.022   5.594   1.635
 3913SOL    HW112638   4.055   5.650   1.711
 3913SOL    HW212639   3.974   5.652   1.569
 3914SOL     OW12640   6.680   1.667   7.012
 3914SOL    HW112641   6.754   1.733   7.006
 3914SOL    HW212642   6.700   1.600   0.057
 3915SOL     OW12643   5.630   6.970   5.399
 3915SOL    HW112644   5.639   6.871   5.407
 3915SOL    HW212645   5.601   6.993   5.306
 3916SOL     OW12646   1.829   2.385   2.662
 3916SOL    HW112647   1.857   2.294   2.693
 3916SOL    HW212648   1.772   2.377   2.580
 3917SOL     OW12649   3.514   4.812   1.448
 3917SOL    HW112650   3.504   4.739   1.516
 3917SOL    HW212651   3.437   4.875   1.456
 3918SOL     OW12652   5.237   0.523   6.939
 3918SOL    HW112653   5.186   0.586   6.879
 3918SOL    HW212654   5.200   0.529   0.005
 3919SOL     OW12655   4.392   6.288   2.513
 3919SOL    HW112656   4.385   6.291   2.413
 3919SOL    HW212657   4.483   6.317   2.541
 3920SOL     OW12658   3.352   1.667   5.557
 3920SOL    HW112659   3.310   1.623   5.478
 3920SOL    HW212660   3.281   1.706   5.616
 3921SOL     OW12661   1.342   2.799   6.146
 3921SOL    HW112662   1.374   2.706   6.127
 3921SOL    HW212663   1.420   2.859   6.160
 3922SOL     OW12664   5.034   4.488   3.064
 3922SOL    HW112665   4.947   4.483   3.114
 3922SOL    HW212666   5.068   4.582   3.067
 3923SOL     OW12667   5.126   1.484   1.682
 3923SOL    HW112668   5.036   1.479   1.725
 3923SOL    HW212669   5.121   1.535   1.597
 3924SOL     OW12670   5.175   5.153   4.244
 3924SOL    HW112671   5.083   5.192   4.236
 3924SOL    HW212672   5.237   5.204   4.183
 3925SOL     OW12673   5.176   4.895   1.038
 3925SOL    HW112674   5.094   4.839   1.026
 3925SOL    HW212675   5.227   4.897   0.952
 3926SOL     OW12676   0.888   5.378   4.813
 3926SOL    HW112677   0.878   5.343   4.906
 3926SOL    HW212678   0.840   5.319   4.749
 3927SOL     OW12679   5.929   1.446   5.591
 3927SOL    HW112680   5.961   1.532   5.630
 3927SOL    HW212681   5.948   1.445   5.493
 3928SOL     OW12682   3.516   5.740   2.343
 3928SOL    HW112683   3.585   5.674   2.313
 3928SOL    HW212684   3.532   5.827   2.297
 3929SOL     OW12685   1.267   1.491   5.959
 3929SOL    HW112686   1.323   1.551   5.902
 3929SOL    HW212687   1.322   1.455   6.034
 3930SOL     OW12688   2.048   4.459   3.764
 3930SOL    HW112689   2.035   4.513   3.847
 3930SOL    HW212690   1.990   4.377   3.769
 3931SOL     OW12691   1.250   2.584   0.413
 3931SOL    HW112692   1.279   2.638   0.492
 3931SOL    HW212693   1.196   2.640   0.351
 3932SOL     OW12694   2.452   4.397   3.063
 3932SOL    HW112695   2.432   4.325   2.997
 3932SOL    HW212696   2.507   4.468   3.018
 3933SOL     OW12697   1.814   6.630   1.201
 3933SOL    HW112698   1.799   6.729   1.208
 3933SOL    HW212699   1.727   6.584   1.185
 3934SOL     OW12700   1.739   6.898   1.209
 3934SOL    HW112701   1.721   6.891   1.111
 3934SOL    HW212702   1.770   6.990   1.231
 3935SOL     OW12703   0.029   3.902   5.333
 3935SOL    HW112704   0.122   3.866   5.342
 3935SOL    HW212705   0.009   3.919   5.236
 3936SOL     OW12706   7.007   4.007   5.074
 3936SOL    HW112707   0.036   4.086   5.048
 3936SOL    HW212708   7.004   3.941   4.999
 3937SOL     OW12709   0.608   6.219   0.923
 3937SOL    HW112710   0.659   6.167   0.855
 3937SOL    HW212711   0.538   6.161   0.964
 3938SOL     OW12712   0.805   3.406   0.749
 3938SOL    HW112713   0.860   3.352   0.813
 3938SOL    HW212714   0.860   3.480   0.712
 3939SOL     OW12715   1.108   6.909   2.919
 3939SOL    HW112716   1.128   6.819   2.957
 3939SOL    HW212717   1.174   6.975   2.956
 3940SOL     OW12718   3.145   6.092   0.060
 3940SOL    HW112719   3.120   6.032   0.135
 3940SOL    HW212720   3.238   6.125   0.073
 3941SOL     OW12721   5.166   6.081   2.070
 3941SOL    HW112722   5.135   6.016   2.000
 3941SOL    HW212723   5.111   6.069   2.153
 3942SOL     OW12724   0.167   6.161   5.917
 3942SOL    HW112725   0.085   6.125   5.962
 3942SOL    HW212726   0.229   6.199   5.986
 3943SOL     OW12727   2.082   3.249   0.187
 3943SOL    HW112728   2.121   3.186   0.120
 3943SOL    HW212729   2.116   3.224   0.278
 3944SOL     OW12730   4.535   2.933   6.515
 3944SOL    HW112731   4.558   2.839   6.490
 3944SOL    HW212732   4.555   2.948   6.612
 3945SOL     OW12733   5.648   0.619   3.775
 3945SOL    HW112734   5.575   0.555   3.797
 3945SOL    HW212735   5.675   0.668   3.858
 3946SOL     OW12736   7.008   4.217   0.541
 3946SOL    HW112737   7.012   4.284   0.615
 3946SOL    HW212738   0.069   4.215   0.493
 3947SOL     OW12739   5.725   6.081   1.852
 3947SOL    HW112740   5.807   6.110   1.902
 3947SOL    HW212741   5.730   6.113   1.757
 3948SOL     OW12742   1.717   2.640   5.149
 3948SOL    HW112743   1.631   2.639   5.098
 3948SOL    HW212744   1.697   2.655   5.246
 3949SOL     OW12745   6.072   0.560   1.967
 3949SOL    HW112746   6.026   0.638   2.009
 3949SOL    HW212747   6.048   0.556   1.870
 3950SOL     OW12748   3.019   4.446   1.655
 3950SOL    HW112749   3.045   4.517   1.590
 3950SOL    HW212750   2.979   4.488   1.736
 3951SOL     OW12751   0.528   2.643   4.651
 3951SOL    HW112752   0.586   2.584   4.595
 3951SOL    HW212753   0.578   2.671   4.733
 3952SOL     OW12754   5.867   3.838   0.327
 3952SOL    HW112755   5.830   3.812   0.238
 3952SOL    HW212756   5.936   3.772   0.356
 3953SOL     OW12757   2.982   3.700   6.867
 3953SOL    HW112758   2.889   3.668   6.886
 3953SOL    HW212759   3.048   3.636   6.904
 3954SOL     OW12760   0.639   3.341   5.320
 3954SOL    HW112761   0.708   3.293   5.265
 3954SOL    HW212762   0.608   3.422   5.270
 3955SOL     OW12763   6.448   3.552   0.631
 3955SOL    HW112764   6.489   3.639   0.659
 3955SOL    HW212765   6.361   3.570   0.585
 3956SOL     OW12766   6.786   2.862   5.584
 3956SOL    HW112767   6.883   2.852   5.604
 3956SOL    HW212768   6.756   2.955   5.607
 3957SOL     OW12769   0.692   1.767   2.027
 3957SOL    HW112770   0.624   1.701   1.994
 3957SOL    HW212771   0.654   1.819   2.103
 3958SOL     OW12772   5.610   0.099   0.181
 3958SOL    HW112773   5.682   0.070   0.244
 3958SOL    HW212774   5.630   0.191   0.148
 3959SOL     OW12775   2.264   5.980   1.450
 3959SOL    HW112776   2.360   5.983   1.422
 3959SOL    HW212777   2.233   5.885   1.449
 3960SOL     OW12778   5.360   3.624   1.123
 3960SOL    HW112779   5.271   3.669   1.113
 3960SOL    HW212780   5.353   3.529   1.094
 3961SOL     OW12781   5.989   0.192   1.304
 3961SOL    HW112782   6.059   0.245   1.256
 3961SOL    HW212783   5.908   0.248   1.318
 3962SOL     OW12784   0.460   5.820   5.755
 3962SOL    HW112785   0.437   5.723   5.760
 3962SOL    HW212786   0.376   5.874   5.752
 3963SOL     OW12787   4.725   4.736   2.979
 3963SOL    HW112788   4.778   4.761   2.898
 3963SOL    HW212789   4.714   4.637   2.983
 3964SOL     OW12790   5.861   5.853   6.887
 3964SOL    HW112791   5.858   5.900   6.975
 3964SOL    HW212792   5.915   5.906   6.822
 3965SOL     OW12793   3.341   3.861   0.865
 3965SOL    HW112794   3.397   3.799   0.810
 3965SOL    HW212795   3.246   3.833   0.860
 3966SOL     OW12796   6.441   3.865   5.443
 3966SOL    HW112797   6.371   3.884   5.374
 3966SOL    HW212798   6.528   3.905   5.413
 3967SOL     OW12799   2.105   6.906   6.805
 3967SOL    HW112800   2.037   6.872   6.870
 3967SOL    HW212801   2.096   6.856   6.719
 3968SOL     OW12802   4.595   1.764   0.920
 3968SOL    HW112803   4.598   1.804   1.011
 3968SOL    HW212804   4.683   1.720   0.900
 3969SOL     OW12805   0.751   6.124   1.458
 3969SOL    HW112806   0.847   6.098   1.447
 3969SOL    HW212807   0.694   6.070   1.397
 3970SOL     OW12808   4.815   4.033   4.366
 3970SOL    HW112809   4.841   3.939   4.345
 3970SOL    HW212810   4.806   4.044   4.465
 3971SOL     OW12811   0.520   6.226   3.927
 3971SOL    HW112812   0.435   6.268   3.959
 3971SOL    HW212813   0.564   6.286   3.860
 3972SOL     OW12814   0.874   0.287   6.748
 3972SOL    HW112815   0.873   0.378   6.708
 3972SOL    HW212816   0.905   0.292   6.843
 3973SOL     OW12817   3.118   3.082   3.844
 3973SOL    HW112818   3.030   3.128   3.848
 3973SOL    HW212819   3.155   3.071   3.936
 3974SOL     OW12820   5.751   0.593   6.603
 3974SOL    HW112821   5.787   0.513   6.555
 3974SOL    HW212822   5.651   0.590   6.602
 3975SOL     OW12823   6.978   6.008   5.122
 3975SOL    HW112824   6.918   6.079   5.086
 3975SOL    HW212825   6.937   5.918   5.104
 3976SOL     OW12826   0.866   2.961   6.888
 3976SOL    HW112827   0.933   2.958   6.814
 3976SOL    HW212828   0.819   3.049   6.886
 3977SOL     OW12829   3.404   5.643   4.985
 3977SOL    HW112830   3.465   5.692   4.923
 3977SOL    HW212831   3.324   5.700   5.004
 3978SOL     OW12832   6.248   4.093   6.568
 3978SOL    HW112833   6.183   4.134   6.633
 3978SOL    HW212834   6.198   4.060   6.488
 3979SOL     OW12835   1.198   6.721   3.267
 3979SOL    HW112836   1.222   6.639   3.319
 3979SOL    HW212837   1.107   6.752   3.293
 3980SOL     OW12838   4.919   3.747   4.750
 3980SOL    HW112839   4.922   3.714   4.656
 3980SOL    HW212840   4.881   3.676   4.809
 3981SOL     OW12841   6.724   1.766   5.583
 3981SOL    HW112842   6.662   1.773   5.661
 3981SOL    HW212843   6.755   1.857   5.557
 3982SOL     OW12844   2.335   2.840   4.180
 3982SOL    HW112845   2.399   2.793   4.241
 3982SOL    HW212846   2.328   2.790   4.094
 3983SOL     OW12847   3.085   0.486   3.523
 3983SOL    HW112848   3.151   0.420   3.558
 3983SOL    HW212849   3.106   0.506   3.427
 3984SOL     OW12850   1.728   6.832   1.911
 3984SOL    HW112851   1.779   6.761   1.960
 3984SOL    HW212852   1.644   6.853   1.960
 3985SOL     OW12853   1.766   3.205   1.580
 3985SOL    HW112854   1.697   3.134   1.592
 3985SOL    HW212855   1.757   3.246   1.489
 3986SOL     OW12856   1.882   1.907   1.611
 3986SOL    HW112857   1.807   1.908   1.677
 3986SOL    HW212858   1.938   1.825   1.625
 3987SOL     OW12859   1.223   3.945   5.550
 3987SOL    HW112860   1.176   3.914   5.632
 3987SOL    HW212861   1.316   3.907   5.548
 3988SOL     OW12862   5.107   0.485   0.168
 3988SOL    HW112863   5.051   0.403   0.158
 3988SOL    HW212864   5.149   0.486   0.259
 3989SOL     OW12865   4.185   0.528   6.086
 3989SOL    HW112866   4.224   0.592   6.152
 3989SOL    HW212867   4.147   0.579   6.009
 3990SOL     OW12868   0.953   2.307   4.105
 3990SOL    HW112869   1.009   2.389   4.108
 3990SOL    HW212870   1.008   2.230   4.072
 3991SOL     OW12871   0.720   1.483   3.696
 3991SOL    HW112872   0.770   1.519   3.774
 3991SOL    HW212873   0.655   1.553   3.664
 3992SOL     OW12874   5.937   3.983   6.617
 3992SOL    HW112875   5.985   3.921   6.555
 3992SOL    HW212876   5.989   3.992   6.702
 3993SOL     OW12877   1.851   0.575   4.238
 3993SOL    HW112878   1.812   0.639   4.171
 3993SOL    HW212879   1.871   0.623   4.323
 3994SOL     OW12880   2.301   1.994   2.597
 3994SOL    HW112881   2.353   1.910   2.614
 3994SOL    HW212882   2.203   1.974   2.596
 3995SOL     OW12883   1.150   3.366   2.730
 3995SOL    HW112884   1.050   3.375   2.722
 3995SOL    HW212885   1.171   3.307   2.808
 3996SOL     OW12886   5.975   6.625   4.456
 3996SOL    HW112887   5.988   6.653   4.360
 3996SOL    HW212888   5.891   6.572   4.463
 3997SOL     OW12889   4.900   3.862   2.767
 3997SOL    HW112890   4.973   3.812   2.721
 3997SOL    HW212891   4.846   3.912   2.699
 3998SOL     OW12892   5.202   2.132   2.959
 3998SOL    HW112893   5.203   2.040   2.997
 3998SOL    HW212894   5.295   2.169   2.960
 3999SOL     OW12895   4.400   3.066   1.137
 3999SOL    HW112896   4.358   2.997   1.196
 3999SOL    HW212897   4.482   3.102   1.183
 4000SOL     OW12898   2.507   4.988   2.413
 4000SOL    HW112899   2.422   5.036   2.436
 4000SOL    HW212900   2.504   4.960   2.317
 4001SOL     OW12901   1.085   5.284   3.963
 4001SOL    HW112902   1.011   5.344   3.933
 4001SOL    HW212903   1.064   5.248   4.054
 4002SOL     OW12904   3.528   4.065   3.661
 4002SOL    HW112905   3.443   4.093   3.616
 4002SOL    HW212906   3.557   3.977   3.624
 4003SOL     OW12907   1.769   0.535   5.131
 4003SOL    HW112908   1.821   0.581   5.202
 4003SOL    HW212909   1.727   0.452   5.168
 4004SOL     OW12910   0.956   3.292   3.839
 4004SOL    HW112911   1.006   3.313   3.755
 4004SOL    HW212912   0.966   3.367   3.904
 4005SOL     OW12913   4.968   2.849   0.364
 4005SOL    HW112914   5.026   2.771   0.340
 4005SOL    HW212915   4.983   2.924   0.300
 4006SOL     OW12916   6.184   5.576   2.468
 4006SOL    HW112917   6.278   5.556   2.438
 4006SOL    HW212918   6.134   5.621   2.394
 4007SOL     OW12919   6.981   0.486   2.492
 4007SOL    HW112920   0.010   0.565   2.517
 4007SOL    HW212921   6.949   0.441   2.575
 4008SOL     OW12922   2.914   1.207   0.785
 4008SOL    HW112923   2.964   1.178   0.704
 4008SOL    HW212924   2.833   1.150   0.798
 4009SOL     OW12925   4.989   2.203   0.732
 4009SOL    HW112926   5.044   2.206   0.649
 4009SOL    HW212927   4.899   2.164   0.711
 4010SOL     OW12928   2.261   5.465   1.723
 4010SOL    HW112929   2.305   5.519   1.652
 4010SOL    HW212930   2.318   5.385   1.744
 4011SOL     OW12931   5.468   6.531   6.140
 4011SOL    HW112932   5.461   6.630   6.149
 4011SOL    HW212933   5.386   6.488   6.178
 4012SOL     OW12934   4.978   6.800   2.678
 4012SOL    HW112935   4.961   6.735   2.604
 4012SOL    HW212936   4.901   6.797   2.743
 4013SOL     OW12937   0.202   1.204   5.936
 4013SOL    HW112938   0.156   1.171   5.854
 4013SOL    HW212939   0.208   1.303   5.934
 4014SOL     OW12940   2.905   5.255   2.688
 4014SOL    HW112941   2.824   5.235   2.632
 4014SOL    HW212942   2.988   5.240   2.635
 4015SOL     OW12943   4.062   5.380   5.862
 4015SOL    HW112944   4.066   5.306   5.929
 4015SOL    HW212945   4.095   5.346   5.774
 4016SOL     OW12946   4.811   5.181   5.117
 4016SOL    HW112947   4.903   5.219   5.116
 4016SOL    HW212948   4.749   5.243   5.070
 4017SOL     OW12949   0.999   4.995   5.698
 4017SOL    HW112950   0.989   4.897   5.680
 4017SOL    HW212951   0.979   5.046   5.614
 4018SOL     OW12952   4.017   5.840   1.025
 4018SOL    HW112953   4.092   5.789   1.067
 4018SOL    HW212954   4.054   5.899   0.953
 4019SOL     OW12955   5.577   4.301   2.761
 4019SOL    HW112956   5.574   4.203   2.780
 4019SOL    HW212957   5.514   4.349   2.823
 4020SOL     OW12958   0.267   5.273   4.510
 4020SOL    HW112959   0.282   5.183   4.551
 4020SOL    HW212960   0.320   5.342   4.559
 4021SOL     OW12961   4.287   3.791   6.099
 4021SOL    HW112962   4.226   3.730   6.151
 4021SOL    HW212963   4.373   3.745   6.081
 4022SOL     OW12964   2.374   0.184   1.744
 4022SOL    HW112965   2.364   0.241   1.662
 4022SOL    HW212966   2.372   0.088   1.718
 4023SOL     OW12967   0.305   1.392   4.679
 4023SOL    HW112968   0.335   1.487   4.665
 4023SOL    HW212969   0.261   1.359   4.596
 4024SOL     OW12970   1.019   6.580   4.556
 4024SOL    HW112971   0.955   6.575   4.480
 4024SOL    HW212972   1.073   6.496   4.560
 4025SOL     OW12973   7.023   5.513   3.337
 4025SOL    HW112974   6.961   5.474   3.405
 4025SOL    HW212975   0.074   5.555   3.384
 4026SOL     OW12976   0.357   0.372   4.071
 4026SOL    HW112977   0.410   0.437   4.126
 4026SOL    HW212978   0.280   0.337   4.126
 4027SOL     OW12979   3.176   4.434   5.727
 4027SOL    HW112980   3.243   4.487   5.781
 4027SOL    HW212981   3.192   4.337   5.741
 4028SOL     OW12982   5.089   1.314   3.495
 4028SOL    HW112983   5.099   1.215   3.503
 4028SOL    HW212984   5.132   1.345   3.410
 4029SOL     OW12985   1.733   6.242   7.019
 4029SOL    HW112986   1.792   6.251   6.939
 4029SOL    HW212987   1.661   6.175   7.001
 4030SOL     OW12988   0.042   1.237   2.712
 4030SOL    HW112989   0.111   1.301   2.676
 4030SOL    HW212990   0.013   1.268   2.802
 4031SOL     OW12991   6.093   6.135   0.256
 4031SOL    HW112992   6.130   6.070   0.323
 4031SOL    HW212993   6.009   6.097   0.217
 4032SOL     OW12994   5.109   0.911   2.461
 4032SOL    HW112995   5.018   0.919   2.503
 4032SOL    HW212996   5.120   0.819   2.424
 4033SOL     OW12997   2.086   2.671   2.540
 4033SOL    HW112998   2.159   2.704   2.481
 4033SOL    HW212999   2.040   2.749   2.582
 4034SOL     OW13000   0.321   3.115   5.913
 4034SOL    HW113001   0.256   3.107   5.989
 4034SOL    HW213002   0.294   3.053   5.840
 4035SOL     OW13003   4.222   1.926   1.700
 4035SOL    HW113004   4.207   1.832   1.732
 4035SOL    HW213005   4.301   1.928   1.639
 4036SOL     OW13006   2.780   5.491   2.780
 4036SOL    HW113007   2.721   5.513   2.703
 4036SOL    HW213008   2.830   5.407   2.761
 4037SOL     OW13009   2.871   1.885   5.891
 4037SOL    HW113010   2.780   1.873   5.931
 4037SOL    HW213011   2.882   1.822   5.815
 4038SOL     OW13012   3.359   4.094   6.021
 4038SOL    HW113013   3.341   4.008   5.974
 4038SOL    HW213014   3.273   4.131   6.056
 4039SOL     OW13015   5.634   5.086   1.415
 4039SOL    HW113016   5.666   4.993   1.432
 4039SOL    HW213017   5.620   5.133   1.502
 4040SOL     OW13018   3.101   6.332   4.777
 4040SOL    HW113019   3.032   6.399   4.748
 4040SOL    HW213020   3.152   6.299   4.697
 4041SOL     OW13021   2.285   6.738   0.716
 4041SOL    HW113022   2.311   6.676   0.643
 4041SOL    HW213023   2.321   6.705   0.803
 4042SOL     OW13024   6.633   1.249   3.002
 4042SOL    HW113025   6.696   1.206   2.937
 4042SOL    HW213026   6.589   1.178   3.058
 4043SOL     OW13027   6.016   3.636   6.709
 4043SOL    HW113028   6.086   3.670   6.771
 4043SOL    HW213029   5.928   3.631   6.756
 4044SOL     OW13030   4.693   5.053   3.337
 4044SOL    HW113031   4.784   5.052   3.297
 4044SOL    HW213032   4.672   5.146   3.370
 4045SOL     OW13033   4.919   0.820   5.583
 4045SOL    HW113034   4.961   0.909   5.603
 4045SOL    HW213035   4.876   0.823   5.493
 4046SOL     OW13036   6.157   1.948   2.581
 4046SOL    HW113037   6.221   1.927   2.507
 4046SOL    HW213038   6.140   1.865   2.634
 4047SOL     OW13039   2.743   3.505   6.737
 4047SOL    HW113040   2.788   3.418   6.758
 4047SOL    HW213041   2.705   3.544   6.820
 4048SOL     OW13042   4.280   2.060   2.427
 4048SOL    HW113043   4.270   2.020   2.336
 4048SOL    HW213044   4.367   2.032   2.467
 4049SOL     OW13045   4.331   4.696   0.081
 4049SOL    HW113046   4.323   4.792   0.106
 4049SOL    HW213047   4.293   4.639   0.154
 4050SOL     OW13048   0.877   5.647   2.178
 4050SOL    HW113049   0.942   5.635   2.103
 4050SOL    HW213050   0.887   5.572   2.243
 4051SOL     OW13051   5.390   1.098   4.971
 4051SOL    HW113052   5.398   1.004   4.939
 4051SOL    HW213053   5.470   1.150   4.943
 4052SOL     OW13054   6.236   2.172   3.154
 4052SOL    HW113055   6.148   2.204   3.118
 4052SOL    HW213056   6.221   2.089   3.208
 4053SOL     OW13057   1.810   5.353   4.238
 4053SOL    HW113058   1.754   5.418   4.186
 4053SOL    HW213059   1.755   5.273   4.260
 4054SOL     OW13060   3.860   4.170   1.112
 4054SOL    HW113061   3.841   4.128   1.201
 4054SOL    HW213062   3.907   4.105   1.053
 4055SOL     OW13063   0.661   4.729   1.185
 4055SOL    HW113064   0.577   4.687   1.219
 4055SOL    HW213065   0.721   4.659   1.147
 4056SOL     OW13066   5.212   3.336   0.583
 4056SOL    HW113067   5.146   3.281   0.531
 4056SOL    HW213068   5.201   3.320   0.680
 4057SOL     OW13069   0.044   3.898   0.100
 4057SOL    HW113070   7.000   3.965   0.076
 4057SOL    HW213071   7.026   3.813   0.130
 4058SOL     OW13072   3.227   0.125   6.268
 4058SOL    HW113073   3.137   0.171   6.271
 4058SOL    HW213074   3.239   0.083   6.178
 4059SOL     OW13075   0.529   2.094   3.901
 4059SOL    HW113076   0.493   2.001   3.905
 4059SOL    HW213077   0.549   2.117   3.806
 4060SOL     OW13078   5.887   5.779   5.400
 4060SOL    HW113079   5.831   5.729   5.334
 4060SOL    HW213080   5.906   5.870   5.365
 4061SOL     OW13081   1.607   5.265   0.638
 4061SOL    HW113082   1.581   5.218   0.723
 4061SOL    HW213083   1.707   5.269   0.633
 4062SOL     OW13084   1.658   2.701   1.197
 4062SOL    HW113085   1.633   2.795   1.177
 4062SOL    HW213086   1.731   2.699   1.266
 4063SOL     OW13087   4.882   0.701   6.966
 4063SOL    HW113088   4.841   0.762   6.898
 4063SOL    HW213089   4.923   0.622   6.920
 4064SOL     OW13090   2.143   1.669   5.509
 4064SOL    HW113091   2.116   1.593   5.570
 4064SOL    HW213092   2.155   1.752   5.563
 4065SOL     OW13093   2.722   6.827   1.129
 4065SOL    HW113094   2.804   6.779   1.101
 4065SOL    HW213095   2.651   6.761   1.154
 4066SOL     OW13096   0.211   4.070   3.764
 4066SOL    HW113097   0.187   3.985   3.716
 4066SOL    HW213098   0.304   4.098   3.739
 4067SOL     OW13099   5.310   4.860   0.598
 4067SOL    HW113100   5.318   4.934   0.665
 4067SOL    HW213101   5.322   4.772   0.645
 4068SOL     OW13102   2.215   2.533   5.095
 4068SOL    HW113103   2.290   2.597   5.112
 4068SOL    HW213104   2.178   2.550   5.004
 4069SOL     OW13105   4.561   6.836   6.533
 4069SOL    HW113106   4.559   6.774   6.611
 4069SOL    HW213107   4.503   6.915   6.551
 4070SOL     OW13108   1.416   2.764   3.569
 4070SOL    HW113109   1.423   2.853   3.525
 4070SOL    HW213110   1.487   2.704   3.534
 4071SOL     OW13111   1.300   0.557   3.849
 4071SOL    HW113112   1.289   0.495   3.927
 4071SOL    HW213113   1.370   0.625   3.870
 4072SOL     OW13114   2.317   6.123   2.872
 4072SOL    HW113115   2.416   6.131   2.882
 4072SOL    HW213116   2.287   6.035   2.909
 4073SOL     OW13117   3.272   4.772   0.161
 4073SOL    HW113118   3.233   4.860   0.185
 4073SOL    HW213119   3.211   4.724   0.098
 4074SOL     OW13120   1.741   5.122   3.079
 4074SOL    HW113121   1.744   5.024   3.101
 4074SOL    HW213122   1.736   5.174   3.164
 4075SOL     OW13123   6.503   1.126   0.929
 4075SOL    HW113124   6.448   1.101   1.009
 4075SOL    HW213125   6.519   1.044   0.874
 4076SOL     OW13126   2.561   4.115   5.359
 4076SOL    HW113127   2.501   4.087   5.284
 4076SOL    HW213128   2.567   4.042   5.426
 4077SOL     OW13129   2.235   1.259   1.727
 4077SOL    HW113130   2.310   1.322   1.742
 4077SOL    HW213131   2.192   1.236   1.814
 4078SOL     OW13132   2.881   4.852   2.720
 4078SOL    HW113133   2.837   4.763   2.736
 4078SOL    HW213134   2.876   4.874   2.622
 4079SOL     OW13135   0.995   2.390   4.653
 4079SOL    HW113136   0.923   2.330   4.687
 4079SOL    HW213137   0.972   2.485   4.674
 4080SOL     OW13138   6.234   1.566   4.731
 4080SOL    HW113139   6.193   1.598   4.816
 4080SOL    HW213140   6.163   1.555   4.662
 4081SOL     OW13141   1.850   3.345   4.192
 4081SOL    HW113142   1.893   3.424   4.147
 4081SOL    HW213143   1.871   3.347   4.290
 4082SOL     OW13144   1.272   3.830   0.993
 4082SOL    HW113145   1.311   3.740   0.971
 4082SOL    HW213146   1.344   3.900   0.984
 4083SOL     OW13147   5.547   2.324   4.643
 4083SOL    HW113148   5.462   2.290   4.603
 4083SOL    HW213149   5.623   2.303   4.581
 4084SOL     OW13150   0.650   1.620   3.928
 4084SOL    HW113151   0.600   1.537   3.902
 4084SOL    HW213152   0.698   1.604   4.014
 4085SOL     OW13153   3.442   6.601   0.092
 4085SOL    HW113154   3.429   6.666   0.167
 4085SOL    HW213155   3.354   6.560   0.069
 4086SOL     OW13156   1.528   4.846   0.856
 4086SOL    HW113157   1.446   4.809   0.812
 4086SOL    HW213158   1.514   4.942   0.879
 4087SOL     OW13159   1.781   1.416   2.974
 4087SOL    HW113160   1.803   1.506   2.937
 4087SOL    HW213161   1.780   1.420   3.074
 4088SOL     OW13162   6.581   1.653   0.936
 4088SOL    HW113163   6.627   1.703   1.009
 4088SOL    HW213164   6.589   1.555   0.953
 4089SOL     OW13165   0.941   0.902   4.599
 4089SOL    HW113166   0.992   0.816   4.603
 4089SOL    HW213167   0.853   0.886   4.555
 4090SOL     OW13168   1.749   4.030   5.508
 4090SOL    HW113169   1.755   4.126   5.536
 4090SOL    HW213170   1.742   4.025   5.408
 4091SOL     OW13171   4.465   5.859   0.153
 4091SOL    HW113172   4.550   5.828   0.111
 4091SOL    HW213173   4.433   5.941   0.105
 4092SOL     OW13174   7.008   2.839   4.902
 4092SOL    HW113175   0.023   2.930   4.896
 4092SOL    HW213176   6.920   2.840   4.856
 4093SOL     OW13177   5.889   1.034   3.907
 4093SOL    HW113178   5.904   0.936   3.919
 4093SOL    HW213179   5.798   1.049   3.868
 4094SOL     OW13180   2.055   4.127   5.075
 4094SOL    HW113181   2.153   4.115   5.058
 4094SOL    HW213182   2.014   4.038   5.094
 4095SOL     OW13183   1.173   3.335   6.242
 4095SOL    HW113184   1.088   3.282   6.242
 4095SOL    HW213185   1.251   3.275   6.224
 4096SOL     OW13186   3.943   4.452   1.117
 4096SOL    HW113187   3.994   4.472   1.033
 4096SOL    HW213188   3.917   4.356   1.119
 4097SOL     OW13189   3.251   3.756   5.550
 4097SOL    HW113190   3.191   3.687   5.590
 4097SOL    HW213191   3.303   3.801   5.623
 4098SOL     OW13192   0.485   1.862   3.056
 4098SOL    HW113193   0.531   1.950   3.048
 4098SOL    HW213194   0.389   1.872   3.031
 4099SOL     OW13195   4.593   5.850   1.935
 4099SOL    HW113196   4.530   5.773   1.937
 4099SOL    HW213197   4.685   5.819   1.956
 4100SOL     OW13198   3.763   5.563   3.417
 4100SOL    HW113199   3.807   5.515   3.493
 4100SOL    HW213200   3.666   5.572   3.436
 4101SOL     OW13201   6.183   1.465   6.152
 4101SOL    HW113202   6.118   1.511   6.092
 4101SOL    HW213203   6.142   1.451   6.242
 4102SOL     OW13204   5.965   1.459   0.253
 4102SOL    HW113205   5.872   1.440   0.283
 4102SOL    HW213206   5.985   1.406   0.171
 4103SOL     OW13207   0.463   0.364   2.336
 4103SOL    HW113208   0.494   0.386   2.429
 4103SOL    HW213209   0.527   0.403   2.270
 4104SOL     OW13210   1.473   4.731   2.669
 4104SOL    HW113211   1.494   4.795   2.743
 4104SOL    HW213212   1.378   4.700   2.677
 4105SOL     OW13213   4.604   5.023   0.088
 4105SOL    HW113214   4.514   5.010   0.131
 4105SOL    HW213215   4.602   4.984   7.022
 4106SOL     OW13216   6.728   3.813   4.865
 4106SOL    HW113217   6.691   3.775   4.781
 4106SOL    HW213218   6.828   3.801   4.865
 4107SOL     OW13219   0.105   0.684   1.109
 4107SOL    HW113220   0.111   0.737   1.025
 4107SOL    HW213221   0.139   0.740   1.185
 4108SOL     OW13222   6.077   3.939   6.007
 4108SOL    HW113223   6.149   3.949   6.076
 4108SOL    HW213224   5.990   3.969   6.045
 4109SOL     OW13225   3.226   5.933   3.285
 4109SOL    HW113226   3.167   5.942   3.205
 4109SOL    HW213227   3.170   5.908   3.365
 4110SOL     OW13228   4.812   3.481   6.192
 4110SOL    HW113229   4.816   3.514   6.098
 4110SOL    HW213230   4.737   3.415   6.202
 4111SOL     OW13231   4.171   3.199   6.831
 4111SOL    HW113232   4.252   3.144   6.854
 4111SOL    HW213233   4.173   3.284   6.883
 4112SOL     OW13234   2.984   1.240   3.893
 4112SOL    HW113235   2.960   1.269   3.986
 4112SOL    HW213236   2.938   1.298   3.826
 4113SOL     OW13237   3.520   4.995   4.679
 4113SOL    HW113238   3.507   4.896   4.673
 4113SOL    HW213239   3.559   5.028   4.592
 4114SOL     OW13240   2.867   1.937   2.966
 4114SOL    HW113241   2.866   1.987   3.052
 4114SOL    HW213242   2.789   1.875   2.962
 4115SOL     OW13243   5.461   4.882   1.580
 4115SOL    HW113244   5.443   4.881   1.482
 4115SOL    HW213245   5.511   4.799   1.606
 4116SOL     OW13246   3.244   1.624   1.760
 4116SOL    HW113247   3.308   1.700   1.770
 4116SOL    HW213248   3.294   1.542   1.730
 4117SOL     OW13249   1.093   5.349   1.425
 4117SOL    HW113250   1.000   5.342   1.389
 4117SOL    HW213251   1.134   5.435   1.395
 4118SOL     OW13252   1.876   5.825   0.432
 4118SOL    HW113253   1.953   5.828   0.369
 4118SOL    HW213254   1.790   5.834   0.381
 4119SOL     OW13255   3.611   0.718   4.023
 4119SOL    HW113256   3.561   0.751   4.103
 4119SOL    HW213257   3.701   0.684   4.052
 4120SOL     OW13258   3.297   0.639   1.566
 4120SOL    HW113259   3.306   0.564   1.632
 4120SOL    HW213260   3.246   0.607   1.486
 4121SOL     OW13261   6.706   3.327   4.763
 4121SOL    HW113262   6.682   3.406   4.818
 4121SOL    HW213263   6.743   3.255   4.822
 4122SOL     OW13264   1.425   5.786   5.766
 4122SOL    HW113265   1.490   5.851   5.807
 4122SOL    HW213266   1.385   5.730   5.839
 4123SOL     OW13267   4.720   4.031   6.419
 4123SOL    HW113268   4.787   4.105   6.417
 4123SOL    HW213269   4.756   3.952   6.369
 4124SOL     OW13270   5.379   0.081   4.021
 4124SOL    HW113271   5.455   0.025   4.054
 4124SOL    HW213272   5.380   0.169   4.069
 4125SOL     OW13273   4.279   1.016   0.817
 4125SOL    HW113274   4.263   1.075   0.738
 4125SOL    HW213275   4.369   1.036   0.855
 4126SOL     OW13276   2.172   3.965   4.447
 4126SOL    HW113277   2.215   3.935   4.531
 4126SOL    HW213278   2.133   3.886   4.399
 4127SOL     OW13279   5.911   3.344   5.991
 4127SOL    HW113280   5.936   3.419   5.931
 4127SOL    HW213281   5.849   3.377   6.062
 4128SOL     OW13282   0.736   2.565   2.496
 4128SOL    HW113283   0.755   2.467   2.502
 4128SOL    HW213284   0.822   2.616   2.499
 4129SOL     OW13285   5.812   2.361   6.018
 4129SOL    HW113286   5.833   2.274   5.973
 4129SOL    HW213287   5.736   2.406   5.970
 4130SOL     OW13288   6.018   4.322   0.452
 4130SOL    HW113289   5.962   4.240   0.445
 4130SOL    HW213290   6.103   4.301   0.500
 4131SOL     OW13291   6.426   4.641   3.915
 4131SOL    HW113292   6.451   4.644   3.819
 4131SOL    HW213293   6.498   4.596   3.968
 4132SOL     OW13294   5.290   2.494   3.386
 4132SOL    HW113295   5.335   2.551   3.318
 4132SOL    HW213296   5.335   2.404   3.389
 4133SOL     OW13297   3.010   1.144   1.019
 4133SOL    HW113298   2.987   1.161   0.923
 4133SOL    HW213299   3.066   1.218   1.054
 4134SOL     OW13300   1.304   1.741   0.090
 4134SOL    HW113301   1.309   1.648   0.053
 4134SOL    HW213302   1.389   1.763   0.138
 4135SOL     OW13303   1.737   1.078   2.011
 4135SOL    HW113304   1.790   1.035   2.083
 4135SOL    HW213305   1.641   1.051   2.019
 4136SOL     OW13306   0.349   2.293   4.005
 4136SOL    HW113307   0.431   2.242   3.977
 4136SOL    HW213308   0.292   2.236   4.063
 4137SOL     OW13309   3.082   4.224   6.547
 4137SOL    HW113310   3.078   4.231   6.646
 4137SOL    HW213311   3.171   4.259   6.515
 4138SOL     OW13312   3.971   4.813   3.365
 4138SOL    HW113313   4.015   4.902   3.379
 4138SOL    HW213314   3.986   4.783   3.271
 4139SOL     OW13315   1.966   2.093   6.511
 4139SOL    HW113316   1.937   2.165   6.574
 4139SOL    HW213317   1.918   2.103   6.424
 4140SOL     OW13318   4.788   1.070   5.047
 4140SOL    HW113319   4.727   1.014   5.102
 4140SOL    HW213320   4.873   1.087   5.098
 4141SOL     OW13321   5.523   5.739   0.509
 4141SOL    HW113322   5.578   5.752   0.427
 4141SOL    HW213323   5.525   5.822   0.565
 4142SOL     OW13324   6.942   4.401   1.578
 4142SOL    HW113325   6.902   4.408   1.487
 4142SOL    HW213326   6.871   4.380   1.644
 4143SOL     OW13327   6.843   3.283   0.991
 4143SOL    HW113328   6.913   3.243   0.931
 4143SOL    HW213329   6.824   3.377   0.961
 4144SOL     OW13330   4.865   0.846   2.586
 4144SOL    HW113331   4.778   0.893   2.571
 4144SOL    HW213332   4.887   0.846   2.684
 4145SOL     OW13333   2.089   6.813   2.042
 4145SOL    HW113334   2.093   6.855   1.952
 4145SOL    HW213335   2.109   6.715   2.034
 4146SOL     OW13336   4.627   6.675   0.104
 4146SOL    HW113337   4.643   6.609   0.178
 4146SOL    HW213338   4.704   6.737   0.097
 4147SOL     OW13339   3.784   1.700   5.463
 4147SOL    HW113340   3.828   1.775   5.512
 4147SOL    HW213341   3.833   1.683   5.377
 4148SOL     OW13342   6.316   0.577   3.377
 4148SOL    HW113343   6.356   0.486   3.361
 4148SOL    HW213344   6.367   0.623   3.450
 4149SOL     OW13345   5.905   3.766   2.306
 4149SOL    HW113346   5.908   3.803   2.212
 4149SOL    HW213347   5.879   3.670   2.303
 4150SOL     OW13348   5.733   0.207   6.935
 4150SOL    HW113349   5.722   0.193   6.836
 4150SOL    HW213350   5.777   0.127   6.975
 4151SOL     OW13351   0.360   5.362   1.005
 4151SOL    HW113352   0.432   5.348   0.938
 4151SOL    HW213353   0.271   5.367   0.958
 4152SOL     OW13354   4.075   4.660   1.738
 4152SOL    HW113355   3.980   4.630   1.733
 4152SOL    HW213356   4.131   4.604   1.677
 4153SOL     OW13357   6.588   4.957   6.132
 4153SOL    HW113358   6.672   4.910   6.158
 4153SOL    HW213359   6.562   5.021   6.203
 4154SOL     OW13360   5.822   2.841   6.144
 4154SOL    HW113361   5.813   2.766   6.209
 4154SOL    HW213362   5.919   2.856   6.123
 4155SOL     OW13363   1.039   3.413   1.621
 4155SOL    HW113364   1.133   3.438   1.598
 4155SOL    HW213365   1.038   3.357   1.704
 4156SOL     OW13366   5.718   6.711   5.363
 4156SOL    HW113367   5.639   6.666   5.320
 4156SOL    HW213368   5.791   6.644   5.376
 4157SOL     OW13369   3.575   0.307   4.782
 4157SOL    HW113370   3.514   0.315   4.861
 4157SOL    HW213371   3.608   0.398   4.757
 4158SOL     OW13372   0.832   6.238   3.702
 4158SOL    HW113373   0.839   6.141   3.723
 4158SOL    HW213374   0.878   6.291   3.774
 4159SOL     OW13375   1.202   2.678   4.992
 4159SOL    HW113376   1.210   2.699   4.894
 4159SOL    HW213377   1.261   2.741   5.044
 4160SOL     OW13378   0.678   0.757   1.588
 4160SOL    HW113379   0.749   0.789   1.651
 4160SOL    HW213380   0.607   0.826   1.581
 4161SOL     OW13381   6.243   1.658   0.576
 4161SOL    HW113382   6.256   1.756   0.559
 4161SOL    HW213383   6.180   1.646   0.652
 4162SOL     OW13384   5.973   6.823   5.031
 4162SOL    HW113385   5.980   6.908   4.978
 4162SOL    HW213386   6.052   6.815   5.091
 4163SOL     OW13387   5.676   1.397   4.460
 4163SOL    HW113388   5.663   1.304   4.425
 4163SOL    HW213389   5.657   1.463   4.387
 4164SOL     OW13390   1.877   0.077   6.756
 4164SOL    HW113391   1.785   0.042   6.738
 4164SOL    HW213392   1.872   0.152   6.821
 4165SOL     OW13393   3.983   6.718   1.781
 4165SOL    HW113394   3.925   6.651   1.828
 4165SOL    HW213395   4.036   6.769   1.849
 4166SOL     OW13396   5.459   3.040   0.985
 4166SOL    HW113397   5.378   3.087   0.950
 4166SOL    HW213398   5.467   2.951   0.942
 4167SOL     OW13399   2.669   2.937   1.302
 4167SOL    HW113400   2.752   2.882   1.299
 4167SOL    HW213401   2.590   2.880   1.278
 4168SOL     OW13402   1.282   5.307   1.653
 4168SOL    HW113403   1.233   5.312   1.740
 4168SOL    HW213404   1.216   5.309   1.578
 4169SOL     OW13405   5.443   3.362   4.372
 4169SOL    HW113406   5.400   3.447   4.403
 4169SOL    HW213407   5.387   3.320   4.300
 4170SOL     OW13408   4.359   3.027   5.897
 4170SOL    HW113409   4.328   2.964   5.826
 4170SOL    HW213410   4.434   3.083   5.861
 4171SOL     OW13411   5.348   3.634   1.560
 4171SOL    HW113412   5.343   3.534   1.559
 4171SOL    HW213413   5.256   3.672   1.553
 4172SOL     OW13414   0.973   1.922   0.735
 4172SOL    HW113415   0.898   1.874   0.690
 4172SOL    HW213416   0.972   1.901   0.833
 4173SOL     OW13417   5.093   3.174   5.021
 4173SOL    HW113418   5.128   3.190   5.113
 4173SOL    HW213419   5.016   3.235   5.003
 4174SOL     OW13420   4.387   0.740   4.387
 4174SOL    HW113421   4.483   0.748   4.414
 4174SOL    HW213422   4.376   0.662   4.326
 4175SOL     OW13423   3.150   0.369   2.597
 4175SOL    HW113424   3.179   0.464   2.587
 4175SOL    HW213425   3.102   0.358   2.684
 4176SOL     OW13426   5.569   6.261   3.302
 4176SOL    HW113427   5.493   6.314   3.340
 4176SOL    HW213428   5.627   6.229   3.377
 4177SOL     OW13429   0.561   6.294   3.160
 4177SOL    HW113430   0.588   6.215   3.214
 4177SOL    HW213431   0.493   6.266   3.092
 4178SOL     OW13432   3.724   2.168   5.544
 4178SOL    HW113433   3.659   2.196   5.473
 4178SOL    HW213434   3.675   2.122   5.618
 4179SOL     OW13435   5.758   3.689   5.686
 4179SOL    HW113436   5.757   3.648   5.595
 4179SOL    HW213437   5.695   3.766   5.689
 4180SOL     OW13438   4.488   4.347   1.583
 4180SOL    HW113439   4.506   4.311   1.491
 4180SOL    HW213440   4.540   4.295   1.650
 4181SOL     OW13441   0.839   1.049   0.700
 4181SOL    HW113442   0.873   1.141   0.721
 4181SOL    HW213443   0.885   1.014   0.619
 4182SOL     OW13444   5.427   0.751   2.820
 4182SOL    HW113445   5.366   0.673   2.834
 4182SOL    HW213446   5.400   0.799   2.737
 4183SOL     OW13447   1.559   1.631   1.540
 4183SOL    HW113448   1.487   1.602   1.476
 4183SOL    HW213449   1.524   1.623   1.633
 4184SOL     OW13450   4.348   5.402   6.962
 4184SOL    HW113451   4.341   5.497   6.992
 4184SOL    HW213452   4.444   5.373   6.964
 4185SOL     OW13453   0.117   0.192   3.891
 4185SOL    HW113454   0.194   0.221   3.835
 4185SOL    HW213455   0.110   0.252   3.971
 4186SOL     OW13456   2.880   4.147   1.042
 4186SOL    HW113457   2.836   4.068   1.085
 4186SOL    HW213458   2.926   4.202   1.112
 4187SOL     OW13459   3.983   3.843   6.660
 4187SOL    HW113460   3.995   3.886   6.571
 4187SOL    HW213461   3.942   3.908   6.724
 4188SOL     OW13462   4.686   6.746   4.619
 4188SOL    HW113463   4.778   6.713   4.641
 4188SOL    HW213464   4.662   6.716   4.526
 4189SOL     OW13465   2.187   1.886   3.905
 4189SOL    HW113466   2.173   1.822   3.980
 4189SOL    HW213467   2.248   1.959   3.934
 4190SOL     OW13468   2.608   1.104   0.922
 4190SOL    HW113469   2.667   1.169   0.971
 4190SOL    HW213470   2.535   1.073   0.983
 4191SOL     OW13471   6.588   1.713   2.004
 4191SOL    HW113472   6.581   1.774   2.083
 4191SOL    HW213473   6.667   1.653   2.016
 4192SOL     OW13474   6.052   1.189   3.548
 4192SOL    HW113475   5.967   1.198   3.496
 4192SOL    HW213476   6.039   1.226   3.640
 4193SOL     OW13477   1.658   0.015   2.263
 4193SOL    HW113478   1.594   6.973   2.228
 4193SOL    HW213479   1.752   7.012   2.245
 4194SOL     OW13480   0.651   0.911   4.187
 4194SOL    HW113481   0.748   0.933   4.200
 4194SOL    HW213482   0.596   0.972   4.243
 4195SOL     OW13483   4.546   0.514   1.512
 4195SOL    HW113484   4.452   0.480   1.522
 4195SOL    HW213485   4.583   0.482   1.425
 4196SOL     OW13486   4.835   2.382   3.499
 4196SOL    HW113487   4.866   2.300   3.547
 4196SOL    HW213488   4.760   2.358   3.437
 4197SOL     OW13489   4.592   4.383   3.981
 4197SOL    HW113490   4.545   4.447   4.042
 4197SOL    HW213491   4.626   4.305   4.034
 4198SOL     OW13492   6.300   3.528   6.807
 4198SOL    HW113493   6.244   3.611   6.815
 4198SOL    HW213494   6.241   3.448   6.812
 4199SOL     OW13495   2.930   3.789   5.844
 4199SOL    HW113496   2.933   3.885   5.818
 4199SOL    HW213497   2.992   3.774   5.921
 4200SOL     OW13498   2.148   0.159   6.777
 4200SOL    HW113499   2.218   0.089   6.794
 4200SOL    HW213500   2.063   0.114   6.750
 4201SOL     OW13501   5.678   5.979   4.031
 4201SOL    HW113502   5.744   5.939   4.095
 4201SOL    HW213503   5.708   5.961   3.937
 4202SOL     OW13504   5.443   4.614   4.635
 4202SOL    HW113505   5.516   4.649   4.577
 4202SOL    HW213506   5.463   4.636   4.731
 4203SOL     OW13507   5.359   5.838   3.705
 4203SOL    HW113508   5.439   5.880   3.664
 4203SOL    HW213509   5.280   5.848   3.644
 4204SOL     OW13510   3.621   3.525   1.451
 4204SOL    HW113511   3.555   3.554   1.381
 4204SOL    HW213512   3.713   3.542   1.418
 4205SOL     OW13513   2.692   5.143   3.552
 4205SOL    HW113514   2.754   5.221   3.564
 4205SOL    HW213515   2.746   5.061   3.530
 4206SOL     OW13516   5.554   6.884   4.401
 4206SOL    HW113517   5.629   6.848   4.457
 4206SOL    HW213518   5.470   6.886   4.455
 4207SOL     OW13519   1.319   1.347   1.766
 4207SOL    HW113520   1.349   1.396   1.684
 4207SOL    HW213521   1.386   1.358   1.839
 4208SOL     OW13522   0.663   3.738   1.005
 4208SOL    HW113523   0.721   3.795   1.063
 4208SOL    HW213524   0.583   3.708   1.057
 4209SOL     OW13525   2.995   0.396   4.948
 4209SOL    HW113526   3.010   0.405   4.849
 4209SOL    HW213527   2.936   0.470   4.979
 4210SOL     OW13528   5.151   2.524   0.663
 4210SOL    HW113529   5.067   2.543   0.715
 4210SOL    HW213530   5.132   2.454   0.594
 4211SOL     OW13531   4.564   4.584   3.216
 4211SOL    HW113532   4.612   4.661   3.259
 4211SOL    HW213533   4.520   4.529   3.287
 4212SOL     OW13534   6.233   0.448   2.814
 4212SOL    HW113535   6.196   0.489   2.897
 4212SOL    HW213536   6.311   0.502   2.782
 4213SOL     OW13537   1.369   0.642   2.747
 4213SOL    HW113538   1.290   0.581   2.742
 4213SOL    HW213539   1.342   0.729   2.788
 4214SOL     OW13540   1.309   3.029   4.779
 4214SOL    HW113541   1.321   3.068   4.688
 4214SOL    HW213542   1.367   3.078   4.844
 4215SOL     OW13543   1.237   5.536   4.523
 4215SOL    HW113544   1.318   5.567   4.474
 4215SOL    HW213545   1.155   5.575   4.481
 4216SOL     OW13546   1.522   3.202   5.503
 4216SOL    HW113547   1.552   3.276   5.563
 4216SOL    HW213548   1.464   3.139   5.554
 4217SOL     OW13549   0.145   0.413   3.382
 4217SOL    HW113550   0.229   0.365   3.356
 4217SOL    HW213551   0.158   0.512   3.370
 4218SOL     OW13552   4.026   6.892   2.192
 4218SOL    HW113553   4.081   6.836   2.130
 4218SOL    HW213554   3.990   6.971   2.144
 4219SOL     OW13555   4.634   6.543   3.119
 4219SOL    HW113556   4.616   6.482   3.196
 4219SOL    HW213557   4.601   6.501   3.034
 4220SOL     OW13558   6.919   3.006   2.983
 4220SOL    HW113559   6.900   3.021   2.886
 4220SOL    HW213560   7.003   2.953   2.993
 4221SOL     OW13561   5.130   5.956   5.518
 4221SOL    HW113562   5.100   5.892   5.588
 4221SOL    HW213563   5.072   5.946   5.437
 4222SOL     OW13564   4.462   2.323   0.795
 4222SOL    HW113565   4.479   2.390   0.867
 4222SOL    HW213566   4.374   2.278   0.811
 4223SOL     OW13567   3.586   4.124   2.819
 4223SOL    HW113568   3.660   4.059   2.807
 4223SOL    HW213569   3.622   4.211   2.851
 4224SOL     OW13570   4.265   2.322   4.819
 4224SOL    HW113571   4.185   2.266   4.797
 4224SOL    HW213572   4.243   2.380   4.899
 4225SOL     OW13573   5.690   0.581   4.714
 4225SOL    HW113574   5.741   0.620   4.637
 4225SOL    HW213575   5.649   0.494   4.686
 4226SOL     OW13576   1.428   1.560   3.824
 4226SOL    HW113577   1.478   1.494   3.880
 4226SOL    HW213578   1.437   1.651   3.864
 4227SOL     OW13579   5.849   4.204   0.020
 4227SOL    HW113580   5.942   4.173   0.040
 4227SOL    HW213581   5.845   4.304   0.029
 4228SOL     OW13582   6.128   5.069   2.212
 4228SOL    HW113583   6.209   5.107   2.256
 4228SOL    HW213584   6.077   5.143   2.167
 4229SOL     OW13585   4.950   4.668   5.728
 4229SOL    HW113586   5.045   4.639   5.732
 4229SOL    HW213587   4.891   4.590   5.708
 4230SOL     OW13588   3.122   0.231   4.494
 4230SOL    HW113589   3.170   0.178   4.565
 4230SOL    HW213590   3.154   0.203   4.404
 4231SOL     OW13591   4.147   7.026   5.544
 4231SOL    HW113592   4.076   0.042   5.601
 4231SOL    HW213593   4.235   0.043   5.561
 4232SOL     OW13594   2.153   4.196   1.596
 4232SOL    HW113595   2.212   4.147   1.660
 4232SOL    HW213596   2.094   4.131   1.549
 4233SOL     OW13597   5.947   6.796   0.868
 4233SOL    HW113598   5.847   6.805   0.872
 4233SOL    HW213599   5.971   6.715   0.815
 4234SOL     OW13600   2.902   4.450   5.605
 4234SOL    HW113601   2.989   4.413   5.638
 4234SOL    HW213602   2.861   4.385   5.541
 4235SOL     OW13603   6.552   3.686   5.652
 4235SOL    HW113604   6.524   3.746   5.576
 4235SOL    HW213605   6.523   3.593   5.633
 4236SOL     OW13606   1.192   3.413   4.592
 4236SOL    HW113607   1.184   3.439   4.496
 4236SOL    HW213608   1.104   3.381   4.626
 4237SOL     OW13609   5.247   3.655   4.976
 4237SOL    HW113610   5.159   3.626   5.016
 4237SOL    HW213611   5.230   3.702   4.889
 4238SOL     OW13612   4.448   5.137   4.207
 4238SOL    HW113613   4.372   5.124   4.143
 4238SOL    HW213614   4.532   5.102   4.165
 4239SOL     OW13615   4.828   5.344   5.689
 4239SOL    HW113616   4.749   5.307   5.737
 4239SOL    HW213617   4.804   5.364   5.594
 4240SOL     OW13618   2.904   4.955   6.409
 4240SOL    HW113619   2.884   4.982   6.503
 4240SOL    HW213620   2.818   4.946   6.358
 4241SOL     OW13621   3.570   0.896   6.863
 4241SOL    HW113622   3.647   0.927   6.807
 4241SOL    HW213623   3.562   0.797   6.858
 4242SOL     OW13624   1.685   0.464   2.333
 4242SOL    HW113625   1.742   0.382   2.322
 4242SOL    HW213626   1.636   0.459   2.420
 4243SOL     OW13627   1.586   2.772   3.097
 4243SOL    HW113628   1.507   2.819   3.059
 4243SOL    HW213629   1.562   2.678   3.120
 4244SOL     OW13630   3.788   6.275   1.679
 4244SOL    HW113631   3.705   6.330   1.671
 4244SOL    HW213632   3.793   6.211   1.602
 4245SOL     OW13633   6.633   3.591   1.460
 4245SOL    HW113634   6.578   3.663   1.502
 4245SOL    HW213635   6.727   3.595   1.495
 4246SOL     OW13636   4.546   1.819   3.917
 4246SOL    HW113637   4.538   1.737   3.974
 4246SOL    HW213638   4.616   1.879   3.954
 4247SOL     OW13639   1.525   4.827   6.215
 4247SOL    HW113640   1.443   4.860   6.169
 4247SOL    HW213641   1.591   4.796   6.147
 4248SOL     OW13642   1.657   0.911   3.688
 4248SOL    HW113643   1.744   0.891   3.644
 4248SOL    HW213644   1.641   1.009   3.688
 4249SOL     OW13645   6.513   6.774   5.155
 4249SOL    HW113646   6.458   6.831   5.216
 4249SOL    HW213647   6.508   6.811   5.062
 4250SOL     OW13648   0.152   5.408   4.113
 4250SOL    HW113649   0.141   5.327   4.056
 4250SOL    HW213650   0.133   5.384   4.209
 4251SOL     OW13651   6.175   2.552   5.525
 4251SOL    HW113652   6.081   2.519   5.541
 4251SOL    HW213653   6.200   2.616   5.597
 4252SOL     OW13654   6.970   6.756   6.949
 4252SOL    HW113655   6.892   6.697   6.928
 4252SOL    HW213656   6.985   6.819   6.872
 4253SOL     OW13657   4.855   5.310   2.724
 4253SOL    HW113658   4.790   5.311   2.648
 4253SOL    HW213659   4.891   5.402   2.738
 4254SOL     OW13660   1.779   2.845   6.523
 4254SOL    HW113661   1.704   2.832   6.457
 4254SOL    HW213662   1.754   2.917   6.587
 4255SOL     OW13663   1.473   3.278   3.353
 4255SOL    HW113664   1.398   3.338   3.327
 4255SOL    HW213665   1.559   3.317   3.320
 4256SOL     OW13666   0.588   6.404   1.879
 4256SOL    HW113667   0.554   6.377   1.969
 4256SOL    HW213668   0.634   6.492   1.886
 4257SOL     OW13669   6.168   0.173   4.229
 4257SOL    HW113670   6.249   0.167   4.172
 4257SOL    HW213671   6.195   0.165   4.325
 4258SOL     OW13672   3.142   5.975   0.758
 4258SOL    HW113673   3.206   6.043   0.721
 4258SOL    HW213674   3.161   5.886   0.717
 4259SOL     OW13675   1.147   0.250   1.363
 4259SOL    HW113676   1.053   0.282   1.360
 4259SOL    HW213677   1.152   0.165   1.415
 4260SOL     OW13678   5.116   1.199   4.671
 4260SOL    HW113679   5.156   1.250   4.747
 4260SOL    HW213680   5.188   1.172   4.608
 4261SOL     OW13681   2.596   5.965   4.333
 4261SOL    HW113682   2.507   6.003   4.359
 4261SOL    HW213683   2.624   6.005   4.245
 4262SOL     OW13684   2.428   4.235   6.692
 4262SOL    HW113685   2.441   4.292   6.773
 4262SOL    HW213686   2.517   4.214   6.651
 4263SOL     OW13687   2.127   1.090   3.773
 4263SOL    HW113688   2.221   1.073   3.803
 4263SOL    HW213689   2.064   1.062   3.845
 4264SOL     OW13690   5.300   1.527   5.621
 4264SOL    HW113691   5.287   1.601   5.556
 4264SOL    HW213692   5.344   1.450   5.576
 4265SOL     OW13693   2.464   0.135   6.626
 4265SOL    HW113694   2.443   0.077   6.705
 4265SOL    HW213695   2.439   0.087   6.542
 4266SOL     OW13696   1.628   5.607   1.366
 4266SOL    HW113697   1.605   5.643   1.275
 4266SOL    HW213698   1.674   5.678   1.419
 4267SOL     OW13699   1.628   4.229   4.823
 4267SOL    HW113700   1.602   4.265   4.733
 4267SOL    HW213701   1.591   4.289   4.894
 4268SOL     OW13702   1.264   4.394   6.534
 4268SOL    HW113703   1.269   4.323   6.464
 4268SOL    HW213704   1.245   4.483   6.491
 4269SOL     OW13705   2.941   1.242   4.973
 4269SOL    HW113706   2.954   1.144   4.981
 4269SOL    HW213707   2.848   1.261   4.942
 4270SOL     OW13708   3.500   3.442   1.144
 4270SOL    HW113709   3.553   3.361   1.172
 4270SOL    HW213710   3.403   3.422   1.152
 4271SOL     OW13711   6.962   0.970   1.704
 4271SOL    HW113712   6.938   0.909   1.628
 4271SOL    HW213713   6.963   0.918   1.789
 4272SOL     OW13714   0.577   1.192   6.644
 4272SOL    HW113715   0.645   1.147   6.701
 4272SOL    HW213716   0.617   1.214   6.555
 4273SOL     OW13717   3.130   6.059   4.460
 4273SOL    HW113718   3.032   6.045   4.471
 4273SOL    HW213719   3.159   6.020   4.372
 4274SOL     OW13720   6.773   1.527   1.997
 4274SOL    HW113721   6.869   1.537   2.022
 4274SOL    HW213722   6.744   1.433   2.015
 4275SOL     OW13723   0.152   2.430   3.471
 4275SOL    HW113724   0.171   2.510   3.527
 4275SOL    HW213725   0.054   2.427   3.449
 4276SOL     OW13726   2.291   6.232   3.474
 4276SOL    HW113727   2.317   6.172   3.550
 4276SOL    HW213728   2.359   6.226   3.402
 4277SOL     OW13729   6.209   5.553   2.773
 4277SOL    HW113730   6.198   5.573   2.676
 4277SOL    HW213731   6.278   5.482   2.784
 4278SOL     OW13732   1.452   6.847   2.016
 4278SOL    HW113733   1.414   6.810   2.101
 4278SOL    HW213734   1.440   6.946   2.015
 4279SOL     OW13735   1.475   1.722   3.454
 4279SOL    HW113736   1.527   1.645   3.417
 4279SOL    HW213737   1.454   1.787   3.381
 4280SOL     OW13738   1.678   6.763   6.417
 4280SOL    HW113739   1.736   6.709   6.356
 4280SOL    HW213740   1.586   6.770   6.378
 4281SOL     OW13741   5.162   5.806   3.515
 4281SOL    HW113742   5.127   5.897   3.496
 4281SOL    HW213743   5.209   5.770   3.434
 4282SOL     OW13744   4.182   4.676   1.119
 4282SOL    HW113745   4.242   4.756   1.125
 4282SOL    HW213746   4.187   4.638   1.026
 4283SOL     OW13747   4.640   1.346   4.607
 4283SOL    HW113748   4.642   1.247   4.593
 4283SOL    HW213749   4.592   1.389   4.530
 4284SOL     OW13750   4.909   5.250   6.224
 4284SOL    HW113751   4.815   5.217   6.215
 4284SOL    HW213752   4.971   5.190   6.173
 4285SOL     OW13753   3.489   0.851   5.674
 4285SOL    HW113754   3.527   0.917   5.739
 4285SOL    HW213755   3.563   0.795   5.637
 4286SOL     OW13756   6.262   0.442   6.086
 4286SOL    HW113757   6.353   0.482   6.083
 4286SOL    HW213758   6.268   0.349   6.123
 4287SOL     OW13759   3.768   0.394   0.555
 4287SOL    HW113760   3.849   0.337   0.540
 4287SOL    HW213761   3.790   0.469   0.616
 4288SOL     OW13762   0.082   6.783   2.626
 4288SOL    HW113763   0.024   6.702   2.633
 4288SOL    HW213764   0.031   6.863   2.660
 4289SOL     OW13765   0.504   4.336   4.237
 4289SOL    HW113766   0.445   4.378   4.168
 4289SOL    HW213767   0.480   4.372   4.327
 4290SOL     OW13768   0.931   1.249   3.570
 4290SOL    HW113769   0.963   1.297   3.652
 4290SOL    HW213770   0.831   1.250   3.567
 4291SOL     OW13771   4.453   3.632   5.861
 4291SOL    HW113772   4.521   3.695   5.900
 4291SOL    HW213773   4.410   3.675   5.782
 4292SOL     OW13774   6.084   2.429   1.795
 4292SOL    HW113775   5.993   2.462   1.774
 4292SOL    HW213776   6.134   2.411   1.709
 4293SOL     OW13777   4.160   3.536   0.326
 4293SOL    HW113778   4.105   3.478   0.266
 4293SOL    HW213779   4.101   3.577   0.396
 4294SOL     OW13780   2.102   2.355   6.494
 4294SOL    HW113781   2.199   2.339   6.511
 4294SOL    HW213782   2.080   2.329   6.399
 4295SOL     OW13783   4.137   6.137   2.696
 4295SOL    HW113784   4.232   6.115   2.671
 4295SOL    HW213785   4.123   6.119   2.793
 4296SOL     OW13786   3.099   6.647   3.094
 4296SOL    HW113787   3.033   6.583   3.055
 4296SOL    HW213788   3.086   6.737   3.053
 4297SOL     OW13789   5.523   5.084   0.562
 4297SOL    HW113790   5.454   5.049   0.499
 4297SOL    HW213791   5.614   5.080   0.519
 4298SOL     OW13792   2.041   6.794   0.885
 4298SOL    HW113793   2.119   6.792   0.822
 4298SOL    HW213794   1.988   6.877   0.870
 4299SOL     OW13795   0.654   2.786   6.861
 4299SOL    HW113796   0.571   2.820   6.905
 4299SOL    HW213797   0.730   2.848   6.881
 4300SOL     OW13798   2.638   0.938   1.194
 4300SOL    HW113799   2.709   0.954   1.262
 4300SOL    HW213800   2.559   0.997   1.213
 4301SOL     OW13801   2.858   6.363   0.481
 4301SOL    HW113802   2.760   6.362   0.500
 4301SOL    HW213803   2.873   6.370   0.383
 4302SOL     OW13804   2.195   5.401   5.859
 4302SOL    HW113805   2.156   5.488   5.888
 4302SOL    HW213806   2.124   5.330   5.860
 4303SOL     OW13807   5.701   5.648   3.065
 4303SOL    HW113808   5.688   5.558   3.107
 4303SOL    HW213809   5.781   5.644   3.004
 4304SOL     OW13810   3.595   3.830   1.381
 4304SOL    HW113811   3.568   3.808   1.287
 4304SOL    HW213812   3.513   3.834   1.438
 4305SOL     OW13813   1.033   6.473   5.413
 4305SOL    HW113814   1.059   6.563   5.380
 4305SOL    HW213815   1.008   6.414   5.335
 4306SOL     OW13816   5.733   4.346   5.274
 4306SOL    HW113817   5.653   4.386   5.319
 4306SOL    HW213818   5.816   4.392   5.307
 4307SOL     OW13819   0.414   1.261   6.181
 4307SOL    HW113820   0.451   1.321   6.252
 4307SOL    HW213821   0.483   1.193   6.157
 4308SOL     OW13822   4.896   5.884   6.449
 4308SOL    HW113823   4.911   5.981   6.466
 4308SOL    HW213824   4.801   5.870   6.421
 4309SOL     OW13825   0.737   1.878   0.552
 4309SOL    HW113826   0.688   1.949   0.501
 4309SOL    HW213827   0.787   1.820   0.488
 4310SOL     OW13828   6.958   2.198   2.302
 4310SOL    HW113829   6.958   2.296   2.320
 4310SOL    HW213830   6.942   2.181   2.204
 4311SOL     OW13831   0.310   0.053   1.642
 4311SOL    HW113832   0.341   7.003   1.699
 4311SOL    HW213833   0.211   0.045   1.626
 4312SOL     OW13834   6.963   5.094   2.479
 4312SOL    HW113835   0.025   5.139   2.476
 4312SOL    HW213836   6.960   5.029   2.555
 4313SOL     OW13837   0.387   2.812   6.529
 4313SOL    HW113838   0.361   2.716   6.540
 4313SOL    HW213839   0.416   2.849   6.618
 4314SOL     OW13840   0.870   1.080   6.042
 4314SOL    HW113841   0.942   1.118   5.985
 4314SOL    HW213842   0.825   1.005   5.993
 4315SOL     OW13843   2.676   1.206   4.345
 4315SOL    HW113844   2.610   1.146   4.390
 4315SOL    HW213845   2.681   1.293   4.393
 4316SOL     OW13846   5.224   6.043   1.172
 4316SOL    HW113847   5.129   6.033   1.142
 4316SOL    HW213848   5.252   5.962   1.224
 4317SOL     OW13849   4.609   0.865   5.866
 4317SOL    HW113850   4.690   0.923   5.860
 4317SOL    HW213851   4.629   0.775   5.826
 4318SOL     OW13852   0.926   0.074   4.312
 4318SOL    HW113853   0.879   7.019   4.280
 4318SOL    HW213854   1.017   0.079   4.271
 4319SOL     OW13855   1.675   4.285   2.915
 4319SOL    HW113856   1.592   4.306   2.863
 4319SOL    HW213857   1.755   4.315   2.863
 4320SOL     OW13858   3.481   0.061   1.179
 4320SOL    HW113859   3.557   7.022   1.184
 4320SOL    HW213860   3.394   0.012   1.179
 4321SOL     OW13861   6.826   6.842   3.034
 4321SOL    HW113862   6.838   6.858   2.936
 4321SOL    HW213863   6.778   6.919   3.075
 4322SOL     OW13864   1.606   2.945   4.966
 4322SOL    HW113865   1.704   2.950   4.951
 4322SOL    HW213866   1.568   3.038   4.971
 4323SOL     OW13867   4.346   4.977   0.147
 4323SOL    HW113868   4.302   4.995   0.235
 4323SOL    HW213869   4.301   5.031   0.076
 4324SOL     OW13870   0.753   4.546   5.929
 4324SOL    HW113871   0.811   4.539   5.848
 4324SOL    HW213872   0.718   4.639   5.937
 4325SOL     OW13873   2.178   0.715   2.632
 4325SOL    HW113874   2.237   0.717   2.551
 4325SOL    HW213875   2.095   0.664   2.612
 4326SOL     OW13876   5.212   1.899   2.497
 4326SOL    HW113877   5.203   1.827   2.428
 4326SOL    HW213878   5.136   1.963   2.490
 4327SOL     OW13879   2.611   6.260   3.554
 4327SOL    HW113880   2.626   6.215   3.466
 4327SOL    HW213881   2.633   6.358   3.546
 4328SOL     OW13882   6.720   0.077   4.186
 4328SOL    HW113883   6.665   0.036   4.258
 4328SOL    HW213884   6.661   0.109   4.112
 4329SOL     OW13885   0.106   1.755   6.835
 4329SOL    HW113886   0.068   1.676   6.787
 4329SOL    HW213887   0.041   1.831   6.829
 4330SOL     OW13888   3.222   4.940   4.444
 4330SOL    HW113889   3.189   5.033   4.429
 4330SOL    HW213890   3.195   4.910   4.535
 4331SOL     OW13891   5.872   1.381   2.308
 4331SOL    HW113892   5.884   1.479   2.323
 4331SOL    HW213893   5.959   1.340   2.280
 4332SOL     OW13894   0.776   5.266   2.078
 4332SOL    HW113895   0.839   5.286   2.153
 4332SOL    HW213896   0.813   5.192   2.022
 4333SOL     OW13897   4.467   2.172   5.940
 4333SOL    HW113898   4.480   2.259   5.892
 4333SOL    HW213899   4.449   2.189   6.037
 4334SOL     OW13900   0.077   2.949   4.501
 4334SOL    HW113901   0.100   2.985   4.411
 4334SOL    HW213902   7.015   2.986   4.529
 4335SOL     OW13903   2.639   3.790   1.386
 4335SOL    HW113904   2.545   3.758   1.369
 4335SOL    HW213905   2.647   3.818   1.482
 4336SOL     OW13906   2.329   5.727   5.751
 4336SOL    HW113907   2.234   5.756   5.746
 4336SOL    HW213908   2.355   5.679   5.667
 4337SOL     OW13909   1.042   4.986   3.865
 4337SOL    HW113910   1.054   5.040   3.781
 4337SOL    HW213911   0.997   5.042   3.934
 4338SOL     OW13912   3.717   1.431   5.829
 4338SOL    HW113913   3.814   1.449   5.847
 4338SOL    HW213914   3.694   1.462   5.737
 4339SOL     OW13915   3.937   4.013   6.180
 4339SOL    HW113916   3.840   4.036   6.175
 4339SOL    HW213917   3.948   3.914   6.170
 4340SOL     OW13918   6.327   4.107   1.131
 4340SOL    HW113919   6.335   4.022   1.182
 4340SOL    HW213920   6.250   4.101   1.067
 4341SOL     OW13921   6.328   6.822   2.472
 4341SOL    HW113922   6.269   6.747   2.443
 4341SOL    HW213923   6.393   6.844   2.400
 4342SOL     OW13924   4.821   3.951   2.478
 4342SOL    HW113925   4.874   4.034   2.458
 4342SOL    HW213926   4.724   3.972   2.479
 4343SOL     OW13927   4.022   6.696   5.914
 4343SOL    HW113928   3.961   6.711   5.992
 4343SOL    HW213929   4.076   6.779   5.898
 4344SOL     OW13930   0.133   3.451   3.628
 4344SOL    HW113931   0.050   3.479   3.580
 4344SOL    HW213932   0.136   3.352   3.636
 4345SOL     OW13933   3.090   3.038   2.659
 4345SOL    HW113934   3.017   3.106   2.660
 4345SOL    HW213935   3.102   3.004   2.565
 4346SOL     OW13936   1.387   3.128   2.793
 4346SOL    HW113937   1.416   3.130   2.889
 4346SOL    HW213938   1.441   3.192   2.740
 4347SOL     OW13939   6.254   5.818   0.170
 4347SOL    HW113940   6.198   5.846   0.247
 4347SOL    HW213941   6.202   5.754   0.113
 4348SOL     OW13942   5.579   4.957   3.877
 4348SOL    HW113943   5.603   4.978   3.783
 4348SOL    HW213944   5.579   5.041   3.931
 4349SOL     OW13945   0.256   3.413   4.332
 4349SOL    HW113946   0.293   3.439   4.243
 4349SOL    HW213947   0.197   3.334   4.322
 4350SOL     OW13948   3.747   1.518   4.654
 4350SOL    HW113949   3.672   1.516   4.588
 4350SOL    HW213950   3.822   1.574   4.617
 4351SOL     OW13951   1.002   6.143   0.615
 4351SOL    HW113952   1.033   6.237   0.604
 4351SOL    HW213953   1.056   6.099   0.687
 4352SOL     OW13954   3.599   4.544   1.204
 4352SOL    HW113955   3.679   4.489   1.182
 4352SOL    HW213956   3.583   4.610   1.131
 4353SOL     OW13957   2.882   2.763   1.287
 4353SOL    HW113958   2.903   2.761   1.190
 4353SOL    HW213959   2.965   2.789   1.338
 4354SOL     OW13960   5.935   0.090   3.160
 4354SOL    HW113961   5.995   0.014   3.187
 4354SOL    HW213962   5.846   0.080   3.205
 4355SOL     OW13963   1.878   5.532   2.935
 4355SOL    HW113964   1.875   5.564   3.030
 4355SOL    HW213965   1.931   5.447   2.930
 4356SOL     OW13966   5.735   2.493   5.444
 4356SOL    HW113967   5.647   2.539   5.459
 4356SOL    HW213968   5.761   2.502   5.348
 4357SOL     OW13969   5.713   0.536   2.142
 4357SOL    HW113970   5.618   0.540   2.174
 4357SOL    HW213971   5.737   0.441   2.123
 4358SOL     OW13972   2.702   0.024   0.055
 4358SOL    HW113973   2.633   0.025   7.009
 4358SOL    HW213974   2.713   6.957   0.089
 4359SOL     OW13975   2.657   1.920   0.354
 4359SOL    HW113976   2.695   1.836   0.315
 4359SOL    HW213977   2.620   1.977   0.281
 4360SOL     OW13978   1.982   4.230   3.970
 4360SOL    HW113979   1.985   4.218   3.870
 4360SOL    HW213980   2.075   4.237   4.005
 4361SOL     OW13981   6.573   1.910   0.689
 4361SOL    HW113982   6.496   1.851   0.713
 4361SOL    HW213983   6.657   1.873   0.729
 4362SOL     OW13984   1.105   5.425   3.339
 4362SOL    HW113985   1.104   5.325   3.333
 4362SOL    HW213986   1.027   5.462   3.288
 4363SOL     OW13987   4.412   0.908   2.576
 4363SOL    HW113988   4.363   0.994   2.563
 4363SOL    HW213989   4.362   0.852   2.643
 4364SOL     OW13990   4.080   3.561   2.518
 4364SOL    HW113991   4.121   3.618   2.590
 4364SOL    HW213992   3.982   3.553   2.534
 4365SOL     OW13993   2.404   2.040   1.423
 4365SOL    HW113994   2.361   2.129   1.433
 4365SOL    HW213995   2.497   2.052   1.387
 4366SOL     OW13996   4.442   6.224   4.748
 4366SOL    HW113997   4.427   6.134   4.790
 4366SOL    HW213998   4.391   6.230   4.662
 4367SOL     OW13999   2.579   5.940   3.212
 4367SOL    HW114000   2.670   5.906   3.186
 4367SOL    HW214001   2.510   5.872   3.187
 4368SOL     OW14002   4.792   4.030   3.514
 4368SOL    HW114003   4.805   4.081   3.599
 4368SOL    HW214004   4.777   4.094   3.438
 4369SOL     OW14005   4.672   4.773   3.399
 4369SOL    HW114006   4.684   4.871   3.384
 4369SOL    HW214007   4.693   4.751   3.495
 4370SOL     OW14008   3.819   4.574   1.707
 4370SOL    HW114009   3.791   4.481   1.731
 4370SOL    HW214010   3.759   4.640   1.752
 4371SOL     OW14011   3.017   1.718   0.970
 4371SOL    HW114012   3.032   1.626   0.935
 4371SOL    HW214013   3.051   1.725   1.064
 4372SOL     OW14014   1.740   3.297   4.784
 4372SOL    HW114015   1.722   3.237   4.706
 4372SOL    HW214016   1.655   3.312   4.835
 4373SOL     OW14017   3.605   1.020   6.427
 4373SOL    HW114018   3.675   1.001   6.357
 4373SOL    HW214019   3.648   1.019   6.517
 4374SOL     OW14020   2.310   0.172   1.415
 4374SOL    HW114021   2.237   0.240   1.406
 4374SOL    HW214022   2.271   0.081   1.403
 4375SOL     OW14023   4.259   1.835   4.416
 4375SOL    HW114024   4.345   1.808   4.458
 4375SOL    HW214025   4.189   1.847   4.487
 4376SOL     OW14026   1.956   6.242   6.838
 4376SOL    HW114027   2.031   6.182   6.866
 4376SOL    HW214028   1.963   6.259   6.739
 4377SOL     OW14029   5.607   6.894   6.516
 4377SOL    HW114030   5.633   6.955   6.442
 4377SOL    HW214031   5.553   6.818   6.480
 4378SOL     OW14032   2.626   5.559   2.190
 4378SOL    HW114033   2.604   5.560   2.093
 4378SOL    HW214034   2.560   5.617   2.239
 4379SOL     OW14035   1.275   0.329   1.740
 4379SOL    HW114036   1.183   0.337   1.778
 4379SOL    HW214037   1.333   0.401   1.779
 4380SOL     OW14038   2.094   5.030   4.634
 4380SOL    HW114039   2.099   5.011   4.732
 4380SOL    HW214040   2.081   5.128   4.619
 4381SOL     OW14041   4.792   6.188   5.628
 4381SOL    HW114042   4.742   6.186   5.542
 4381SOL    HW214043   4.734   6.225   5.700
 4382SOL     OW14044   4.911   3.599   3.308
 4382SOL    HW114045   4.906   3.567   3.403
 4382SOL    HW214046   4.901   3.698   3.305
 4383SOL     OW14047   1.298   2.352   0.067
 4383SOL    HW114048   1.301   2.252   0.071
 4383SOL    HW214049   1.205   2.383   0.086
 4384SOL     OW14050   3.550   6.284   0.964
 4384SOL    HW114051   3.512   6.216   1.025
 4384SOL    HW214052   3.538   6.375   1.003
 4385SOL     OW14053   6.906   1.598   2.710
 4385SOL    HW114054   6.993   1.612   2.759
 4385SOL    HW214055   6.910   1.647   2.623
 4386SOL     OW14056   1.325   3.724   6.802
 4386SOL    HW114057   1.410   3.753   6.848
 4386SOL    HW214058   1.247   3.762   6.851
 4387SOL     OW14059   6.990   3.195   1.921
 4387SOL    HW114060   6.931   3.115   1.908
 4387SOL    HW214061   6.949   3.256   1.988
 4388SOL     OW14062   2.723   1.285   5.227
 4388SOL    HW114063   2.805   1.289   5.284
 4388SOL    HW214064   2.668   1.367   5.241
 4389SOL     OW14065   5.039   2.268   2.556
 4389SOL    HW114066   5.036   2.200   2.630
 4389SOL    HW214067   5.094   2.346   2.585
 4390SOL     OW14068   4.447   2.413   1.947
 4390SOL    HW114069   4.519   2.392   1.881
 4390SOL    HW214070   4.487   2.440   2.034
 4391SOL     OW14071   1.056   5.833   0.909
 4391SOL    HW114072   1.118   5.909   0.891
 4391SOL    HW214073   0.962   5.864   0.902
 4392SOL     OW14074   5.503   3.532   4.894
 4392SOL    HW114075   5.466   3.453   4.844
 4392SOL    HW214076   5.428   3.585   4.933
 4393SOL     OW14077   4.834   6.281   3.533
 4393SOL    HW114078   4.923   6.284   3.488
 4393SOL    HW214079   4.838   6.332   3.619
 4394SOL     OW14080   4.865   0.927   2.068
 4394SOL    HW114081   4.876   0.967   1.978
 4394SOL    HW214082   4.945   0.870   2.089
 4395SOL     OW14083   4.567   1.551   1.820
 4395SOL    HW114084   4.557   1.634   1.764
 4395SOL    HW214085   4.495   1.486   1.795
 4396SOL     OW14086   1.345   0.988   3.865
 4396SOL    HW114087   1.395   0.903   3.876
 4396SOL    HW214088   1.265   0.988   3.925
 4397SOL     OW14089   6.471   0.634   6.108
 4397SOL    HW114090   6.482   0.691   6.027
 4397SOL    HW214091   6.449   0.692   6.187
 4398SOL     OW14092   6.201   4.475   4.272
 4398SOL    HW114093   6.264   4.402   4.299
 4398SOL    HW214094   6.172   4.461   4.177
 4399SOL     OW14095   2.392   1.742   1.895
 4399SOL    HW114096   2.400   1.748   1.796
 4399SOL    HW214097   2.304   1.780   1.924
 4400SOL     OW14098   3.416   5.964   4.491
 4400SOL    HW114099   3.350   5.910   4.544
 4400SOL    HW214100   3.377   5.987   4.402
 4401SOL     OW14101   5.249   6.610   4.389
 4401SOL    HW114102   5.258   6.663   4.305
 4401SOL    HW214103   5.157   6.571   4.394
 4402SOL     OW14104   6.691   0.674   3.332
 4402SOL    HW114105   6.776   0.621   3.340
 4402SOL    HW214106   6.648   0.683   3.422
 4403SOL     OW14107   0.546   6.752   2.648
 4403SOL    HW114108   0.450   6.778   2.637
 4403SOL    HW214109   0.571   6.687   2.577
 4404SOL     OW14110   1.600   4.039   3.438
 4404SOL    HW114111   1.625   3.953   3.394
 4404SOL    HW214112   1.505   4.033   3.470
 4405SOL     OW14113   3.867   4.401   5.804
 4405SOL    HW114114   3.799   4.357   5.863
 4405SOL    HW214115   3.934   4.333   5.774
 4406SOL     OW14116   5.121   3.765   1.460
 4406SOL    HW114117   5.115   3.863   1.480
 4406SOL    HW214118   5.179   3.750   1.380
 4407SOL     OW14119   6.730   6.644   6.924
 4407SOL    HW114120   6.686   6.607   7.006
 4407SOL    HW214121   6.671   6.713   6.882
 4408SOL     OW14122   4.858   6.104   0.054
 4408SOL    HW114123   4.826   6.182   0.108
 4408SOL    HW214124   4.919   6.048   0.110
 4409SOL     OW14125   3.047   1.589   2.287
 4409SOL    HW114126   3.090   1.595   2.197
 4409SOL    HW214127   3.117   1.575   2.357
 4410SOL     OW14128   2.204   5.413   2.076
 4410SOL    HW114129   2.254   5.490   2.037
 4410SOL    HW214130   2.181   5.348   2.004
 4411SOL     OW14131   3.767   3.246   2.356
 4411SOL    HW114132   3.773   3.154   2.315
 4411SOL    HW214133   3.855   3.293   2.344
 4412SOL     OW14134   3.695   1.795   6.298
 4412SOL    HW114135   3.711   1.840   6.386
 4412SOL    HW214136   3.641   1.855   6.240
 4413SOL     OW14137   3.758   5.573   4.292
 4413SOL    HW114138   3.787   5.599   4.200
 4413SOL    HW214139   3.698   5.643   4.330
 4414SOL     OW14140   3.677   5.282   2.415
 4414SOL    HW114141   3.661   5.379   2.403
 4414SOL    HW214142   3.700   5.240   2.327
 4415SOL     OW14143   4.795   2.347   0.536
 4415SOL    HW114144   4.800   2.251   0.563
 4415SOL    HW214145   4.699   2.376   0.533
 4416SOL     OW14146   3.910   0.926   3.462
 4416SOL    HW114147   3.968   0.914   3.543
 4416SOL    HW214148   3.855   1.009   3.473
 4417SOL     OW14149   0.396   0.503   1.233
 4417SOL    HW114150   0.417   0.535   1.140
 4417SOL    HW214151   0.397   0.580   1.296
 4418SOL     OW14152   3.764   0.130   3.367
 4418SOL    HW114153   3.809   0.219   3.362
 4418SOL    HW214154   3.688   0.127   3.302
 4419SOL     OW14155   0.121   5.203   0.034
 4419SOL    HW114156   0.056   5.134   0.003
 4419SOL    HW214157   0.206   5.159   0.063
 4420SOL     OW14158   4.741   1.310   6.414
 4420SOL    HW114159   4.772   1.388   6.360
 4420SOL    HW214160   4.779   1.226   6.376
 4421SOL     OW14161   1.982   1.441   3.533
 4421SOL    HW114162   1.987   1.345   3.561
 4421SOL    HW214163   2.073   1.482   3.538
 4422SOL     OW14164   2.235   3.860   5.860
 4422SOL    HW114165   2.232   3.780   5.800
 4422SOL    HW214166   2.326   3.867   5.901
 4423SOL     OW14167   0.710   1.515   6.572
 4423SOL    HW114168   0.758   1.444   6.624
 4423SOL    HW214169   0.625   1.539   6.618
 4424SOL     OW14170   0.088   6.479   3.624
 4424SOL    HW114171   0.188   6.482   3.625
 4424SOL    HW214172   0.054   6.510   3.535
 4425SOL     OW14173   4.661   4.370   6.909
 4425SOL    HW114174   4.689   4.281   6.875
 4425SOL    HW214175   4.565   4.367   6.935
 4426SOL     OW14176   1.015   0.794   5.234
 4426SOL    HW114177   1.096   0.735   5.241
 4426SOL    HW214178   1.043   0.887   5.213
 4427SOL     OW14179   1.004   6.897   3.693
 4427SOL    HW114180   1.002   6.815   3.637
 4427SOL    HW214181   0.911   6.928   3.712
 4428SOL     OW14182   2.772   5.785   3.506
 4428SOL    HW114183   2.791   5.883   3.493
 4428SOL    HW214184   2.857   5.735   3.519
 4429SOL     OW14185   4.110   7.020   3.071
 4429SOL    HW114186   4.122   6.935   3.123
 4429SOL    HW214187   4.188   0.005   3.009
 4430SOL     OW14188   1.223   1.035   1.848
 4430SOL    HW114189   1.261   1.115   1.894
 4430SOL    HW214190   1.260   1.027   1.756
 4431SOL     OW14191   1.833   1.903   2.899
 4431SOL    HW114192   1.796   1.819   2.859
 4431SOL    HW214193   1.884   1.881   2.983
 4432SOL     OW14194   2.905   3.401   2.948
 4432SOL    HW114195   2.939   3.447   2.866
 4432SOL    HW214196   2.845   3.464   2.998
 4433SOL     OW14197   6.511   0.505   3.103
 4433SOL    HW114198   6.513   0.448   3.185
 4433SOL    HW214199   6.564   0.588   3.120
 4434SOL     OW14200   5.053   2.138   4.276
 4434SOL    HW114201   5.052   2.188   4.190
 4434SOL    HW214202   4.977   2.169   4.334
 4435SOL     OW14203   3.649   2.807   1.918
 4435SOL    HW114204   3.667   2.726   1.863
 4435SOL    HW214205   3.552   2.811   1.941
 4436SOL     OW14206   5.178   0.838   0.060
 4436SOL    HW114207   5.111   0.833   7.012
 4436SOL    HW214208   5.260   0.788   0.034
 4437SOL     OW14209   3.693   6.967   4.443
 4437SOL    HW114210   3.771   6.954   4.382
 4437SOL    HW214211   3.662   0.035   4.439
 4438SOL     OW14212   3.910   3.725   6.187
 4438SOL    HW114213   3.885   3.638   6.144
 4438SOL    HW214214   3.859   3.736   6.272
 4439SOL     OW14215   2.088   5.283   2.290
 4439SOL    HW114216   2.083   5.366   2.346
 4439SOL    HW214217   2.145   5.302   2.209
 4440SOL     OW14218   0.198   0.640   6.218
 4440SOL    HW114219   0.154   0.682   6.297
 4440SOL    HW214220   0.152   0.555   6.195
 4441SOL     OW14221   5.687   2.591   2.940
 4441SOL    HW114222   5.594   2.625   2.929
 4441SOL    HW214223   5.694   2.500   2.900
 4442SOL     OW14224   2.506   6.364   2.571
 4442SOL    HW114225   2.571   6.392   2.642
 4442SOL    HW214226   2.421   6.416   2.581
 4443SOL     OW14227   2.411   1.566   5.493
 4443SOL    HW114228   2.460   1.645   5.455
 4443SOL    HW214229   2.313   1.583   5.488
 4444SOL     OW14230   4.917   0.462   2.509
 4444SOL    HW114231   4.903   0.364   2.498
 4444SOL    HW214232   4.833   0.510   2.483
 4445SOL     OW14233   1.817   1.368   6.594
 4445SOL    HW114234   1.893   1.309   6.624
 4445SOL    HW214235   1.736   1.349   6.650
 4446SOL     OW14236   6.468   5.995   4.151
 4446SOL    HW114237   6.380   5.953   4.130
 4446SOL    HW214238   6.500   6.047   4.073
 4447SOL     OW14239   4.876   3.322   5.024
 4447SOL    HW114240   4.872   3.322   5.123
 4447SOL    HW214241   4.868   3.416   4.990
 4448SOL     OW14242   2.974   2.897   6.145
 4448SOL    HW114243   3.049   2.846   6.188
 4448SOL    HW214244   2.996   2.913   6.049
 4449SOL     OW14245   0.825   1.677   5.060
 4449SOL    HW114246   0.779   1.606   5.113
 4449SOL    HW214247   0.758   1.741   5.024
 4450SOL     OW14248   3.916   3.901   3.420
 4450SOL    HW114249   3.917   3.951   3.334
 4450SOL    HW214250   3.893   3.964   3.495
 4451SOL     OW14251   6.306   4.428   2.238
 4451SOL    HW114252   6.382   4.443   2.302
 4451SOL    HW214253   6.343   4.410   2.147
 4452SOL     OW14254   6.275   5.511   6.210
 4452SOL    HW114255   6.279   5.432   6.271
 4452SOL    HW214256   6.331   5.493   6.129
 4453SOL     OW14257   5.553   1.857   1.334
 4453SOL    HW114258   5.644   1.874   1.295
 4453SOL    HW214259   5.498   1.940   1.331
 4454SOL     OW14260   4.912   3.314   1.528
 4454SOL    HW114261   4.956   3.270   1.607
 4454SOL    HW214262   4.928   3.413   1.532
 4455SOL     OW14263   4.180   1.651   1.774
 4455SOL    HW114264   4.266   1.602   1.760
 4455SOL    HW214265   4.142   1.628   1.864
 4456SOL     OW14266   0.584   5.533   3.214
 4456SOL    HW114267   0.633   5.532   3.301
 4456SOL    HW214268   0.606   5.451   3.162
 4457SOL     OW14269   5.065   2.145   6.473
 4457SOL    HW114270   5.164   2.156   6.466
 4457SOL    HW214271   5.020   2.232   6.450
 4458SOL     OW14272   3.823   1.552   6.332
 4458SOL    HW114273   3.745   1.488   6.333
 4458SOL    HW214274   3.789   1.646   6.328
 4459SOL     OW14275   5.004   6.343   5.580
 4459SOL    HW114276   4.934   6.272   5.593
 4459SOL    HW214277   4.960   6.427   5.546
 4460SOL     OW14278   1.899   1.654   6.559
 4460SOL    HW114279   1.998   1.664   6.553
 4460SOL    HW214280   1.873   1.561   6.530
 4461SOL     OW14281   2.347   0.004   2.070
 4461SOL    HW114282   2.397   0.073   2.123
 4461SOL    HW214283   2.250   0.029   2.067
 4462SOL     OW14284   6.740   5.834   1.851
 4462SOL    HW114285   6.729   5.770   1.927
 4462SOL    HW214286   6.837   5.850   1.835
 4463SOL     OW14287   1.450   3.528   6.045
 4463SOL    HW114288   1.364   3.554   6.091
 4463SOL    HW214289   1.459   3.429   6.047
 4464SOL     OW14290   5.835   3.486   6.510
 4464SOL    HW114291   5.912   3.518   6.565
 4464SOL    HW214292   5.842   3.388   6.495
 4465SOL     OW14293   1.399   5.820   2.441
 4465SOL    HW114294   1.349   5.826   2.355
 4465SOL    HW214295   1.449   5.733   2.445
 4466SOL     OW14296   0.701   2.311   4.010
 4466SOL    HW114297   0.800   2.305   4.020
 4466SOL    HW214298   0.664   2.221   3.985
 4467SOL     OW14299   0.836   6.979   2.924
 4467SOL    HW114300   0.785   6.893   2.916
 4467SOL    HW214301   0.933   6.961   2.910
 4468SOL     OW14302   1.451   2.662   0.171
 4468SOL    HW114303   1.510   2.672   0.252
 4468SOL    HW214304   1.377   2.599   0.192
 4469SOL     OW14305   4.517   0.111   6.867
 4469SOL    HW114306   4.469   0.146   6.947
 4469SOL    HW214307   4.610   0.084   6.893
 4470SOL     OW14308   4.681   4.928   1.225
 4470SOL    HW114309   4.651   4.941   1.319
 4470SOL    HW214310   4.778   4.951   1.218
 4471SOL     OW14311   6.730   3.603   0.315
 4471SOL    HW114312   6.710   3.667   0.388
 4471SOL    HW214313   6.654   3.601   0.250
 4472SOL     OW14314   1.851   4.944   1.690
 4472SOL    HW114315   1.934   4.998   1.680
 4472SOL    HW214316   1.874   4.847   1.692
 4473SOL     OW14317   0.601   6.614   5.597
 4473SOL    HW114318   0.568   6.706   5.575
 4473SOL    HW214319   0.681   6.593   5.542
 4474SOL     OW14320   5.185   0.853   3.567
 4474SOL    HW114321   5.281   0.829   3.553
 4474SOL    HW214322   5.168   0.866   3.665
 4475SOL     OW14323   1.797   3.940   0.409
 4475SOL    HW114324   1.839   3.858   0.369
 4475SOL    HW214325   1.700   3.944   0.382
 4476SOL     OW14326   4.446   6.661   2.050
 4476SOL    HW114327   4.369   6.662   2.113
 4476SOL    HW214328   4.443   6.576   1.996
 4477SOL     OW14329   1.369   1.073   0.252
 4477SOL    HW114330   1.422   1.138   0.307
 4477SOL    HW214331   1.381   0.981   0.289
 4478SOL     OW14332   1.388   5.519   2.434
 4478SOL    HW114333   1.385   5.422   2.458
 4478SOL    HW214334   1.297   5.550   2.407
 4479SOL     OW14335   0.564   6.972   5.037
 4479SOL    HW114336   0.549   6.874   5.034
 4479SOL    HW214337   0.539   7.013   4.949
 4480SOL     OW14338   0.680   4.537   3.558
 4480SOL    HW114339   0.773   4.563   3.582
 4480SOL    HW214340   0.616   4.577   3.623
 4481SOL     OW14341   1.164   0.161   4.171
 4481SOL    HW114342   1.253   0.139   4.211
 4481SOL    HW214343   1.178   0.206   4.083
 4482SOL     OW14344   6.964   3.740   3.927
 4482SOL    HW114345   7.024   3.660   3.920
 4482SOL    HW214346   6.958   3.769   4.023
 4483SOL     OW14347   5.462   2.520   1.907
 4483SOL    HW114348   5.421   2.429   1.895
 4483SOL    HW214349   5.390   2.586   1.930
 4484SOL     OW14350   4.056   2.696   5.623
 4484SOL    HW114351   3.960   2.696   5.650
 4484SOL    HW214352   4.065   2.732   5.530
 4485SOL     OW14353   4.988   1.571   6.621
 4485SOL    HW114354   5.065   1.511   6.641
 4485SOL    HW214355   5.013   1.635   6.548
 4486SOL     OW14356   6.403   2.332   4.284
 4486SOL    HW114357   6.433   2.309   4.192
 4486SOL    HW214358   6.331   2.402   4.279
 4487SOL     OW14359   3.061   3.220   6.489
 4487SOL    HW114360   2.987   3.160   6.460
 4487SOL    HW214361   3.111   3.177   6.564
 4488SOL     OW14362   0.679   1.481   5.192
 4488SOL    HW114363   0.588   1.461   5.155
 4488SOL    HW214364   0.699   1.419   5.268
 4489SOL     OW14365   6.264   0.207   3.714
 4489SOL    HW114366   6.260   0.135   3.783
 4489SOL    HW214367   6.357   0.214   3.679
 4490SOL     OW14368   6.937   2.422   3.765
 4490SOL    HW114369   7.002   2.346   3.771
 4490SOL    HW214370   6.851   2.395   3.809
 4491SOL     OW14371   1.466   3.179   3.071
 4491SOL    HW114372   1.524   3.237   3.130
 4491SOL    HW214373   1.374   3.175   3.110
 4492SOL     OW14374   4.572   3.703   6.443
 4492SOL    HW114375   4.473   3.713   6.453
 4492SOL    HW214376   4.599   3.612   6.473
 4493SOL     OW14377   6.206   5.365   3.852
 4493SOL    HW114378   6.106   5.367   3.863
 4493SOL    HW214379   6.230   5.398   3.761
 4494SOL     OW14380   5.931   3.707   3.791
 4494SOL    HW114381   5.848   3.654   3.808
 4494SOL    HW214382   6.010   3.645   3.792
 4495SOL     OW14383   4.973   6.261   1.469
 4495SOL    HW114384   4.973   6.293   1.374
 4495SOL    HW214385   5.065   6.231   1.494
 4496SOL     OW14386   5.142   4.473   5.504
 4496SOL    HW114387   5.102   4.396   5.454
 4496SOL    HW214388   5.136   4.455   5.603
 4497SOL     OW14389   6.055   4.935   0.721
 4497SOL    HW114390   6.079   4.889   0.635
 4497SOL    HW214391   6.129   4.923   0.787
 4498SOL     OW14392   0.186   4.353   6.889
 4498SOL    HW114393   0.256   4.284   6.875
 4498SOL    HW214394   0.218   4.441   6.854
 4499SOL     OW14395   0.029   3.046   6.850
 4499SOL    HW114396   0.099   2.994   6.801
 4499SOL    HW214397   0.066   3.134   6.877
 4500SOL     OW14398   3.680   4.056   4.465
 4500SOL    HW114399   3.758   4.006   4.428
 4500SOL    HW214400   3.638   4.110   4.391
 4501SOL     OW14401   0.557   4.234   4.942
 4501SOL    HW114402   0.506   4.246   4.857
 4501SOL    HW214403   0.606   4.147   4.939
 4502SOL     OW14404   0.118   3.470   0.321
 4502SOL    HW114405   0.196   3.517   0.363
 4502SOL    HW214406   0.146   3.377   0.295
 4503SOL     OW14407   1.708   1.934   3.346
 4503SOL    HW114408   1.637   2.003   3.332
 4503SOL    HW214409   1.723   1.921   3.444
 4504SOL     OW14410   4.915   2.433   4.728
 4504SOL    HW114411   4.891   2.526   4.700
 4504SOL    HW214412   4.831   2.382   4.745
 4505SOL     OW14413   1.805   5.057   5.916
 4505SOL    HW114414   1.739   5.018   5.851
 4505SOL    HW214415   1.868   4.986   5.947
 4506SOL     OW14416   4.074   0.198   5.286
 4506SOL    HW114417   4.105   0.223   5.378
 4506SOL    HW214418   4.144   0.223   5.219
 4507SOL     OW14419   6.524   4.533   0.916
 4507SOL    HW114420   6.475   4.460   0.964
 4507SOL    HW214421   6.514   4.618   0.967
 4508SOL     OW14422   1.623   3.707   0.820
 4508SOL    HW114423   1.696   3.647   0.790
 4508SOL    HW214424   1.661   3.796   0.845
 4509SOL     OW14425   1.286   2.123   3.536
 4509SOL    HW114426   1.369   2.159   3.578
 4509SOL    HW214427   1.242   2.059   3.600
 4510SOL     OW14428   3.977   6.441   4.987
 4510SOL    HW114429   3.970   6.522   4.930
 4510SOL    HW214430   3.920   6.452   5.069
 4511SOL     OW14431   5.708   2.528   6.940
 4511SOL    HW114432   5.700   2.624   6.964
 4511SOL    HW214433   5.731   2.474   7.021
 4512SOL     OW14434   2.857   5.208   7.012
 4512SOL    HW114435   2.848   5.147   0.064
 4512SOL    HW214436   2.887   5.156   6.932
 4513SOL     OW14437   5.047   0.716   1.996
 4513SOL    HW114438   5.144   0.704   2.016
 4513SOL    HW214439   5.036   0.755   1.904
 4514SOL     OW14440   3.257   1.634   4.883
 4514SOL    HW114441   3.336   1.588   4.922
 4514SOL    HW214442   3.286   1.689   4.805
 4515SOL     OW14443   0.460   5.086   1.113
 4515SOL    HW114444   0.367   5.121   1.121
 4515SOL    HW214445   0.483   5.075   1.016
 4516SOL     OW14446   1.016   0.492   5.090
 4516SOL    HW114447   0.983   0.573   5.041
 4516SOL    HW214448   1.023   0.415   5.027
 4517SOL     OW14449   3.518   6.748   5.094
 4517SOL    HW114450   3.466   6.663   5.094
 4517SOL    HW214451   3.472   6.815   5.151
 4518SOL     OW14452   0.927   1.747   4.490
 4518SOL    HW114453   0.969   1.733   4.401
 4518SOL    HW214454   0.914   1.845   4.506
 4519SOL     OW14455   5.995   2.777   4.402
 4519SOL    HW114456   6.086   2.803   4.370
 4519SOL    HW214457   5.998   2.685   4.441
 4520SOL     OW14458   6.805   3.985   3.003
 4520SOL    HW114459   6.883   3.961   3.062
 4520SOL    HW214460   6.755   4.061   3.044
 4521SOL     OW14461   6.324   1.957   6.497
 4521SOL    HW114462   6.230   1.990   6.484
 4521SOL    HW214463   6.321   1.867   6.540
 4522SOL     OW14464   5.944   0.789   3.989
 4522SOL    HW114465   5.878   0.715   4.002
 4522SOL    HW214466   6.004   0.795   4.070
 4523SOL     OW14467   3.634   3.542   0.200
 4523SOL    HW114468   3.705   3.560   0.267
 4523SOL    HW214469   3.599   3.449   0.213
 4524SOL     OW14470   5.979   0.066   4.934
 4524SOL    HW114471   5.894   0.113   4.911
 4524SOL    HW214472   6.034   0.124   4.994
 4525SOL     OW14473   6.537   1.803   5.271
 4525SOL    HW114474   6.563   1.706   5.264
 4525SOL    HW214475   6.450   1.810   5.319
 4526SOL     OW14476   4.203   0.614   0.909
 4526SOL    HW114477   4.192   0.685   0.978
 4526SOL    HW214478   4.128   0.548   0.916
 4527SOL     OW14479   4.465   0.956   3.156
 4527SOL    HW114480   4.507   1.045   3.178
 4527SOL    HW214481   4.533   0.898   3.111
 4528SOL     OW14482   6.169   0.772   6.446
 4528SOL    HW114483   6.093   0.825   6.409
 4528SOL    HW214484   6.205   0.817   6.527
 4529SOL     OW14485   3.821   6.267   2.944
 4529SOL    HW114486   3.800   6.234   2.852
 4529SOL    HW214487   3.791   6.363   2.952
 4530SOL     OW14488   0.454   3.607   5.707
 4530SOL    HW114489   0.364   3.565   5.693
 4530SOL    HW214490   0.520   3.537   5.732
 4531SOL     OW14491   0.339   3.544   4.060
 4531SOL    HW114492   0.323   3.627   4.007
 4531SOL    HW214493   0.427   3.504   4.035
 4532SOL     OW14494   5.962   2.090   1.127
 4532SOL    HW114495   5.908   2.162   1.171
 4532SOL    HW214496   6.057   2.096   1.159
 4533SOL     OW14497   2.589   6.099   2.890
 4533SOL    HW114498   2.649   6.115   2.812
 4533SOL    HW214499   2.613   6.161   2.964
 4534SOL     OW14500   5.817   4.119   5.776
 4534SOL    HW114501   5.846   4.095   5.683
 4534SOL    HW214502   5.894   4.157   5.826
 4535SOL     OW14503   4.879   2.958   1.761
 4535SOL    HW114504   4.930   2.891   1.815
 4535SOL    HW214505   4.802   2.993   1.814
 4536SOL     OW14506   6.433   1.237   4.271
 4536SOL    HW114507   6.456   1.164   4.334
 4536SOL    HW214508   6.351   1.285   4.303
 4537SOL     OW14509   3.755   3.072   5.969
 4537SOL    HW114510   3.820   3.139   5.933
 4537SOL    HW214511   3.775   2.982   5.930
 4538SOL     OW14512   2.974   0.992   2.848
 4538SOL    HW114513   2.882   0.970   2.879
 4538SOL    HW214514   3.018   1.053   2.915
 4539SOL     OW14515   1.613   1.512   2.423
 4539SOL    HW114516   1.539   1.560   2.376
 4539SOL    HW214517   1.697   1.517   2.368
 4540SOL     OW14518   3.468   2.929   4.540
 4540SOL    HW114519   3.543   2.862   4.539
 4540SOL    HW214520   3.503   3.018   4.571
 4541SOL     OW14521   5.147   1.544   1.187
 4541SOL    HW114522   5.156   1.549   1.286
 4541SOL    HW214523   5.102   1.626   1.152
 4542SOL     OW14524   4.421   0.733   3.856
 4542SOL    HW114525   4.324   0.756   3.854
 4542SOL    HW214526   4.473   0.813   3.885
 4543SOL     OW14527   5.306   1.749   1.938
 4543SOL    HW114528   5.300   1.654   1.906
 4543SOL    HW214529   5.266   1.809   1.868
 4544SOL     OW14530   3.574   4.891   6.297
 4544SOL    HW114531   3.582   4.862   6.202
 4544SOL    HW214532   3.546   4.987   6.300
 4545SOL     OW14533   4.364   2.445   5.475
 4545SOL    HW114534   4.386   2.518   5.410
 4545SOL    HW214535   4.299   2.381   5.433
 4546SOL     OW14536   1.589   6.659   5.967
 4546SOL    HW114537   1.613   6.755   5.947
 4546SOL    HW214538   1.583   6.608   5.881
 4547SOL     OW14539   4.673   2.243   1.858
 4547SOL    HW114540   4.601   2.178   1.834
 4547SOL    HW214541   4.704   2.224   1.952
 4548SOL     OW14542   1.089   3.344   3.626
 4548SOL    HW114543   1.049   3.286   3.555
 4548SOL    HW214544   1.188   3.350   3.612
 4549SOL     OW14545   5.982   2.596   2.558
 4549SOL    HW114546   5.913   2.643   2.503
 4549SOL    HW214547   6.071   2.602   2.513
 4550SOL     OW14548   1.265   6.203   4.316
 4550SOL    HW114549   1.348   6.180   4.264
 4550SOL    HW214550   1.212   6.120   4.332
 4551SOL     OW14551   0.632   2.949   5.740
 4551SOL    HW114552   0.725   2.963   5.775
 4551SOL    HW214553   0.600   3.033   5.696
 4552SOL     OW14554   0.010   3.430   4.511
 4552SOL    HW114555   0.036   3.348   4.459
 4552SOL    HW214556   0.063   3.508   4.477
 4553SOL     OW14557   4.844   4.763   0.420
 4553SOL    HW114558   4.813   4.786   0.512
 4553SOL    HW214559   4.885   4.672   0.420
 4554SOL     OW14560   5.270   0.049   2.634
 4554SOL    HW114561   5.171   0.057   2.625
 4554SOL    HW214562   5.294   0.032   2.730
 4555SOL     OW14563   5.267   1.792   0.019
 4555SOL    HW114564   5.236   1.849   6.969
 4555SOL    HW214565   5.206   1.806   0.097
 4556SOL     OW14566   4.931   1.081   4.117
 4556SOL    HW114567   4.832   1.074   4.115
 4556SOL    HW214568   4.970   0.997   4.155
 4557SOL     OW14569   5.163   0.306   5.692
 4557SOL    HW114570   5.091   0.268   5.632
 4557SOL    HW214571   5.229   0.234   5.713
 4558SOL     OW14572   6.253   3.151   6.272
 4558SOL    HW114573   6.325   3.107   6.324
 4558SOL    HW214574   6.183   3.187   6.334
 4559SOL     OW14575   1.068   6.914   0.970
 4559SOL    HW114576   0.988   6.873   1.013
 4559SOL    HW214577   1.048   6.936   0.875
 4560SOL     OW14578   4.830   3.110   2.543
 4560SOL    HW114579   4.828   3.081   2.447
 4560SOL    HW214580   4.875   3.199   2.550
 4561SOL     OW14581   2.961   0.035   6.771
 4561SOL    HW114582   3.033   6.992   6.767
 4561SOL    HW214583   2.960   0.075   6.863
 4562SOL     OW14584   2.971   5.201   6.131
 4562SOL    HW114585   2.906   5.203   6.055
 4562SOL    HW214586   2.921   5.209   6.217
 4563SOL     OW14587   6.036   2.033   6.515
 4563SOL    HW114588   5.979   2.079   6.583
 4563SOL    HW214589   5.977   1.998   6.441
 4564SOL     OW14590   1.328   5.705   0.340
 4564SOL    HW114591   1.289   5.643   0.407
 4564SOL    HW214592   1.265   5.713   0.262
 4565SOL     OW14593   2.371   0.374   4.973
 4565SOL    HW114594   2.372   0.389   4.874
 4565SOL    HW214595   2.355   0.461   5.020
 4566SOL     OW14596   0.226   1.794   0.051
 4566SOL    HW114597   0.324   1.783   0.032
 4566SOL    HW214598   0.174   1.779   6.994
 4567SOL     OW14599   6.890   1.190   0.723
 4567SOL    HW114600   6.828   1.243   0.667
 4567SOL    HW214601   6.879   1.215   0.819
 4568SOL     OW14602   3.593   4.840   5.342
 4568SOL    HW114603   3.497   4.826   5.368
 4568SOL    HW214604   3.599   4.912   5.273
 4569SOL     OW14605   0.362   1.959   4.847
 4569SOL    HW114606   0.356   2.021   4.925
 4569SOL    HW214607   0.405   2.007   4.770
 4570SOL     OW14608   0.127   4.966   4.165
 4570SOL    HW114609   0.070   4.988   4.243
 4570SOL    HW214610   0.076   4.906   4.102
 4571SOL     OW14611   3.763   2.896   4.534
 4571SOL    HW114612   3.824   2.854   4.600
 4571SOL    HW214613   3.732   2.985   4.568
 4572SOL     OW14614   1.891   5.826   1.043
 4572SOL    HW114615   1.906   5.885   0.964
 4572SOL    HW214616   1.978   5.796   1.081
 4573SOL     OW14617   5.393   0.006   1.015
 4573SOL    HW114618   5.362   0.066   0.942
 4573SOL    HW214619   5.457   0.054   1.074
 4574SOL     OW14620   0.371   4.195   2.586
 4574SOL    HW114621   0.449   4.216   2.645
 4574SOL    HW214622   0.404   4.172   2.494
 4575SOL     OW14623   6.267   0.205   2.900
 4575SOL    HW114624   6.267   0.293   2.851
 4575SOL    HW214625   6.173   0.173   2.910
 4576SOL     OW14626   2.992   5.856   5.350
 4576SOL    HW114627   3.082   5.859   5.393
 4576SOL    HW214628   2.996   5.901   5.261
 4577SOL     OW14629   0.818   2.978   3.504
 4577SOL    HW114630   0.862   2.979   3.593
 4577SOL    HW214631   0.868   2.918   3.442
 4578SOL     OW14632   6.714   3.885   3.829
 4578SOL    HW114633   6.660   3.860   3.749
 4578SOL    HW214634   6.766   3.805   3.860
 4579SOL     OW14635   5.404   1.820   4.068
 4579SOL    HW114636   5.496   1.848   4.096
 4579SOL    HW214637   5.340   1.835   4.143
 4580SOL     OW14638   6.929   5.531   0.482
 4580SOL    HW114639   6.887   5.519   0.393
 4580SOL    HW214640   6.891   5.465   0.547
 4581SOL     OW14641   3.474   5.841   2.936
 4581SOL    HW114642   3.500   5.787   2.855
 4581SOL    HW214643   3.412   5.914   2.908
 4582SOL     OW14644   4.274   6.664   2.278
 4582SOL    HW114645   4.320   6.739   2.323
 4582SOL    HW214646   4.210   6.620   2.341
 4583SOL     OW14647   4.701   1.380   5.451
 4583SOL    HW114648   4.665   1.396   5.358
 4583SOL    HW214649   4.635   1.414   5.518
 4584SOL     OW14650   0.252   5.008   5.332
 4584SOL    HW114651   0.215   5.053   5.251
 4584SOL    HW214652   0.328   5.063   5.368
 4585SOL     OW14653   4.058   6.534   2.420
 4585SOL    HW114654   4.050   6.627   2.455
 4585SOL    HW214655   4.106   6.477   2.487
 4586SOL     OW14656   3.221   5.585   2.027
 4586SOL    HW114657   3.122   5.595   2.026
 4586SOL    HW214658   3.249   5.527   1.950
 4587SOL     OW14659   2.214   4.169   1.287
 4587SOL    HW114660   2.213   4.213   1.377
 4587SOL    HW214661   2.198   4.237   1.216
 4588SOL     OW14662   4.232   3.780   5.216
 4588SOL    HW114663   4.212   3.704   5.155
 4588SOL    HW214664   4.157   3.845   5.215
 4589SOL     OW14665   6.542   1.996   4.391
 4589SOL    HW114666   6.561   2.040   4.479
 4589SOL    HW214667   6.509   1.902   4.407
 4590SOL     OW14668   4.942   5.575   2.734
 4590SOL    HW114669   4.859   5.623   2.705
 4590SOL    HW214670   5.002   5.639   2.781
 4591SOL     OW14671   5.556   5.713   5.317
 4591SOL    HW114672   5.553   5.638   5.383
 4591SOL    HW214673   5.463   5.741   5.293
 4592SOL     OW14674   4.119   2.102   6.144
 4592SOL    HW114675   4.044   2.097   6.209
 4592SOL    HW214676   4.205   2.117   6.192
 4593SOL     OW14677   3.829   5.777   2.647
 4593SOL    HW114678   3.798   5.866   2.612
 4593SOL    HW214679   3.862   5.788   2.740
 4594SOL     OW14680   2.708   0.961   2.041
 4594SOL    HW114681   2.755   0.883   2.081
 4594SOL    HW214682   2.678   0.938   1.949
 4595SOL     OW14683   4.448   2.363   5.711
 4595SOL    HW114684   4.366   2.409   5.745
 4595SOL    HW214685   4.451   2.369   5.611
 4596SOL     OW14686   5.893   0.012   1.492
 4596SOL    HW114687   5.895   0.088   1.557
 4596SOL    HW214688   5.931   0.042   1.404
 4597SOL     OW14689   6.412   4.587   6.673
 4597SOL    HW114690   6.466   4.656   6.721
 4597SOL    HW214691   6.359   4.631   6.601
 4598SOL     OW14692   3.108   4.997   0.100
 4598SOL    HW114693   3.018   4.998   0.143
 4598SOL    HW214694   3.099   5.018   0.003
 4599SOL     OW14695   1.287   4.629   0.537
 4599SOL    HW114696   1.340   4.694   0.482
 4599SOL    HW214697   1.265   4.671   0.625
 4600SOL     OW14698   3.038   5.531   1.188
 4600SOL    HW114699   2.970   5.605   1.185
 4600SOL    HW214700   2.995   5.445   1.162
 4601SOL     OW14701   1.849   6.333   5.064
 4601SOL    HW114702   1.779   6.313   4.996
 4601SOL    HW214703   1.866   6.431   5.068
 4602SOL     OW14704   1.753   0.477   1.129
 4602SOL    HW114705   1.769   0.552   1.194
 4602SOL    HW214706   1.699   0.511   1.052
 4603SOL     OW14707   3.397   0.041   1.997
 4603SOL    HW114708   3.420   0.039   1.900
 4603SOL    HW214709   3.346   6.985   2.020
 4604SOL     OW14710   3.513   6.798   2.211
 4604SOL    HW114711   3.431   6.854   2.210
 4604SOL    HW214712   3.579   6.836   2.277
 4605SOL     OW14713   4.980   0.209   5.437
 4605SOL    HW114714   4.950   0.113   5.442
 4605SOL    HW214715   4.946   0.250   5.353
 4606SOL     OW14716   6.939   6.198   5.380
 4606SOL    HW114717   7.002   6.137   5.427
 4606SOL    HW214718   6.888   6.252   5.447
 4607SOL     OW14719   2.657   2.430   1.151
 4607SOL    HW114720   2.745   2.459   1.189
 4607SOL    HW214721   2.590   2.424   1.226
 4608SOL     OW14722   1.565   3.654   5.670
 4608SOL    HW114723   1.542   3.675   5.765
 4608SOL    HW214724   1.566   3.555   5.657
 4609SOL     OW14725   4.548   6.887   6.038
 4609SOL    HW114726   4.500   6.908   6.124
 4609SOL    HW214727   4.645   6.874   6.057
 4610SOL     OW14728   0.711   3.061   6.328
 4610SOL    HW114729   0.686   2.965   6.323
 4610SOL    HW214730   0.689   3.097   6.418
 4611SOL     OW14731   1.067   3.972   0.058
 4611SOL    HW114732   1.070   4.035   7.008
 4611SOL    HW214733   1.088   3.879   0.026
 4612SOL     OW14734   2.200   0.276   6.475
 4612SOL    HW114735   2.215   0.229   6.562
 4612SOL    HW214736   2.275   0.341   6.459
 4613SOL     OW14737   2.909   5.472   2.186
 4613SOL    HW114738   2.962   5.388   2.184
 4613SOL    HW214739   2.832   5.462   2.249
 4614SOL     OW14740   2.060   5.612   0.237
 4614SOL    HW114741   2.101   5.680   0.298
 4614SOL    HW214742   1.982   5.653   0.189
 4615SOL     OW14743   0.153   2.451   0.392
 4615SOL    HW114744   0.244   2.479   0.361
 4615SOL    HW214745   0.154   2.353   0.412
 4616SOL     OW14746   5.830   1.071   6.600
 4616SOL    HW114747   5.824   1.064   6.700
 4616SOL    HW214748   5.808   0.982   6.559
 4617SOL     OW14749   0.288   2.770   1.972
 4617SOL    HW114750   0.299   2.671   1.981
 4617SOL    HW214751   0.194   2.795   1.991
 4618SOL     OW14752   0.914   2.034   6.197
 4618SOL    HW114753   0.850   2.088   6.142
 4618SOL    HW214754   0.901   1.937   6.178
 4619SOL     OW14755   3.425   0.874   3.547
 4619SOL    HW114756   3.401   0.899   3.641
 4619SOL    HW214757   3.503   0.812   3.548
 4620SOL     OW14758   2.091   3.774   6.324
 4620SOL    HW114759   2.133   3.766   6.233
 4620SOL    HW214760   2.131   3.706   6.385
 4621SOL     OW14761   0.243   5.889   6.203
 4621SOL    HW114762   0.321   5.832   6.177
 4621SOL    HW214763   0.271   5.985   6.209
 4622SOL     OW14764   2.289   3.573   1.034
 4622SOL    HW114765   2.217   3.604   0.972
 4622SOL    HW214766   2.286   3.627   1.118
 4623SOL     OW14767   6.010   4.436   2.218
 4623SOL    HW114768   6.105   4.455   2.192
 4623SOL    HW214769   5.953   4.434   2.136
 4624SOL     OW14770   4.670   0.109   5.480
 4624SOL    HW114771   4.758   0.071   5.453
 4624SOL    HW214772   4.606   0.034   5.499
 4625SOL     OW14773   0.746   3.208   6.844
 4625SOL    HW114774   0.761   3.279   6.775
 4625SOL    HW214775   0.669   3.235   6.902
 4626SOL     OW14776   6.244   4.911   1.338
 4626SOL    HW114777   6.222   4.964   1.257
 4626SOL    HW214778   6.176   4.930   1.409
 4627SOL     OW14779   2.629   0.347   6.589
 4627SOL    HW114780   2.571   0.266   6.600
 4627SOL    HW214781   2.722   0.318   6.566
 4628SOL     OW14782   0.067   3.878   1.930
 4628SOL    HW114783   0.047   3.958   1.986
 4628SOL    HW214784   0.001   3.806   1.950
 4629SOL     OW14785   2.801   4.703   5.693
 4629SOL    HW114786   2.837   4.736   5.780
 4629SOL    HW214787   2.839   4.612   5.674
 4630SOL     OW14788   1.849   6.971   2.846
 4630SOL    HW114789   1.831   6.895   2.909
 4630SOL    HW214790   1.894   0.019   2.895
 4631SOL     OW14791   2.965   6.805   2.243
 4631SOL    HW114792   3.010   6.878   2.193
 4631SOL    HW214793   2.926   6.739   2.178
 4632SOL     OW14794   4.937   5.531   4.288
 4632SOL    HW114795   4.968   5.438   4.307
 4632SOL    HW214796   4.958   5.590   4.366
 4633SOL     OW14797   6.257   1.900   5.080
 4633SOL    HW114798   6.283   1.947   5.165
 4633SOL    HW214799   6.282   1.957   5.002
 4634SOL     OW14800   3.089   4.432   0.692
 4634SOL    HW114801   3.052   4.394   0.607
 4634SOL    HW214802   3.189   4.433   0.687
 4635SOL     OW14803   5.381   3.926   1.428
 4635SOL    HW114804   5.407   3.833   1.404
 4635SOL    HW214805   5.390   3.985   1.348
 4636SOL     OW14806   2.174   5.287   0.794
 4636SOL    HW114807   2.133   5.350   0.728
 4636SOL    HW214808   2.120   5.286   0.878
 4637SOL     OW14809   1.548   1.159   5.294
 4637SOL    HW114810   1.503   1.070   5.285
 4637SOL    HW214811   1.605   1.176   5.213
 4638SOL     OW14812   5.145   3.472   5.938
 4638SOL    HW114813   5.106   3.560   5.964
 4638SOL    HW214814   5.218   3.487   5.871
 4639SOL     OW14815   6.745   3.675   5.306
 4639SOL    HW114816   6.707   3.759   5.346
 4639SOL    HW214817   6.672   3.623   5.263
 4640SOL     OW14818   5.818   4.172   2.901
 4640SOL    HW114819   5.824   4.210   2.809
 4640SOL    HW214820   5.898   4.201   2.954
 4641SOL     OW14821   2.353   4.718   5.654
 4641SOL    HW114822   2.386   4.731   5.561
 4641SOL    HW214823   2.324   4.623   5.666
 4642SOL     OW14824   5.738   6.200   4.402
 4642SOL    HW114825   5.660   6.164   4.351
 4642SOL    HW214826   5.782   6.125   4.453
 4643SOL     OW14827   4.057   2.779   1.179
 4643SOL    HW114828   4.108   2.781   1.093
 4643SOL    HW214829   3.965   2.743   1.162
 4644SOL     OW14830   2.212   5.385   4.916
 4644SOL    HW114831   2.277   5.353   4.848
 4644SOL    HW214832   2.260   5.439   4.985
 4645SOL     OW14833   1.658   5.993   4.915
 4645SOL    HW114834   1.572   5.965   4.958
 4645SOL    HW214835   1.734   5.974   4.978
 4646SOL     OW14836   3.646   0.659   1.513
 4646SOL    HW114837   3.546   0.657   1.518
 4646SOL    HW214838   3.676   0.613   1.430
 4647SOL     OW14839   6.511   0.189   4.897
 4647SOL    HW114840   6.432   0.130   4.879
 4647SOL    HW214841   6.572   0.143   4.961
 4648SOL     OW14842   2.070   5.722   2.788
 4648SOL    HW114843   2.003   5.738   2.715
 4648SOL    HW214844   2.043   5.643   2.841
 4649SOL     OW14845   5.379   0.094   5.714
 4649SOL    HW114846   5.420   0.086   5.805
 4649SOL    HW214847   5.332   0.009   5.691
 4650SOL     OW14848   6.878   4.656   2.149
 4650SOL    HW114849   6.916   4.672   2.241
 4650SOL    HW214850   6.919   4.721   2.085
 4651SOL     OW14851   0.346   2.241   1.223
 4651SOL    HW114852   0.307   2.223   1.313
 4651SOL    HW214853   0.340   2.158   1.167
 4652SOL     OW14854   7.004   6.111   6.108
 4652SOL    HW114855   6.909   6.089   6.128
 4652SOL    HW214856   0.011   6.176   6.176
 4653SOL     OW14857   0.522   5.905   0.052
 4653SOL    HW114858   0.484   5.815   0.074
 4653SOL    HW214859   0.455   5.957   7.025
 4654SOL     OW14860   1.103   1.278   6.847
 4654SOL    HW114861   1.047   1.236   6.918
 4654SOL    HW214862   1.158   1.352   6.886
 4655SOL     OW14863   0.260   5.034   3.671
 4655SOL    HW114864   0.217   5.119   3.641
 4655SOL    HW214865   0.346   5.021   3.622
 4656SOL     OW14866   1.892   6.695   3.388
 4656SOL    HW114867   1.794   6.679   3.404
 4656SOL    HW214868   1.918   6.782   3.429
 4657SOL     OW14869   6.127   0.119   0.045
 4657SOL    HW114870   6.087   0.209   0.027
 4657SOL    HW214871   6.188   0.124   0.124
 4658SOL     OW14872   5.493   0.515   3.223
 4658SOL    HW114873   5.521   0.590   3.283
 4658SOL    HW214874   5.553   0.513   3.142
 4659SOL     OW14875   2.134   2.248   4.751
 4659SOL    HW114876   2.037   2.269   4.756
 4659SOL    HW214877   2.147   2.149   4.750
 4660SOL     OW14878   0.131   0.664   5.868
 4660SOL    HW114879   0.148   0.683   5.964
 4660SOL    HW214880   0.043   0.618   5.858
 4661SOL     OW14881   4.049   3.559   3.412
 4661SOL    HW114882   3.982   3.633   3.408
 4661SOL    HW214883   4.061   3.521   3.320
 4662SOL     OW14884   4.715   0.713   4.755
 4662SOL    HW114885   4.796   0.654   4.766
 4662SOL    HW214886   4.642   0.680   4.814
 4663SOL     OW14887   0.235   2.094   2.355
 4663SOL    HW114888   0.162   2.154   2.323
 4663SOL    HW214889   0.206   2.045   2.436
 4664SOL     OW14890   3.428   2.224   6.840
 4664SOL    HW114891   3.464   2.314   6.817
 4664SOL    HW214892   3.384   2.185   6.759
 4665SOL     OW14893   5.707   0.683   0.110
 4665SOL    HW114894   5.772   0.758   0.096
 4665SOL    HW214895   5.730   0.607   0.049
 4666SOL     OW14896   1.659   1.312   0.686
 4666SOL    HW114897   1.571   1.294   0.730
 4666SOL    HW214898   1.728   1.251   0.723
 4667SOL     OW14899   0.682   5.476   5.714
 4667SOL    HW114900   0.747   5.404   5.688
 4667SOL    HW214901   0.729   5.546   5.767
 4668SOL     OW14902   5.791   1.719   4.216
 4668SOL    HW114903   5.855   1.751   4.286
 4668SOL    HW214904   5.843   1.681   4.139
 4669SOL     OW14905   2.565   0.567   0.615
 4669SOL    HW114906   2.493   0.546   0.681
 4669SOL    HW214907   2.653   0.538   0.653
 4670SOL     OW14908   2.211   1.493   4.428
 4670SOL    HW114909   2.231   1.518   4.334
 4670SOL    HW214910   2.254   1.559   4.490
 4671SOL     OW14911   5.528   3.654   1.357
 4671SOL    HW114912   5.460   3.640   1.429
 4671SOL    HW214913   5.491   3.619   1.270
 4672SOL     OW14914   2.309   3.633   5.632
 4672SOL    HW114915   2.333   3.543   5.596
 4672SOL    HW214916   2.303   3.698   5.556
 4673SOL     OW14917   3.603   0.752   2.847
 4673SOL    HW114918   3.578   0.655   2.847
 4673SOL    HW214919   3.544   0.801   2.783
 4674SOL     OW14920   4.373   6.294   6.146
 4674SOL    HW114921   4.461   6.291   6.099
 4674SOL    HW214922   4.385   6.264   6.240
 4675SOL     OW14923   1.353   4.212   6.740
 4675SOL    HW114924   1.378   4.247   6.830
 4675SOL    HW214925   1.296   4.278   6.692
 4676SOL     OW14926   0.720   5.228   4.377
 4676SOL    HW114927   0.691   5.310   4.428
 4676SOL    HW214928   0.703   5.242   4.280
 4677SOL     OW14929   1.306   3.163   0.266
 4677SOL    HW114930   1.310   3.262   0.260
 4677SOL    HW214931   1.390   3.129   0.309
 4678SOL     OW14932   2.636   4.677   2.246
 4678SOL    HW114933   2.662   4.590   2.204
 4678SOL    HW214934   2.682   4.752   2.199
 4679SOL     OW14935   4.874   7.012   1.290
 4679SOL    HW114936   4.931   0.019   1.365
 4679SOL    HW214937   4.823   0.062   1.250
 4680SOL     OW14938   2.145   1.231   1.422
 4680SOL    HW114939   2.178   1.263   1.511
 4680SOL    HW214940   2.152   1.131   1.418
 4681SOL     OW14941   4.747   5.192   1.475
 4681SOL    HW114942   4.815   5.236   1.533
 4681SOL    HW214943   4.761   5.220   1.380
 4682SOL     OW14944   3.637   3.932   6.967
 4682SOL    HW114945   3.538   3.938   6.965
 4682SOL    HW214946   3.675   4.022   6.987
 4683SOL     OW14947   6.434   4.395   3.585
 4683SOL    HW114948   6.485   4.321   3.543
 4683SOL    HW214949   6.477   4.483   3.562
 4684SOL     OW14950   5.596   6.871   0.071
 4684SOL    HW114951   5.537   6.860   7.018
 4684SOL    HW214952   5.595   6.967   0.101
 4685SOL     OW14953   3.020   3.594   5.633
 4685SOL    HW114954   2.960   3.558   5.562
 4685SOL    HW214955   2.967   3.651   5.696
 4686SOL     OW14956   3.143   5.452   0.313
 4686SOL    HW114957   3.214   5.515   0.347
 4686SOL    HW214958   3.182   5.394   0.242
 4687SOL     OW14959   2.883   0.656   2.857
 4687SOL    HW114960   2.833   0.741   2.873
 4687SOL    HW214961   2.978   0.677   2.834
 4688SOL     OW14962   5.928   3.060   5.693
 4688SOL    HW114963   5.867   3.140   5.683
 4688SOL    HW214964   5.890   2.983   5.642
 4689SOL     OW14965   5.736   0.880   2.267
 4689SOL    HW114966   5.801   0.922   2.329
 4689SOL    HW214967   5.737   0.926   2.179
 4690SOL     OW14968   2.471   2.165   0.394
 4690SOL    HW114969   2.464   2.132   0.488
 4690SOL    HW214970   2.392   2.133   0.341
 4691SOL     OW14971   0.120   4.378   2.207
 4691SOL    HW114972   0.153   4.305   2.266
 4691SOL    HW214973   0.022   4.365   2.188
 4692SOL     OW14974   5.539   3.800   2.120
 4692SOL    HW114975   5.445   3.785   2.150
 4692SOL    HW214976   5.538   3.842   2.029
 4693SOL     OW14977   1.551   1.337   3.961
 4693SOL    HW114978   1.592   1.256   3.919
 4693SOL    HW214979   1.518   1.313   4.052
 4694SOL     OW14980   1.813   0.878   0.173
 4694SOL    HW114981   1.757   0.954   0.143
 4694SOL    HW214982   1.757   0.795   0.179
 4695SOL     OW14983   1.229   6.027   1.842
 4695SOL    HW114984   1.174   6.052   1.762
 4695SOL    HW214985   1.310   5.976   1.812
 4696SOL     OW14986   1.602   5.409   5.660
 4696SOL    HW114987   1.651   5.427   5.745
 4696SOL    HW214988   1.584   5.496   5.613
 4697SOL     OW14989   3.783   4.677   0.732
 4697SOL    HW114990   3.705   4.634   0.778
 4697SOL    HW214991   3.837   4.607   0.685
 4698SOL     OW14992   5.425   1.121   3.521
 4698SOL    HW114993   5.330   1.116   3.489
 4698SOL    HW214994   5.445   1.215   3.548
 4699SOL     OW14995   1.300   0.058   2.682
 4699SOL    HW114996   1.389   0.064   2.635
 4699SOL    HW214997   1.229   0.038   2.615
 4700SOL     OW14998   6.129   2.232   2.442
 4700SOL    HW114999   6.157   2.162   2.377
 4700SOL    HW215000   6.125   2.193   2.534
 4701SOL     OW15001   3.255   2.165   1.906
 4701SOL    HW115002   3.294   2.127   1.990
 4701SOL    HW215003   3.328   2.198   1.847
 4702SOL     OW15004   5.309   4.594   6.430
 4702SOL    HW115005   5.367   4.639   6.361
 4702SOL    HW215006   5.364   4.528   6.481
 4703SOL     OW15007   0.646   5.201   3.599
 4703SOL    HW115008   0.623   5.286   3.647
 4703SOL    HW215009   0.563   5.161   3.561
 4704SOL     OW15010   1.180   4.853   5.138
 4704SOL    HW115011   1.129   4.790   5.196
 4704SOL    HW215012   1.127   4.875   5.056
 4705SOL     OW15013   3.454   2.272   1.724
 4705SOL    HW115014   3.536   2.313   1.762
 4705SOL    HW215015   3.478   2.211   1.649
 4706SOL     OW15016   2.242   0.946   0.635
 4706SOL    HW115017   2.201   0.872   0.689
 4706SOL    HW215018   2.288   0.907   0.555
 4707SOL     OW15019   1.576   6.161   1.545
 4707SOL    HW115020   1.580   6.210   1.631
 4707SOL    HW215021   1.495   6.189   1.493
 4708SOL     OW15022   0.845   2.803   4.454
 4708SOL    HW115023   0.773   2.869   4.435
 4708SOL    HW215024   0.871   2.757   4.368
 4709SOL     OW15025   4.872   3.864   5.204
 4709SOL    HW115026   4.881   3.906   5.114
 4709SOL    HW215027   4.805   3.790   5.200
 4710SOL     OW15028   6.591   6.288   4.523
 4710SOL    HW115029   6.565   6.356   4.454
 4710SOL    HW215030   6.513   6.228   4.541
 4711SOL     OW15031   5.407   3.320   3.191
 4711SOL    HW115032   5.396   3.419   3.179
 4711SOL    HW215033   5.321   3.274   3.168
 4712SOL     OW15034   4.839   4.045   5.411
 4712SOL    HW115035   4.755   4.098   5.399
 4712SOL    HW215036   4.850   3.983   5.334
 4713SOL     OW15037   6.368   4.391   1.113
 4713SOL    HW115038   6.374   4.293   1.131
 4713SOL    HW215039   6.294   4.409   1.048
 4714SOL     OW15040   5.524   1.536   6.260
 4714SOL    HW115041   5.608   1.575   6.223
 4714SOL    HW215042   5.451   1.544   6.191
 4715SOL     OW15043   6.504   1.338   2.229
 4715SOL    HW115044   6.488   1.369   2.135
 4715SOL    HW215045   6.512   1.239   2.231
 4716SOL     OW15046   4.212   4.807   6.073
 4716SOL    HW115047   4.124   4.853   6.056
 4716SOL    HW215048   4.242   4.762   5.989
 4717SOL     OW15049   2.605   5.222   5.387
 4717SOL    HW115050   2.670   5.191   5.317
 4717SOL    HW215051   2.547   5.294   5.349
 4718SOL     OW15052   4.419   4.162   0.522
 4718SOL    HW115053   4.398   4.072   0.559
 4718SOL    HW215054   4.337   4.220   0.527
 4719SOL     OW15055   0.409   3.849   4.031
 4719SOL    HW115056   0.402   3.814   3.938
 4719SOL    HW215057   0.491   3.813   4.075
 4720SOL     OW15058   2.375   3.591   7.018
 4720SOL    HW115059   2.348   3.514   6.960
 4720SOL    HW215060   2.403   3.668   6.961
 4721SOL     OW15061   6.225   2.977   3.533
 4721SOL    HW115062   6.140   3.026   3.553
 4721SOL    HW215063   6.208   2.908   3.462
 4722SOL     OW15064   1.431   4.934   6.979
 4722SOL    HW115065   1.486   4.963   6.902
 4722SOL    HW215066   1.334   4.952   6.960
 4723SOL     OW15067   3.954   3.992   6.919
 4723SOL    HW115068   3.926   4.064   6.983
 4723SOL    HW215069   3.970   3.907   6.970
 4724SOL     OW15070   1.170   6.676   4.765
 4724SOL    HW115071   1.108   6.647   4.692
 4724SOL    HW215072   1.116   6.717   4.839
 4725SOL     OW15073   5.003   5.959   0.254
 4725SOL    HW115074   4.948   6.013   0.318
 4725SOL    HW215075   5.044   5.882   0.303
 4726SOL     OW15076   1.166   3.344   5.813
 4726SOL    HW115077   1.120   3.268   5.858
 4726SOL    HW215078   1.162   3.332   5.714
 4727SOL     OW15079   0.569   5.915   1.305
 4727SOL    HW115080   0.551   5.840   1.369
 4727SOL    HW215081   0.587   5.877   1.214
 4728SOL     OW15082   6.570   2.001   4.674
 4728SOL    HW115083   6.502   1.929   4.657
 4728SOL    HW215084   6.643   1.964   4.733
 4729SOL     OW15085   5.860   1.442   2.002
 4729SOL    HW115086   5.860   1.516   2.069
 4729SOL    HW215087   5.777   1.388   2.013
 4730SOL     OW15088   3.314   7.023   4.557
 4730SOL    HW115089   3.347   7.010   4.650
 4730SOL    HW215090   3.334   6.941   4.503
 4731SOL     OW15091   3.500   0.078   0.453
 4731SOL    HW115092   3.448   0.030   0.382
 4731SOL    HW215093   3.554   0.151   0.411
 4732SOL     OW15094   0.669   4.800   4.193
 4732SOL    HW115095   0.669   4.839   4.101
 4732SOL    HW215096   0.624   4.864   4.257
 4733SOL     OW15097   1.860   3.678   3.719
 4733SOL    HW115098   1.819   3.616   3.786
 4733SOL    HW215099   1.924   3.626   3.661
 4734SOL     OW15100   4.825   3.182   0.218
 4734SOL    HW115101   4.733   3.160   0.186
 4734SOL    HW215102   4.892   3.132   0.164
 4735SOL     OW15103   0.074   0.286   5.219
 4735SOL    HW115104   7.002   0.300   5.212
 4735SOL    HW215105   0.116   0.292   5.129
 4736SOL     OW15106   6.420   2.126   3.608
 4736SOL    HW115107   6.325   2.154   3.597
 4736SOL    HW215108   6.443   2.057   3.538
 4737SOL     OW15109   2.240   5.008   0.837
 4737SOL    HW115110   2.153   4.967   0.864
 4737SOL    HW215111   2.225   5.104   0.811
 4738SOL     OW15112   1.777   6.494   3.906
 4738SOL    HW115113   1.811   6.448   3.989
 4738SOL    HW215114   1.682   6.522   3.920
 4739SOL     OW15115   5.773   3.397   3.484
 4739SOL    HW115116   5.818   3.369   3.568
 4739SOL    HW215117   5.691   3.342   3.470
 4740SOL     OW15118   0.810   1.082   1.802
 4740SOL    HW115119   0.791   1.168   1.849
 4740SOL    HW215120   0.864   1.100   1.720
 4741SOL     OW15121   4.322   4.495   1.754
 4741SOL    HW115122   4.371   4.429   1.698
 4741SOL    HW215123   4.339   4.476   1.851
 4742SOL     OW15124   2.690   6.084   1.866
 4742SOL    HW115125   2.648   6.164   1.823
 4742SOL    HW215126   2.730   6.110   1.954
 4743SOL     OW15127   2.680   2.273   0.205
 4743SOL    HW115128   2.729   2.282   0.291
 4743SOL    HW215129   2.604   2.339   0.203
 4744SOL     OW15130   1.687   3.053   5.341
 4744SOL    HW115131   1.610   3.040   5.403
 4744SOL    HW215132   1.733   3.139   5.363
 4745SOL     OW15133   2.919   5.827   4.767
 4745SOL    HW115134   2.873   5.908   4.732
 4745SOL    HW215135   2.853   5.768   4.813
 4746SOL     OW15136   6.059   0.815   0.553
 4746SOL    HW115137   6.139   0.776   0.507
 4746SOL    HW215138   6.071   0.914   0.562
 4747SOL     OW15139   6.132   2.416   1.394
 4747SOL    HW115140   6.183   2.404   1.480
 4747SOL    HW215141   6.034   2.408   1.413
 4748SOL     OW15142   1.452   0.569   1.815
 4748SOL    HW115143   1.394   0.607   1.888
 4748SOL    HW215144   1.447   0.628   1.735
 4749SOL     OW15145   1.923   6.758   6.972
 4749SOL    HW115146   1.853   6.703   6.926
 4749SOL    HW215147   1.971   6.702   0.013
 4750SOL     OW15148   0.173   0.886   4.389
 4750SOL    HW115149   0.121   0.853   4.468
 4750SOL    HW215150   0.265   0.912   4.418
 4751SOL     OW15151   0.952   3.845   6.714
 4751SOL    HW115152   1.011   3.830   6.634
 4751SOL    HW215153   0.886   3.770   6.721
 4752SOL     OW15154   2.651   5.690   1.346
 4752SOL    HW115155   2.715   5.699   1.422
 4752SOL    HW215156   2.700   5.664   1.263
 4753SOL     OW15157   6.858   6.619   5.020
 4753SOL    HW115158   6.958   6.612   5.024
 4753SOL    HW215159   6.826   6.587   4.931
 4754SOL     OW15160   1.014   0.291   5.722
 4754SOL    HW115161   0.974   0.365   5.668
 4754SOL    HW215162   1.014   0.315   5.819
 4755SOL     OW15163   2.627   1.943   7.018
 4755SOL    HW115164   2.573   2.005   0.049
 4755SOL    HW215165   2.651   1.861   0.044
 4756SOL     OW15166   5.298   2.749   1.298
 4756SOL    HW115167   5.284   2.764   1.396
 4756SOL    HW215168   5.376   2.687   1.285
 4757SOL     OW15169   1.968   2.407   0.997
 4757SOL    HW115170   2.002   2.335   0.936
 4757SOL    HW215171   1.934   2.366   1.082
 4758SOL     OW15172   5.291   4.638   5.366
 4758SOL    HW115173   5.287   4.735   5.392
 4758SOL    HW215174   5.236   4.585   5.430
 4759SOL     OW15175   5.679   5.074   5.463
 4759SOL    HW115176   5.608   5.101   5.527
 4759SOL    HW215177   5.642   5.007   5.398
 4760SOL     OW15178   1.403   2.024   0.852
 4760SOL    HW115179   1.446   1.959   0.790
 4760SOL    HW215180   1.320   2.061   0.810
 4761SOL     OW15181   1.052   6.307   5.860
 4761SOL    HW115182   1.082   6.284   5.767
 4761SOL    HW215183   1.124   6.280   5.925
 4762SOL     OW15184   2.733   6.012   2.519
 4762SOL    HW115185   2.743   5.913   2.514
 4762SOL    HW215186   2.756   6.043   2.611
 4763SOL     OW15187   5.749   5.468   4.375
 4763SOL    HW115188   5.761   5.458   4.276
 4763SOL    HW215189   5.675   5.407   4.406
 4764SOL     OW15190   3.581   3.536   3.757
 4764SOL    HW115191   3.555   3.546   3.853
 4764SOL    HW215192   3.652   3.603   3.734
 4765SOL     OW15193   5.668   5.243   4.999
 4765SOL    HW115194   5.614   5.208   4.922
 4765SOL    HW215195   5.648   5.340   5.013
 4766SOL     OW15196   3.234   0.739   2.884
 4766SOL    HW115197   3.294   0.711   2.958
 4766SOL    HW215198   3.286   0.789   2.815
 4767SOL     OW15199   4.280   5.709   6.437
 4767SOL    HW115200   4.344   5.774   6.395
 4767SOL    HW215201   4.271   5.728   6.534
 4768SOL     OW15202   0.017   0.647   5.147
 4768SOL    HW115203   0.025   0.566   5.088
 4768SOL    HW215204   0.049   0.624   5.239
 4769SOL     OW15205   3.556   0.064   1.507
 4769SOL    HW115206   3.553   0.030   1.413
 4769SOL    HW215207   3.651   0.076   1.535
 4770SOL     OW15208   2.504   0.044   3.261
 4770SOL    HW115209   2.490   0.140   3.286
 4770SOL    HW215210   2.433   0.016   3.196
 4771SOL     OW15211   3.852   4.254   5.440
 4771SOL    HW115212   3.766   4.267   5.491
 4771SOL    HW215213   3.919   4.321   5.471
 4772SOL     OW15214   2.490   2.452   1.535
 4772SOL    HW115215   2.415   2.475   1.597
 4772SOL    HW215216   2.534   2.536   1.502
 4773SOL     OW15217   6.853   6.188   3.939
 4773SOL    HW115218   6.816   6.116   3.997
 4773SOL    HW215219   6.938   6.156   3.897
 4774SOL     OW15220   0.517   4.364   1.402
 4774SOL    HW115221   0.598   4.329   1.354
 4774SOL    HW215222   0.513   4.324   1.493
 4775SOL     OW15223   3.485   1.094   1.535
 4775SOL    HW115224   3.392   1.058   1.530
 4775SOL    HW215225   3.497   1.145   1.620
 4776SOL     OW15226   3.292   5.834   1.900
 4776SOL    HW115227   3.315   5.763   1.966
 4776SOL    HW215228   3.370   5.895   1.887
 4777SOL     OW15229   2.996   4.398   1.303
 4777SOL    HW115230   3.009   4.466   1.376
 4777SOL    HW215231   2.984   4.445   1.216
 4778SOL     OW15232   4.853   3.796   2.024
 4778SOL    HW115233   4.763   3.833   2.002
 4778SOL    HW215234   4.923   3.844   1.972
 4779SOL     OW15235   5.133   0.556   2.623
 4779SOL    HW115236   5.042   0.516   2.617
 4779SOL    HW215237   5.135   0.623   2.697
 4780SOL     OW15238   1.763   6.608   6.203
 4780SOL    HW115239   1.779   6.517   6.165
 4780SOL    HW215240   1.690   6.654   6.151
 4781SOL     OW15241   1.929   5.559   2.161
 4781SOL    HW115242   1.907   5.550   2.259
 4781SOL    HW215243   2.016   5.606   2.151
 4782SOL     OW15244   5.769   6.185   6.511
 4782SOL    HW115245   5.697   6.252   6.495
 4782SOL    HW215246   5.734   6.094   6.487
 4783SOL     OW15247   6.039   4.562   1.647
 4783SOL    HW115248   6.058   4.657   1.622
 4783SOL    HW215249   5.949   4.536   1.613
 4784SOL     OW15250   5.577   5.060   4.762
 4784SOL    HW115251   5.566   4.967   4.796
 4784SOL    HW215252   5.489   5.095   4.729
 4785SOL     OW15253   6.388   0.667   0.882
 4785SOL    HW115254   6.351   0.749   0.924
 4785SOL    HW215255   6.361   0.587   0.935
 4786SOL     OW15256   1.662   2.977   2.086
 4786SOL    HW115257   1.620   2.891   2.114
 4786SOL    HW215258   1.630   3.051   2.145
 4787SOL     OW15259   3.616   2.042   2.674
 4787SOL    HW115260   3.578   2.027   2.765
 4787SOL    HW215261   3.543   2.060   2.609
 4788SOL     OW15262   1.346   5.258   3.887
 4788SOL    HW115263   1.359   5.160   3.876
 4788SOL    HW215264   1.250   5.278   3.903
 4789SOL     OW15265   6.052   0.793   0.931
 4789SOL    HW115266   6.045   0.822   0.835
 4789SOL    HW215267   6.049   0.693   0.936
 4790SOL     OW15268   5.399   1.496   6.522
 4790SOL    HW115269   5.394   1.548   6.437
 4790SOL    HW215270   5.486   1.514   6.567
 4791SOL     OW15271   4.774   6.809   2.422
 4791SOL    HW115272   4.714   6.870   2.474
 4791SOL    HW215273   4.841   6.864   2.371
 4792SOL     OW15274   2.471   2.658   1.813
 4792SOL    HW115275   2.376   2.639   1.837
 4792SOL    HW215276   2.527   2.578   1.834
 4793SOL     OW15277   1.304   6.894   5.995
 4793SOL    HW115278   1.355   6.932   6.073
 4793SOL    HW215279   1.215   6.940   5.988
 4794SOL     OW15280   3.149   0.887   1.871
 4794SOL    HW115281   3.166   0.856   1.964
 4794SOL    HW215282   3.151   0.987   1.868
 4795SOL     OW15283   6.437   3.365   4.071
 4795SOL    HW115284   6.340   3.360   4.048
 4795SOL    HW215285   6.451   3.327   4.163
 4796SOL     OW15286   5.997   3.871   1.057
 4796SOL    HW115287   6.040   3.849   1.145
 4796SOL    HW215288   6.049   3.942   1.011
 4797SOL     OW15289   0.181   5.144   5.069
 4797SOL    HW115290   0.124   5.200   5.010
 4797SOL    HW215291   0.218   5.067   5.017
 4798SOL     OW15292   6.968   3.784   4.200
 4798SOL    HW115293   0.011   3.823   4.260
 4798SOL    HW215294   6.914   3.717   4.250
 4799SOL     OW15295   3.651   1.673   4.898
 4799SOL    HW115296   3.676   1.629   4.812
 4799SOL    HW215297   3.714   1.749   4.916
 4800SOL     OW15298   1.964   1.756   4.589
 4800SOL    HW115299   1.873   1.750   4.630
 4800SOL    HW215300   1.958   1.798   4.499
 4801SOL     OW15301   1.073   2.706   0.959
 4801SOL    HW115302   1.082   2.763   0.878
 4801SOL    HW215303   1.008   2.747   1.022
 4802SOL     OW15304   2.816   0.704   2.048
 4802SOL    HW115305   2.819   0.604   2.059
 4802SOL    HW215306   2.871   0.730   1.968
 4803SOL     OW15307   0.865   6.858   0.312
 4803SOL    HW115308   0.889   6.772   0.357
 4803SOL    HW215309   0.876   6.934   0.377
 4804SOL     OW15310   4.238   5.202   6.458
 4804SOL    HW115311   4.307   5.131   6.441
 4804SOL    HW215312   4.284   5.289   6.477
 4805SOL     OW15313   0.295   1.925   0.820
 4805SOL    HW115314   0.220   1.860   0.807
 4805SOL    HW215315   0.273   2.011   0.774
 4806SOL     OW15316   0.840   2.469   2.810
 4806SOL    HW115317   0.751   2.513   2.805
 4806SOL    HW215318   0.851   2.407   2.732
 4807SOL     OW15319   6.998   6.517   1.064
 4807SOL    HW115320   7.013   6.542   1.160
 4807SOL    HW215321   6.917   6.459   1.057
 4808SOL     OW15322   4.783   3.354   1.271
 4808SOL    HW115323   4.753   3.261   1.289
 4808SOL    HW215324   4.828   3.391   1.353
 4809SOL     OW15325   3.953   5.709   6.816
 4809SOL    HW115326   4.051   5.688   6.819
 4809SOL    HW215327   3.932   5.757   6.730
 4810SOL     OW15328   0.819   0.294   1.438
 4810SOL    HW115329   0.824   0.202   1.476
 4810SOL    HW215330   0.788   0.358   1.509
 4811SOL     OW15331   4.272   5.911   2.056
 4811SOL    HW115332   4.339   5.980   2.083
 4811SOL    HW215333   4.299   5.822   2.091
 4812SOL     OW15334   6.822   5.776   4.484
 4812SOL    HW115335   6.793   5.702   4.545
 4812SOL    HW215336   6.786   5.863   4.517
 4813SOL     OW15337   6.117   2.773   3.367
 4813SOL    HW115338   6.119   2.807   3.273
 4813SOL    HW215339   6.038   2.712   3.380
 4814SOL     OW15340   0.224   3.115   2.026
 4814SOL    HW115341   0.254   3.179   1.956
 4814SOL    HW215342   0.136   3.075   2.000
 4815SOL     OW15343   4.089   6.215   1.517
 4815SOL    HW115344   4.082   6.279   1.594
 4815SOL    HW215345   4.158   6.246   1.453
 4816SOL     OW15346   5.604   5.206   3.449
 4816SOL    HW115347   5.699   5.180   3.431
 4816SOL    HW215348   5.549   5.190   3.367
 4817SOL     OW15349   0.045   1.408   6.804
 4817SOL    HW115350   0.032   1.310   6.787
 4817SOL    HW215351   0.046   1.425   6.902
 4818SOL     OW15352   0.773   0.628   4.428
 4818SOL    HW115353   0.820   0.643   4.341
 4818SOL    HW215354   0.775   0.530   4.450
 4819SOL     OW15355   1.835   3.331   0.625
 4819SOL    HW115356   1.935   3.329   0.617
 4819SOL    HW215357   1.805   3.263   0.692
 4820SOL     OW15358   6.809   2.955   1.923
 4820SOL    HW115359   6.812   2.870   1.870
 4820SOL    HW215360   6.717   2.967   1.962
 4821SOL     OW15361   6.781   5.711   2.930
 4821SOL    HW115362   6.846   5.650   2.974
 4821SOL    HW215363   6.776   5.690   2.832
 4822SOL     OW15364   1.535   4.019   4.391
 4822SOL    HW115365   1.524   4.047   4.295
 4822SOL    HW215366   1.617   3.962   4.399
 4823SOL     OW15367   1.835   3.388   1.371
 4823SOL    HW115368   1.792   3.324   1.307
 4823SOL    HW215369   1.934   3.386   1.359
 4824SOL     OW15370   6.708   1.548   6.143
 4824SOL    HW115371   6.641   1.474   6.144
 4824SOL    HW215372   6.703   1.596   6.055
 4825SOL     OW15373   1.740   6.950   4.130
 4825SOL    HW115374   1.763   6.865   4.176
 4825SOL    HW215375   1.727   7.022   4.198
 4826SOL     OW15376   3.813   0.398   1.638
 4826SOL    HW115377   3.898   0.426   1.593
 4826SOL    HW215378   3.735   0.428   1.584
 4827SOL     OW15379   6.637   1.827   1.177
 4827SOL    HW115380   6.698   1.817   1.255
 4827SOL    HW215381   6.657   1.913   1.129
 4828SOL     OW15382   5.069   0.938   4.307
 4828SOL    HW115383   5.084   0.930   4.405
 4828SOL    HW215384   5.139   0.999   4.267
 4829SOL     OW15385   4.439   6.598   4.639
 4829SOL    HW115386   4.432   6.561   4.732
 4829SOL    HW215387   4.518   6.659   4.633
 4830SOL     OW15388   3.040   6.261   2.867
 4830SOL    HW115389   3.100   6.341   2.859
 4830SOL    HW215390   2.996   6.261   2.957
 4831SOL     OW15391   2.990   4.623   5.418
 4831SOL    HW115392   2.947   4.600   5.331
 4831SOL    HW215393   2.973   4.551   5.485
 4832SOL     OW15394   3.638   3.136   4.591
 4832SOL    HW115395   3.581   3.207   4.551
 4832SOL    HW215396   3.675   3.168   4.679
 4833SOL     OW15397   6.524   3.302   4.374
 4833SOL    HW115398   6.576   3.359   4.438
 4833SOL    HW215399   6.455   3.250   4.423
 4834SOL     OW15400   0.825   5.362   1.379
 4834SOL    HW115401   0.733   5.354   1.341
 4834SOL    HW215402   0.837   5.454   1.417
 4835SOL     OW15403   6.760   2.403   5.293
 4835SOL    HW115404   6.679   2.441   5.248
 4835SOL    HW215405   6.785   2.317   5.249
 4836SOL     OW15406   5.002   1.318   5.894
 4836SOL    HW115407   4.933   1.267   5.945
 4836SOL    HW215408   5.089   1.270   5.900
 4837SOL     OW15409   0.533   4.053   3.921
 4837SOL    HW115410   0.508   4.146   3.894
 4837SOL    HW215411   0.458   4.013   3.975
 4838SOL     OW15412   2.301   4.208   6.340
 4838SOL    HW115413   2.360   4.262   6.280
 4838SOL    HW215414   2.356   4.147   6.396
 4839SOL     OW15415   2.562   1.443   0.648
 4839SOL    HW115416   2.557   1.434   0.748
 4839SOL    HW215417   2.470   1.435   0.609
 4840SOL     OW15418   5.971   3.774   4.110
 4840SOL    HW115419   6.043   3.768   4.040
 4840SOL    HW215420   5.887   3.734   4.075
 4841SOL     OW15421   3.298   6.293   2.669
 4841SOL    HW115422   3.360   6.272   2.745
 4841SOL    HW215423   3.271   6.389   2.674
 4842SOL     OW15424   3.523   5.324   2.766
 4842SOL    HW115425   3.486   5.330   2.859
 4842SOL    HW215426   3.538   5.228   2.743
 4843SOL     OW15427   0.324   2.388   0.978
 4843SOL    HW115428   0.342   2.367   1.074
 4843SOL    HW215429   0.231   2.360   0.955
 4844SOL     OW15430   1.868   5.179   5.437
 4844SOL    HW115431   1.770   5.165   5.451
 4844SOL    HW215432   1.882   5.221   5.347
 4845SOL     OW15433   5.035   3.926   4.948
 4845SOL    HW115434   5.129   3.960   4.942
 4845SOL    HW215435   5.013   3.875   4.865
 4846SOL     OW15436   6.684   3.682   4.622
 4846SOL    HW115437   6.614   3.728   4.567
 4846SOL    HW215438   6.695   3.588   4.591
 4847SOL     OW15439   2.894   5.940   6.295
 4847SOL    HW115440   2.931   6.018   6.345
 4847SOL    HW215441   2.797   5.954   6.277
 4848SOL     OW15442   3.699   0.608   4.572
 4848SOL    HW115443   3.751   0.623   4.487
 4848SOL    HW215444   3.761   0.613   4.650
 4849SOL     OW15445   2.259   6.917   1.667
 4849SOL    HW115446   2.241   6.893   1.572
 4849SOL    HW215447   2.173   6.941   1.712
 4850SOL     OW15448   4.201   6.957   0.511
 4850SOL    HW115449   4.220   0.018   0.556
 4850SOL    HW215450   4.103   6.944   0.503
 4851SOL     OW15451   3.917   4.551   6.519
 4851SOL    HW115452   3.947   4.635   6.473
 4851SOL    HW215453   3.942   4.555   6.615
 4852SOL     OW15454   5.379   5.162   5.102
 4852SOL    HW115455   5.453   5.184   5.164
 4852SOL    HW215456   5.401   5.079   5.051
 4853SOL     OW15457   4.001   6.812   2.458
 4853SOL    HW115458   4.005   6.850   2.366
 4853SOL    HW215459   3.988   6.886   2.524
 4854SOL     OW15460   4.890   6.738   1.597
 4854SOL    HW115461   4.824   6.732   1.671
 4854SOL    HW215462   4.981   6.755   1.634
 4855SOL     OW15463   5.402   4.713   6.117
 4855SOL    HW115464   5.477   4.688   6.178
 4855SOL    HW215465   5.409   4.663   6.031
 4856SOL     OW15466   0.672   3.122   2.966
 4856SOL    HW115467   0.666   3.108   2.867
 4856SOL    HW215468   0.580   3.132   3.003
 4857SOL     OW15469   2.492   2.132   5.162
 4857SOL    HW115470   2.576   2.083   5.185
 4857SOL    HW215471   2.472   2.201   5.231
 4858SOL     OW15472   0.804   5.935   4.878
 4858SOL    HW115473   0.856   5.850   4.888
 4858SOL    HW215474   0.854   5.997   4.817
 4859SOL     OW15475   0.298   6.536   2.731
 4859SOL    HW115476   0.293   6.586   2.645
 4859SOL    HW215477   0.286   6.599   2.807
 4860SOL     OW15478   4.749   5.316   1.220
 4860SOL    HW115479   4.740   5.414   1.235
 4860SOL    HW215480   4.834   5.298   1.170
 4861SOL     OW15481   0.306   4.065   6.186
 4861SOL    HW115482   0.344   4.154   6.158
 4861SOL    HW215483   0.215   4.053   6.147
 4862SOL     OW15484   2.402   5.510   5.072
 4862SOL    HW115485   2.448   5.530   4.985
 4862SOL    HW215486   2.350   5.590   5.102
 4863SOL     OW15487   4.912   2.433   2.855
 4863SOL    HW115488   4.848   2.370   2.809
 4863SOL    HW215489   4.958   2.386   2.930
 4864SOL     OW15490   1.866   1.235   1.425
 4864SOL    HW115491   1.831   1.207   1.336
 4864SOL    HW215492   1.964   1.251   1.420
 4865SOL     OW15493   3.819   6.109   5.424
 4865SOL    HW115494   3.870   6.101   5.510
 4865SOL    HW215495   3.771   6.023   5.405
 4866SOL     OW15496   0.294   4.562   2.135
 4866SOL    HW115497   0.215   4.504   2.151
 4866SOL    HW215498   0.329   4.597   2.222
 4867SOL     OW15499   4.670   5.588   3.519
 4867SOL    HW115500   4.752   5.596   3.576
 4867SOL    HW215501   4.589   5.613   3.572
 4868SOL     OW15502   1.093   6.557   1.429
 4868SOL    HW115503   1.103   6.564   1.528
 4868SOL    HW215504   1.158   6.619   1.384
 4869SOL     OW15505   6.342   1.331   0.777
 4869SOL    HW115506   6.398   1.261   0.821
 4869SOL    HW215507   6.400   1.385   0.716
 4870SOL     OW15508   6.756   0.158   1.207
 4870SOL    HW115509   6.671   0.208   1.219
 4870SOL    HW215510   6.742   0.061   1.230
 4871SOL     OW15511   0.937   3.202   4.236
 4871SOL    HW115512   0.936   3.280   4.174
 4871SOL    HW215513   0.870   3.134   4.208
 4872SOL     OW15514   0.778   0.615   3.758
 4872SOL    HW115515   0.876   0.609   3.740
 4872SOL    HW215516   0.763   0.668   3.841
 4873SOL     OW15517   1.102   5.973   4.945
 4873SOL    HW115518   1.152   5.930   4.870
 4873SOL    HW215519   1.048   6.049   4.910
 4874SOL     OW15520   5.057   3.466   3.524
 4874SOL    HW115521   5.135   3.516   3.486
 4874SOL    HW215522   5.077   3.369   3.528
 4875SOL     OW15523   6.137   3.302   6.796
 4875SOL    HW115524   6.075   3.270   6.867
 4875SOL    HW215525   6.124   3.247   6.713
 4876SOL     OW15526   0.412   1.530   6.808
 4876SOL    HW115527   0.415   1.607   6.745
 4876SOL    HW215528   0.415   1.444   6.757
 4877SOL     OW15529   6.337   1.724   0.851
 4877SOL    HW115530   6.421   1.689   0.892
 4877SOL    HW215531   6.274   1.649   0.834
 4878SOL     OW15532   6.265   2.333   1.600
 4878SOL    HW115533   6.342   2.336   1.665
 4878SOL    HW215534   6.247   2.238   1.574
 4879SOL     OW15535   4.473   6.249   3.021
 4879SOL    HW115536   4.388   6.301   3.027
 4879SOL    HW215537   4.483   6.210   2.930
 4880SOL     OW15538   5.916   2.316   6.421
 4880SOL    HW115539   5.848   2.363   6.366
 4880SOL    HW215540   5.983   2.271   6.362
 4881SOL     OW15541   2.937   5.929   6.743
 4881SOL    HW115542   2.876   5.997   6.784
 4881SOL    HW215543   3.032   5.951   6.765
 4882SOL     OW15544   5.035   0.731   6.266
 4882SOL    HW115545   5.097   0.809   6.254
 4882SOL    HW215546   4.956   0.743   6.206
 4883SOL     OW15547   6.863   6.160   0.675
 4883SOL    HW115548   6.956   6.134   0.700
 4883SOL    HW215549   6.809   6.078   0.659
 4884SOL     OW15550   3.664   6.606   1.878
 4884SOL    HW115551   3.699   6.574   1.791
 4884SOL    HW215552   3.580   6.658   1.864
 4885SOL     OW15553   2.089   0.108   2.328
 4885SOL    HW115554   2.039   0.153   2.402
 4885SOL    HW215555   2.186   0.132   2.334
 4886SOL     OW15556   6.179   0.737   6.055
 4886SOL    HW115557   6.199   0.643   6.083
 4886SOL    HW215558   6.185   0.744   5.955
 4887SOL     OW15559   0.546   2.096   5.185
 4887SOL    HW115560   0.623   2.149   5.149
 4887SOL    HW215561   0.461   2.129   5.146
 4888SOL     OW15562   2.959   5.444   1.893
 4888SOL    HW115563   2.934   5.447   1.990
 4888SOL    HW215564   3.002   5.530   1.867
 4889SOL     OW15565   1.472   2.946   6.633
 4889SOL    HW115566   1.452   3.032   6.680
 4889SOL    HW215567   1.444   2.869   6.691
 4890SOL     OW15568   1.258   0.197   5.084
 4890SOL    HW115569   1.184   0.151   5.133
 4890SOL    HW215570   1.230   0.214   4.990
 4891SOL     OW15571   1.114   3.797   0.765
 4891SOL    HW115572   1.050   3.873   0.755
 4891SOL    HW215573   1.178   3.816   0.839
 4892SOL     OW15574   1.808   5.949   1.350
 4892SOL    HW115575   1.863   5.917   1.273
 4892SOL    HW215576   1.867   5.996   1.415
 4893SOL     OW15577   0.982   3.509   6.417
 4893SOL    HW115578   1.055   3.457   6.372
 4893SOL    HW215579   0.910   3.530   6.351
 4894SOL     OW15580   1.952   1.172   3.550
 4894SOL    HW115581   2.009   1.144   3.628
 4894SOL    HW215582   1.857   1.183   3.581
 4895SOL     OW15583   6.062   3.932   0.046
 4895SOL    HW115584   6.110   3.948   0.133
 4895SOL    HW215585   5.982   3.874   0.063
 4896SOL     OW15586   4.541   5.942   3.392
 4896SOL    HW115587   4.498   5.992   3.317
 4896SOL    HW215588   4.558   5.847   3.364
 4897SOL     OW15589   2.696   5.757   5.816
 4897SOL    HW115590   2.693   5.667   5.772
 4897SOL    HW215591   2.637   5.757   5.897
 4898SOL     OW15592   5.569   2.429   4.925
 4898SOL    HW115593   5.668   2.431   4.942
 4898SOL    HW215594   5.552   2.389   4.835
 4899SOL     OW15595   5.594   4.385   4.664
 4899SOL    HW115596   5.663   4.408   4.596
 4899SOL    HW215597   5.529   4.460   4.673
 4900SOL     OW15598   1.130   6.816   5.180
 4900SOL    HW115599   1.043   6.805   5.132
 4900SOL    HW215600   1.113   6.830   5.278
 4901SOL     OW15601   1.115   6.237   3.203
 4901SOL    HW115602   1.106   6.165   3.134
 4901SOL    HW215603   1.181   6.305   3.171
 4902SOL     OW15604   3.032   4.794   1.815
 4902SOL    HW115605   3.109   4.805   1.878
 4902SOL    HW215606   2.991   4.704   1.829
 4903SOL     OW15607   5.321   6.013   6.167
 4903SOL    HW115608   5.393   6.075   6.196
 4903SOL    HW215609   5.232   6.055   6.184
 4904SOL     OW15610   3.462   6.030   3.347
 4904SOL    HW115611   3.375   5.983   3.329
 4904SOL    HW215612   3.474   6.105   3.282
 4905SOL     OW15613   6.619   3.270   3.284
 4905SOL    HW115614   6.567   3.289   3.201
 4905SOL    HW215615   6.696   3.211   3.262
 4906SOL     OW15616   5.609   0.950   1.666
 4906SOL    HW115617   5.550   0.869   1.659
 4906SOL    HW215618   5.571   1.023   1.609
 4907SOL     OW15619   2.603   1.430   2.397
 4907SOL    HW115620   2.642   1.488   2.469
 4907SOL    HW215621   2.658   1.440   2.314
 4908SOL     OW15622   3.813   5.688   0.254
 4908SOL    HW115623   3.859   5.748   0.188
 4908SOL    HW215624   3.735   5.643   0.209
 4909SOL     OW15625   6.443   6.794   5.446
 4909SOL    HW115626   6.438   6.887   5.409
 4909SOL    HW215627   6.380   6.735   5.396
 4910SOL     OW15628   6.147   0.512   5.815
 4910SOL    HW115629   6.216   0.532   5.745
 4910SOL    HW215630   6.192   0.498   5.903
 4911SOL     OW15631   0.647   2.799   6.256
 4911SOL    HW115632   0.700   2.718   6.234
 4911SOL    HW215633   0.621   2.846   6.171
 4912SOL     OW15634   2.600   2.368   2.172
 4912SOL    HW115635   2.679   2.374   2.110
 4912SOL    HW215636   2.550   2.284   2.153
 4913SOL     OW15637   2.908   3.370   2.353
 4913SOL    HW115638   2.982   3.419   2.398
 4913SOL    HW215639   2.925   3.271   2.359
 4914SOL     OW15640   1.362   6.425   3.225
 4914SOL    HW115641   1.397   6.480   3.301
 4914SOL    HW215642   1.432   6.416   3.154
 4915SOL     OW15643   3.100   5.915   3.022
 4915SOL    HW115644   3.115   5.938   2.925
 4915SOL    HW215645   3.048   5.988   3.065
 4916SOL     OW15646   2.232   1.692   2.454
 4916SOL    HW115647   2.164   1.667   2.523
 4916SOL    HW215648   2.324   1.675   2.490
 4917SOL     OW15649   1.982   5.242   0.080
 4917SOL    HW115650   2.036   5.310   0.031
 4917SOL    HW215651   1.992   5.256   0.179
 4918SOL     OW15652   2.357   0.175   2.351
 4918SOL    HW115653   2.371   0.121   2.434
 4918SOL    HW215654   2.445   0.195   2.309
 4919SOL     OW15655   2.683   3.197   1.417
 4919SOL    HW115656   2.660   3.118   1.360
 4919SOL    HW215657   2.727   3.166   1.501
 4920SOL     OW15658   4.554   0.953   0.231
 4920SOL    HW115659   4.641   0.922   0.271
 4920SOL    HW215660   4.495   0.874   0.216
 4921SOL     OW15661   1.425   4.603   1.717
 4921SOL    HW115662   1.487   4.530   1.748
 4921SOL    HW215663   1.331   4.580   1.741
 4922SOL     OW15664   1.082   3.017   5.679
 4922SOL    HW115665   1.030   3.088   5.726
 4922SOL    HW215666   1.100   2.942   5.743
 4923SOL     OW15667   3.708   1.654   0.789
 4923SOL    HW115668   3.645   1.667   0.865
 4923SOL    HW215669   3.795   1.697   0.809
 4924SOL     OW15670   0.608   3.739   4.710
 4924SOL    HW115671   0.625   3.706   4.617
 4924SOL    HW215672   0.695   3.765   4.752
 4925SOL     OW15673   4.845   5.716   6.161
 4925SOL    HW115674   4.828   5.650   6.087
 4925SOL    HW215675   4.811   5.806   6.133
 4926SOL     OW15676   4.255   2.413   1.783
 4926SOL    HW115677   4.202   2.337   1.819
 4926SOL    HW215678   4.322   2.443   1.851
 4927SOL     OW15679   3.789   3.963   2.852
 4927SOL    HW115680   3.784   3.959   2.952
 4927SOL    HW215681   3.878   3.927   2.822
 4928SOL     OW15682   0.202   6.384   0.996
 4928SOL    HW115683   0.129   6.446   1.022
 4928SOL    HW215684   0.220   6.320   1.071
 4929SOL     OW15685   0.919   5.041   4.095
 4929SOL    HW115686   0.966   5.120   4.135
 4929SOL    HW215687   0.970   4.958   4.116
 4930SOL     OW15688   6.762   2.294   0.887
 4930SOL    HW115689   6.668   2.314   0.916
 4930SOL    HW215690   6.763   2.271   0.790
 4931SOL     OW15691   0.423   0.679   1.430
 4931SOL    HW115692   0.420   0.635   1.520
 4931SOL    HW215693   0.397   0.775   1.439
 4932SOL     OW15694   3.889   2.029   0.900
 4932SOL    HW115695   3.900   2.127   0.883
 4932SOL    HW215696   3.869   2.014   0.996
 4933SOL     OW15697   2.843   0.831   5.177
 4933SOL    HW115698   2.913   0.884   5.129
 4933SOL    HW215699   2.846   0.736   5.148
 4934SOL     OW15700   1.484   6.216   5.239
 4934SOL    HW115701   1.479   6.160   5.322
 4934SOL    HW215702   1.514   6.308   5.262
 4935SOL     OW15703   1.572   1.018   0.891
 4935SOL    HW115704   1.640   0.945   0.895
 4935SOL    HW215705   1.534   1.033   0.983
 4936SOL     OW15706   4.129   5.831   0.734
 4936SOL    HW115707   4.043   5.782   0.720
 4936SOL    HW215708   4.202   5.766   0.754
 4937SOL     OW15709   1.123   3.019   6.129
 4937SOL    HW115710   1.165   2.957   6.195
 4937SOL    HW215711   1.058   3.080   6.175
 4938SOL     OW15712   3.292   4.970   1.498
 4938SOL    HW115713   3.260   4.895   1.555
 4938SOL    HW215714   3.266   5.057   1.540
 4939SOL     OW15715   1.378   1.548   2.205
 4939SOL    HW115716   1.420   1.636   2.184
 4939SOL    HW215717   1.313   1.523   2.133
 4940SOL     OW15718   6.855   2.178   5.183
 4940SOL    HW115719   6.945   2.202   5.146
 4940SOL    HW215720   6.846   2.079   5.189
 4941SOL     OW15721   4.451   1.713   5.512
 4941SOL    HW115722   4.503   1.729   5.427
 4941SOL    HW215723   4.497   1.643   5.566
 4942SOL     OW15724   0.531   1.524   3.334
 4942SOL    HW115725   0.587   1.493   3.411
 4942SOL    HW215726   0.584   1.517   3.250
 4943SOL     OW15727   4.955   2.889   6.740
 4943SOL    HW115728   5.005   2.821   6.792
 4943SOL    HW215729   4.970   2.980   6.779
 4944SOL     OW15730   0.825   5.007   0.182
 4944SOL    HW115731   0.766   4.926   0.179
 4944SOL    HW215732   0.807   5.058   0.266
 4945SOL     OW15733   2.368   0.551   5.190
 4945SOL    HW115734   2.318   0.625   5.234
 4945SOL    HW215735   2.416   0.497   5.259
 4946SOL     OW15736   3.079   5.417   6.994
 4946SOL    HW115737   3.009   5.366   0.017
 4946SOL    HW215738   3.122   5.357   6.927
 4947SOL     OW15739   1.137   0.787   1.939
 4947SOL    HW115740   1.168   0.871   1.894
 4947SOL    HW215741   1.216   0.740   1.980
 4948SOL     OW15742   1.738   2.604   1.759
 4948SOL    HW115743   1.807   2.676   1.754
 4948SOL    HW215744   1.716   2.585   1.854
 4949SOL     OW15745   0.026   4.956   6.666
 4949SOL    HW115746   6.999   4.943   6.583
 4949SOL    HW215747   0.120   4.923   6.651
 4950SOL     OW15748   3.328   3.839   5.870
 4950SOL    HW115749   3.262   3.794   5.930
 4950SOL    HW215750   3.419   3.803   5.888
 4951SOL     OW15751   5.267   5.522   3.513
 4951SOL    HW115752   5.217   5.444   3.473
 4951SOL    HW215753   5.205   5.598   3.526
 4952SOL     OW15754   0.409   0.036   6.371
 4952SOL    HW115755   0.310   0.026   6.381
 4952SOL    HW215756   0.428   0.114   6.311
 4953SOL     OW15757   0.798   2.175   4.701
 4953SOL    HW115758   0.808   2.142   4.795
 4953SOL    HW215759   0.701   2.186   4.680
 4954SOL     OW15760   3.372   4.205   4.729
 4954SOL    HW115761   3.337   4.289   4.770
 4954SOL    HW215762   3.421   4.152   4.798
 4955SOL     OW15763   3.830   5.504   5.575
 4955SOL    HW115764   3.825   5.478   5.478
 4955SOL    HW215765   3.926   5.501   5.604
 4956SOL     OW15766   2.801   0.130   5.006
 4956SOL    HW115767   2.709   0.152   4.973
 4956SOL    HW215768   2.862   0.207   4.989
 4957SOL     OW15769   5.830   4.616   6.533
 4957SOL    HW115770   5.911   4.657   6.576
 4957SOL    HW215771   5.850   4.522   6.506
 4958SOL     OW15772   3.659   6.352   0.291
 4958SOL    HW115773   3.653   6.256   0.318
 4958SOL    HW215774   3.567   6.389   0.279
 4959SOL     OW15775   0.648   1.882   2.750
 4959SOL    HW115776   0.579   1.948   2.720
 4959SOL    HW215777   0.701   1.920   2.826
 4960SOL     OW15778   4.430   4.579   4.167
 4960SOL    HW115779   4.409   4.536   4.255
 4960SOL    HW215780   4.466   4.671   4.181
 4961SOL     OW15781   3.587   1.287   1.075
 4961SOL    HW115782   3.560   1.198   1.038
 4961SOL    HW215783   3.504   1.338   1.101
 4962SOL     OW15784   1.485   4.228   0.886
 4962SOL    HW115785   1.504   4.137   0.924
 4962SOL    HW215786   1.465   4.292   0.960
 4963SOL     OW15787   1.056   3.779   6.463
 4963SOL    HW115788   1.123   3.806   6.394
 4963SOL    HW215789   1.018   3.690   6.439
 4964SOL     OW15790   2.995   6.900   4.448
 4964SOL    HW115791   3.042   6.957   4.380
 4964SOL    HW215792   2.913   6.860   4.407
 4965SOL     OW15793   1.491   6.165   3.401
 4965SOL    HW115794   1.526   6.195   3.313
 4965SOL    HW215795   1.391   6.177   3.403
 4966SOL     OW15796   2.782   6.867   4.190
 4966SOL    HW115797   2.766   6.770   4.173
 4966SOL    HW215798   2.809   6.912   4.105
 4967SOL     OW15799   4.306   4.803   4.969
 4967SOL    HW115800   4.396   4.824   5.008
 4967SOL    HW215801   4.306   4.708   4.937
 4968SOL     OW15802   6.618   2.585   3.082
 4968SOL    HW115803   6.627   2.674   3.037
 4968SOL    HW215804   6.627   2.597   3.181
 4969SOL     OW15805   0.635   6.030   3.600
 4969SOL    HW115806   0.674   5.994   3.684
 4969SOL    HW215807   0.552   6.081   3.621
 4970SOL     OW15808   0.905   1.518   1.295
 4970SOL    HW115809   1.004   1.529   1.302
 4970SOL    HW215810   0.878   1.433   1.340
 4971SOL     OW15811   6.927   6.108   2.791
 4971SOL    HW115812   6.928   6.208   2.796
 4971SOL    HW215813   6.846   6.074   2.839
 4972SOL     OW15814   0.519   4.557   0.869
 4972SOL    HW115815   0.561   4.583   0.781
 4972SOL    HW215816   0.587   4.511   0.925
 4973SOL     OW15817   6.656   0.808   0.587
 4973SOL    HW115818   6.736   0.823   0.528
 4973SOL    HW215819   6.687   0.794   0.681
 4974SOL     OW15820   3.766   5.911   5.122
 4974SOL    HW115821   3.777   5.818   5.087
 4974SOL    HW215822   3.760   5.909   5.222
 4975SOL     OW15823   5.432   4.644   0.941
 4975SOL    HW115824   5.419   4.607   1.033
 4975SOL    HW215825   5.358   4.613   0.881
 4976SOL     OW15826   1.841   6.832   3.114
 4976SOL    HW115827   1.917   6.842   3.179
 4976SOL    HW215828   1.819   6.735   3.103
 4977SOL     OW15829   1.727   4.598   5.821
 4977SOL    HW115830   1.716   4.536   5.898
 4977SOL    HW215831   1.819   4.590   5.783
 4978SOL     OW15832   4.956   4.567   4.739
 4978SOL    HW115833   4.948   4.660   4.776
 4978SOL    HW215834   5.038   4.560   4.682
 4979SOL     OW15835   2.319   6.856   5.787
 4979SOL    HW115836   2.262   6.859   5.869
 4979SOL    HW215837   2.373   6.940   5.781
 4980SOL     OW15838   5.335   3.848   4.004
 4980SOL    HW115839   5.324   3.946   3.990
 4980SOL    HW215840   5.348   3.803   3.915
 4981SOL     OW15841   3.263   4.985   2.532
 4981SOL    HW115842   3.185   5.007   2.474
 4981SOL    HW215843   3.348   4.991   2.479
 4982SOL     OW15844   3.982   1.486   5.849
 4982SOL    HW115845   3.982   1.387   5.864
 4982SOL    HW215846   4.076   1.518   5.837
 4983SOL     OW15847   5.642   5.886   2.916
 4983SOL    HW115848   5.675   5.954   2.981
 4983SOL    HW215849   5.636   5.797   2.961
 4984SOL     OW15850   4.752   4.246   3.347
 4984SOL    HW115851   4.788   4.335   3.375
 4984SOL    HW215852   4.776   4.229   3.251
 4985SOL     OW15853   5.174   6.648   2.255
 4985SOL    HW115854   5.107   6.596   2.201
 4985SOL    HW215855   5.256   6.662   2.199
 4986SOL     OW15856   0.545   5.400   2.073
 4986SOL    HW115857   0.518   5.482   2.123
 4986SOL    HW215858   0.636   5.370   2.103
 4987SOL     OW15859   0.985   0.744   2.566
 4987SOL    HW115860   1.010   0.763   2.661
 4987SOL    HW215861   0.993   0.828   2.512
 4988SOL     OW15862   6.159   6.508   3.563
 4988SOL    HW115863   6.167   6.449   3.483
 4988SOL    HW215864   6.248   6.548   3.584
 4989SOL     OW15865   4.797   0.099   3.309
 4989SOL    HW115866   4.725   0.114   3.376
 4989SOL    HW215867   4.805   0.001   3.290
 4990SOL     OW15868   4.898   2.258   5.199
 4990SOL    HW115869   4.800   2.255   5.221
 4990SOL    HW215870   4.914   2.324   5.126
 4991SOL     OW15871   1.539   4.736   5.374
 4991SOL    HW115872   1.460   4.796   5.384
 4991SOL    HW215873   1.620   4.781   5.412
 4992SOL     OW15874   0.655   2.610   4.112
 4992SOL    HW115875   0.604   2.550   4.174
 4992SOL    HW215876   0.617   2.601   4.019
 4993SOL     OW15877   3.204   6.155   3.861
 4993SOL    HW115878   3.185   6.217   3.937
 4993SOL    HW215879   3.302   6.135   3.858
 4994SOL     OW15880   3.501   4.389   5.371
 4994SOL    HW115881   3.405   4.418   5.367
 4994SOL    HW215882   3.513   4.304   5.319
 4995SOL     OW15883   0.758   0.395   6.030
 4995SOL    HW115884   0.845   0.353   6.003
 4995SOL    HW215885   0.773   0.491   6.051
 4996SOL     OW15886   6.862   1.385   4.400
 4996SOL    HW115887   6.916   1.427   4.473
 4996SOL    HW215888   6.922   1.341   4.334
 4997SOL     OW15889   3.750   1.849   1.322
 4997SOL    HW115890   3.750   1.820   1.226
 4997SOL    HW215891   3.816   1.794   1.374
 4998SOL     OW15892   0.249   3.750   3.399
 4998SOL    HW115893   0.313   3.800   3.458
 4998SOL    HW215894   0.161   3.798   3.398
 4999SOL     OW15895   0.892   3.280   4.496
 4999SOL    HW115896   0.916   3.242   4.406
 4999SOL    HW215897   0.869   3.205   4.558
 5000SOL     OW15898   3.145   5.505   2.604
 5000SOL    HW115899   3.224   5.517   2.544
 5000SOL    HW215900   3.117   5.409   2.601
 5001SOL     OW15901   0.440   5.826   3.348
 5001SOL    HW115902   0.533   5.791   3.337
 5001SOL    HW215903   0.421   5.843   3.444
 5002SOL     OW15904   0.580   3.365   3.377
 5002SOL    HW115905   0.622   3.364   3.467
 5002SOL    HW215906   0.595   3.278   3.331
 5003SOL     OW15907   4.172   0.542   3.983
 5003SOL    HW115908   4.144   0.554   3.888
 5003SOL    HW215909   4.231   0.462   3.991
 5004SOL     OW15910   2.705   5.759   6.768
 5004SOL    HW115911   2.794   5.793   6.738
 5004SOL    HW215912   2.640   5.835   6.776
 5005SOL     OW15913   3.028   2.278   0.500
 5005SOL    HW115914   3.110   2.220   0.498
 5005SOL    HW215915   2.950   2.224   0.470
 5006SOL     OW15916   4.970   1.254   1.956
 5006SOL    HW115917   4.907   1.259   2.033
 5006SOL    HW215918   4.965   1.338   1.902
 5007SOL     OW15919   6.002   6.604   2.027
 5007SOL    HW115920   5.931   6.540   2.056
 5007SOL    HW215921   5.969   6.659   1.950
 5008SOL     OW15922   5.440   6.680   2.132
 5008SOL    HW115923   5.458   6.774   2.103
 5008SOL    HW215924   5.511   6.651   2.197
 5009SOL     OW15925   6.900   2.526   1.184
 5009SOL    HW115926   6.934   2.434   1.203
 5009SOL    HW215927   6.859   2.564   1.268
 5010SOL     OW15928   3.727   3.732   0.920
 5010SOL    HW115929   3.788   3.761   0.847
 5010SOL    HW215930   3.753   3.641   0.952
 5011SOL     OW15931   2.508   3.052   6.438
 5011SOL    HW115932   2.431   3.097   6.393
 5011SOL    HW215933   2.593   3.093   6.407
 5012SOL     OW15934   6.229   1.995   5.344
 5012SOL    HW115935   6.164   2.048   5.398
 5012SOL    HW215936   6.261   1.917   5.397
 5013SOL     OW15937   6.061   6.952   5.981
 5013SOL    HW115938   6.093   6.943   5.887
 5013SOL    HW215939   5.961   6.961   5.981
 5014SOL     OW15940   6.588   3.688   1.829
 5014SOL    HW115941   6.640   3.603   1.826
 5014SOL    HW215942   6.493   3.668   1.850
 5015SOL     OW15943   5.525   6.360   4.062
 5015SOL    HW115944   5.512   6.336   3.966
 5015SOL    HW215945   5.436   6.378   4.104
 5016SOL     OW15946   1.917   3.840   5.647
 5016SOL    HW115947   1.992   3.830   5.582
 5016SOL    HW215948   1.847   3.900   5.608
 5017SOL     OW15949   0.319   3.328   1.888
 5017SOL    HW115950   0.324   3.421   1.925
 5017SOL    HW215951   0.375   3.322   1.806
 5018SOL     OW15952   0.760   0.093   1.154
 5018SOL    HW115953   0.794   0.120   1.064
 5018SOL    HW215954   0.718   0.172   1.199
 5019SOL     OW15955   0.938   5.107   5.397
 5019SOL    HW115956   0.907   5.034   5.336
 5019SOL    HW215957   0.862   5.139   5.453
 5020SOL     OW15958   2.304   6.861   4.525
 5020SOL    HW115959   2.284   6.933   4.459
 5020SOL    HW215960   2.379   6.890   4.584
 5021SOL     OW15961   1.451   1.251   0.849
 5021SOL    HW115962   1.492   1.162   0.864
 5021SOL    HW215963   1.407   1.283   0.933
 5022SOL     OW15964   6.898   3.316   1.425
 5022SOL    HW115965   6.928   3.275   1.510
 5022SOL    HW215966   6.894   3.416   1.435
 5023SOL     OW15967   6.684   4.834   2.759
 5023SOL    HW115968   6.646   4.920   2.792
 5023SOL    HW215969   6.697   4.771   2.836
 5024SOL     OW15970   4.544   3.725   1.374
 5024SOL    HW115971   4.493   3.712   1.459
 5024SOL    HW215972   4.611   3.798   1.386
 5025SOL     OW15973   3.951   1.018   4.050
 5025SOL    HW115974   4.009   1.030   3.970
 5025SOL    HW215975   3.900   1.103   4.068
 5026SOL     OW15976   4.101   0.038   4.650
 5026SOL    HW115977   4.139   0.112   4.706
 5026SOL    HW215978   4.034   7.014   4.704
 5027SOL     OW15979   5.254   0.076   0.269
 5027SOL    HW115980   5.351   0.079   0.295
 5027SOL    HW215981   5.242   0.113   0.177
 5028SOL     OW15982   0.218   1.944   2.901
 5028SOL    HW115983   0.197   1.914   2.994
 5028SOL    HW215984   0.274   2.027   2.905
 5029SOL     OW15985   6.138   1.746   2.797
 5029SOL    HW115986   6.119   1.705   2.887
 5029SOL    HW215987   6.135   1.675   2.727
 5030SOL     OW15988   0.079   4.756   6.330
 5030SOL    HW115989   0.021   4.811   6.390
 5030SOL    HW215990   0.055   4.659   6.340
 5031SOL     OW15991   6.841   0.012   6.374
 5031SOL    HW115992   6.819   6.952   6.419
 5031SOL    HW215993   6.787   0.086   6.415
 5032SOL     OW15994   2.836   3.442   5.508
 5032SOL    HW115995   2.791   3.480   5.428
 5032SOL    HW215996   2.914   3.386   5.479
 5033SOL     OW15997   2.009   0.704   0.203
 5033SOL    HW115998   1.955   0.777   0.161
 5033SOL    HW215999   1.949   0.629   0.230
 5034SOL     OW16000   4.058   6.519   3.755
 5034SOL    HW116001   3.966   6.494   3.787
 5034SOL    HW216002   4.091   6.597   3.808
 5035SOL     OW16003   1.721   3.972   3.680
 5035SOL    HW116004   1.749   3.881   3.652
 5035SOL    HW216005   1.674   4.018   3.604
 5036SOL     OW16006   5.993   2.769   5.139
 5036SOL    HW116007   6.088   2.741   5.149
 5036SOL    HW216008   5.990   2.858   5.093
 5037SOL     OW16009   4.304   3.979   0.854
 5037SOL    HW116010   4.367   4.053   0.832
 5037SOL    HW216011   4.270   3.990   0.947
 5038SOL     OW16012   3.383   3.856   3.940
 5038SOL    HW116013   3.318   3.930   3.959
 5038SOL    HW216014   3.346   3.798   3.867
 5039SOL     OW16015   0.638   3.431   6.667
 5039SOL    HW116016   0.737   3.435   6.658
 5039SOL    HW216017   0.600   3.523   6.653
 5040SOL     OW16018   0.648   6.462   6.132
 5040SOL    HW116019   0.600   6.516   6.201
 5040SOL    HW216020   0.706   6.394   6.176
 5041SOL     OW16021   6.989   3.522   1.989
 5041SOL    HW116022   0.050   3.498   2.031
 5041SOL    HW216023   6.946   3.595   2.042
 5042SOL     OW16024   0.447   2.591   6.303
 5042SOL    HW116025   0.528   2.648   6.315
 5042SOL    HW216026   0.393   2.626   6.225
 5043SOL     OW16027   3.770   6.490   0.852
 5043SOL    HW116028   3.688   6.546   0.863
 5043SOL    HW216029   3.762   6.409   0.910
 5044SOL     OW16030   5.897   5.156   0.886
 5044SOL    HW116031   5.814   5.156   0.831
 5044SOL    HW216032   5.977   5.159   0.826
 5045SOL     OW16033   6.552   3.343   6.323
 5045SOL    HW116034   6.471   3.399   6.309
 5045SOL    HW216035   6.568   3.332   6.421
 5046SOL     OW16036   3.288   3.244   3.378
 5046SOL    HW116037   3.353   3.200   3.317
 5046SOL    HW216038   3.198   3.201   3.367
 5047SOL     OW16039   0.949   3.686   3.273
 5047SOL    HW116040   0.921   3.601   3.227
 5047SOL    HW216041   1.036   3.672   3.319
 5048SOL     OW16042   1.590   1.214   5.747
 5048SOL    HW116043   1.611   1.303   5.707
 5048SOL    HW216044   1.618   1.141   5.685
 5049SOL     OW16045   5.756   0.908   6.141
 5049SOL    HW116046   5.787   1.001   6.159
 5049SOL    HW216047   5.762   0.889   6.043
 5050SOL     OW16048   1.462   0.775   1.308
 5050SOL    HW116049   1.557   0.748   1.324
 5050SOL    HW216050   1.416   0.702   1.257
 5051SOL     OW16051   3.814   5.262   1.251
 5051SOL    HW116052   3.843   5.242   1.158
 5051SOL    HW216053   3.738   5.201   1.275
 5052SOL     OW16054   2.845   1.049   5.997
 5052SOL    HW116055   2.854   1.012   5.905
 5052SOL    HW216056   2.772   1.001   6.046
 5053SOL     OW16057   0.430   6.645   2.079
 5053SOL    HW116058   0.506   6.632   2.016
 5053SOL    HW216059   0.449   6.724   2.138
 5054SOL     OW16060   4.056   4.776   4.227
 5054SOL    HW116061   3.991   4.846   4.255
 5054SOL    HW216062   4.143   4.791   4.274
 5055SOL     OW16063   6.257   3.079   6.594
 5055SOL    HW116064   6.349   3.040   6.603
 5055SOL    HW216065   6.190   3.008   6.614
 5056SOL     OW16066   5.320   4.238   5.052
 5056SOL    HW116067   5.292   4.267   4.960
 5056SOL    HW216068   5.254   4.173   5.089
 5057SOL     OW16069   1.058   6.590   2.797
 5057SOL    HW116070   1.010   6.582   2.884
 5057SOL    HW216071   1.154   6.565   2.810
 5058SOL     OW16072   2.951   4.771   5.940
 5058SOL    HW116073   3.026   4.808   5.995
 5058SOL    HW216074   2.866   4.817   5.964
 5059SOL     OW16075   0.686   0.901   2.321
 5059SOL    HW116076   0.623   0.840   2.272
 5059SOL    HW216077   0.672   0.995   2.290
 5060SOL     OW16078   6.406   2.353   5.798
 5060SOL    HW116079   6.408   2.395   5.889
 5060SOL    HW216080   6.460   2.269   5.798
 5061SOL     OW16081   5.417   4.003   6.959
 5061SOL    HW116082   5.393   3.918   7.007
 5061SOL    HW216083   5.461   4.066   7.022
 5062SOL     OW16084   0.430   6.903   0.971
 5062SOL    HW116085   0.341   6.917   0.928
 5062SOL    HW216086   0.491   6.979   0.946
 5063SOL     OW16087   1.112   6.572   1.707
 5063SOL    HW116088   1.204   6.601   1.735
 5063SOL    HW216089   1.096   6.479   1.741
 5064SOL     OW16090   4.575   3.126   0.126
 5064SOL    HW116091   4.501   3.166   0.181
 5064SOL    HW216092   4.550   3.033   0.100
 5065SOL     OW16093   1.935   6.374   5.511
 5065SOL    HW116094   1.941   6.372   5.411
 5065SOL    HW216095   1.891   6.290   5.544
 5066SOL     OW16096   5.700   4.839   1.198
 5066SOL    HW116097   5.755   4.771   1.247
 5066SOL    HW216098   5.758   4.914   1.168
 5067SOL     OW16099   5.044   1.301   0.316
 5067SOL    HW116100   4.965   1.243   0.298
 5067SOL    HW216101   5.124   1.244   0.334
 5068SOL     OW16102   2.643   5.079   0.803
 5068SOL    HW116103   2.569   5.143   0.785
 5068SOL    HW216104   2.707   5.119   0.869
 5069SOL     OW16105   0.704   4.550   3.282
 5069SOL    HW116106   0.717   4.533   3.380
 5069SOL    HW216107   0.608   4.573   3.265
 5070SOL     OW16108   5.331   2.924   3.627
 5070SOL    HW116109   5.296   2.873   3.705
 5070SOL    HW216110   5.410   2.979   3.655
 5071SOL     OW16111   4.286   1.703   0.130
 5071SOL    HW116112   4.367   1.646   0.120
 5071SOL    HW216113   4.298   1.787   0.076
 5072SOL     OW16114   1.524   4.338   1.908
 5072SOL    HW116115   1.550   4.254   1.861
 5072SOL    HW216116   1.428   4.332   1.936
 5073SOL     OW16117   4.486   0.727   3.572
 5073SOL    HW116118   4.463   0.728   3.669
 5073SOL    HW216119   4.422   0.785   3.521
 5074SOL     OW16120   2.408   3.994   6.449
 5074SOL    HW116121   2.487   3.932   6.454
 5074SOL    HW216122   2.324   3.942   6.466
 5075SOL     OW16123   0.434   5.747   4.488
 5075SOL    HW116124   0.474   5.690   4.416
 5075SOL    HW216125   0.437   5.698   4.575
 5076SOL     OW16126   3.355   0.260   1.391
 5076SOL    HW116127   3.364   0.166   1.359
 5076SOL    HW216128   3.259   0.279   1.412
 5077SOL     OW16129   0.135   2.289   2.861
 5077SOL    HW116130   0.233   2.273   2.857
 5077SOL    HW216131   0.103   2.327   2.774
 5078SOL     OW16132   1.015   1.682   3.903
 5078SOL    HW116133   1.018   1.585   3.880
 5078SOL    HW216134   0.926   1.705   3.943
 5079SOL     OW16135   3.512   5.391   5.488
 5079SOL    HW116136   3.587   5.341   5.446
 5079SOL    HW216137   3.470   5.335   5.559
 5080SOL     OW16138   6.036   6.648   5.482
 5080SOL    HW116139   6.033   6.747   5.496
 5080SOL    HW216140   6.130   6.619   5.465
 5081SOL     OW16141   3.617   3.455   3.325
 5081SOL    HW116142   3.691   3.522   3.334
 5081SOL    HW216143   3.539   3.483   3.381
 5082SOL     OW16144   5.843   5.901   5.134
 5082SOL    HW116145   5.898   5.963   5.079
 5082SOL    HW216146   5.747   5.907   5.105
 5083SOL     OW16147   2.007   5.982   1.980
 5083SOL    HW116148   1.985   5.951   2.072
 5083SOL    HW216149   1.967   6.072   1.964
 5084SOL     OW16150   1.521   5.925   3.174
 5084SOL    HW116151   1.613   5.958   3.197
 5084SOL    HW216152   1.488   5.866   3.248
 5085SOL     OW16153   6.452   2.597   6.258
 5085SOL    HW116154   6.462   2.697   6.258
 5085SOL    HW216155   6.526   2.556   6.311
 5086SOL     OW16156   6.480   5.228   3.316
 5086SOL    HW116157   6.416   5.304   3.326
 5086SOL    HW216158   6.555   5.239   3.382
 5087SOL     OW16159   0.232   5.587   5.780
 5087SOL    HW116160   0.310   5.549   5.830
 5087SOL    HW216161   0.175   5.640   5.842
 5088SOL     OW16162   5.763   0.321   6.495
 5088SOL    HW116163   5.778   0.241   6.554
 5088SOL    HW216164   5.666   0.330   6.475
 5089SOL     OW16165   5.366   3.758   3.397
 5089SOL    HW116166   5.462   3.768   3.422
 5089SOL    HW216167   5.358   3.697   3.318
 5090SOL     OW16168   1.386   5.266   1.060
 5090SOL    HW116169   1.314   5.327   1.026
 5090SOL    HW216170   1.405   5.289   1.156
 5091SOL     OW16171   1.540   5.842   2.909
 5091SOL    HW116172   1.528   5.870   3.005
 5091SOL    HW216173   1.451   5.842   2.863
 5092SOL     OW16174   3.934   2.599   1.580
 5092SOL    HW116175   3.909   2.696   1.584
 5092SOL    HW216176   4.028   2.590   1.548
 5093SOL     OW16177   0.706   2.085   1.428
 5093SOL    HW116178   0.804   2.070   1.425
 5093SOL    HW216179   0.676   2.133   1.345
 5094SOL     OW16180   0.531   0.136   5.952
 5094SOL    HW116181   0.550   0.188   6.035
 5094SOL    HW216182   0.531   0.038   5.972
 5095SOL     OW16183   2.794   6.770   5.112
 5095SOL    HW116184   2.761   6.827   5.037
 5095SOL    HW216185   2.864   6.820   5.163
 5096SOL     OW16186   4.198   4.953   1.233
 5096SOL    HW116187   4.294   4.929   1.217
 5096SOL    HW216188   4.166   4.910   1.317
 5097SOL     OW16189   1.644   7.018   6.134
 5097SOL    HW116190   1.603   7.006   6.225
 5097SOL    HW216191   1.703   0.072   6.134
 5098SOL     OW16192   0.195   1.929   2.583
 5098SOL    HW116193   0.283   1.897   2.547
 5098SOL    HW216194   0.206   1.959   2.677
 5099SOL     OW16195   1.055   0.462   5.346
 5099SOL    HW116196   1.025   0.367   5.353
 5099SOL    HW216197   1.037   0.497   5.255
 5100SOL     OW16198   5.156   6.915   6.043
 5100SOL    HW116199   5.207   6.874   5.967
 5100SOL    HW216200   5.075   6.961   6.007
 5101SOL     OW16201   4.178   6.146   0.337
 5101SOL    HW116202   4.116   6.072   0.366
 5101SOL    HW216203   4.147   6.232   0.376
 5102SOL     OW16204   3.399   6.486   5.001
 5102SOL    HW116205   3.413   6.419   4.927
 5102SOL    HW216206   3.361   6.440   5.081
 5103SOL     OW16207   0.904   0.984   4.215
 5103SOL    HW116208   0.979   0.978   4.148
 5103SOL    HW216209   0.941   1.012   4.303
 5104SOL     OW16210   1.542   0.319   1.232
 5104SOL    HW116211   1.491   0.339   1.316
 5104SOL    HW216212   1.596   0.399   1.207
 5105SOL     OW16213   2.973   3.982   6.709
 5105SOL    HW116214   2.975   3.882   6.719
 5105SOL    HW216215   3.015   4.007   6.622
 5106SOL     OW16216   3.193   0.170   2.222
 5106SOL    HW116217   3.152   0.250   2.267
 5106SOL    HW216218   3.203   0.189   2.125
 5107SOL     OW16219   1.588   6.755   5.528
 5107SOL    HW116220   1.648   6.832   5.506
 5107SOL    HW216221   1.496   6.775   5.496
 5108SOL     OW16222   3.236   3.542   4.149
 5108SOL    HW116223   3.244   3.539   4.049
 5108SOL    HW216224   3.243   3.449   4.185
 5109SOL     OW16225   6.931   1.204   1.271
 5109SOL    HW116226   6.910   1.107   1.255
 5109SOL    HW216227   6.846   1.253   1.293
 5110SOL     OW16228   2.053   5.628   5.901
 5110SOL    HW116229   2.022   5.715   5.863
 5110SOL    HW216230   2.082   5.642   5.996
 5111SOL     OW16231   1.256   0.895   0.926
 5111SOL    HW116232   1.305   0.926   1.008
 5111SOL    HW216233   1.159   0.916   0.936
 5112SOL     OW16234   0.283   6.349   4.038
 5112SOL    HW116235   0.234   6.409   4.101
 5112SOL    HW216236   0.218   6.309   3.973
 5113SOL     OW16237   1.296   6.779   0.033
 5113SOL    HW116238   1.360   6.750   6.988
 5113SOL    HW216239   1.211   6.727   0.023
 5114SOL     OW16240   4.184   4.983   0.373
 5114SOL    HW116241   4.137   4.898   0.396
 5114SOL    HW216242   4.120   5.059   0.380
 5115SOL     OW16243   1.951   3.483   5.524
 5115SOL    HW116244   2.016   3.556   5.504
 5115SOL    HW216245   1.904   3.503   5.610
 5116SOL     OW16246   6.940   4.148   1.124
 5116SOL    HW116247   6.920   4.222   1.060
 5116SOL    HW216248   6.921   4.060   1.080
 5117SOL     OW16249   2.444   4.487   4.368
 5117SOL    HW116250   2.482   4.552   4.303
 5117SOL    HW216251   2.475   4.510   4.460
 5118SOL     OW16252   4.503   6.242   0.989
 5118SOL    HW116253   4.408   6.260   1.015
 5118SOL    HW216254   4.523   6.287   0.902
 5119SOL     OW16255   5.809   6.984   2.158
 5119SOL    HW116256   5.904   6.961   2.178
 5119SOL    HW216257   5.786   0.044   2.202
 5120SOL     OW16258   4.984   1.348   2.810
 5120SOL    HW116259   4.965   1.360   2.908
 5120SOL    HW216260   4.912   1.292   2.769
 5121SOL     OW16261   0.314   3.834   5.355
 5121SOL    HW116262   0.387   3.807   5.418
 5121SOL    HW216263   0.350   3.899   5.288
 5122SOL     OW16264   1.831   6.381   3.680
 5122SOL    HW116265   1.801   6.430   3.762
 5122SOL    HW216266   1.880   6.445   3.620
 5123SOL     OW16267   5.463   4.915   2.229
 5123SOL    HW116268   5.427   4.837   2.281
 5123SOL    HW216269   5.388   4.978   2.208
 5124SOL     OW16270   2.925   6.257   6.983
 5124SOL    HW116271   3.003   6.197   7.002
 5124SOL    HW216272   2.908   6.315   0.036
 5125SOL     OW16273   7.023   2.829   5.713
 5125SOL    HW116274   0.047   2.817   5.627
 5125SOL    HW216275   7.006   2.740   5.754
 5126SOL     OW16276   5.142   3.435   6.236
 5126SOL    HW116277   5.101   3.434   6.144
 5126SOL    HW216278   5.074   3.467   6.302
 5127SOL     OW16279   5.924   3.226   6.588
 5127SOL    HW116280   5.900   3.146   6.643
 5127SOL    HW216281   5.942   3.197   6.494
 5128SOL     OW16282   0.599   0.789   6.731
 5128SOL    HW116283   0.597   0.880   6.770
 5128SOL    HW216284   0.642   0.792   6.641
 5129SOL     OW16285   4.134   2.214   2.837
 5129SOL    HW116286   4.092   2.179   2.753
 5129SOL    HW216287   4.113   2.153   2.913
 5130SOL     OW16288   0.982   6.158   4.783
 5130SOL    HW116289   1.062   6.179   4.728
 5130SOL    HW216290   0.909   6.223   4.762
 5131SOL     OW16291   3.258   4.945   3.546
 5131SOL    HW116292   3.200   4.947   3.465
 5131SOL    HW216293   3.348   4.909   3.522
 5132SOL     OW16294   3.158   1.116   6.811
 5132SOL    HW116295   3.149   1.018   6.794
 5132SOL    HW216296   3.240   1.133   6.866
 5133SOL     OW16297   4.845   4.395   6.611
 5133SOL    HW116298   4.750   4.411   6.640
 5133SOL    HW216299   4.894   4.482   6.611
 5134SOL     OW16300   6.133   6.284   1.143
 5134SOL    HW116301   6.227   6.301   1.112
 5134SOL    HW216302   6.070   6.303   1.067
 5135SOL     OW16303   6.285   2.906   2.474
 5135SOL    HW116304   6.272   2.812   2.506
 5135SOL    HW216305   6.274   2.970   2.550
 5136SOL     OW16306   1.349   1.088   5.768
 5136SOL    HW116307   1.436   1.136   5.767
 5136SOL    HW216308   1.274   1.154   5.775
 5137SOL     OW16309   6.249   1.107   4.566
 5137SOL    HW116310   6.281   1.188   4.615
 5137SOL    HW216311   6.220   1.038   4.632
 5138SOL     OW16312   2.952   3.361   3.870
 5138SOL    HW116313   2.925   3.438   3.927
 5138SOL    HW216314   2.910   3.369   3.780
 5139SOL     OW16315   2.935   0.144   5.717
 5139SOL    HW116316   3.001   0.204   5.761
 5139SOL    HW216317   2.883   0.094   5.787
 5140SOL     OW16318   3.722   3.183   6.670
 5140SOL    HW116319   3.807   3.145   6.634
 5140SOL    HW216320   3.688   3.253   6.608
 5141SOL     OW16321   6.599   2.681   1.677
 5141SOL    HW116322   6.592   2.616   1.601
 5141SOL    HW216323   6.532   2.656   1.748
 5142SOL     OW16324   0.093   0.098   2.332
 5142SOL    HW116325   7.025   0.064   2.335
 5142SOL    HW216326   0.092   0.197   2.326
 5143SOL     OW16327   6.952   6.364   2.906
 5143SOL    HW116328   6.879   6.432   2.919
 5143SOL    HW216329   0.008   6.394   2.955
 5144SOL     OW16330   2.327   2.998   5.419
 5144SOL    HW116331   2.393   3.008   5.344
 5144SOL    HW216332   2.246   2.949   5.387
 5145SOL     OW16333   2.230   5.502   6.572
 5145SOL    HW116334   2.310   5.495   6.511
 5145SOL    HW216335   2.237   5.432   6.643
 5146SOL     OW16336   5.277   5.736   6.663
 5146SOL    HW116337   5.210   5.663   6.660
 5146SOL    HW216338   5.331   5.735   6.579
 5147SOL     OW16339   4.536   2.580   3.171
 5147SOL    HW116340   4.458   2.614   3.223
 5147SOL    HW216341   4.617   2.636   3.191
 5148SOL     OW16342   0.809   0.172   6.362
 5148SOL    HW116343   0.815   0.135   6.455
 5148SOL    HW216344   0.871   0.250   6.354
 5149SOL     OW16345   4.810   5.120   3.962
 5149SOL    HW116346   4.907   5.144   3.961
 5149SOL    HW216347   4.788   5.068   3.880
 5150SOL     OW16348   0.205   6.578   4.158
 5150SOL    HW116349   0.207   6.672   4.122
 5150SOL    HW216350   0.140   6.573   4.234
 5151SOL     OW16351   5.906   5.737   1.985
 5151SOL    HW116352   5.941   5.659   1.935
 5151SOL    HW216353   5.811   5.754   1.960
 5152SOL     OW16354   1.656   1.013   0.611
 5152SOL    HW116355   1.624   1.098   0.570
 5152SOL    HW216356   1.683   1.029   0.705
 5153SOL     OW16357   1.110   1.775   0.948
 5153SOL    HW116358   1.053   1.694   0.963
 5153SOL    HW216359   1.110   1.831   1.031
 5154SOL     OW16360   7.022   2.911   0.609
 5154SOL    HW116361   0.007   2.900   0.708
 5154SOL    HW216362   7.019   3.008   0.587
 5155SOL     OW16363   1.811   1.290   0.367
 5155SOL    HW116364   1.867   1.208   0.376
 5155SOL    HW216365   1.821   1.347   0.448
 5156SOL     OW16366   5.480   6.305   5.458
 5156SOL    HW116367   5.459   6.398   5.426
 5156SOL    HW216368   5.401   6.268   5.506
 5157SOL     OW16369   3.143   0.175   1.715
 5157SOL    HW116370   3.129   0.081   1.684
 5157SOL    HW216371   3.056   0.225   1.712
 5158SOL     OW16372   1.918   2.304   1.510
 5158SOL    HW116373   1.845   2.363   1.476
 5158SOL    HW216374   1.943   2.331   1.603
 5159SOL     OW16375   6.493   2.911   5.946
 5159SOL    HW116376   6.436   2.989   5.973
 5159SOL    HW216377   6.468   2.882   5.853
 5160SOL     OW16378   6.112   6.835   3.749
 5160SOL    HW116379   6.031   6.827   3.807
 5160SOL    HW216380   6.085   6.844   3.654
 5161SOL     OW16381   1.321   3.434   0.265
 5161SOL    HW116382   1.313   3.503   0.337
 5161SOL    HW216383   1.369   3.472   0.187
 5162SOL     OW16384   6.525   0.168   3.618
 5162SOL    HW116385   6.592   0.184   3.691
 5162SOL    HW216386   6.496   0.072   3.619
 5163SOL     OW16387   2.764   0.706   1.613
 5163SOL    HW116388   2.769   0.745   1.521
 5163SOL    HW216389   2.682   0.650   1.621
 5164SOL     OW16390   2.723   3.636   6.995
 5164SOL    HW116391   2.737   3.720   0.020
 5164SOL    HW216392   2.676   3.568   0.025
 5165SOL     OW16393   1.724   4.222   6.256
 5165SOL    HW116394   1.624   4.229   6.259
 5165SOL    HW216395   1.760   4.220   6.349
 5166SOL     OW16396   1.165   5.430   0.916
 5166SOL    HW116397   1.081   5.383   0.942
 5166SOL    HW216398   1.183   5.505   0.980
 5167SOL     OW16399   5.497   3.253   5.302
 5167SOL    HW116400   5.491   3.153   5.296
 5167SOL    HW216401   5.544   3.289   5.221
 5168SOL     OW16402   4.338   2.355   2.714
 5168SOL    HW116403   4.374   2.414   2.786
 5168SOL    HW216404   4.253   2.312   2.744
 5169SOL     OW16405   4.008   5.577   4.364
 5169SOL    HW116406   3.911   5.578   4.337
 5169SOL    HW216407   4.058   5.644   4.309
 5170SOL     OW16408   2.117   3.271   6.464
 5170SOL    HW116409   2.093   3.363   6.433
 5170SOL    HW216410   2.197   3.239   6.414
 5171SOL     OW16411   1.951   5.838   5.702
 5171SOL    HW116412   1.941   5.918   5.761
 5171SOL    HW216413   1.899   5.852   5.618
 5172SOL     OW16414   5.993   5.320   5.168
 5172SOL    HW116415   5.936   5.238   5.155
 5172SOL    HW216416   5.935   5.401   5.164
 5173SOL     OW16417   4.271   4.685   5.825
 5173SOL    HW116418   4.369   4.704   5.827
 5173SOL    HW216419   4.242   4.672   5.730
 5174SOL     OW16420   2.215   6.335   3.782
 5174SOL    HW116421   2.284   6.272   3.748
 5174SOL    HW216422   2.138   6.338   3.718
 5175SOL     OW16423   3.193   3.234   0.046
 5175SOL    HW116424   3.185   3.334   0.044
 5175SOL    HW216425   3.131   3.197   0.115
 5176SOL     OW16426   6.227   6.589   6.899
 5176SOL    HW116427   6.299   6.619   6.962
 5176SOL    HW216428   6.178   6.669   6.865
 5177SOL     OW16429   6.442   6.981   0.344
 5177SOL    HW116430   6.491   6.918   0.285
 5177SOL    HW216431   6.343   6.964   0.336
 5178SOL     OW16432   0.929   4.165   1.783
 5178SOL    HW116433   0.863   4.132   1.850
 5178SOL    HW216434   0.905   4.130   1.692
 5179SOL     OW16435   5.082   6.002   2.562
 5179SOL    HW116436   5.151   5.938   2.528
 5179SOL    HW216437   5.088   6.008   2.661
 5180SOL     OW16438   2.183   6.157   2.628
 5180SOL    HW116439   2.090   6.120   2.625
 5180SOL    HW216440   2.226   6.131   2.714
 5181SOL     OW16441   6.868   0.110   6.102
 5181SOL    HW116442   6.856   0.063   6.190
 5181SOL    HW216443   6.803   0.186   6.096
 5182SOL     OW16444   2.791   6.454   3.295
 5182SOL    HW116445   2.731   6.476   3.372
 5182SOL    HW216446   2.789   6.530   3.229
 5183SOL     OW16447   4.175   1.531   3.866
 5183SOL    HW116448   4.198   1.617   3.912
 5183SOL    HW216449   4.135   1.550   3.777
 5184SOL     OW16450   2.776   1.357   3.737
 5184SOL    HW116451   2.768   1.327   3.642
 5184SOL    HW216452   2.770   1.457   3.740
 5185SOL     OW16453   6.565   0.328   1.295
 5185SOL    HW116454   6.594   0.404   1.237
 5185SOL    HW216455   6.469   0.339   1.321
 5186SOL     OW16456   6.928   3.703   6.649
 5186SOL    HW116457   6.991   3.753   6.590
 5186SOL    HW216458   6.852   3.667   6.595
 5187SOL     OW16459   1.298   4.422   4.899
 5187SOL    HW116460   1.335   4.513   4.917
 5187SOL    HW216461   1.260   4.419   4.807
 5188SOL     OW16462   5.855   0.103   2.679
 5188SOL    HW116463   5.851   0.032   2.609
 5188SOL    HW216464   5.804   0.183   2.649
 5189SOL     OW16465   5.444   0.029   6.248
 5189SOL    HW116466   5.366   0.037   6.309
 5189SOL    HW216467   5.479   6.962   6.250
 5190SOL     OW16468   1.733   4.442   0.567
 5190SOL    HW116469   1.825   4.405   0.551
 5190SOL    HW216470   1.706   4.422   0.661
 5191SOL     OW16471   2.803   5.076   1.865
 5191SOL    HW116472   2.838   5.065   1.958
 5191SOL    HW216473   2.865   5.135   1.813
 5192SOL     OW16474   1.940   5.094   2.486
 5192SOL    HW116475   1.881   5.094   2.405
 5192SOL    HW216476   1.920   5.175   2.541
 5193SOL     OW16477   5.240   0.225   5.309
 5193SOL    HW116478   5.325   0.232   5.360
 5193SOL    HW216479   5.163   0.213   5.372
 5194SOL     OW16480   5.324   1.498   6.070
 5194SOL    HW116481   5.333   1.432   5.995
 5194SOL    HW216482   5.276   1.579   6.037
 5195SOL     OW16483   0.327   0.757   4.725
 5195SOL    HW116484   0.394   0.802   4.667
 5195SOL    HW216485   0.374   0.697   4.791
 5196SOL     OW16486   6.067   6.642   3.317
 5196SOL    HW116487   6.059   6.661   3.415
 5196SOL    HW216488   5.980   6.607   3.282
 5197SOL     OW16489   0.929   3.362   4.812
 5197SOL    HW116490   0.929   3.352   4.912
 5197SOL    HW216491   0.908   3.274   4.770
 5198SOL     OW16492   5.821   5.506   3.385
 5198SOL    HW116493   5.795   5.422   3.337
 5198SOL    HW216494   5.742   5.544   3.432
 5199SOL     OW16495   0.343   4.709   1.694
 5199SOL    HW116496   0.293   4.624   1.682
 5199SOL    HW216497   0.328   4.744   1.787
 5200SOL     OW16498   0.124   3.848   4.609
 5200SOL    HW116499   0.209   3.882   4.648
 5200SOL    HW216500   0.143   3.774   4.545
 5201SOL     OW16501   1.004   5.296   4.238
 5201SOL    HW116502   1.079   5.244   4.277
 5201SOL    HW216503   0.962   5.352   4.309
 5202SOL     OW16504   1.021   4.762   2.144
 5202SOL    HW116505   0.927   4.791   2.127
 5202SOL    HW216506   1.076   4.777   2.062
 5203SOL     OW16507   0.548   3.051   0.175
 5203SOL    HW116508   0.627   2.990   0.180
 5203SOL    HW216509   0.538   3.100   0.262
 5204SOL     OW16510   4.888   4.408   0.089
 5204SOL    HW116511   4.825   4.408   0.012
 5204SOL    HW216512   4.837   4.397   0.174
 5205SOL     OW16513   1.408   0.082   1.162
 5205SOL    HW116514   1.329   0.104   1.105
 5205SOL    HW216515   1.438   0.165   1.209
 5206SOL     OW16516   0.241   4.271   5.016
 5206SOL    HW116517   0.286   4.209   5.081
 5206SOL    HW216518   0.237   4.363   5.057
 5207SOL     OW16519   1.777   4.627   4.068
 5207SOL    HW116520   1.807   4.669   4.153
 5207SOL    HW216521   1.733   4.539   4.087
 5208SOL     OW16522   4.616   1.312   6.933
 5208SOL    HW116523   4.716   1.311   6.937
 5208SOL    HW216524   4.587   1.357   6.849
 5209SOL     OW16525   5.542   6.059   3.122
 5209SOL    HW116526   5.480   6.090   3.050
 5209SOL    HW216527   5.571   6.137   3.178
 5210SOL     OW16528   4.423   5.015   3.467
 5210SOL    HW116529   4.428   4.930   3.414
 5210SOL    HW216530   4.515   5.052   3.479
 5211SOL     OW16531   3.831   3.729   2.562
 5211SOL    HW116532   3.785   3.644   2.587
 5211SOL    HW216533   3.763   3.797   2.533
 5212SOL     OW16534   0.927   1.669   0.480
 5212SOL    HW116535   0.996   1.703   0.417
 5212SOL    HW216536   0.970   1.647   0.568
 5213SOL     OW16537   4.011   1.712   6.471
 5213SOL    HW116538   4.030   1.658   6.552
 5213SOL    HW216539   3.964   1.656   6.403
 5214SOL     OW16540   5.724   1.575   5.863
 5214SOL    HW116541   5.762   1.547   5.775
 5214SOL    HW216542   5.648   1.639   5.848
 5215SOL     OW16543   5.088   5.319   2.542
 5215SOL    HW116544   5.051   5.276   2.625
 5215SOL    HW216545   5.024   5.389   2.511
 5216SOL     OW16546   4.707   5.890   0.987
 5216SOL    HW116547   4.690   5.917   0.892
 5216SOL    HW216548   4.802   5.858   0.996
 5217SOL     OW16549   2.536   4.614   4.160
 5217SOL    HW116550   2.483   4.699   4.153
 5217SOL    HW216551   2.505   4.549   4.091
 5218SOL     OW16552   1.619   0.273   4.564
 5218SOL    HW116553   1.675   0.321   4.496
 5218SOL    HW216554   1.673   0.201   4.606
 5219SOL     OW16555   2.460   5.505   0.170
 5219SOL    HW116556   2.371   5.496   0.126
 5219SOL    HW216557   2.530   5.518   0.099
 5220SOL     OW16558   0.543   6.819   2.265
 5220SOL    HW116559   0.569   6.906   2.224
 5220SOL    HW216560   0.620   6.783   2.318
 5221SOL     OW16561   5.022   1.121   5.215
 5221SOL    HW116562   5.041   1.170   5.300
 5221SOL    HW216563   5.028   1.022   5.231
 5222SOL     OW16564   1.040   0.349   2.525
 5222SOL    HW116565   1.126   0.319   2.483
 5222SOL    HW216566   0.969   0.281   2.509
 5223SOL     OW16567   5.340   6.803   1.417
 5223SOL    HW116568   5.281   6.852   1.353
 5223SOL    HW216569   5.432   6.793   1.378
 5224SOL     OW16570   5.819   1.780   2.666
 5224SOL    HW116571   5.772   1.692   2.653
 5224SOL    HW216572   5.849   1.788   2.761
 5225SOL     OW16573   5.302   5.834   5.312
 5225SOL    HW116574   5.268   5.876   5.396
 5225SOL    HW216575   5.225   5.812   5.252
 5226SOL     OW16576   1.404   6.600   4.231
 5226SOL    HW116577   1.415   6.700   4.229
 5226SOL    HW216578   1.461   6.562   4.304
 5227SOL     OW16579   6.183   4.815   3.024
 5227SOL    HW116580   6.159   4.788   3.117
 5227SOL    HW216581   6.254   4.886   3.027
 5228SOL     OW16582   5.602   1.064   0.969
 5228SOL    HW116583   5.596   1.009   0.886
 5228SOL    HW216584   5.692   1.052   1.010
 5229SOL     OW16585   0.998   4.425   4.757
 5229SOL    HW116586   0.955   4.340   4.787
 5229SOL    HW216587   1.045   4.409   4.670
 5230SOL     OW16588   0.686   6.795   6.793
 5230SOL    HW116589   0.744   6.863   6.839
 5230SOL    HW216590   0.604   6.779   6.849
 5231SOL     OW16591   3.592   3.142   3.502
 5231SOL    HW116592   3.626   3.146   3.407
 5231SOL    HW216593   3.526   3.067   3.510
 5232SOL     OW16594   4.994   2.811   6.280
 5232SOL    HW116595   5.081   2.838   6.321
 5232SOL    HW216596   4.929   2.788   6.353
 5233SOL     OW16597   0.434   0.798   2.253
 5233SOL    HW116598   0.419   0.700   2.259
 5233SOL    HW216599   0.367   0.845   2.310
 5234SOL     OW16600   3.776   6.759   1.069
 5234SOL    HW116601   3.814   6.847   1.039
 5234SOL    HW216602   3.697   6.775   1.128
 5235SOL     OW16603   0.772   3.591   1.253
 5235SOL    HW116604   0.800   3.506   1.298
 5235SOL    HW216605   0.724   3.570   1.168
 5236SOL     OW16606   5.102   2.824   1.047
 5236SOL    HW116607   5.167   2.767   1.097
 5236SOL    HW216608   5.021   2.770   1.024
 5237SOL     OW16609   2.517   1.836   4.942
 5237SOL    HW116610   2.547   1.931   4.935
 5237SOL    HW216611   2.598   1.777   4.947
 5238SOL     OW16612   1.860   4.531   1.000
 5238SOL    HW116613   1.886   4.512   1.094
 5238SOL    HW216614   1.810   4.618   0.996
 5239SOL     OW16615   2.865   3.533   4.994
 5239SOL    HW116616   2.842   3.517   4.898
 5239SOL    HW216617   2.864   3.631   5.012
 5240SOL     OW16618   3.297   2.093   4.840
 5240SOL    HW116619   3.237   2.158   4.888
 5240SOL    HW216620   3.302   2.008   4.892
 5241SOL     OW16621   2.117   5.623   6.179
 5241SOL    HW116622   2.198   5.564   6.175
 5241SOL    HW216623   2.035   5.567   6.191
 5242SOL     OW16624   5.550   1.119   6.014
 5242SOL    HW116625   5.579   1.175   6.091
 5242SOL    HW216626   5.481   1.053   6.044
 5243SOL     OW16627   0.945   4.611   1.390
 5243SOL    HW116628   0.902   4.566   1.312
 5243SOL    HW216629   0.912   4.571   1.475
 5244SOL     OW16630   5.276   3.943   6.368
 5244SOL    HW116631   5.331   3.871   6.327
 5244SOL    HW216632   5.312   4.033   6.342
 5245SOL     OW16633   4.965   3.999   6.881
 5245SOL    HW116634   5.023   4.008   6.961
 5245SOL    HW216635   4.947   3.902   6.863
 5246SOL     OW16636   1.027   3.194   2.929
 5246SOL    HW116637   1.053   3.100   2.907
 5246SOL    HW216638   1.087   3.229   3.001
 5247SOL     OW16639   0.540   5.282   1.340
 5247SOL    HW116640   0.470   5.294   1.411
 5247SOL    HW216641   0.526   5.195   1.293
 5248SOL     OW16642   4.788   0.733   6.597
 5248SOL    HW116643   4.830   0.669   6.661
 5248SOL    HW216644   4.723   0.791   6.645
 5249SOL     OW16645   1.165   5.416   4.811
 5249SOL    HW116646   1.074   5.373   4.816
 5249SOL    HW216647   1.185   5.440   4.716
 5250SOL     OW16648   0.933   0.790   6.078
 5250SOL    HW116649   0.890   0.839   6.002
 5250SOL    HW216650   0.966   0.855   6.146
 5251SOL     OW16651   0.134   3.130   1.399
 5251SOL    HW116652   0.227   3.118   1.363
 5251SOL    HW216653   0.137   3.184   1.482
 5252SOL     OW16654   4.331   5.838   0.389
 5252SOL    HW116655   4.310   5.928   0.427
 5252SOL    HW216656   4.371   5.850   0.298
 5253SOL     OW16657   5.532   3.278   3.410
 5253SOL    HW116658   5.533   3.181   3.437
 5253SOL    HW216659   5.486   3.288   3.322
 5254SOL     OW16660   4.669   1.009   4.082
 5254SOL    HW116661   4.628   1.018   3.992
 5254SOL    HW216662   4.703   0.916   4.093
 5255SOL     OW16663   3.501   6.567   4.614
 5255SOL    HW116664   3.472   6.483   4.660
 5255SOL    HW216665   3.516   6.639   4.683
 5256SOL     OW16666   5.921   6.545   3.661
 5256SOL    HW116667   6.011   6.524   3.624
 5256SOL    HW216668   5.916   6.514   3.757
 5257SOL     OW16669   3.289   0.933   1.214
 5257SOL    HW116670   3.320   0.912   1.307
 5257SOL    HW216671   3.189   0.942   1.214
 5258SOL     OW16672   6.000   2.987   2.410
 5258SOL    HW116673   5.905   2.958   2.399
 5258SOL    HW216674   6.062   2.911   2.389
 5259SOL     OW16675   4.767   4.933   2.283
 5259SOL    HW116676   4.690   4.973   2.233
 5259SOL    HW216677   4.757   4.833   2.284
 5260SOL     OW16678   5.216   3.390   1.482
 5260SOL    HW116679   5.135   3.409   1.538
 5260SOL    HW216680   5.189   3.381   1.386
 5261SOL     OW16681   1.630   2.836   4.657
 5261SOL    HW116682   1.572   2.879   4.727
 5261SOL    HW216683   1.709   2.793   4.701
 5262SOL     OW16684   2.735   6.501   2.338
 5262SOL    HW116685   2.755   6.445   2.418
 5262SOL    HW216686   2.643   6.537   2.344
 5263SOL     OW16687   0.854   6.364   0.197
 5263SOL    HW116688   0.799   6.352   0.280
 5263SOL    HW216689   0.816   6.439   0.143
 5264SOL     OW16690   0.523   2.571   0.936
 5264SOL    HW116691   0.462   2.492   0.932
 5264SOL    HW216692   0.610   2.545   0.977
 5265SOL     OW16693   5.314   4.831   1.839
 5265SOL    HW116694   5.239   4.882   1.883
 5265SOL    HW216695   5.336   4.874   1.752
 5266SOL     OW16696   2.058   6.612   1.109
 5266SOL    HW116697   1.967   6.600   1.148
 5266SOL    HW216698   2.054   6.678   1.034
 5267SOL     OW16699   5.144   4.865   4.639
 5267SOL    HW116700   5.138   4.923   4.558
 5267SOL    HW216701   5.160   4.770   4.610
 5268SOL     OW16702   5.971   4.661   4.278
 5268SOL    HW116703   6.061   4.617   4.288
 5268SOL    HW216704   5.980   4.759   4.298
 5269SOL     OW16705   1.639   6.036   3.946
 5269SOL    HW116706   1.701   5.991   4.011
 5269SOL    HW216707   1.653   5.998   3.855
 5270SOL     OW16708   6.238   2.558   2.437
 5270SOL    HW116709   6.248   2.494   2.361
 5270SOL    HW216710   6.294   2.527   2.514
 5271SOL     OW16711   4.890   4.810   4.829
 5271SOL    HW116712   4.872   4.850   4.919
 5271SOL    HW216713   4.943   4.875   4.774
 5272SOL     OW16714   1.626   1.010   4.688
 5272SOL    HW116715   1.543   1.066   4.695
 5272SOL    HW216716   1.650   0.999   4.592
 5273SOL     OW16717   0.400   1.244   4.151
 5273SOL    HW116718   0.400   1.184   4.072
 5273SOL    HW216719   0.464   1.210   4.219
 5274SOL     OW16720   6.519   5.277   3.751
 5274SOL    HW116721   6.581   5.333   3.807
 5274SOL    HW216722   6.506   5.188   3.795
 5275SOL     OW16723   2.117   0.025   0.047
 5275SOL    HW116724   2.019   0.011   0.060
 5275SOL    HW216725   2.145   7.012   6.986
 5276SOL     OW16726   0.227   6.574   1.356
 5276SOL    HW116727   0.225   6.673   1.339
 5276SOL    HW216728   0.134   6.539   1.357
 5277SOL     OW16729   1.082   1.827   2.829
 5277SOL    HW116730   1.051   1.736   2.799
 5277SOL    HW216731   1.181   1.830   2.827
 5278SOL     OW16732   1.288   5.295   5.657
 5278SOL    HW116733   1.375   5.315   5.613
 5278SOL    HW216734   1.213   5.320   5.595
 5279SOL     OW16735   1.835   5.774   6.464
 5279SOL    HW116736   1.816   5.820   6.550
 5279SOL    HW216737   1.750   5.743   6.423
 5280SOL     OW16738   4.158   6.240   4.941
 5280SOL    HW116739   4.087   6.310   4.939
 5280SOL    HW216740   4.165   6.201   5.032
 5281SOL     OW16741   2.375   0.902   4.797
 5281SOL    HW116742   2.422   0.979   4.754
 5281SOL    HW216743   2.277   0.921   4.801
 5282SOL     OW16744   1.208   0.048   1.764
 5282SOL    HW116745   1.257   0.134   1.775
 5282SOL    HW216746   1.269   7.006   1.723
 5283SOL     OW16747   0.610   1.216   4.360
 5283SOL    HW116748   0.579   1.311   4.353
 5283SOL    HW216749   0.643   1.199   4.453
 5284SOL     OW16750   4.583   2.423   1.529
 5284SOL    HW116751   4.536   2.339   1.556
 5284SOL    HW216752   4.519   2.485   1.485
 5285SOL     OW16753   1.304   2.258   4.353
 5285SOL    HW116754   1.276   2.167   4.385
 5285SOL    HW216755   1.241   2.327   4.387
 5286SOL     OW16756   6.053   3.107   0.856
 5286SOL    HW116757   6.067   3.188   0.914
 5286SOL    HW216758   6.020   3.136   0.766
 5287SOL     OW16759   2.477   5.200   1.472
 5287SOL    HW116760   2.532   5.194   1.389
 5287SOL    HW216761   2.453   5.108   1.503
 5288SOL     OW16762   4.214   0.628   2.260
 5288SOL    HW116763   4.214   0.604   2.357
 5288SOL    HW216764   4.263   0.558   2.209
 5289SOL     OW16765   2.388   4.819   6.407
 5289SOL    HW116766   2.433   4.811   6.496
 5289SOL    HW216767   2.293   4.788   6.415
 5290SOL     OW16768   1.564   2.714   5.378
 5290SOL    HW116769   1.646   2.664   5.405
 5290SOL    HW216770   1.485   2.677   5.428
 5291SOL     OW16771   2.828   4.841   4.865
 5291SOL    HW116772   2.799   4.814   4.774
 5291SOL    HW216773   2.861   4.761   4.915
 5292SOL     OW16774   6.797   4.173   6.009
 5292SOL    HW116775   6.712   4.122   6.020
 5292SOL    HW216776   6.778   4.271   6.017
 5293SOL     OW16777   1.923   5.709   4.446
 5293SOL    HW116778   1.835   5.693   4.400
 5293SOL    HW216779   1.986   5.754   4.382
 5294SOL     OW16780   3.731   0.494   5.233
 5294SOL    HW116781   3.675   0.558   5.181
 5294SOL    HW216782   3.796   0.545   5.289
 5295SOL     OW16783   2.846   1.415   2.215
 5295SOL    HW116784   2.788   1.461   2.148
 5295SOL    HW216785   2.922   1.475   2.239
 5296SOL     OW16786   4.934   5.043   1.219
 5296SOL    HW116787   4.911   5.040   1.122
 5296SOL    HW216788   5.033   5.046   1.230
 5297SOL     OW16789   2.406   4.811   0.572
 5297SOL    HW116790   2.432   4.830   0.666
 5297SOL    HW216791   2.367   4.719   0.566
 5298SOL     OW16792   2.067   0.709   0.712
 5298SOL    HW116793   2.005   0.642   0.753
 5298SOL    HW216794   2.074   0.693   0.614
 5299SOL     OW16795   2.973   1.778   0.537
 5299SOL    HW116796   2.973   1.781   0.437
 5299SOL    HW216797   2.906   1.709   0.567
 5300SOL     OW16798   1.939   4.361   0.122
 5300SOL    HW116799   1.980   4.382   0.032
 5300SOL    HW216800   1.921   4.263   0.128
 5301SOL     OW16801   4.965   0.423   5.853
 5301SOL    HW116802   5.015   0.506   5.826
 5301SOL    HW216803   5.007   0.343   5.809
 5302SOL     OW16804   5.455   5.894   3.328
 5302SOL    HW116805   5.401   5.830   3.272
 5302SOL    HW216806   5.506   5.956   3.268
 5303SOL     OW16807   0.186   4.972   5.772
 5303SOL    HW116808   0.234   5.058   5.756
 5303SOL    HW216809   0.095   4.992   5.810
 5304SOL     OW16810   6.704   0.803   1.313
 5304SOL    HW116811   6.664   0.886   1.352
 5304SOL    HW216812   6.632   0.748   1.271
 5305SOL     OW16813   1.386   4.937   2.912
 5305SOL    HW116814   1.289   4.919   2.896
 5305SOL    HW216815   1.402   4.950   3.010
 5306SOL     OW16816   6.742   3.874   5.673
 5306SOL    HW116817   6.681   3.800   5.700
 5306SOL    HW216818   6.693   3.937   5.612
 5307SOL     OW16819   5.538   2.629   1.250
 5307SOL    HW116820   5.599   2.692   1.202
 5307SOL    HW216821   5.492   2.570   1.184
 5308SOL     OW16822   1.407   4.286   2.825
 5308SOL    HW116823   1.368   4.378   2.832
 5308SOL    HW216824   1.394   4.252   2.732
 5309SOL     OW16825   5.410   6.476   2.971
 5309SOL    HW116826   5.493   6.447   3.018
 5309SOL    HW216827   5.433   6.540   2.897
 5310SOL     OW16828   6.250   3.106   3.147
 5310SOL    HW116829   6.204   3.044   3.083
 5310SOL    HW216830   6.181   3.156   3.200
 5311SOL     OW16831   6.030   0.140   0.512
 5311SOL    HW116832   6.006   0.085   0.432
 5311SOL    HW216833   6.086   0.085   0.575
 5312SOL     OW16834   6.785   6.303   1.150
 5312SOL    HW116835   6.745   6.247   1.077
 5312SOL    HW216836   6.725   6.381   1.168
 5313SOL     OW16837   6.969   5.080   5.355
 5313SOL    HW116838   6.949   5.124   5.268
 5313SOL    HW216839   0.041   5.085   5.373
 5314SOL     OW16840   6.251   0.405   1.466
 5314SOL    HW116841   6.240   0.374   1.372
 5314SOL    HW216842   6.248   0.505   1.469
 5315SOL     OW16843   4.239   1.307   3.733
 5315SOL    HW116844   4.261   1.369   3.809
 5315SOL    HW216845   4.294   1.332   3.654
 5316SOL     OW16846   0.795   2.817   5.059
 5316SOL    HW116847   0.763   2.754   4.988
 5316SOL    HW216848   0.853   2.768   5.124
 5317SOL     OW16849   6.911   2.013   5.864
 5317SOL    HW116850   6.968   1.980   5.789
 5317SOL    HW216851   6.944   2.101   5.896
 5318SOL     OW16852   6.386   2.853   0.105
 5318SOL    HW116853   6.459   2.790   0.133
 5318SOL    HW216854   6.332   2.811   0.031
 5319SOL     OW16855   4.011   6.960   1.260
 5319SOL    HW116856   4.111   6.950   1.257
 5319SOL    HW216857   3.976   6.915   1.342
 5320SOL     OW16858   3.202   5.863   1.129
 5320SOL    HW116859   3.116   5.874   1.079
 5320SOL    HW216860   3.194   5.905   1.219
 5321SOL     OW16861   1.941   4.481   4.877
 5321SOL    HW116862   2.003   4.457   4.952
 5321SOL    HW216863   1.938   4.406   4.811
 5322SOL     OW16864   5.486   6.813   1.783
 5322SOL    HW116865   5.451   6.730   1.739
 5322SOL    HW216866   5.575   6.794   1.824
 5323SOL     OW16867   4.958   1.275   5.450
 5323SOL    HW116868   5.023   1.348   5.430
 5323SOL    HW216869   4.870   1.295   5.406
 5324SOL     OW16870   2.198   2.070   0.333
 5324SOL    HW116871   2.175   1.988   0.280
 5324SOL    HW216872   2.148   2.148   0.297
 5325SOL     OW16873   2.662   2.247   4.884
 5325SOL    HW116874   2.637   2.342   4.902
 5325SOL    HW216875   2.605   2.211   4.809
 5326SOL     OW16876   6.042   6.484   2.902
 5326SOL    HW116877   6.001   6.573   2.880
 5326SOL    HW216878   6.039   6.426   2.821
 5327SOL     OW16879   5.343   2.552   5.194
 5327SOL    HW116880   5.248   2.579   5.176
 5327SOL    HW216881   5.395   2.560   5.109
 5328SOL     OW16882   4.160   4.347   6.919
 5328SOL    HW116883   4.192   4.262   6.878
 5328SOL    HW216884   4.149   4.335   7.018
 5329SOL     OW16885   1.416   6.241   6.568
 5329SOL    HW116886   1.322   6.274   6.557
 5329SOL    HW216887   1.430   6.162   6.509
 5330SOL     OW16888   2.696   3.593   0.504
 5330SOL    HW116889   2.779   3.622   0.553
 5330SOL    HW216890   2.627   3.565   0.571
 5331SOL     OW16891   6.835   0.736   6.844
 5331SOL    HW116892   6.836   0.681   6.760
 5331SOL    HW216893   6.926   0.732   6.886
 5332SOL     OW16894   1.024   4.533   2.315
 5332SOL    HW116895   1.119   4.502   2.314
 5332SOL    HW216896   1.015   4.613   2.256
 5333SOL     OW16897   1.172   6.717   4.121
 5333SOL    HW116898   1.127   6.785   4.179
 5333SOL    HW216899   1.223   6.652   4.178
 5334SOL     OW16900   3.125   0.012   4.238
 5334SOL    HW116901   3.083   0.103   4.228
 5334SOL    HW216902   3.214   0.022   4.282
 5335SOL     OW16903   6.745   5.443   0.914
 5335SOL    HW116904   6.723   5.531   0.956
 5335SOL    HW216905   6.766   5.376   0.984
 5336SOL     OW16906   1.627   3.687   2.004
 5336SOL    HW116907   1.668   3.671   1.914
 5336SOL    HW216908   1.677   3.635   2.073
 5337SOL     OW16909   4.768   4.620   1.367
 5337SOL    HW116910   4.691   4.583   1.315
 5337SOL    HW216911   4.848   4.561   1.354
 5338SOL     OW16912   6.783   2.232   6.919
 5338SOL    HW116913   6.721   2.311   6.926
 5338SOL    HW216914   6.813   2.204   7.010
 5339SOL     OW16915   6.552   1.958   3.769
 5339SOL    HW116916   6.509   2.029   3.713
 5339SOL    HW216917   6.619   1.908   3.714
 5340SOL     OW16918   5.361   2.723   6.804
 5340SOL    HW116919   5.411   2.788   6.861
 5340SOL    HW216920   5.306   2.772   6.736
 5341SOL     OW16921   5.011   0.469   6.460
 5341SOL    HW116922   4.969   0.534   6.397
 5341SOL    HW216923   5.095   0.432   6.420
 5342SOL     OW16924   4.429   1.089   5.575
 5342SOL    HW116925   4.388   1.161   5.520
 5342SOL    HW216926   4.526   1.108   5.590
 5343SOL     OW16927   4.000   3.384   2.304
 5343SOL    HW116928   4.087   3.336   2.299
 5343SOL    HW216929   4.012   3.470   2.354
 5344SOL     OW16930   1.862   2.784   3.003
 5344SOL    HW116931   1.763   2.772   3.013
 5344SOL    HW216932   1.909   2.728   3.072
 5345SOL     OW16933   4.328   6.912   1.154
 5345SOL    HW116934   4.306   6.850   1.079
 5345SOL    HW216935   4.392   6.867   1.216
 5346SOL     OW16936   2.955   6.118   3.173
 5346SOL    HW116937   3.000   6.163   3.250
 5346SOL    HW216938   2.856   6.112   3.191
 5347SOL     OW16939   6.996   2.090   0.867
 5347SOL    HW116940   0.027   2.169   0.845
 5347SOL    HW216941   6.967   2.095   0.962
 5348SOL     OW16942   1.194   1.256   0.126
 5348SOL    HW116943   1.273   1.198   0.143
 5348SOL    HW216944   1.127   1.245   0.199
 5349SOL     OW16945   6.893   0.940   1.080
 5349SOL    HW116946   6.839   0.957   0.998
 5349SOL    HW216947   6.839   0.890   1.147
 5350SOL     OW16948   2.431   1.256   6.379
 5350SOL    HW116949   2.476   1.339   6.412
 5350SOL    HW216950   2.343   1.280   6.339
 5351SOL     OW16951   4.585   6.552   1.366
 5351SOL    HW116952   4.495   6.586   1.393
 5351SOL    HW216953   4.646   6.629   1.351
 5352SOL     OW16954   2.883   6.068   3.513
 5352SOL    HW116955   2.972   6.024   3.526
 5352SOL    HW216956   2.896   6.161   3.481
 5353SOL     OW16957   5.207   5.507   5.186
 5353SOL    HW116958   5.176   5.429   5.131
 5353SOL    HW216959   5.280   5.477   5.248
 5354SOL     OW16960   1.173   4.499   1.759
 5354SOL    HW116961   1.129   4.490   1.849
 5354SOL    HW216962   1.141   4.426   1.699
 5355SOL     OW16963   4.248   1.693   4.159
 5355SOL    HW116964   4.247   1.737   4.249
 5355SOL    HW216965   4.242   1.762   4.088
 5356SOL     OW16966   6.505   3.808   1.569
 5356SOL    HW116967   6.479   3.904   1.575
 5356SOL    HW216968   6.525   3.774   1.661
 5357SOL     OW16969   3.877   0.113   0.307
 5357SOL    HW116970   3.869   0.014   0.301
 5357SOL    HW216971   3.934   0.147   0.233
 5358SOL     OW16972   4.733   3.196   0.680
 5358SOL    HW116973   4.686   3.177   0.594
 5358SOL    HW216974   4.770   3.111   0.717
 5359SOL     OW16975   2.027   1.624   0.441
 5359SOL    HW116976   2.007   1.638   0.538
 5359SOL    HW216977   2.001   1.705   0.389
 5360SOL     OW16978   3.597   6.676   6.463
 5360SOL    HW116979   3.508   6.631   6.474
 5360SOL    HW216980   3.655   6.655   6.541
 5361SOL     OW16981   1.856   0.863   5.115
 5361SOL    HW116982   1.846   0.841   5.018
 5361SOL    HW216983   1.940   0.915   5.129
 5362SOL     OW16984   4.983   5.071   2.738
 5362SOL    HW116985   4.932   5.012   2.675
 5362SOL    HW216986   4.938   5.160   2.745
 5363SOL     OW16987   0.662   4.962   6.448
 5363SOL    HW116988   0.648   4.958   6.349
 5363SOL    HW216989   0.756   4.988   6.468
 5364SOL     OW16990   6.831   6.887   0.374
 5364SOL    HW116991   6.809   6.837   0.458
 5364SOL    HW216992   6.885   6.968   0.397
 5365SOL     OW16993   4.914   1.616   5.502
 5365SOL    HW116994   4.954   1.560   5.575
 5365SOL    HW216995   4.836   1.568   5.463
 5366SOL     OW16996   4.587   4.113   0.285
 5366SOL    HW116997   4.542   4.085   0.370
 5366SOL    HW216998   4.682   4.080   0.286
 5367SOL     OW16999   0.153   4.515   1.647
 5367SOL    HW117000   0.061   4.479   1.636
 5367SOL    HW217001   0.203   4.505   1.561
 5368SOL     OW17002   5.579   2.202   3.100
 5368SOL    HW117003   5.529   2.266   3.042
 5368SOL    HW217004   5.580   2.112   3.057
 5369SOL     OW17005   2.134   4.201   3.026
 5369SOL    HW117006   2.164   4.274   2.966
 5369SOL    HW217007   2.138   4.232   3.121
 5370SOL     OW17008   3.776   2.644   1.118
 5370SOL    HW117009   3.722   2.596   1.187
 5370SOL    HW217010   3.755   2.742   1.122
 5371SOL     OW17011   1.242   4.108   4.767
 5371SOL    HW117012   1.169   4.083   4.703
 5371SOL    HW217013   1.314   4.156   4.717
 5372SOL     OW17014   2.649   5.485   3.034
 5372SOL    HW117015   2.688   5.498   2.943
 5372SOL    HW217016   2.657   5.388   3.060
 5373SOL     OW17017   3.085   4.885   3.956
 5373SOL    HW117018   3.014   4.827   3.996
 5373SOL    HW217019   3.167   4.882   4.013
 5374SOL     OW17020   2.376   2.381   6.463
 5374SOL    HW117021   2.417   2.442   6.530
 5374SOL    HW217022   2.372   2.427   6.374
 5375SOL     OW17023   1.581   4.542   4.472
 5375SOL    HW117024   1.516   4.511   4.403
 5375SOL    HW217025   1.533   4.562   4.557
 5376SOL     OW17026   1.495   3.663   1.486
 5376SOL    HW117027   1.485   3.666   1.387
 5376SOL    HW217028   1.592   3.667   1.510
 5377SOL     OW17029   0.347   0.955   1.427
 5377SOL    HW117030   0.319   0.998   1.512
 5377SOL    HW217031   0.269   0.908   1.386
 5378SOL     OW17032   5.648   1.160   0.127
 5378SOL    HW117033   5.620   1.064   0.133
 5378SOL    HW217034   5.741   1.166   0.092
 5379SOL     OW17035   0.554   5.476   2.478
 5379SOL    HW117036   0.545   5.559   2.422
 5379SOL    HW217037   0.590   5.501   2.568
 5380SOL     OW17038   2.745   6.919   3.254
 5380SOL    HW117039   2.660   6.966   3.278
 5380SOL    HW217040   2.804   6.982   3.203
 5381SOL     OW17041   5.949   3.912   1.531
 5381SOL    HW117042   5.853   3.918   1.502
 5381SOL    HW217043   5.953   3.870   1.621
 5382SOL     OW17044   2.715   1.334   1.046
 5382SOL    HW117045   2.760   1.424   1.052
 5382SOL    HW217046   2.621   1.346   1.016
 5383SOL     OW17047   2.333   2.114   4.932
 5383SOL    HW117048   2.404   2.137   4.999
 5383SOL    HW217049   2.312   2.193   4.876
 5384SOL     OW17050   6.151   6.885   4.210
 5384SOL    HW117051   6.057   6.899   4.241
 5384SOL    HW217052   6.209   6.864   4.289
 5385SOL     OW17053   3.676   3.959   2.537
 5385SOL    HW117054   3.618   4.020   2.483
 5385SOL    HW217055   3.711   4.010   2.616
 5386SOL     OW17056   5.362   6.274   4.371
 5386SOL    HW117057   5.417   6.198   4.337
 5386SOL    HW217058   5.361   6.274   4.471
 5387SOL     OW17059   2.823   5.106   2.135
 5387SOL    HW117060   2.797   5.016   2.171
 5387SOL    HW217061   2.749   5.171   2.151
 5388SOL     OW17062   5.302   6.348   2.658
 5388SOL    HW117063   5.275   6.313   2.569
 5388SOL    HW217064   5.253   6.434   2.676
 5389SOL     OW17065   4.529   1.349   1.219
 5389SOL    HW117066   4.491   1.260   1.245
 5389SOL    HW217067   4.466   1.395   1.156
 5390SOL     OW17068   6.221   5.321   5.591
 5390SOL    HW117069   6.198   5.320   5.493
 5390SOL    HW217070   6.138   5.305   5.644
 5391SOL     OW17071   2.542   2.877   0.388
 5391SOL    HW117072   2.543   2.974   0.413
 5391SOL    HW217073   2.631   2.837   0.408
 5392SOL     OW17074   6.034   3.327   1.993
 5392SOL    HW117075   6.063   3.232   1.988
 5392SOL    HW217076   6.094   3.383   1.935
 5393SOL     OW17077   6.729   6.990   6.889
 5393SOL    HW117078   6.802   6.922   6.883
 5393SOL    HW217079   6.763   0.046   6.935
 5394SOL     OW17080   0.789   3.827   5.703
 5394SOL    HW117081   0.858   3.756   5.717
 5394SOL    HW217082   0.812   3.880   5.621
 5395SOL     OW17083   4.071   0.603   0.442
 5395SOL    HW117084   4.033   0.676   0.386
 5395SOL    HW217085   4.076   0.633   0.537
 5396SOL     OW17086   5.689   3.584   2.210
 5396SOL    HW117087   5.653   3.671   2.178
 5396SOL    HW217088   5.729   3.535   2.132
 5397SOL     OW17089   0.124   3.686   1.238
 5397SOL    HW117090   0.179   3.641   1.168
 5397SOL    HW217091   0.029   3.694   1.206
 5398SOL     OW17092   3.090   2.667   1.743
 5398SOL    HW117093   3.059   2.632   1.654
 5398SOL    HW217094   3.073   2.598   1.813
 5399SOL     OW17095   1.872   6.141   1.530
 5399SOL    HW117096   1.905   6.212   1.592
 5399SOL    HW217097   1.773   6.147   1.521
 5400SOL     OW17098   2.787   4.590   6.989
 5400SOL    HW117099   2.745   4.677   6.963
 5400SOL    HW217100   2.750   4.561   0.051
 5401SOL     OW17101   5.799   3.247   1.677
 5401SOL    HW117102   5.800   3.347   1.676
 5401SOL    HW217103   5.841   3.214   1.761
 5402SOL     OW17104   1.521   5.988   2.169
 5402SOL    HW117105   1.547   6.019   2.260
 5402SOL    HW217106   1.421   5.982   2.163
 5403SOL     OW17107   0.321   3.695   6.661
 5403SOL    HW117108   0.304   3.601   6.631
 5403SOL    HW217109   0.313   3.757   6.583
 5404SOL     OW17110   1.802   2.766   4.072
 5404SOL    HW117111   1.888   2.735   4.032
 5404SOL    HW217112   1.757   2.829   4.010
 5405SOL     OW17113   6.554   5.103   5.590
 5405SOL    HW117114   6.510   5.032   5.536
 5405SOL    HW217115   6.553   5.077   5.687
 5406SOL     OW17116   1.345   0.712   6.719
 5406SOL    HW117117   1.257   0.747   6.689
 5406SOL    HW217118   1.414   0.730   6.649
 5407SOL     OW17119   3.847   3.076   0.607
 5407SOL    HW117120   3.751   3.089   0.582
 5407SOL    HW217121   3.853   3.046   0.702
 5408SOL     OW17122   2.542   0.844   0.049
 5408SOL    HW117123   2.572   0.907   0.121
 5408SOL    HW217124   2.447   0.818   0.065
 5409SOL     OW17125   4.220   0.424   3.447
 5409SOL    HW117126   4.176   0.364   3.380
 5409SOL    HW217127   4.300   0.466   3.406
 5410SOL     OW17128   3.035   2.026   1.826
 5410SOL    HW117129   2.973   2.102   1.847
 5410SOL    HW217130   3.130   2.056   1.838
 5411SOL     OW17131   0.376   5.251   5.336
 5411SOL    HW117132   0.289   5.298   5.324
 5411SOL    HW217133   0.442   5.285   5.269
 5412SOL     OW17134   5.962   2.727   0.763
 5412SOL    HW117135   6.020   2.772   0.696
 5412SOL    HW217136   5.936   2.636   0.729
 5413SOL     OW17137   2.537   1.862   2.077
 5413SOL    HW117138   2.474   1.815   2.015
 5413SOL    HW217139   2.517   1.960   2.078
 5414SOL     OW17140   4.229   1.654   4.998
 5414SOL    HW117141   4.195   1.715   4.927
 5414SOL    HW217142   4.197   1.561   4.981
 5415SOL     OW17143   6.635   5.394   1.782
 5415SOL    HW117144   6.582   5.389   1.697
 5415SOL    HW217145   6.725   5.435   1.762
 5416SOL     OW17146   4.016   4.841   4.975
 5416SOL    HW117147   3.976   4.800   4.893
 5416SOL    HW217148   4.115   4.833   4.972
 5417SOL     OW17149   3.415   6.784   4.479
 5417SOL    HW117150   3.506   6.805   4.515
 5417SOL    HW217151   3.393   6.688   4.498
 5418SOL     OW17152   3.734   0.218   2.857
 5418SOL    HW117153   3.636   0.229   2.872
 5418SOL    HW217154   3.765   0.133   2.898
 5419SOL     OW17155   3.487   5.190   6.368
 5419SOL    HW117156   3.408   5.251   6.360
 5419SOL    HW217157   3.484   5.142   6.455
 5420SOL     OW17158   1.849   1.814   2.507
 5420SOL    HW117159   1.839   1.748   2.581
 5420SOL    HW217160   1.886   1.768   2.426
 5421SOL     OW17161   2.064   3.792   1.719
 5421SOL    HW117162   1.997   3.718   1.702
 5421SOL    HW217163   2.155   3.761   1.690
 5422SOL     OW17164   1.996   3.979   1.530
 5422SOL    HW117165   1.997   3.912   1.604
 5422SOL    HW217166   1.910   4.029   1.530
 5423SOL     OW17167   5.850   2.945   6.707
 5423SOL    HW117168   5.818   2.858   6.669
 5423SOL    HW217169   5.774   3.010   6.707
 5424SOL     OW17170   4.959   3.672   4.493
 5424SOL    HW117171   4.890   3.716   4.436
 5424SOL    HW217172   4.987   3.585   4.451
 5425SOL     OW17173   4.779   0.841   5.329
 5425SOL    HW117174   4.772   0.755   5.279
 5425SOL    HW217175   4.698   0.896   5.312
 5426SOL     OW17176   5.936   6.521   4.901
 5426SOL    HW117177   5.989   6.470   4.968
 5426SOL    HW217178   5.915   6.612   4.937
 5427SOL     OW17179   4.468   6.136   6.461
 5427SOL    HW117180   4.465   6.230   6.428
 5427SOL    HW217181   4.401   6.124   6.535
 5428SOL     OW17182   1.192   0.388   0.946
 5428SOL    HW117183   1.174   0.318   1.015
 5428SOL    HW217184   1.225   0.344   0.862
 5429SOL     OW17185   0.980   2.106   6.747
 5429SOL    HW117186   0.975   2.163   6.829
 5429SOL    HW217187   0.915   2.140   6.678
 5430SOL     OW17188   1.377   2.527   6.076
 5430SOL    HW117189   1.432   2.511   6.157
 5430SOL    HW217190   1.428   2.500   5.994
 5431SOL     OW17191   3.946   6.408   5.877
 5431SOL    HW117192   3.932   6.458   5.791
 5431SOL    HW217193   4.028   6.442   5.923
 5432SOL     OW17194   4.671   6.557   0.352
 5432SOL    HW117195   4.614   6.549   0.434
 5432SOL    HW217196   4.766   6.574   0.379
 5433SOL     OW17197   6.978   1.796   5.049
 5433SOL    HW117198   6.982   1.774   4.952
 5433SOL    HW217199   6.911   1.737   5.094
 5434SOL     OW17200   2.928   0.278   6.555
 5434SOL    HW117201   2.932   0.218   6.635
 5434SOL    HW217202   2.939   0.373   6.585
 5435SOL     OW17203   4.219   0.444   1.829
 5435SOL    HW117204   4.237   0.357   1.875
 5435SOL    HW217205   4.126   0.474   1.850
 5436SOL     OW17206   4.756   4.398   3.092
 5436SOL    HW117207   4.719   4.329   3.029
 5436SOL    HW217208   4.680   4.446   3.137
 5437SOL     OW17209   2.983   4.269   7.022
 5437SOL    HW117210   2.931   4.345   0.036
 5437SOL    HW217211   3.078   4.298   7.009
 5438SOL     OW17212   5.863   1.781   1.654
 5438SOL    HW117213   5.858   1.681   1.661
 5438SOL    HW217214   5.880   1.819   1.745
 5439SOL     OW17215   1.010   2.763   1.397
 5439SOL    HW117216   0.941   2.693   1.415
 5439SOL    HW217217   1.086   2.724   1.345
 5440SOL     OW17218   1.378   2.334   1.305
 5440SOL    HW117219   1.417   2.414   1.260
 5440SOL    HW217220   1.440   2.257   1.297
 5441SOL     OW17221   3.168   1.732   3.588
 5441SOL    HW117222   3.102   1.799   3.624
 5441SOL    HW217223   3.176   1.744   3.490
 5442SOL     OW17224   3.342   0.587   1.928
 5442SOL    HW117225   3.310   0.555   2.018
 5442SOL    HW217226   3.360   0.507   1.870
 5443SOL     OW17227   2.952   6.868   5.572
 5443SOL    HW117228   3.049   6.848   5.590
 5443SOL    HW217229   2.922   6.817   5.491
 5444SOL     OW17230   0.246   6.840   4.286
 5444SOL    HW117231   0.295   6.924   4.309
 5444SOL    HW217232   0.263   6.771   4.357
 5445SOL     OW17233   5.965   3.441   2.493
 5445SOL    HW117234   5.866   3.436   2.478
 5445SOL    HW217235   5.992   3.536   2.505
 5446SOL     OW17236   6.195   5.429   5.323
 5446SOL    HW117237   6.112   5.388   5.284
 5446SOL    HW217238   6.171   5.514   5.372
 5447SOL     OW17239   3.777   2.201   0.442
 5447SOL    HW117240   3.790   2.102   0.441
 5447SOL    HW217241   3.691   2.225   0.398
 5448SOL     OW17242   5.273   2.316   5.337
 5448SOL    HW117243   5.320   2.381   5.277
 5448SOL    HW217244   5.209   2.365   5.396
 5449SOL     OW17245   0.681   3.581   7.018
 5449SOL    HW117246   0.667   3.671   0.033
 5449SOL    HW217247   0.773   3.549   0.010
 5450SOL     OW17248   2.054   0.170   1.608
 5450SOL    HW117249   2.042   0.089   1.665
 5450SOL    HW217250   2.091   0.244   1.663
 5451SOL     OW17251   0.864   5.876   2.942
 5451SOL    HW117252   0.788   5.817   2.969
 5451SOL    HW217253   0.872   5.952   3.006
 5452SOL     OW17254   2.441   4.543   6.739
 5452SOL    HW117255   2.383   4.533   6.820
 5452SOL    HW217256   2.534   4.514   6.760
 5453SOL     OW17257   5.882   4.575   0.472
 5453SOL    HW117258   5.890   4.481   0.437
 5453SOL    HW217259   5.921   4.580   0.564
 5454SOL     OW17260   0.021   4.599   7.011
 5454SOL    HW117261   7.025   4.505   0.007
 5454SOL    HW217262   6.979   4.636   6.948
 5455SOL     OW17263   6.693   3.543   1.196
 5455SOL    HW117264   6.652   3.575   1.281
 5455SOL    HW217265   6.702   3.443   1.199
 5456SOL     OW17266   3.166   6.915   0.075
 5456SOL    HW117267   3.220   6.875   0.000
 5456SOL    HW217268   3.104   6.984   0.038
 5457SOL     OW17269   5.842   2.901   0.917
 5457SOL    HW117270   5.879   2.817   0.877
 5457SOL    HW217271   5.917   2.966   0.931
 5458SOL     OW17272   1.838   4.138   6.531
 5458SOL    HW117273   1.820   4.126   6.629
 5458SOL    HW217274   1.931   4.108   6.510
 5459SOL     OW17275   1.769   4.450   6.896
 5459SOL    HW117276   1.688   4.440   6.838
 5459SOL    HW217277   1.741   4.446   6.992
 5460SOL     OW17278   2.654   0.494   0.925
 5460SOL    HW117279   2.705   0.431   0.983
 5460SOL    HW217280   2.570   0.521   0.972
 5461SOL     OW17281   4.618   0.064   5.124
 5461SOL    HW117282   4.647   0.034   5.214
 5461SOL    HW217283   4.595   7.011   5.068
 5462SOL     OW17284   1.696   6.933   0.644
 5462SOL    HW117285   1.754   6.962   0.568
 5462SOL    HW217286   1.719   6.987   0.725
 5463SOL     OW17287   6.376   2.758   0.720
 5463SOL    HW117288   6.303   2.820   0.690
 5463SOL    HW217289   6.406   2.784   0.812
 5464SOL     OW17290   2.239   0.470   4.264
 5464SOL    HW117291   2.186   0.509   4.188
 5464SOL    HW217292   2.333   0.502   4.258
 5465SOL     OW17293   3.143   0.487   4.733
 5465SOL    HW117294   3.220   0.548   4.749
 5465SOL    HW217295   3.164   0.425   4.657
 5466SOL     OW17296   4.857   4.396   4.574
 5466SOL    HW117297   4.872   4.484   4.619
 5466SOL    HW217298   4.939   4.340   4.582
 5467SOL     OW17299   5.261   1.548   2.662
 5467SOL    HW117300   5.219   1.458   2.675
 5467SOL    HW217301   5.345   1.553   2.715
 5468SOL     OW17302   4.698   2.233   4.771
 5468SOL    HW117303   4.683   2.314   4.828
 5468SOL    HW217304   4.638   2.159   4.802
 5469SOL     OW17305   3.618   4.564   5.764
 5469SOL    HW117306   3.678   4.554   5.844
 5469SOL    HW217307   3.668   4.607   5.689
 5470SOL     OW17308   1.923   5.044   3.875
 5470SOL    HW117309   1.904   5.031   3.972
 5470SOL    HW217310   1.841   5.080   3.829
 5471SOL     OW17311   0.243   6.079   1.882
 5471SOL    HW117312   0.286   6.013   1.944
 5471SOL    HW217313   0.163   6.037   1.839
 5472SOL     OW17314   4.230   4.402   5.796
 5472SOL    HW117315   4.204   4.329   5.860
 5472SOL    HW217316   4.228   4.490   5.843
 5473SOL     OW17317   1.696   3.351   3.585
 5473SOL    HW117318   1.663   3.380   3.674
 5473SOL    HW217319   1.626   3.294   3.541
 5474SOL     OW17320   1.640   5.504   4.104
 5474SOL    HW117321   1.541   5.487   4.103
 5474SOL    HW217322   1.669   5.539   4.015
 5475SOL     OW17323   3.101   2.243   1.148
 5475SOL    HW117324   3.104   2.153   1.191
 5475SOL    HW217325   3.040   2.303   1.200
 5476SOL     OW17326   1.274   2.981   6.433
 5476SOL    HW117327   1.209   3.051   6.461
 5476SOL    HW217328   1.348   2.975   6.500
 5477SOL     OW17329   2.015   3.035   3.030
 5477SOL    HW117330   1.948   2.964   3.051
 5477SOL    HW217331   2.091   3.030   3.095
 5478SOL     OW17332   5.550   5.946   5.476
 5478SOL    HW117333   5.535   5.869   5.413
 5478SOL    HW217334   5.477   5.948   5.544
 5479SOL     OW17335   4.641   0.593   4.359
 5479SOL    HW117336   4.592   0.522   4.410
 5479SOL    HW217337   4.636   0.573   4.261
 5480SOL     OW17338   1.178   3.389   4.311
 5480SOL    HW117339   1.265   3.387   4.261
 5480SOL    HW217340   1.141   3.296   4.314
 5481SOL     OW17341   3.563   6.825   4.016
 5481SOL    HW117342   3.498   6.783   4.078
 5481SOL    HW217343   3.514   6.887   3.954
 5482SOL     OW17344   2.368   4.952   1.492
 5482SOL    HW117345   2.448   4.907   1.453
 5482SOL    HW217346   2.292   4.946   1.427
 5483SOL     OW17347   0.131   2.579   6.063
 5483SOL    HW117348   0.176   2.668   6.058
 5483SOL    HW217349   0.146   2.539   6.153
 5484SOL     OW17350   4.258   0.784   4.647
 5484SOL    HW117351   4.269   0.742   4.557
 5484SOL    HW217352   4.269   0.883   4.639
 5485SOL     OW17353   3.310   0.042   5.995
 5485SOL    HW117354   3.242   0.079   5.931
 5485SOL    HW217355   3.400   0.079   5.972
 5486SOL     OW17356   2.821   6.408   5.243
 5486SOL    HW117357   2.731   6.434   5.207
 5486SOL    HW217358   2.829   6.309   5.244
 5487SOL     OW17359   3.071   4.868   5.509
 5487SOL    HW117360   3.038   4.776   5.491
 5487SOL    HW217361   3.168   4.874   5.486
 5488SOL     OW17362   6.156   1.533   0.816
 5488SOL    HW117363   6.071   1.517   0.765
 5488SOL    HW217364   6.214   1.452   0.811
 5489SOL     OW17365   6.409   3.950   2.938
 5489SOL    HW117366   6.416   3.908   2.848
 5489SOL    HW217367   6.314   3.948   2.969
 5490SOL     OW17368   1.653   6.660   3.007
 5490SOL    HW117369   1.634   6.660   2.908
 5490SOL    HW217370   1.572   6.693   3.056
 5491SOL     OW17371   6.516   4.523   0.525
 5491SOL    HW117372   6.575   4.602   0.506
 5491SOL    HW217373   6.559   4.465   0.595
 5492SOL     OW17374   7.015   1.887   5.394
 5492SOL    HW117375   0.065   1.853   5.449
 5492SOL    HW217376   6.989   1.978   5.424
 5493SOL     OW17377   3.818   3.980   1.352
 5493SOL    HW117378   3.743   3.927   1.392
 5493SOL    HW217379   3.867   3.924   1.285
 5494SOL     OW17380   6.427   4.271   5.241
 5494SOL    HW117381   6.437   4.297   5.337
 5494SOL    HW217382   6.331   4.280   5.214
 5495SOL     OW17383   5.740   0.568   0.830
 5495SOL    HW117384   5.813   0.550   0.765
 5495SOL    HW217385   5.779   0.610   0.913
 5496SOL     OW17386   3.767   0.596   4.296
 5496SOL    HW117387   3.855   0.639   4.315
 5496SOL    HW217388   3.781   0.510   4.247
 5497SOL     OW17389   1.280   0.178   6.007
 5497SOL    HW117390   1.324   0.267   6.022
 5497SOL    HW217391   1.307   0.114   6.078
 5498SOL     OW17392   0.545   5.244   1.834
 5498SOL    HW117393   0.547   5.146   1.856
 5498SOL    HW217394   0.558   5.297   1.917
 5499SOL     OW17395   1.578   0.525   4.752
 5499SOL    HW117396   1.488   0.540   4.793
 5499SOL    HW217397   1.646   0.581   4.799
 5500SOL     OW17398   2.805   0.957   0.653
 5500SOL    HW117399   2.808   0.858   0.663
 5500SOL    HW217400   2.709   0.986   0.648
 5501SOL     OW17401   3.649   3.458   6.635
 5501SOL    HW117402   3.584   3.454   6.559
 5501SOL    HW217403   3.606   3.420   6.717
 5502SOL     OW17404   4.276   2.365   6.901
 5502SOL    HW117405   4.202   2.429   6.920
 5502SOL    HW217406   4.245   2.297   6.834
 5503SOL     OW17407   6.589   4.356   0.735
 5503SOL    HW117408   6.627   4.268   0.765
 5503SOL    HW217409   6.594   4.421   0.810
 5504SOL     OW17410   3.439   1.596   6.237
 5504SOL    HW117411   3.372   1.597   6.312
 5504SOL    HW217412   3.518   1.652   6.262
 5505SOL     OW17413   2.322   4.829   4.128
 5505SOL    HW117414   2.252   4.899   4.144
 5505SOL    HW217415   2.277   4.740   4.119
 5506SOL     OW17416   0.655   3.293   6.204
 5506SOL    HW117417   0.577   3.293   6.141
 5506SOL    HW217418   0.678   3.198   6.228
 5507SOL     OW17419   2.573   6.467   6.900
 5507SOL    HW117420   2.525   6.387   6.937
 5507SOL    HW217421   2.557   6.474   6.802
 5508SOL     OW17422   0.131   0.722   6.489
 5508SOL    HW117423   0.063   0.792   6.511
 5508SOL    HW217424   0.222   0.754   6.515
 5509SOL     OW17425   0.257   5.171   0.633
 5509SOL    HW117426   0.180   5.108   0.644
 5509SOL    HW217427   0.225   5.255   0.590
 5510SOL     OW17428   3.883   5.095   0.124
 5510SOL    HW117429   3.884   5.190   0.092
 5510SOL    HW217430   3.797   5.051   0.096
 5511SOL     OW17431   0.640   1.633   5.479
 5511SOL    HW117432   0.730   1.590   5.475
 5511SOL    HW217433   0.630   1.696   5.402
 5512SOL     OW17434   3.215   1.017   2.388
 5512SOL    HW117435   3.281   0.945   2.410
 5512SOL    HW217436   3.258   1.107   2.400
 5513SOL     OW17437   3.773   4.144   0.028
 5513SOL    HW117438   3.778   4.115   0.124
 5513SOL    HW217439   3.784   4.243   0.022
 5514SOL     OW17440   2.986   0.919   0.133
 5514SOL    HW117441   3.020   0.835   0.090
 5514SOL    HW217442   2.903   0.899   0.185
 5515SOL     OW17443   2.774   6.139   2.288
 5515SOL    HW117444   2.786   6.082   2.369
 5515SOL    HW217445   2.699   6.204   2.303
 5516SOL     OW17446   2.479   2.453   5.525
 5516SOL    HW117447   2.382   2.478   5.525
 5516SOL    HW217448   2.534   2.535   5.541
 5517SOL     OW17449   1.475   3.019   3.436
 5517SOL    HW117450   1.462   3.109   3.396
 5517SOL    HW217451   1.564   2.982   3.407
 5518SOL     OW17452   4.522   4.485   5.991
 5518SOL    HW117453   4.545   4.555   5.924
 5518SOL    HW217454   4.447   4.517   6.049
 5519SOL     OW17455   4.546   2.575   3.589
 5519SOL    HW117456   4.609   2.601   3.516
 5519SOL    HW217457   4.475   2.645   3.598
 5520SOL     OW17458   4.777   6.767   1.361
 5520SOL    HW117459   4.820   6.759   1.451
 5520SOL    HW217460   4.811   6.848   1.314
 5521SOL     OW17461   5.525   5.557   1.910
 5521SOL    HW117462   5.538   5.516   2.000
 5521SOL    HW217463   5.588   5.635   1.900
 5522SOL     OW17464   6.235   5.992   0.934
 5522SOL    HW117465   6.168   5.967   0.864
 5522SOL    HW217466   6.203   5.963   1.024
 5523SOL     OW17467   5.791   1.060   2.051
 5523SOL    HW117468   5.733   1.130   2.092
 5523SOL    HW217469   5.746   1.021   1.971
 5524SOL     OW17470   3.108   1.418   4.246
 5524SOL    HW117471   3.027   1.361   4.232
 5524SOL    HW217472   3.084   1.494   4.308
 5525SOL     OW17473   6.303   1.400   1.104
 5525SOL    HW117474   6.323   1.429   1.010
 5525SOL    HW217475   6.313   1.478   1.166
 5526SOL     OW17476   4.689   4.685   3.638
 5526SOL    HW117477   4.626   4.608   3.636
 5526SOL    HW217478   4.646   4.762   3.685
 5527SOL     OW17479   5.514   1.726   3.818
 5527SOL    HW117480   5.610   1.697   3.822
 5527SOL    HW217481   5.480   1.742   3.910
 5528SOL     OW17482   1.091   1.327   0.570
 5528SOL    HW117483   1.164   1.362   0.630
 5528SOL    HW217484   1.103   1.229   0.556
 5529SOL     OW17485   3.443   0.566   2.332
 5529SOL    HW117486   3.529   0.541   2.288
 5529SOL    HW217487   3.372   0.580   2.263
 5530SOL     OW17488   6.350   1.964   0.973
 5530SOL    HW117489   6.441   2.003   0.961
 5530SOL    HW217490   6.342   1.881   0.918
 5531SOL     OW17491   2.293   3.730   1.256
 5531SOL    HW117492   2.202   3.770   1.268
 5531SOL    HW217493   2.361   3.803   1.250
 5532SOL     OW17494   1.456   3.315   0.517
 5532SOL    HW117495   1.483   3.224   0.488
 5532SOL    HW217496   1.395   3.356   0.449
 5533SOL     OW17497   3.776   2.068   3.274
 5533SOL    HW117498   3.766   2.102   3.181
 5533SOL    HW217499   3.859   2.105   3.315
 5534SOL     OW17500   1.319   0.770   4.890
 5534SOL    HW117501   1.239   0.724   4.930
 5534SOL    HW217502   1.400   0.749   4.945
 5535SOL     OW17503   0.293   1.974   3.670
 5535SOL    HW117504   0.286   1.881   3.706
 5535SOL    HW217505   0.380   1.985   3.623
 5536SOL     OW17506   4.049   6.274   3.953
 5536SOL    HW117507   4.025   6.192   4.005
 5536SOL    HW217508   4.113   6.250   3.881
 5537SOL     OW17509   2.872   1.296   3.463
 5537SOL    HW117510   2.967   1.323   3.451
 5537SOL    HW217511   2.866   1.196   3.473
 5538SOL     OW17512   4.277   5.275   4.885
 5538SOL    HW117513   4.368   5.253   4.848
 5538SOL    HW217514   4.207   5.233   4.828
 5539SOL     OW17515   2.433   4.378   0.328
 5539SOL    HW117516   2.414   4.315   0.253
 5539SOL    HW217517   2.525   4.361   0.364
 5540SOL     OW17518   5.380   5.189   1.587
 5540SOL    HW117519   5.283   5.186   1.613
 5540SOL    HW217520   5.398   5.116   1.520
 5541SOL     OW17521   4.484   1.429   5.659
 5541SOL    HW117522   4.468   1.430   5.758
 5541SOL    HW217523   4.403   1.394   5.613
 5542SOL     OW17524   5.332   4.968   6.084
 5542SOL    HW117525   5.419   5.017   6.069
 5542SOL    HW217526   5.349   4.870   6.087
 5543SOL     OW17527   0.109   2.018   6.187
 5543SOL    HW117528   0.126   1.966   6.271
 5543SOL    HW217529   0.012   2.013   6.164
 5544SOL     OW17530   5.791   1.154   6.876
 5544SOL    HW117531   5.756   1.232   6.929
 5544SOL    HW217532   5.723   1.081   6.875
 5545SOL     OW17533   2.661   2.468   1.890
 5545SOL    HW117534   2.759   2.452   1.876
 5545SOL    HW217535   2.610   2.387   1.863
 5546SOL     OW17536   2.356   5.010   5.389
 5546SOL    HW117537   2.366   5.026   5.488
 5546SOL    HW217538   2.425   5.063   5.340
 5547SOL     OW17539   3.696   6.226   4.768
 5547SOL    HW117540   3.741   6.196   4.852
 5547SOL    HW217541   3.676   6.146   4.711
 5548SOL     OW17542   0.034   2.951   5.286
 5548SOL    HW117543   6.970   2.909   5.288
 5548SOL    HW217544   0.089   2.915   5.361
 5549SOL     OW17545   3.442   4.490   6.585
 5549SOL    HW117546   3.390   4.421   6.534
 5549SOL    HW217547   3.444   4.576   6.533
 5550SOL     OW17548   3.723   6.795   2.430
 5550SOL    HW117549   3.719   6.724   2.499
 5550SOL    HW217550   3.818   6.810   2.403
 5551SOL     OW17551   0.853   1.121   3.173
 5551SOL    HW117552   0.794   1.103   3.252
 5551SOL    HW217553   0.857   1.040   3.115
 5552SOL     OW17554   0.573   2.842   0.686
 5552SOL    HW117555   0.607   2.750   0.667
 5552SOL    HW217556   0.531   2.844   0.777
 5553SOL     OW17557   5.327   6.483   0.039
 5553SOL    HW117558   5.296   6.430   6.987
 5553SOL    HW217559   5.346   6.577   0.012
 5554SOL     OW17560   2.776   1.733   5.004
 5554SOL    HW117561   2.775   1.819   5.054
 5554SOL    HW217562   2.866   1.717   4.965
 5555SOL     OW17563   0.194   6.317   2.386
 5555SOL    HW117564   0.140   6.293   2.306
 5555SOL    HW217565   0.265   6.383   2.360
 5556SOL     OW17566   0.571   1.507   4.398
 5556SOL    HW117567   0.577   1.576   4.470
 5556SOL    HW217568   0.626   1.535   4.320
 5557SOL     OW17569   2.635   0.308   3.640
 5557SOL    HW117570   2.611   0.313   3.737
 5557SOL    HW217571   2.681   0.221   3.622
 5558SOL     OW17572   5.205   2.456   4.646
 5558SOL    HW117573   5.229   2.537   4.594
 5558SOL    HW217574   5.115   2.469   4.689
 5559SOL     OW17575   2.076   0.117   1.185
 5559SOL    HW117576   2.111   0.142   1.094
 5559SOL    HW217577   2.061   0.200   1.239
 5560SOL     OW17578   0.096   0.549   4.382
 5560SOL    HW117579   0.105   0.635   4.432
 5560SOL    HW217580   0.018   0.498   4.418
 5561SOL     OW17581   1.386   4.035   3.134
 5561SOL    HW117582   1.406   3.996   3.045
 5561SOL    HW217583   1.472   4.065   3.178
 5562SOL     OW17584   2.711   2.374   5.906
 5562SOL    HW117585   2.796   2.324   5.921
 5562SOL    HW217586   2.672   2.401   5.994
 5563SOL     OW17587   4.438   4.589   1.431
 5563SOL    HW117588   4.457   4.516   1.497
 5563SOL    HW217589   4.479   4.674   1.463
 5564SOL     OW17590   6.666   4.110   1.630
 5564SOL    HW117591   6.754   4.074   1.600
 5564SOL    HW217592   6.598   4.096   1.558
 5565SOL     OW17593   3.122   2.753   5.510
 5565SOL    HW117594   3.143   2.668   5.461
 5565SOL    HW217595   3.206   2.794   5.545
 5566SOL     OW17596   1.952   4.723   0.606
 5566SOL    HW117597   1.865   4.750   0.647
 5566SOL    HW217598   2.000   4.805   0.573
 5567SOL     OW17599   1.934   5.493   3.205
 5567SOL    HW117600   2.003   5.475   3.275
 5567SOL    HW217601   1.878   5.570   3.232
 5568SOL     OW17602   3.849   1.764   1.095
 5568SOL    HW117603   3.937   1.773   1.141
 5568SOL    HW217604   3.863   1.767   0.996
 5569SOL     OW17605   5.629   2.369   6.750
 5569SOL    HW117606   5.559   2.404   6.688
 5569SOL    HW217607   5.657   2.440   6.814
 5570SOL     OW17608   0.079   3.992   6.013
 5570SOL    HW117609   0.040   4.056   5.946
 5570SOL    HW217610   0.146   3.934   5.967
 5571SOL     OW17611   6.797   4.774   6.567
 5571SOL    HW117612   6.747   4.820   6.493
 5571SOL    HW217613   6.815   4.679   6.541
 5572SOL     OW17614   5.452   2.593   5.439
 5572SOL    HW117615   5.402   2.598   5.352
 5572SOL    HW217616   5.408   2.652   5.506
 5573SOL     OW17617   0.910   3.870   0.247
 5573SOL    HW117618   0.976   3.929   0.200
 5573SOL    HW217619   0.910   3.892   0.345
 5574SOL     OW17620   0.580   5.988   4.429
 5574SOL    HW117621   0.498   5.930   4.436
 5574SOL    HW217622   0.598   6.031   4.517
 5575SOL     OW17623   1.481   0.973   1.626
 5575SOL    HW117624   1.554   0.963   1.695
 5575SOL    HW217625   1.436   0.885   1.613
 5576SOL     OW17626   6.570   5.776   0.437
 5576SOL    HW117627   6.549   5.769   0.340
 5576SOL    HW217628   6.667   5.799   0.449
 5577SOL     OW17629   2.165   3.781   5.154
 5577SOL    HW117630   2.157   3.773   5.253
 5577SOL    HW217631   2.250   3.828   5.131
 5578SOL     OW17632   3.464   1.366   5.865
 5578SOL    HW117633   3.562   1.388   5.859
 5578SOL    HW217634   3.421   1.382   5.776
 5579SOL     OW17635   5.427   4.505   1.200
 5579SOL    HW117636   5.336   4.540   1.178
 5579SOL    HW217637   5.418   4.425   1.260
 5580SOL     OW17638   4.916   0.618   1.287
 5580SOL    HW117639   4.845   0.688   1.277
 5580SOL    HW217640   4.919   0.561   1.205
 5581SOL     OW17641   2.402   2.397   0.637
 5581SOL    HW117642   2.341   2.450   0.695
 5581SOL    HW217643   2.365   2.305   0.623
 5582SOL     OW17644   4.071   3.176   3.311
 5582SOL    HW117645   4.027   3.170   3.400
 5582SOL    HW217646   4.125   3.093   3.294
 5583SOL     OW17647   3.613   0.783   0.285
 5583SOL    HW117648   3.645   0.835   0.364
 5583SOL    HW217649   3.688   0.728   0.248
 5584SOL     OW17650   5.500   3.013   2.967
 5584SOL    HW117651   5.541   3.092   3.013
 5584SOL    HW217652   5.409   3.038   2.933
 5585SOL     OW17653   6.804   6.538   4.769
 5585SOL    HW117654   6.842   6.611   4.712
 5585SOL    HW217655   6.828   6.449   4.729
 5586SOL     OW17656   2.165   1.952   6.387
 5586SOL    HW117657   2.153   1.865   6.435
 5586SOL    HW217658   2.116   2.025   6.436
 5587SOL     OW17659   3.520   6.987   3.765
 5587SOL    HW117660   3.455   0.033   3.787
 5587SOL    HW217661   3.609   0.001   3.743
 5588SOL     OW17662   4.361   0.178   5.969
 5588SOL    HW117663   4.446   0.210   6.010
 5588SOL    HW217664   4.322   0.106   6.027
 5589SOL     OW17665   3.424   3.626   6.774
 5589SOL    HW117666   3.380   3.633   6.685
 5589SOL    HW217667   3.453   3.532   6.790
 5590SOL     OW17668   6.789   6.837   3.417
 5590SOL    HW117669   6.838   6.828   3.330
 5590SOL    HW217670   6.804   6.928   3.454
 5591SOL     OW17671   5.032   0.614   6.731
 5591SOL    HW117672   5.022   0.561   6.646
 5591SOL    HW217673   5.069   0.705   6.709
 5592SOL     OW17674   2.711   1.583   2.604
 5592SOL    HW117675   2.804   1.613   2.583
 5592SOL    HW217676   2.714   1.503   2.664
 5593SOL     OW17677   2.054   3.507   5.057
 5593SOL    HW117678   1.990   3.582   5.044
 5593SOL    HW217679   2.148   3.540   5.046
 5594SOL     OW17680   2.596   1.516   6.456
 5594SOL    HW117681   2.576   1.590   6.392
 5594SOL    HW217682   2.660   1.452   6.414
 5595SOL     OW17683   0.232   1.519   5.967
 5595SOL    HW117684   0.225   1.526   6.067
 5595SOL    HW217685   0.322   1.549   5.938
 5596SOL     OW17686   5.186   1.891   3.111
 5596SOL    HW117687   5.131   1.894   3.194
 5596SOL    HW217688   5.185   1.799   3.073
 5597SOL     OW17689   0.592   1.087   6.131
 5597SOL    HW117690   0.688   1.094   6.105
 5597SOL    HW217691   0.551   1.008   6.085
 5598SOL     OW17692   6.841   2.126   4.305
 5598SOL    HW117693   6.868   2.134   4.209
 5598SOL    HW217694   6.757   2.072   4.311
 5599SOL     OW17695   5.046   2.673   3.367
 5599SOL    HW117696   5.114   2.602   3.346
 5599SOL    HW217697   4.993   2.694   3.284
 5600SOL     OW17698   2.239   2.329   2.040
 5600SOL    HW117699   2.317   2.392   2.033
 5600SOL    HW217700   2.221   2.309   2.136
 5601SOL     OW17701   5.962   3.155   6.294
 5601SOL    HW117702   5.909   3.222   6.243
 5601SOL    HW217703   5.988   3.080   6.233
 5602SOL     OW17704   6.313   2.091   2.262
 5602SOL    HW117705   6.343   1.996   2.274
 5602SOL    HW217706   6.381   2.153   2.300
 5603SOL     OW17707   4.256   1.557   5.808
 5603SOL    HW117708   4.285   1.632   5.869
 5603SOL    HW217709   4.292   1.471   5.843
 5604SOL     OW17710   1.498   6.654   3.710
 5604SOL    HW117711   1.488   6.617   3.802
 5604SOL    HW217712   1.433   6.729   3.697
 5605SOL     OW17713   4.329   6.895   4.192
 5605SOL    HW117714   4.299   6.834   4.118
 5605SOL    HW217715   4.310   6.852   4.280
 5606SOL     OW17716   5.135   2.976   0.567
 5606SOL    HW117717   5.107   3.073   0.571
 5606SOL    HW217718   5.067   2.925   0.514
 5607SOL     OW17719   0.031   2.449   3.071
 5607SOL    HW117720   0.053   2.395   2.989
 5607SOL    HW217721   6.996   2.397   3.130
 5608SOL     OW17722   5.113   0.658   2.902
 5608SOL    HW117723   5.176   0.679   2.977
 5608SOL    HW217724   5.044   0.592   2.934
 5609SOL     OW17725   6.577   0.282   0.383
 5609SOL    HW117726   6.556   0.345   0.308
 5609SOL    HW217727   6.607   0.194   0.344
 5610SOL     OW17728   5.945   5.596   0.294
 5610SOL    HW117729   5.962   5.498   0.291
 5610SOL    HW217730   5.894   5.624   0.212
 5611SOL     OW17731   5.889   4.437   1.962
 5611SOL    HW117732   5.888   4.511   1.894
 5611SOL    HW217733   5.858   4.353   1.918
 5612SOL     OW17734   3.787   1.890   0.034
 5612SOL    HW117735   3.884   1.872   0.050
 5612SOL    HW217736   3.737   1.875   0.120
 5613SOL     OW17737   6.078   4.955   5.985
 5613SOL    HW117738   6.046   4.985   5.895
 5613SOL    HW217739   6.175   4.932   5.980
 5614SOL     OW17740   4.864   2.976   4.039
 5614SOL    HW117741   4.937   2.984   4.107
 5614SOL    HW217742   4.901   2.935   3.956
 5615SOL     OW17743   0.735   2.386   3.153
 5615SOL    HW117744   0.733   2.482   3.179
 5615SOL    HW217745   0.829   2.352   3.156
 5616SOL     OW17746   2.090   3.348   2.487
 5616SOL    HW117747   2.080   3.253   2.514
 5616SOL    HW217748   2.088   3.356   2.387
 5617SOL     OW17749   1.475   4.840   6.503
 5617SOL    HW117750   1.455   4.927   6.548
 5617SOL    HW217751   1.499   4.856   6.407
 5618SOL     OW17752   5.194   6.338   1.983
 5618SOL    HW117753   5.174   6.247   2.019
 5618SOL    HW217754   5.125   6.403   2.018
 5619SOL     OW17755   3.203   3.435   3.890
 5619SOL    HW117756   3.260   3.357   3.917
 5619SOL    HW217757   3.108   3.405   3.884
 5620SOL     OW17758   4.775   4.553   4.138
 5620SOL    HW117759   4.796   4.483   4.069
 5620SOL    HW217760   4.727   4.510   4.215
 5621SOL     OW17761   0.697   2.423   6.452
 5621SOL    HW117762   0.781   2.370   6.439
 5621SOL    HW217763   0.711   2.490   6.525
 5622SOL     OW17764   4.699   5.649   4.192
 5622SOL    HW117765   4.654   5.679   4.108
 5622SOL    HW217766   4.777   5.591   4.169
 5623SOL     OW17767   4.747   5.038   4.254
 5623SOL    HW117768   4.719   5.129   4.286
 5623SOL    HW217769   4.778   5.045   4.159
 5624SOL     OW17770   4.930   4.680   3.469
 5624SOL    HW117771   4.856   4.712   3.528
 5624SOL    HW217772   4.930   4.733   3.384
 5625SOL     OW17773   2.647   6.065   6.181
 5625SOL    HW117774   2.582   6.124   6.229
 5625SOL    HW217775   2.687   6.114   6.104
 5626SOL     OW17776   0.424   4.977   6.827
 5626SOL    HW117777   0.434   4.930   6.915
 5626SOL    HW217778   0.455   4.917   6.754
 5627SOL     OW17779   1.331   5.539   6.994
 5627SOL    HW117780   1.263   5.558   6.923
 5627SOL    HW217781   1.285   5.500   0.047
 5628SOL     OW17782   2.126   3.867   0.361
 5628SOL    HW117783   2.135   3.961   0.326
 5628SOL    HW217784   2.044   3.825   0.321
 5629SOL     OW17785   6.990   3.324   2.883
 5629SOL    HW117786   0.051   3.304   2.839
 5629SOL    HW217787   6.973   3.257   2.955
 5630SOL     OW17788   0.856   4.084   6.776
 5630SOL    HW117789   0.890   3.992   6.757
 5630SOL    HW217790   0.927   4.137   6.821
 5631SOL     OW17791   4.070   1.649   2.020
 5631SOL    HW117792   3.982   1.603   2.034
 5631SOL    HW217793   4.083   1.720   2.089
 5632SOL     OW17794   4.991   6.828   5.622
 5632SOL    HW117795   4.956   6.862   5.709
 5632SOL    HW217796   4.967   6.731   5.612
 5633SOL     OW17797   1.201   5.799   5.486
 5633SOL    HW117798   1.156   5.711   5.505
 5633SOL    HW217799   1.297   5.783   5.463
 5634SOL     OW17800   2.599   0.714   1.346
 5634SOL    HW117801   2.639   0.624   1.329
 5634SOL    HW217802   2.627   0.777   1.273
 5635SOL     OW17803   3.161   0.579   1.340
 5635SOL    HW117804   3.162   0.633   1.255
 5635SOL    HW217805   3.127   0.487   1.321
 5636SOL     OW17806   4.788   0.753   6.164
 5636SOL    HW117807   4.750   0.744   6.256
 5636SOL    HW217808   4.714   0.755   6.097
 5637SOL     OW17809   4.973   0.040   4.342
 5637SOL    HW117810   4.993   0.016   4.437
 5637SOL    HW217811   4.874   0.036   4.327
 5638SOL     OW17812   6.257   5.220   0.893
 5638SOL    HW117813   6.203   5.250   0.814
 5638SOL    HW217814   6.354   5.234   0.874
 5639SOL     OW17815   2.126   0.346   1.841
 5639SOL    HW117816   2.218   0.331   1.875
 5639SOL    HW217817   2.127   0.416   1.770
 5640SOL     OW17818   3.211   0.096   2.749
 5640SOL    HW117819   3.239   0.192   2.755
 5640SOL    HW217820   3.114   0.088   2.769
 5641SOL     OW17821   6.894   4.159   4.101
 5641SOL    HW117822   6.986   4.125   4.118
 5641SOL    HW217823   6.864   4.130   4.010
 5642SOL     OW17824   2.143   3.564   6.559
 5642SOL    HW117825   2.126   3.633   6.630
 5642SOL    HW217826   2.063   3.504   6.552
 5643SOL     OW17827   5.748   2.250   4.478
 5643SOL    HW117828   5.685   2.219   4.407
 5643SOL    HW217829   5.795   2.172   4.518
 5644SOL     OW17830   4.038   0.366   4.780
 5644SOL    HW117831   4.102   0.322   4.843
 5644SOL    HW217832   4.086   0.396   4.698
 5645SOL     OW17833   6.792   5.677   4.071
 5645SOL    HW117834   6.735   5.747   4.112
 5645SOL    HW217835   6.815   5.608   4.140
 5646SOL     OW17836   0.150   6.245   3.795
 5646SOL    HW117837   0.082   6.318   3.786
 5646SOL    HW217838   0.110   6.158   3.765
 5647SOL     OW17839   6.898   5.326   6.499
 5647SOL    HW117840   6.859   5.418   6.504
 5647SOL    HW217841   6.997   5.332   6.487
 5648SOL     OW17842   1.954   1.183   5.015
 5648SOL    HW117843   1.932   1.281   5.013
 5648SOL    HW217844   1.888   1.133   4.959
 5649SOL     OW17845   1.527   0.057   5.130
 5649SOL    HW117846   1.588   0.070   5.052
 5649SOL    HW217847   1.436   0.094   5.109
 5650SOL     OW17848   6.304   5.020   6.666
 5650SOL    HW117849   6.253   5.056   6.744
 5650SOL    HW217850   6.242   5.011   6.587
 5651SOL     OW17851   6.215   1.466   2.968
 5651SOL    HW117852   6.300   1.504   3.003
 5651SOL    HW217853   6.227   1.369   2.948
 5652SOL     OW17854   5.828   4.117   0.350
 5652SOL    HW117855   5.851   4.125   0.253
 5652SOL    HW217856   5.852   4.025   0.382
 5653SOL     OW17857   2.273   6.434   6.495
 5653SOL    HW117858   2.335   6.502   6.456
 5653SOL    HW217859   2.236   6.377   6.421
 5654SOL     OW17860   0.614   5.900   5.993
 5654SOL    HW117861   0.666   5.985   5.994
 5654SOL    HW217862   0.573   5.887   5.903
 5655SOL     OW17863   0.007   4.597   3.137
 5655SOL    HW117864   0.061   4.515   3.120
 5655SOL    HW217865   6.984   4.588   3.223
 5656SOL     OW17866   3.404   5.214   6.019
 5656SOL    HW117867   3.338   5.289   6.031
 5656SOL    HW217868   3.370   5.133   6.066
 5657SOL     OW17869   4.150   5.740   1.823
 5657SOL    HW117870   4.238   5.709   1.860
 5657SOL    HW217871   4.153   5.839   1.810
 5658SOL     OW17872   4.828   6.833   5.168
 5658SOL    HW117873   4.848   6.805   5.074
 5658SOL    HW217874   4.751   6.778   5.203
 5659SOL     OW17875   3.379   3.842   2.962
 5659SOL    HW117876   3.377   3.942   2.959
 5659SOL    HW217877   3.401   3.813   3.055
 5660SOL     OW17878   5.920   6.580   0.701
 5660SOL    HW117879   5.978   6.508   0.663
 5660SOL    HW217880   5.864   6.542   0.775
 5661SOL     OW17881   6.682   5.659   5.047
 5661SOL    HW117882   6.674   5.682   5.144
 5661SOL    HW217883   6.592   5.634   5.010
 5662SOL     OW17884   2.020   3.571   4.064
 5662SOL    HW117885   2.067   3.518   4.134
 5662SOL    HW217886   2.070   3.656   4.046
 5663SOL     OW17887   1.774   3.416   0.348
 5663SOL    HW117888   1.807   3.377   0.434
 5663SOL    HW217889   1.686   3.461   0.364
 5664SOL     OW17890   0.028   4.807   2.619
 5664SOL    HW117891   0.055   4.732   2.680
 5664SOL    HW217892   7.011   4.879   2.673
 5665SOL     OW17893   1.900   1.266   6.288
 5665SOL    HW117894   1.914   1.204   6.211
 5665SOL    HW217895   1.851   1.347   6.257
 5666SOL     OW17896   5.897   5.474   0.640
 5666SOL    HW117897   5.805   5.444   0.663
 5666SOL    HW217898   5.893   5.541   0.565
 5667SOL     OW17899   7.026   6.032   3.716
 5667SOL    HW117900   0.021   5.975   3.795
 5667SOL    HW217901   0.004   5.978   3.632
 5668SOL     OW17902   5.782   2.847   5.672
 5668SOL    HW117903   5.694   2.833   5.626
 5668SOL    HW217904   5.765   2.881   5.765
 5669SOL     OW17905   7.002   3.262   5.589
 5669SOL    HW117906   0.031   3.228   5.513
 5669SOL    HW217907   6.980   3.358   5.574
 5670SOL     OW17908   1.854   3.657   3.189
 5670SOL    HW117909   1.896   3.592   3.252
 5670SOL    HW217910   1.785   3.711   3.238
 5671SOL     OW17911   1.335   1.382   5.212
 5671SOL    HW117912   1.398   1.341   5.146
 5671SOL    HW217913   1.242   1.377   5.176
 5672SOL     OW17914   5.502   4.384   5.765
 5672SOL    HW117915   5.521   4.339   5.853
 5672SOL    HW217916   5.494   4.315   5.694
 5673SOL     OW17917   1.728   0.487   1.842
 5673SOL    HW117918   1.791   0.563   1.857
 5673SOL    HW217919   1.634   0.523   1.839
 5674SOL     OW17920   6.886   3.693   1.101
 5674SOL    HW117921   6.944   3.634   1.044
 5674SOL    HW217922   6.818   3.637   1.149
 5675SOL     OW17923   4.202   1.675   5.572
 5675SOL    HW117924   4.213   1.631   5.661
 5675SOL    HW217925   4.291   1.695   5.533
 5676SOL     OW17926   3.387   0.040   1.731
 5676SOL    HW117927   3.308   0.099   1.714
 5676SOL    HW217928   3.444   0.036   1.649
 5677SOL     OW17929   0.079   0.836   4.144
 5677SOL    HW117930   0.129   0.838   4.231
 5677SOL    HW217931   0.118   0.902   4.081
 5678SOL     OW17932   2.087   5.069   3.519
 5678SOL    HW117933   2.053   4.976   3.524
 5678SOL    HW217934   2.174   5.076   3.568
 5679SOL     OW17935   2.818   6.108   5.321
 5679SOL    HW117936   2.844   6.076   5.412
 5679SOL    HW217937   2.890   6.086   5.256
 5680SOL     OW17938   2.200   6.740   6.022
 5680SOL    HW117939   2.108   6.776   6.033
 5680SOL    HW217940   2.214   6.663   6.084
 5681SOL     OW17941   1.910   3.695   0.330
 5681SOL    HW117942   1.963   3.639   0.394
 5681SOL    HW217943   1.843   3.637   0.284
 5682SOL     OW17944   0.521   3.185   3.665
 5682SOL    HW117945   0.466   3.268   3.660
 5682SOL    HW217946   0.617   3.207   3.649
 5683SOL     OW17947   3.614   2.845   5.102
 5683SOL    HW117948   3.710   2.872   5.102
 5683SOL    HW217949   3.579   2.844   5.008
 5684SOL     OW17950   3.386   3.706   3.211
 5684SOL    HW117951   3.348   3.746   3.295
 5684SOL    HW217952   3.355   3.611   3.203
 5685SOL     OW17953   0.887   5.517   2.502
 5685SOL    HW117954   0.943   5.502   2.584
 5685SOL    HW217955   0.860   5.613   2.496
 5686SOL     OW17956   3.560   5.649   0.141
 5686SOL    HW117957   3.493   5.722   0.152
 5686SOL    HW217958   3.526   5.582   0.075
 5687SOL     OW17959   4.670   5.166   5.362
 5687SOL    HW117960   4.601   5.096   5.380
 5687SOL    HW217961   4.689   5.169   5.264
 5688SOL     OW17962   5.983   1.930   2.381
 5688SOL    HW117963   6.024   1.978   2.458
 5688SOL    HW217964   5.988   1.832   2.397
 5689SOL     OW17965   4.547   2.495   6.661
 5689SOL    HW117966   4.553   2.395   6.654
 5689SOL    HW217967   4.458   2.521   6.700
 5690SOL     OW17968   4.740   6.717   1.876
 5690SOL    HW117969   4.809   6.713   1.948
 5690SOL    HW217970   4.669   6.649   1.894
 5691SOL     OW17971   2.003   0.065   2.605
 5691SOL    HW117972   2.054   7.010   2.579
 5691SOL    HW217973   1.928   0.040   2.665
 5692SOL     OW17974   6.160   2.825   0.268
 5692SOL    HW117975   6.260   2.821   0.265
 5692SOL    HW217976   6.130   2.918   0.247
 5693SOL     OW17977   4.783   2.834   2.976
 5693SOL    HW117978   4.814   2.925   2.948
 5693SOL    HW217979   4.778   2.774   2.897
 5694SOL     OW17980   0.638   1.940   4.230
 5694SOL    HW117981   0.577   1.861   4.219
 5694SOL    HW217982   0.710   1.936   4.161
 5695SOL     OW17983   1.733   3.583   4.042
 5695SOL    HW117984   1.832   3.571   4.049
 5695SOL    HW217985   1.702   3.646   4.113
 5696SOL     OW17986   3.691   0.187   5.703
 5696SOL    HW117987   3.625   0.112   5.716
 5696SOL    HW217988   3.695   0.242   5.786
 5697SOL     OW17989   6.833   3.462   7.011
 5697SOL    HW117990   6.779   3.408   0.049
 5697SOL    HW217991   6.869   3.543   0.030
 5698SOL     OW17992   0.900   3.886   2.332
 5698SOL    HW117993   0.998   3.869   2.339
 5698SOL    HW217994   0.865   3.845   2.247
 5699SOL     OW17995   6.640   1.027   4.930
 5699SOL    HW117996   6.738   1.009   4.922
 5699SOL    HW217997   6.605   1.061   4.843
 5700SOL     OW17998   1.057   4.982   3.525
 5700SOL    HW117999   1.146   4.975   3.570
 5700SOL    HW218000   1.005   5.058   3.565
 5701SOL     OW18001   5.698   5.148   1.762
 5701SOL    HW118002   5.659   5.237   1.787
 5701SOL    HW218003   5.647   5.076   1.810
 5702SOL     OW18004   2.294   0.651   6.655
 5702SOL    HW118005   2.329   0.576   6.598
 5702SOL    HW218006   2.350   0.660   6.737
 5703SOL     OW18007   4.122   4.774   0.733
 5703SOL    HW118008   4.218   4.802   0.730
 5703SOL    HW218009   4.065   4.854   0.752
 5704SOL     OW18010   3.837   5.474   3.686
 5704SOL    HW118011   3.841   5.536   3.765
 5704SOL    HW218012   3.748   5.428   3.684
 5705SOL     OW18013   6.325   1.654   2.050
 5705SOL    HW118014   6.419   1.672   2.022
 5705SOL    HW218015   6.264   1.657   1.970
 5706SOL     OW18016   1.781   1.215   6.997
 5706SOL    HW118017   1.717   1.144   7.026
 5706SOL    HW218018   1.756   1.302   0.013
 5707SOL     OW18019   3.363   2.254   6.223
 5707SOL    HW118020   3.278   2.285   6.266
 5707SOL    HW218021   3.344   2.174   6.166
 5708SOL     OW18022   5.650   0.041   1.794
 5708SOL    HW118023   5.727   0.049   1.857
 5708SOL    HW218024   5.566   0.070   1.840
 5709SOL     OW18025   1.116   0.989   3.181
 5709SOL    HW118026   1.164   1.057   3.126
 5709SOL    HW218027   1.036   0.956   3.130
 5710SOL     OW18028   3.009   4.568   6.232
 5710SOL    HW118029   2.984   4.538   6.139
 5710SOL    HW218030   2.931   4.557   6.293
 5711SOL     OW18031   4.046   1.368   4.455
 5711SOL    HW118032   3.953   1.378   4.420
 5711SOL    HW218033   4.109   1.423   4.401
 5712SOL     OW18034   6.987   6.024   6.681
 5712SOL    HW118035   0.003   6.035   6.771
 5712SOL    HW218036   0.030   5.995   6.615
 5713SOL     OW18037   0.174   1.716   3.515
 5713SOL    HW118038   0.247   1.730   3.448
 5713SOL    HW218039   0.090   1.758   3.481
 5714SOL     OW18040   1.852   0.712   6.919
 5714SOL    HW118041   1.944   0.673   6.921
 5714SOL    HW218042   1.858   0.811   6.902
 5715SOL     OW18043   1.664   0.191   3.455
 5715SOL    HW118044   1.714   0.135   3.520
 5715SOL    HW218045   1.574   0.215   3.494
 5716SOL     OW18046   2.452   3.044   5.641
 5716SOL    HW118047   2.438   2.965   5.701
 5716SOL    HW218048   2.407   3.027   5.553
 5717SOL     OW18049   0.607   4.219   0.210
 5717SOL    HW118050   0.613   4.147   0.140
 5717SOL    HW218051   0.513   4.227   0.242
 5718SOL     OW18052   1.969   4.738   5.158
 5718SOL    HW118053   2.057   4.777   5.185
 5718SOL    HW218054   1.981   4.642   5.135
 5719SOL     OW18055   2.965   0.513   6.692
 5719SOL    HW118056   2.922   0.564   6.617
 5719SOL    HW218057   2.957   0.565   6.777
 5720SOL     OW18058   1.912   4.993   4.149
 5720SOL    HW118059   1.998   5.032   4.181
 5720SOL    HW218060   1.836   5.034   4.198
 5721SOL     OW18061   0.690   4.569   1.941
 5721SOL    HW118062   0.680   4.480   1.987
 5721SOL    HW218063   0.614   4.582   1.878
 5722SOL     OW18064   5.064   0.815   3.857
 5722SOL    HW118065   5.132   0.871   3.906
 5722SOL    HW218066   4.977   0.863   3.853
 5723SOL     OW18067   1.391   4.999   1.082
 5723SOL    HW118068   1.374   5.091   1.048
 5723SOL    HW218069   1.358   4.990   1.176
 5724SOL     OW18070   4.808   1.717   6.816
 5724SOL    HW118071   4.854   1.724   6.905
 5724SOL    HW218072   4.857   1.651   6.759
 5725SOL     OW18073   5.141   5.824   6.039
 5725SOL    HW118074   5.134   5.808   6.138
 5725SOL    HW218075   5.112   5.917   6.018
 5726SOL     OW18076   4.589   3.348   6.251
 5726SOL    HW118077   4.604   3.249   6.244
 5726SOL    HW218078   4.579   3.374   6.347
 5727SOL     OW18079   5.810   1.838   3.897
 5727SOL    HW118080   5.908   1.838   3.916
 5727SOL    HW218081   5.781   1.745   3.875
 5728SOL     OW18082   6.018   0.869   6.243
 5728SOL    HW118083   5.934   0.907   6.206
 5728SOL    HW218084   6.084   0.853   6.170
 5729SOL     OW18085   0.777   2.941   5.399
 5729SOL    HW118086   0.720   2.909   5.474
 5729SOL    HW218087   0.835   2.866   5.366
 5730SOL     OW18088   4.588   5.405   6.786
 5730SOL    HW118089   4.673   5.442   6.749
 5730SOL    HW218090   4.518   5.401   6.715
 5731SOL     OW18091   3.606   0.863   4.474
 5731SOL    HW118092   3.507   0.872   4.474
 5731SOL    HW218093   3.636   0.815   4.557
 5732SOL     OW18094   5.953   4.079   4.137
 5732SOL    HW118095   5.959   3.979   4.145
 5732SOL    HW218096   5.869   4.110   4.183
 5733SOL     OW18097   2.784   0.397   0.662
 5733SOL    HW118098   2.750   0.333   0.593
 5733SOL    HW218099   2.772   0.358   0.753
 5734SOL     OW18100   2.058   5.847   6.300
 5734SOL    HW118101   1.981   5.827   6.361
 5734SOL    HW218102   2.075   5.768   6.242
 5735SOL     OW18103   4.500   0.751   1.627
 5735SOL    HW118104   4.509   0.670   1.571
 5735SOL    HW218105   4.437   0.733   1.703
 5736SOL     OW18106   5.337   3.883   0.230
 5736SOL    HW118107   5.368   3.976   0.249
 5736SOL    HW218108   5.385   3.819   0.289
 5737SOL     OW18109   4.043   5.352   1.037
 5737SOL    HW118110   4.050   5.405   1.121
 5737SOL    HW218111   4.052   5.255   1.058
 5738SOL     OW18112   2.979   0.529   0.481
 5738SOL    HW118113   2.933   0.463   0.541
 5738SOL    HW218114   3.010   0.607   0.535
 5739SOL     OW18115   1.811   0.876   5.740
 5739SOL    HW118116   1.879   0.924   5.684
 5739SOL    HW218117   1.736   0.844   5.681
 5740SOL     OW18118   4.717   3.453   1.750
 5740SOL    HW118119   4.688   3.371   1.702
 5740SOL    HW218120   4.795   3.431   1.809
 5741SOL     OW18121   0.605   3.459   3.990
 5741SOL    HW118122   0.576   3.364   3.992
 5741SOL    HW218123   0.608   3.492   3.895
 5742SOL     OW18124   5.281   0.367   3.327
 5742SOL    HW118125   5.236   0.286   3.290
 5742SOL    HW218126   5.354   0.397   3.266
 5743SOL     OW18127   3.988   4.550   0.196
 5743SOL    HW118128   3.977   4.648   0.179
 5743SOL    HW218129   3.959   4.529   0.289
 5744SOL     OW18130   5.240   6.754   2.784
 5744SOL    HW118131   5.239   6.743   2.883
 5744SOL    HW218132   5.154   6.796   2.754
 5745SOL     OW18133   1.615   2.370   1.649
 5745SOL    HW118134   1.666   2.447   1.688
 5745SOL    HW218135   1.531   2.404   1.608
 5746SOL     OW18136   4.667   6.835   3.286
 5746SOL    HW118137   4.663   6.809   3.190
 5746SOL    HW218138   4.758   6.813   3.323
 5747SOL     OW18139   0.754   6.217   1.149
 5747SOL    HW118140   0.781   6.310   1.175
 5747SOL    HW218141   0.730   6.216   1.052
 5748SOL     OW18142   0.113   6.073   0.753
 5748SOL    HW118143   0.150   6.163   0.730
 5748SOL    HW218144   0.136   6.051   0.848
 5749SOL     OW18145   1.633   5.877   6.156
 5749SOL    HW118146   1.603   5.802   6.215
 5749SOL    HW218147   1.644   5.960   6.209
 5750SOL     OW18148   6.644   3.557   3.764
 5750SOL    HW118149   6.554   3.598   3.778
 5750SOL    HW218150   6.642   3.501   3.681
 5751SOL     OW18151   1.479   3.681   4.881
 5751SOL    HW118152   1.533   3.670   4.964
 5751SOL    HW218153   1.501   3.768   4.838
 5752SOL     OW18154   4.729   6.885   0.947
 5752SOL    HW118155   4.679   6.953   1.000
 5752SOL    HW218156   4.826   6.888   0.973
 5753SOL     OW18157   3.787   3.854   5.168
 5753SOL    HW118158   3.698   3.842   5.210
 5753SOL    HW218159   3.780   3.920   5.093
 5754SOL     OW18160   1.076   5.835   1.613
 5754SOL    HW118161   1.093   5.850   1.516
 5754SOL    HW218162   0.998   5.890   1.643
 5755SOL     OW18163   1.002   2.329   6.904
 5755SOL    HW118164   0.982   2.365   6.994
 5755SOL    HW218165   1.015   2.404   6.839
 5756SOL     OW18166   5.906   6.094   1.399
 5756SOL    HW118167   5.960   6.055   1.474
 5756SOL    HW218168   5.947   6.066   1.312
 5757SOL     OW18169   6.587   0.265   4.406
 5757SOL    HW118170   6.567   0.292   4.311
 5757SOL    HW218171   6.686   0.263   4.420
 5758SOL     OW18172   5.974   6.762   2.902
 5758SOL    HW118173   5.889   6.787   2.948
 5758SOL    HW218174   6.036   6.840   2.902
 5759SOL     OW18175   3.978   0.151   1.118
 5759SOL    HW118176   3.884   0.150   1.082
 5759SOL    HW218177   3.994   0.068   1.171
 5760SOL     OW18178   0.714   3.072   0.661
 5760SOL    HW118179   0.697   3.135   0.737
 5760SOL    HW218180   0.661   2.988   0.674
 5761SOL     OW18181   5.911   7.002   4.414
 5761SOL    HW118182   5.948   0.052   4.467
 5761SOL    HW218183   5.882   6.929   4.477
 5762SOL     OW18184   6.203   5.748   6.775
 5762SOL    HW118185   6.296   5.718   6.752
 5762SOL    HW218186   6.188   5.734   6.873
 5763SOL     OW18187   6.253   6.935   6.963
 5763SOL    HW118188   6.188   7.002   6.999
 5763SOL    HW218189   6.288   6.967   6.875
 5764SOL     OW18190   4.844   6.945   3.860
 5764SOL    HW118191   4.903   6.866   3.841
 5764SOL    HW218192   4.900   7.025   3.880
 5765SOL     OW18193   6.224   5.063   1.947
 5765SOL    HW118194   6.186   5.051   2.039
 5765SOL    HW218195   6.300   4.999   1.934
 5766SOL     OW18196   0.085   1.547   4.455
 5766SOL    HW118197   0.144   1.515   4.382
 5766SOL    HW218198   0.038   1.631   4.427
 5767SOL     OW18199   3.375   6.823   6.950
 5767SOL    HW118200   3.465   6.866   6.947
 5767SOL    HW218201   3.383   6.730   6.986
 5768SOL     OW18202   0.379   0.490   4.424
 5768SOL    HW118203   0.429   0.544   4.356
 5768SOL    HW218204   0.283   0.516   4.423
 5769SOL     OW18205   1.575   4.408   6.709
 5769SOL    HW118206   1.612   4.459   6.631
 5769SOL    HW218207   1.588   4.310   6.694
 5770SOL     OW18208   1.854   4.670   1.736
 5770SOL    HW118209   1.788   4.596   1.722
 5770SOL    HW218210   1.915   4.647   1.812
 5771SOL     OW18211   3.063   5.223   3.356
 5771SOL    HW118212   3.010   5.186   3.280
 5771SOL    HW218213   3.131   5.156   3.386
 5772SOL     OW18214   3.009   0.666   1.811
 5772SOL    HW118215   3.080   0.734   1.831
 5772SOL    HW218216   2.951   0.700   1.737
 5773SOL     OW18217   4.718   2.175   2.713
 5773SOL    HW118218   4.639   2.155   2.772
 5773SOL    HW218219   4.802   2.159   2.764
 5774SOL     OW18220   0.217   6.889   2.309
 5774SOL    HW118221   0.161   6.972   2.308
 5774SOL    HW218222   0.314   6.915   2.305
 5775SOL     OW18223   6.510   5.678   2.163
 5775SOL    HW118224   6.601   5.640   2.144
 5775SOL    HW218225   6.520   5.762   2.217
 5776SOL     OW18226   2.981   0.884   3.848
 5776SOL    HW118227   2.931   0.966   3.819
 5776SOL    HW218228   3.026   0.843   3.768
 5777SOL     OW18229   1.490   6.187   3.078
 5777SOL    HW118230   1.479   6.088   3.072
 5777SOL    HW218231   1.556   6.218   3.008
 5778SOL     OW18232   0.534   1.681   0.613
 5778SOL    HW118233   0.601   1.755   0.616
 5778SOL    HW218234   0.462   1.702   0.547
 5779SOL     OW18235   6.205   1.782   6.274
 5779SOL    HW118236   6.233   1.878   6.264
 5779SOL    HW218237   6.261   1.738   6.344
 5780SOL     OW18238   4.994   5.977   3.868
 5780SOL    HW118239   5.040   6.044   3.925
 5780SOL    HW218240   4.982   5.892   3.919
 5781SOL     OW18241   0.685   4.741   4.983
 5781SOL    HW118242   0.783   4.734   5.001
 5781SOL    HW218243   0.647   4.650   4.968
 5782SOL     OW18244   0.774   0.812   0.183
 5782SOL    HW118245   0.798   0.764   0.099
 5782SOL    HW218246   0.718   0.752   0.241
 5783SOL     OW18247   1.581   1.841   1.295
 5783SOL    HW118248   1.549   1.761   1.244
 5783SOL    HW218249   1.681   1.843   1.295
 5784SOL     OW18250   6.926   6.442   5.977
 5784SOL    HW118251   6.885   6.529   6.004
 5784SOL    HW218252   7.025   6.452   5.972
 5785SOL     OW18253   1.339   1.629   0.885
 5785SOL    HW118254   1.334   1.567   0.807
 5785SOL    HW218255   1.263   1.694   0.882
 5786SOL     OW18256   6.210   4.339   0.789
 5786SOL    HW118257   6.229   4.336   0.691
 5786SOL    HW218258   6.182   4.431   0.815
 5787SOL     OW18259   3.432   2.120   5.985
 5787SOL    HW118260   3.356   2.180   5.959
 5787SOL    HW218261   3.463   2.069   5.905
 5788SOL     OW18262   2.766   0.995   3.693
 5788SOL    HW118263   2.809   0.994   3.602
 5788SOL    HW218264   2.682   1.049   3.689
 5789SOL     OW18265   4.133   5.260   6.207
 5789SOL    HW118266   4.034   5.265   6.195
 5789SOL    HW218267   4.154   5.241   6.302
 5790SOL     OW18268   0.558   2.487   3.531
 5790SOL    HW118269   0.510   2.570   3.503
 5790SOL    HW218270   0.496   2.429   3.584
 5791SOL     OW18271   2.715   0.527   2.669
 5791SOL    HW118272   2.780   0.562   2.736
 5791SOL    HW218273   2.712   0.587   2.589
 5792SOL     OW18274   6.742   2.344   2.706
 5792SOL    HW118275   6.748   2.275   2.777
 5792SOL    HW218276   6.787   2.428   2.737
 5793SOL     OW18277   6.469   0.651   3.577
 5793SOL    HW118278   6.445   0.620   3.670
 5793SOL    HW218279   6.490   0.748   3.579
 5794SOL     OW18280   4.160   3.850   0.107
 5794SOL    HW118281   4.116   3.814   0.189
 5794SOL    HW218282   4.240   3.905   0.133
 5795SOL     OW18283   5.786   3.951   6.212
 5795SOL    HW118284   5.803   3.929   6.116
 5795SOL    HW218285   5.795   3.868   6.267
 5796SOL     OW18286   3.725   1.392   0.014
 5796SOL    HW118287   3.663   1.314   0.023
 5796SOL    HW218288   3.673   1.473   7.016
 5797SOL     OW18289   3.106   1.876   4.640
 5797SOL    HW118290   3.081   1.971   4.623
 5797SOL    HW218291   3.058   1.843   4.721
 5798SOL     OW18292   6.755   4.363   4.707
 5798SOL    HW118293   6.753   4.303   4.787
 5798SOL    HW218294   6.685   4.433   4.715
 5799SOL     OW18295   5.529   0.446   4.040
 5799SOL    HW118296   5.475   0.376   4.088
 5799SOL    HW218297   5.483   0.470   3.954
 5800SOL     OW18298   5.770   4.908   0.678
 5800SOL    HW118299   5.868   4.901   0.694
 5800SOL    HW218300   5.721   4.863   0.752
 5801SOL     OW18301   1.690   1.238   3.615
 5801SOL    HW118302   1.705   1.257   3.712
 5801SOL    HW218303   1.594   1.255   3.592
 5802SOL     OW18304   0.353   3.913   5.704
 5802SOL    HW118305   0.286   3.852   5.746
 5802SOL    HW218306   0.406   3.863   5.636
 5803SOL     OW18307   1.218   4.340   0.558
 5803SOL    HW118308   1.290   4.291   0.508
 5803SOL    HW218309   1.221   4.437   0.534
 5804SOL     OW18310   6.014   4.273   4.646
 5804SOL    HW118311   5.964   4.195   4.684
 5804SOL    HW218312   6.018   4.265   4.546
 5805SOL     OW18313   4.829   3.312   6.628
 5805SOL    HW118314   4.847   3.297   6.725
 5805SOL    HW218315   4.870   3.238   6.575
 5806SOL     OW18316   0.743   6.480   6.918
 5806SOL    HW118317   0.721   6.453   6.824
 5806SOL    HW218318   0.718   6.407   6.981
 5807SOL     OW18319   1.575   3.345   1.733
 5807SOL    HW118320   1.494   3.305   1.689
 5807SOL    HW218321   1.657   3.313   1.687
 5808SOL     OW18322   6.297   3.646   2.529
 5808SOL    HW118323   6.321   3.549   2.521
 5808SOL    HW218324   6.198   3.655   2.542
 5809SOL     OW18325   0.166   3.653   4.399
 5809SOL    HW118326   0.204   3.560   4.394
 5809SOL    HW218327   0.202   3.707   4.324
 5810SOL     OW18328   2.669   1.814   2.330
 5810SOL    HW118329   2.630   1.784   2.243
 5810SOL    HW218330   2.653   1.912   2.343
 5811SOL     OW18331   2.674   0.976   4.088
 5811SOL    HW118332   2.724   0.977   4.175
 5811SOL    HW218333   2.686   0.888   4.043
 5812SOL     OW18334   4.775   0.752   4.104
 5812SOL    HW118335   4.850   0.745   4.170
 5812SOL    HW218336   4.743   0.661   4.079
 5813SOL     OW18337   1.480   0.865   5.346
 5813SOL    HW118338   1.481   0.766   5.333
 5813SOL    HW218339   1.443   0.886   5.437
 5814SOL     OW18340   0.158   5.446   1.720
 5814SOL    HW118341   0.107   5.438   1.634
 5814SOL    HW218342   0.150   5.361   1.772
 5815SOL     OW18343   4.142   1.186   3.213
 5815SOL    HW118344   4.213   1.250   3.241
 5815SOL    HW218345   4.059   1.202   3.266
 5816SOL     OW18346   4.768   0.510   0.412
 5816SOL    HW118347   4.762   0.512   0.313
 5816SOL    HW218348   4.721   0.428   0.446
 5817SOL     OW18349   4.945   3.268   5.286
 5817SOL    HW118350   5.035   3.238   5.317
 5817SOL    HW218351   4.879   3.194   5.299
 5818SOL     OW18352   6.273   6.566   6.191
 5818SOL    HW118353   6.306   6.532   6.280
 5818SOL    HW218354   6.179   6.535   6.176
 5819SOL     OW18355   5.996   0.564   1.706
 5819SOL    HW118356   6.010   0.596   1.612
 5819SOL    HW218357   5.911   0.601   1.742
 5820SOL     OW18358   5.699   6.490   3.533
 5820SOL    HW118359   5.783   6.496   3.586
 5820SOL    HW218360   5.718   6.506   3.436
 5821SOL     OW18361   2.727   1.214   1.734
 5821SOL    HW118362   2.629   1.197   1.746
 5821SOL    HW218363   2.745   1.311   1.741
 5822SOL     OW18364   6.858   1.693   1.710
 5822SOL    HW118365   6.863   1.674   1.809
 5822SOL    HW218366   6.944   1.667   1.667
 5823SOL     OW18367   2.584   1.896   4.261
 5823SOL    HW118368   2.485   1.887   4.258
 5823SOL    HW218369   2.610   1.990   4.239
 5824SOL     OW18370   5.486   0.074   3.760
 5824SOL    HW118371   5.523   7.008   3.769
 5824SOL    HW218372   5.436   0.098   3.844
 5825SOL     OW18373   2.378   0.816   0.417
 5825SOL    HW118374   2.463   0.868   0.419
 5825SOL    HW218375   2.396   0.724   0.382
 5826SOL     OW18376   6.379   0.001   5.297
 5826SOL    HW118377   6.415   0.068   5.363
 5826SOL    HW218378   6.279   0.010   5.292
 5827SOL     OW18379   1.120   5.772   4.734
 5827SOL    HW118380   1.125   5.698   4.667
 5827SOL    HW218381   1.044   5.755   4.797
 5828SOL     OW18382   0.230   3.618   2.034
 5828SOL    HW118383   0.160   3.681   1.998
 5828SOL    HW218384   0.302   3.671   2.079
 5829SOL     OW18385   2.289   1.760   1.381
 5829SOL    HW118386   2.281   1.739   1.283
 5829SOL    HW218387   2.304   1.858   1.392
 5830SOL     OW18388   3.116   1.425   6.151
 5830SOL    HW118389   3.156   1.485   6.221
 5830SOL    HW218390   3.141   1.459   6.060
 5831SOL     OW18391   5.459   6.822   3.367
 5831SOL    HW118392   5.438   6.752   3.436
 5831SOL    HW218393   5.451   6.913   3.408
 5832SOL     OW18394   4.017   3.935   5.272
 5832SOL    HW118395   3.926   3.916   5.235
 5832SOL    HW218396   4.019   4.028   5.310
 5833SOL     OW18397   3.111   3.485   4.702
 5833SOL    HW118398   3.038   3.519   4.643
 5833SOL    HW218399   3.076   3.411   4.760
 5834SOL     OW18400   6.008   1.243   0.985
 5834SOL    HW118401   5.964   1.330   1.007
 5834SOL    HW218402   6.084   1.228   1.049
 5835SOL     OW18403   5.100   2.209   3.692
 5835SOL    HW118404   5.198   2.190   3.685
 5835SOL    HW218405   5.083   2.304   3.663
 5836SOL     OW18406   3.594   5.977   2.237
 5836SOL    HW118407   3.691   5.999   2.247
 5836SOL    HW218408   3.542   6.062   2.227
 5837SOL     OW18409   4.745   4.121   6.815
 5837SOL    HW118410   4.820   4.059   6.840
 5837SOL    HW218411   4.669   4.068   6.777
 5838SOL     OW18412   1.095   1.065   5.132
 5838SOL    HW118413   1.069   1.060   5.036
 5838SOL    HW218414   1.194   1.079   5.140
 5839SOL     OW18415   6.514   3.032   3.011
 5839SOL    HW118416   6.545   3.125   2.994
 5839SOL    HW218417   6.446   3.031   3.083
 5840SOL     OW18418   1.447   5.245   6.778
 5840SOL    HW118419   1.393   5.175   6.732
 5840SOL    HW218420   1.536   5.208   6.803
 5841SOL     OW18421   6.531   2.637   3.538
 5841SOL    HW118422   6.554   2.715   3.597
 5841SOL    HW218423   6.435   2.612   3.551
 5842SOL     OW18424   3.943   3.132   1.001
 5842SOL    HW118425   3.994   3.134   1.087
 5842SOL    HW218426   3.931   3.038   0.970
 5843SOL     OW18427   1.875   3.800   2.372
 5843SOL    HW118428   1.837   3.716   2.333
 5843SOL    HW218429   1.959   3.779   2.421
 5844SOL     OW18430   1.145   6.305   6.501
 5844SOL    HW118431   1.080   6.344   6.436
 5844SOL    HW218432   1.129   6.343   6.592
 5845SOL     OW18433   0.445   2.464   4.231
 5845SOL    HW118434   0.395   2.415   4.160
 5845SOL    HW218435   0.398   2.453   4.318
 5846SOL     OW18436   0.110   2.503   5.540
 5846SOL    HW118437   0.186   2.503   5.604
 5846SOL    HW218438   0.025   2.481   5.588
 5847SOL     OW18439   2.156   3.020   2.349
 5847SOL    HW118440   2.071   3.024   2.402
 5847SOL    HW218441   2.170   3.108   2.303
 5848SOL     OW18442   1.144   4.466   3.206
 5848SOL    HW118443   1.216   4.520   3.251
 5848SOL    HW218444   1.178   4.373   3.190
 5849SOL     OW18445   2.654   0.173   5.581
 5849SOL    HW118446   2.752   0.183   5.599
 5849SOL    HW218447   2.624   0.243   5.517
 5850SOL     OW18448   0.656   4.346   2.070
 5850SOL    HW118449   0.728   4.344   2.138
 5850SOL    HW218450   0.568   4.323   2.113
 5851SOL     OW18451   6.376   3.962   2.273
 5851SOL    HW118452   6.309   4.034   2.293
 5851SOL    HW218453   6.327   3.877   2.256
 5852SOL     OW18454   4.434   6.011   2.407
 5852SOL    HW118455   4.392   5.926   2.376
 5852SOL    HW218456   4.376   6.088   2.383
 5853SOL     OW18457   3.338   4.563   5.910
 5853SOL    HW118458   3.338   4.663   5.910
 5853SOL    HW218459   3.433   4.531   5.907
 5854SOL     OW18460   7.001   1.230   6.208
 5854SOL    HW118461   7.009   1.324   6.240
 5854SOL    HW218462   6.906   1.201   6.211
 5855SOL     OW18463   1.042   1.124   4.467
 5855SOL    HW118464   1.020   1.030   4.490
 5855SOL    HW218465   0.977   1.186   4.510
 5856SOL     OW18466   1.539   4.474   3.628
 5856SOL    HW118467   1.611   4.528   3.671
 5856SOL    HW218468   1.580   4.398   3.576
 5857SOL     OW18469   6.736   3.130   5.628
 5857SOL    HW118470   6.820   3.185   5.636
 5857SOL    HW218471   6.671   3.158   5.699
 5858SOL     OW18472   3.728   1.186   3.062
 5858SOL    HW118473   3.696   1.096   3.091
 5858SOL    HW218474   3.731   1.189   2.962
 5859SOL     OW18475   5.755   6.487   0.883
 5859SOL    HW118476   5.787   6.426   0.956
 5859SOL    HW218477   5.670   6.532   0.912
 5860SOL     OW18478   1.571   4.081   1.742
 5860SOL    HW118479   1.659   4.092   1.695
 5860SOL    HW218480   1.510   4.024   1.688
 5861SOL     OW18481   6.191   2.514   4.303
 5861SOL    HW118482   6.221   2.609   4.302
 5861SOL    HW218483   6.115   2.505   4.367
 5862SOL     OW18484   4.201   4.768   2.857
 5862SOL    HW118485   4.237   4.737   2.769
 5862SOL    HW218486   4.223   4.864   2.871
 5863SOL     OW18487   2.146   0.946   6.697
 5863SOL    HW118488   2.138   0.889   6.779
 5863SOL    HW218489   2.134   0.889   6.615
 5864SOL     OW18490   4.734   4.585   1.662
 5864SOL    HW118491   4.737   4.581   1.563
 5864SOL    HW218492   4.656   4.641   1.690
 5865SOL     OW18493   4.947   1.060   3.258
 5865SOL    HW118494   4.899   1.144   3.283
 5865SOL    HW218495   4.920   1.032   3.166
 5866SOL     OW18496   4.078   6.990   5.876
 5866SOL    HW118497   4.176   6.969   5.869
 5866SOL    HW218498   4.051   0.020   5.798
 5867SOL     OW18499   0.336   3.040   1.775
 5867SOL    HW118500   0.406   3.014   1.841
 5867SOL    HW218501   0.253   2.986   1.791
 5868SOL     OW18502   1.863   0.083   5.172
 5868SOL    HW118503   1.770   0.117   5.160
 5868SOL    HW218504   1.888   0.027   5.094
 5869SOL     OW18505   2.945   4.875   4.325
 5869SOL    HW118506   2.940   4.957   4.383
 5869SOL    HW218507   3.040   4.860   4.297
 5870SOL     OW18508   4.985   5.373   4.785
 5870SOL    HW118509   4.998   5.291   4.840
 5870SOL    HW218510   4.970   5.347   4.689
 5871SOL     OW18511   3.439   3.158   6.997
 5871SOL    HW118512   3.342   3.167   7.018
 5871SOL    HW218513   3.483   3.097   0.037
 5872SOL     OW18514   3.153   5.977   5.612
 5872SOL    HW118515   3.235   6.005   5.663
 5872SOL    HW218516   3.083   5.948   5.676
 5873SOL     OW18517   3.122   3.485   0.048
 5873SOL    HW118518   3.075   3.455   0.131
 5873SOL    HW218519   3.212   3.521   0.071
 5874SOL     OW18520   2.109   3.385   1.358
 5874SOL    HW118521   2.122   3.473   1.403
 5874SOL    HW218522   2.155   3.314   1.410
 5875SOL     OW18523   3.243   1.563   0.185
 5875SOL    HW118524   3.195   1.519   0.110
 5875SOL    HW218525   3.309   1.499   0.224
 5876SOL     OW18526   3.071   3.983   6.254
 5876SOL    HW118527   3.155   3.961   6.304
 5876SOL    HW218528   2.999   4.006   6.318
 5877SOL     OW18529   6.778   0.110   2.889
 5877SOL    HW118530   6.753   0.088   2.983
 5877SOL    HW218531   6.696   0.114   2.833
 5878SOL     OW18532   4.798   4.772   2.670
 5878SOL    HW118533   4.884   4.720   2.664
 5878SOL    HW218534   4.801   4.848   2.605
 5879SOL     OW18535   3.921   3.477   6.044
 5879SOL    HW118536   3.937   3.406   6.111
 5879SOL    HW218537   3.984   3.466   5.967
 5880SOL     OW18538   4.784   2.820   5.655
 5880SOL    HW118539   4.719   2.744   5.670
 5880SOL    HW218540   4.836   2.836   5.739
 5881SOL     OW18541   1.488   6.119   2.568
 5881SOL    HW118542   1.404   6.161   2.603
 5881SOL    HW218543   1.466   6.034   2.519
 5882SOL     OW18544   1.673   5.561   6.060
 5882SOL    HW118545   1.715   5.500   5.994
 5882SOL    HW218546   1.680   5.656   6.027
 5883SOL     OW18547   0.235   4.529   0.954
 5883SOL    HW118548   0.334   4.530   0.948
 5883SOL    HW218549   0.206   4.551   1.048
 5884SOL     OW18550   6.207   1.801   3.794
 5884SOL    HW118551   6.249   1.744   3.723
 5884SOL    HW218552   6.208   1.897   3.765
 5885SOL     OW18553   0.306   5.191   6.660
 5885SOL    HW118554   0.346   5.130   6.728
 5885SOL    HW218555   0.229   5.146   6.615
 5886SOL     OW18556   1.967   4.189   3.676
 5886SOL    HW118557   1.927   4.176   3.585
 5886SOL    HW218558   2.066   4.192   3.669
 5887SOL     OW18559   2.438   2.930   1.114
 5887SOL    HW118560   2.378   3.000   1.153
 5887SOL    HW218561   2.522   2.973   1.081
 5888SOL     OW18562   3.360   6.853   0.887
 5888SOL    HW118563   3.313   6.924   0.940
 5888SOL    HW218564   3.296   6.809   0.825
 5889SOL     OW18565   6.535   0.767   2.003
 5889SOL    HW118566   6.544   0.683   1.949
 5889SOL    HW218567   6.441   0.778   2.033
 5890SOL     OW18568   2.941   6.602   2.597
 5890SOL    HW118569   3.030   6.583   2.638
 5890SOL    HW218570   2.895   6.517   2.575
 5891SOL     OW18571   2.714   3.461   0.842
 5891SOL    HW118572   2.709   3.502   0.934
 5891SOL    HW218573   2.753   3.370   0.848
 5892SOL     OW18574   1.043   3.965   1.054
 5892SOL    HW118575   0.992   3.917   1.125
 5892SOL    HW218576   1.137   3.930   1.051
 5893SOL     OW18577   0.601   6.294   2.152
 5893SOL    HW118578   0.544   6.334   2.224
 5893SOL    HW218579   0.697   6.309   2.175
 5894SOL     OW18580   2.051   5.171   5.850
 5894SOL    HW118581   1.960   5.131   5.866
 5894SOL    HW218582   2.120   5.113   5.893
 5895SOL     OW18583   5.305   2.910   4.677
 5895SOL    HW118584   5.354   2.930   4.592
 5895SOL    HW218585   5.359   2.941   4.755
 5896SOL     OW18586   5.374   2.245   1.989
 5896SOL    HW118587   5.288   2.295   2.001
 5896SOL    HW218588   5.387   2.182   2.066
 5897SOL     OW18589   4.104   2.427   0.623
 5897SOL    HW118590   4.080   2.504   0.564
 5897SOL    HW218591   4.204   2.423   0.632
 5898SOL     OW18592   2.048   1.447   5.652
 5898SOL    HW118593   1.963   1.492   5.681
 5898SOL    HW218594   2.080   1.387   5.725
 5899SOL     OW18595   6.845   5.608   5.813
 5899SOL    HW118596   6.889   5.535   5.761
 5899SOL    HW218597   6.746   5.592   5.814
 5900SOL     OW18598   6.008   6.149   3.322
 5900SOL    HW118599   6.072   6.224   3.335
 5900SOL    HW218600   6.024   6.079   3.391
 5901SOL     OW18601   1.694   0.677   5.570
 5901SOL    HW118602   1.610   0.644   5.527
 5901SOL    HW218603   1.734   0.604   5.625
 5902SOL     OW18604   4.968   4.089   5.641
 5902SOL    HW118605   4.907   4.064   5.566
 5902SOL    HW218606   4.913   4.113   5.721
 5903SOL     OW18607   6.417   2.386   5.529
 5903SOL    HW118608   6.415   2.362   5.626
 5903SOL    HW218609   6.349   2.457   5.511
 5904SOL     OW18610   2.052   4.346   2.137
 5904SOL    HW118611   2.102   4.358   2.222
 5904SOL    HW218612   2.116   4.349   2.060
 5905SOL     OW18613   5.990   1.390   4.372
 5905SOL    HW118614   6.051   1.311   4.364
 5905SOL    HW218615   5.896   1.362   4.348
 5906SOL     OW18616   4.735   0.627   5.684
 5906SOL    HW118617   4.782   0.543   5.658
 5906SOL    HW218618   4.799   0.704   5.677
 5907SOL     OW18619   1.631   3.209   6.289
 5907SOL    HW118620   1.691   3.188   6.366
 5907SOL    HW218621   1.661   3.294   6.246
 5908SOL     OW18622   4.910   2.866   5.911
 5908SOL    HW118623   4.834   2.849   5.973
 5908SOL    HW218624   4.992   2.819   5.944
 5909SOL     OW18625   6.755   4.861   4.157
 5909SOL    HW118626   6.804   4.917   4.224
 5909SOL    HW218627   6.816   4.841   4.080
 5910SOL     OW18628   1.943   4.036   1.072
 5910SOL    HW118629   1.986   3.997   1.154
 5910SOL    HW218630   2.010   4.088   1.020
 5911SOL     OW18631   5.774   6.730   6.168
 5911SOL    HW118632   5.733   6.819   6.148
 5911SOL    HW218633   5.796   6.684   6.081
 5912SOL     OW18634   6.500   3.562   6.973
 5912SOL    HW118635   6.424   3.552   6.909
 5912SOL    HW218636   6.585   3.578   6.922
 5913SOL     OW18637   1.287   1.799   6.079
 5913SOL    HW118638   1.310   1.732   6.150
 5913SOL    HW218639   1.323   1.768   5.991
 5914SOL     OW18640   2.284   6.291   0.701
 5914SOL    HW118641   2.218   6.217   0.712
 5914SOL    HW218642   2.368   6.256   0.660
 5915SOL     OW18643   5.012   3.319   2.550
 5915SOL    HW118644   5.045   3.412   2.537
 5915SOL    HW218645   5.055   3.279   2.631
 5916SOL     OW18646   3.396   0.553   5.798
 5916SOL    HW118647   3.488   0.546   5.758
 5916SOL    HW218648   3.346   0.626   5.754
 5917SOL     OW18649   3.228   2.952   3.192
 5917SOL    HW118650   3.296   2.882   3.213
 5917SOL    HW218651   3.224   2.967   3.094
 5918SOL     OW18652   2.173   3.096   4.415
 5918SOL    HW118653   2.188   3.189   4.451
 5918SOL    HW218654   2.177   3.099   4.316
 5919SOL     OW18655   1.377   3.287   6.536
 5919SOL    HW118656   1.422   3.279   6.447
 5919SOL    HW218657   1.401   3.374   6.579
 5920SOL     OW18658   3.741   6.568   6.672
 5920SOL    HW118659   3.692   6.567   6.759
 5920SOL    HW218660   3.791   6.483   6.660
 5921SOL     OW18661   3.979   5.277   5.278
 5921SOL    HW118662   3.968   5.239   5.370
 5921SOL    HW218663   4.052   5.228   5.230
 5922SOL     OW18664   5.696   4.277   2.122
 5922SOL    HW118665   5.746   4.328   2.052
 5922SOL    HW218666   5.758   4.253   2.197
 5923SOL     OW18667   0.261   7.018   4.025
 5923SOL    HW118668   0.294   0.006   4.118
 5923SOL    HW218669   0.187   0.055   4.005
 5924SOL     OW18670   5.521   2.154   4.346
 5924SOL    HW118671   5.472   2.154   4.258
 5924SOL    HW218672   5.454   2.151   4.420
 5925SOL     OW18673   5.756   6.288   1.207
 5925SOL    HW118674   5.786   6.225   1.279
 5925SOL    HW218675   5.792   6.258   1.119
 5926SOL     OW18676   3.717   5.131   1.770
 5926SOL    HW118677   3.731   5.229   1.750
 5926SOL    HW218678   3.634   5.120   1.823
 5927SOL     OW18679   2.799   5.779   2.753
 5927SOL    HW118680   2.819   5.685   2.781
 5927SOL    HW218681   2.703   5.785   2.725
 5928SOL     OW18682   1.352   6.695   1.801
 5928SOL    HW118683   1.388   6.749   1.725
 5928SOL    HW218684   1.385   6.732   1.888
 5929SOL     OW18685   1.357   0.080   6.244
 5929SOL    HW118686   1.282   0.016   6.256
 5929SOL    HW218687   1.430   0.058   6.309
 5930SOL     OW18688   6.776   1.960   4.861
 5930SOL    HW118689   6.754   1.972   4.957
 5930SOL    HW218690   6.802   2.047   4.820
 5931SOL     OW18691   6.186   5.310   1.410
 5931SOL    HW118692   6.091   5.285   1.388
 5931SOL    HW218693   6.227   5.356   1.331
 5932SOL     OW18694   2.651   6.547   0.586
 5932SOL    HW118695   2.751   6.545   0.592
 5932SOL    HW218696   2.622   6.635   0.548
 5933SOL     OW18697   6.120   3.664   2.941
 5933SOL    HW118698   6.087   3.708   2.858
 5933SOL    HW218699   6.209   3.622   2.924
 5934SOL     OW18700   3.151   3.623   2.950
 5934SOL    HW118701   3.235   3.655   2.908
 5934SOL    HW218702   3.095   3.701   2.978
 5935SOL     OW18703   3.779   3.403   3.618
 5935SOL    HW118704   3.715   3.469   3.658
 5935SOL    HW218705   3.741   3.368   3.532
 5936SOL     OW18706   5.137   5.780   6.343
 5936SOL    HW118707   5.074   5.825   6.405
 5936SOL    HW218708   5.131   5.681   6.355
 5937SOL     OW18709   1.938   3.705   1.097
 5937SOL    HW118710   1.870   3.758   1.147
 5937SOL    HW218711   1.894   3.628   1.052
 5938SOL     OW18712   1.964   4.701   2.004
 5938SOL    HW118713   1.892   4.766   2.029
 5938SOL    HW218714   2.034   4.700   2.076
 5939SOL     OW18715   3.401   0.499   3.544
 5939SOL    HW118716   3.354   0.554   3.614
 5939SOL    HW218717   3.367   0.406   3.547
 5940SOL     OW18718   3.724   5.809   3.277
 5940SOL    HW118719   3.737   5.737   3.345
 5940SOL    HW218720   3.638   5.857   3.294
 5941SOL     OW18721   6.454   4.684   2.180
 5941SOL    HW118722   6.526   4.634   2.134
 5941SOL    HW218723   6.430   4.637   2.265
 5942SOL     OW18724   4.895   2.199   5.467
 5942SOL    HW118725   4.874   2.101   5.478
 5942SOL    HW218726   4.930   2.216   5.375
 5943SOL     OW18727   1.418   6.201   0.412
 5943SOL    HW118728   1.358   6.251   0.474
 5943SOL    HW218729   1.366   6.174   0.330
 5944SOL     OW18730   4.696   1.564   2.535
 5944SOL    HW118731   4.655   1.500   2.470
 5944SOL    HW218732   4.761   1.623   2.487
 5945SOL     OW18733   6.870   4.536   5.368
 5945SOL    HW118734   6.922   4.620   5.383
 5945SOL    HW218735   6.922   4.475   5.307
 5946SOL     OW18736   4.033   3.081   5.565
 5946SOL    HW118737   4.127   3.095   5.597
 5946SOL    HW218738   4.033   3.014   5.490
 5947SOL     OW18739   4.249   3.363   1.642
 5947SOL    HW118740   4.254   3.458   1.675
 5947SOL    HW218741   4.154   3.333   1.640
 5948SOL     OW18742   3.628   4.916   2.248
 5948SOL    HW118743   3.606   4.838   2.189
 5948SOL    HW218744   3.545   4.968   2.268
 5949SOL     OW18745   4.388   4.837   1.862
 5949SOL    HW118746   4.366   4.759   1.921
 5949SOL    HW218747   4.477   4.874   1.888
 5950SOL     OW18748   5.842   2.544   3.642
 5950SOL    HW118749   5.763   2.540   3.703
 5950SOL    HW218750   5.887   2.633   3.651
 5951SOL     OW18751   1.770   5.618   3.872
 5951SOL    HW118752   1.725   5.695   3.828
 5951SOL    HW218753   1.795   5.550   3.803
 5952SOL     OW18754   0.335   6.586   4.858
 5952SOL    HW118755   0.240   6.598   4.889
 5952SOL    HW218756   0.341   6.508   4.796
 5953SOL     OW18757   0.465   3.273   6.409
 5953SOL    HW118758   0.518   3.296   6.327
 5953SOL    HW218759   0.433   3.178   6.402
 5954SOL     OW18760   0.226   5.398   6.860
 5954SOL    HW118761   0.208   5.366   6.953
 5954SOL    HW218762   0.236   5.320   6.799
 5955SOL     OW18763   5.428   5.577   2.321
 5955SOL    HW118764   5.329   5.566   2.323
 5955SOL    HW218765   5.464   5.582   2.414
 5956SOL     OW18766   5.735   2.056   6.983
 5956SOL    HW118767   5.646   2.015   6.963
 5956SOL    HW218768   5.731   2.154   6.967
 5957SOL     OW18769   5.718   0.007   5.917
 5957SOL    HW118770   5.627   0.042   5.940
 5957SOL    HW218771   5.780   0.084   5.900
 5958SOL     OW18772   0.145   5.210   1.844
 5958SOL    HW118773   0.186   5.206   1.935
 5958SOL    HW218774   0.195   5.150   1.782
 5959SOL     OW18775   2.165   1.623   6.449
 5959SOL    HW118776   2.243   1.617   6.512
 5959SOL    HW218777   2.197   1.602   6.356
 5960SOL     OW18778   3.014   0.734   3.610
 5960SOL    HW118779   3.008   0.637   3.587
 5960SOL    HW218780   2.935   0.782   3.573
 5961SOL     OW18781   2.927   0.702   5.777
 5961SOL    HW118782   2.907   0.655   5.863
 5961SOL    HW218783   2.940   0.800   5.795
 5962SOL     OW18784   4.889   5.459   2.301
 5962SOL    HW118785   4.835   5.534   2.263
 5962SOL    HW218786   4.836   5.374   2.297
 5963SOL     OW18787   4.074   3.667   2.083
 5963SOL    HW118788   4.003   3.674   2.154
 5963SOL    HW218789   4.160   3.703   2.119
 5964SOL     OW18790   0.569   4.889   5.447
 5964SOL    HW118791   0.524   4.875   5.535
 5964SOL    HW218792   0.523   4.835   5.377
 5965SOL     OW18793   2.933   2.198   5.685
 5965SOL    HW118794   2.852   2.189   5.627
 5965SOL    HW218795   3.001   2.255   5.638
 5966SOL     OW18796   2.386   6.154   3.730
 5966SOL    HW118797   2.459   6.205   3.685
 5966SOL    HW218798   2.423   6.071   3.772
 5967SOL     OW18799   4.662   6.782   2.162
 5967SOL    HW118800   4.595   6.732   2.108
 5967SOL    HW218801   4.652   6.758   2.259
 5968SOL     OW18802   0.362   2.886   4.663
 5968SOL    HW118803   0.429   2.812   4.653
 5968SOL    HW218804   0.283   2.868   4.604
 5969SOL     OW18805   5.765   3.669   3.482
 5969SOL    HW118806   5.704   3.715   3.547
 5969SOL    HW218807   5.754   3.570   3.490
 5970SOL     OW18808   1.691   2.900   3.318
 5970SOL    HW118809   1.676   2.851   3.233
 5970SOL    HW218810   1.754   2.848   3.376
 5971SOL     OW18811   2.497   6.683   2.359
 5971SOL    HW118812   2.421   6.740   2.328
 5971SOL    HW218813   2.480   6.653   2.453
 5972SOL     OW18814   4.598   5.976   0.409
 5972SOL    HW118815   4.554   5.934   0.329
 5972SOL    HW218816   4.538   6.045   0.448
 5973SOL     OW18817   0.888   4.295   3.666
 5973SOL    HW118818   0.919   4.380   3.623
 5973SOL    HW218819   0.919   4.292   3.761
 5974SOL     OW18820   0.627   4.216   6.738
 5974SOL    HW118821   0.711   4.176   6.775
 5974SOL    HW218822   0.592   4.158   6.665
 5975SOL     OW18823   2.721   2.962   0.745
 5975SOL    HW118824   2.786   2.889   0.722
 5975SOL    HW218825   2.737   3.041   0.686
 5976SOL     OW18826   3.126   3.023   5.196
 5976SOL    HW118827   3.100   2.939   5.244
 5976SOL    HW218828   3.176   3.083   5.259
 5977SOL     OW18829   0.870   3.612   2.687
 5977SOL    HW118830   0.940   3.639   2.753
 5977SOL    HW218831   0.912   3.597   2.598
 5978SOL     OW18832   5.101   5.553   1.873
 5978SOL    HW118833   5.176   5.606   1.913
 5978SOL    HW218834   5.137   5.493   1.802
 5979SOL     OW18835   0.159   0.463   3.672
 5979SOL    HW118836   0.242   0.407   3.681
 5979SOL    HW218837   0.105   0.430   3.595
 5980SOL     OW18838   6.085   4.079   6.823
 5980SOL    HW118839   6.057   4.044   6.912
 5980SOL    HW218840   6.163   4.141   6.834
 5981SOL     OW18841   4.494   0.733   2.353
 5981SOL    HW118842   4.439   0.775   2.425
 5981SOL    HW218843   4.442   0.733   2.267
 5982SOL     OW18844   6.880   2.050   6.161
 5982SOL    HW118845   6.792   2.004   6.157
 5982SOL    HW218846   6.867   2.148   6.145
 5983SOL     OW18847   1.419   1.181   4.720
 5983SOL    HW118848   1.419   1.263   4.663
 5983SOL    HW218849   1.334   1.130   4.704
 5984SOL     OW18850   0.262   6.739   5.317
 5984SOL    HW118851   0.243   6.792   5.400
 5984SOL    HW218852   0.178   6.696   5.285
 5985SOL     OW18853   4.314   2.020   4.194
 5985SOL    HW118854   4.324   1.964   4.276
 5985SOL    HW218855   4.398   2.017   4.141
 5986SOL     OW18856   3.652   2.982   2.183
 5986SOL    HW118857   3.639   2.921   2.106
 5986SOL    HW218858   3.574   2.974   2.245
 5987SOL     OW18859   3.820   0.231   5.181
 5987SOL    HW118860   3.787   0.326   5.174
 5987SOL    HW218861   3.920   0.231   5.185
 5988SOL     OW18862   3.763   0.056   4.127
 5988SOL    HW118863   3.859   0.082   4.141
 5988SOL    HW218864   3.759   6.992   4.086
 5989SOL     OW18865   2.922   0.820   6.177
 5989SOL    HW118866   2.936   0.862   6.267
 5989SOL    HW218867   3.007   0.825   6.125
 5990SOL     OW18868   3.234   4.748   1.627
 5990SOL    HW118869   3.169   4.737   1.702
 5990SOL    HW218870   3.321   4.706   1.653
 5991SOL     OW18871   2.871   4.996   4.564
 5991SOL    HW118872   2.936   4.931   4.602
 5991SOL    HW218873   2.829   5.049   4.637
 5992SOL     OW18874   4.802   0.541   3.661
 5992SOL    HW118875   4.800   0.455   3.609
 5992SOL    HW218876   4.828   0.522   3.756
 5993SOL     OW18877   2.769   5.663   5.386
 5993SOL    HW118878   2.826   5.744   5.378
 5993SOL    HW218879   2.761   5.637   5.483
 5994SOL     OW18880   7.015   2.149   2.047
 5994SOL    HW118881   0.060   2.206   2.086
 5994SOL    HW218882   0.019   2.114   1.959
 5995SOL     OW18883   6.905   4.697   1.588
 5995SOL    HW118884   6.965   4.743   1.654
 5995SOL    HW218885   6.907   4.599   1.604
 5996SOL     OW18886   0.453   5.124   5.831
 5996SOL    HW118887   0.501   5.118   5.744
 5996SOL    HW218888   0.380   5.192   5.825
 5997SOL     OW18889   0.279   6.638   2.470
 5997SOL    HW118890   0.217   6.699   2.518
 5997SOL    HW218891   0.310   6.681   2.385
 5998SOL     OW18892   5.467   1.980   2.522
 5998SOL    HW118893   5.472   2.009   2.617
 5998SOL    HW218894   5.376   1.943   2.503
 5999SOL     OW18895   1.572   1.230   2.772
 5999SOL    HW118896   1.595   1.136   2.747
 5999SOL    HW218897   1.639   1.265   2.837
 6000SOL     OW18898   4.736   5.554   2.005
 6000SOL    HW118899   4.746   5.455   2.003
 6000SOL    HW218900   4.820   5.597   1.971
 6001SOL     OW18901   6.393   2.427   0.062
 6001SOL    HW118902   6.458   2.409   0.136
 6001SOL    HW218903   6.311   2.471   0.100
 6002SOL     OW18904   1.749   0.052   1.713
 6002SOL    HW118905   1.794   0.132   1.752
 6002SOL    HW218906   1.696   0.006   1.784
 6003SOL     OW18907   4.718   4.216   4.173
 6003SOL    HW118908   4.693   4.303   4.217
 6003SOL    HW218909   4.754   4.153   4.242
 6004SOL     OW18910   0.046   3.802   2.497
 6004SOL    HW118911   6.992   3.795   2.556
 6004SOL    HW218912   0.122   3.844   2.547
 6005SOL     OW18913   3.197   6.041   2.816
 6005SOL    HW118914   3.165   6.134   2.833
 6005SOL    HW218915   3.248   6.039   2.729
 6006SOL     OW18916   2.460   6.239   6.962
 6006SOL    HW118917   2.400   6.240   6.882
 6006SOL    HW218918   2.506   6.151   6.968
 6007SOL     OW18919   5.599   2.579   3.777
 6007SOL    HW118920   5.543   2.613   3.853
 6007SOL    HW218921   5.553   2.598   3.690
 6008SOL     OW18922   3.200   4.899   6.702
 6008SOL    HW118923   3.269   4.855   6.758
 6008SOL    HW218924   3.166   4.835   6.633
 6009SOL     OW18925   2.999   1.847   4.215
 6009SOL    HW118926   3.060   1.803   4.280
 6009SOL    HW218927   2.919   1.789   4.200
 6010SOL     OW18928   1.202   3.683   3.389
 6010SOL    HW118929   1.244   3.691   3.480
 6010SOL    HW218930   1.256   3.735   3.323
 6011SOL     OW18931   6.032   3.214   3.308
 6011SOL    HW118932   6.027   3.201   3.407
 6011SOL    HW218933   6.059   3.308   3.288
 6012SOL     OW18934   6.887   3.412   0.456
 6012SOL    HW118935   6.973   3.413   0.405
 6012SOL    HW218936   6.815   3.453   0.401
 6013SOL     OW18937   5.533   1.477   2.512
 6013SOL    HW118938   5.597   1.403   2.490
 6013SOL    HW218939   5.449   1.437   2.552
 6014SOL     OW18940   5.881   0.310   1.010
 6014SOL    HW118941   5.951   0.379   0.990
 6014SOL    HW218942   5.925   0.223   1.032
 6015SOL     OW18943   6.174   2.014   4.719
 6015SOL    HW118944   6.152   2.078   4.793
 6015SOL    HW218945   6.223   1.935   4.756
 6016SOL     OW18946   2.174   6.947   4.806
 6016SOL    HW118947   2.198   6.943   4.903
 6016SOL    HW218948   2.242   7.001   4.757
 6017SOL     OW18949   6.674   4.962   2.386
 6017SOL    HW118950   6.749   5.002   2.333
 6017SOL    HW218951   6.709   4.883   2.437
 6018SOL     OW18952   2.121   4.557   0.759
 6018SOL    HW118953   2.080   4.612   0.686
 6018SOL    HW218954   2.052   4.533   0.826
 6019SOL     OW18955   3.863   6.676   4.047
 6019SOL    HW118956   3.905   6.740   4.111
 6019SOL    HW218957   3.788   6.721   3.999
 6020SOL     OW18958   3.908   0.303   3.045
 6020SOL    HW118959   3.880   0.384   3.097
 6020SOL    HW218960   3.834   0.275   2.984
 6021SOL     OW18961   4.434   1.141   2.822
 6021SOL    HW118962   4.375   1.062   2.843
 6021SOL    HW218963   4.413   1.175   2.731
 6022SOL     OW18964   4.511   1.761   4.516
 6022SOL    HW118965   4.582   1.731   4.452
 6022SOL    HW218966   4.524   1.713   4.603
 6023SOL     OW18967   6.930   1.092   2.331
 6023SOL    HW118968   6.915   1.122   2.425
 6023SOL    HW218969   6.917   1.169   2.269
 6024SOL     OW18970   0.662   4.515   2.696
 6024SOL    HW118971   0.693   4.465   2.615
 6024SOL    HW218972   0.612   4.597   2.669
 6025SOL     OW18973   4.593   1.778   1.642
 6025SOL    HW118974   4.515   1.786   1.579
 6025SOL    HW218975   4.667   1.728   1.597
 6026SOL     OW18976   0.352   4.747   5.271
 6026SOL    HW118977   0.311   4.677   5.330
 6026SOL    HW218978   0.317   4.837   5.296
 6027SOL     OW18979   2.851   3.809   0.109
 6027SOL    HW118980   2.891   3.896   0.137
 6027SOL    HW218981   2.924   3.747   0.079
 6028SOL     OW18982   1.502   3.826   0.054
 6028SOL    HW118983   1.463   3.889   7.013
 6028SOL    HW218984   1.492   3.865   0.146
 6029SOL     OW18985   1.995   5.586   1.364
 6029SOL    HW118986   2.041   5.630   1.441
 6029SOL    HW218987   1.922   5.526   1.398
 6030SOL     OW18988   2.126   0.351   1.306
 6030SOL    HW118989   2.187   0.428   1.289
 6030SOL    HW218990   2.046   0.382   1.356
 6031SOL     OW18991   5.074   0.322   4.879
 6031SOL    HW118992   5.123   0.324   4.967
 6031SOL    HW218993   5.041   0.229   4.862
 6032SOL     OW18994   0.508   3.262   2.630
 6032SOL    HW118995   0.560   3.341   2.661
 6032SOL    HW218996   0.467   3.282   2.541
 6033SOL     OW18997   1.143   0.729   4.198
 6033SOL    HW118998   1.065   0.671   4.175
 6033SOL    HW218999   1.165   0.717   4.295
 6034SOL     OW19000   1.701   4.017   5.237
 6034SOL    HW119001   1.735   4.108   5.215
 6034SOL    HW219002   1.762   3.948   5.197
 6035SOL     OW19003   6.083   1.133   4.344
 6035SOL    HW119004   6.133   1.071   4.403
 6035SOL    HW219005   6.110   1.117   4.249
 6036SOL     OW19006   6.994   0.057   5.040
 6036SOL    HW119007   0.039   7.021   5.011
 6036SOL    HW219008   7.022   0.103   5.124
 6037SOL     OW19009   6.225   5.525   5.077
 6037SOL    HW119010   6.291   5.588   5.118
 6037SOL    HW219011   6.194   5.459   5.146
 6038SOL     OW19012   4.957   3.737   6.514
 6038SOL    HW119013   4.951   3.776   6.422
 6038SOL    HW219014   4.981   3.640   6.508
 6039SOL     OW19015   3.337   4.148   2.963
 6039SOL    HW119016   3.394   4.146   2.881
 6039SOL    HW219017   3.241   4.159   2.936
 6040SOL     OW19018   0.217   1.589   0.258
 6040SOL    HW119019   0.277   1.510   0.246
 6040SOL    HW219020   0.184   1.619   0.169
 6041SOL     OW19021   0.926   2.685   0.564
 6041SOL    HW119022   0.828   2.665   0.576
 6041SOL    HW219023   0.979   2.601   0.580
 6042SOL     OW19024   4.835   5.554   3.761
 6042SOL    HW119025   4.902   5.619   3.798
 6042SOL    HW219026   4.768   5.532   3.832
 6043SOL     OW19027   1.054   4.494   3.870
 6043SOL    HW119028   0.981   4.477   3.936
 6043SOL    HW219029   1.104   4.410   3.852
 6044SOL     OW19030   0.832   0.177   1.715
 6044SOL    HW119031   0.868   0.193   1.807
 6044SOL    HW219032   0.801   0.263   1.676
 6045SOL     OW19033   0.073   4.127   2.040
 6045SOL    HW119034   7.012   4.170   2.020
 6045SOL    HW219035   0.144   4.167   1.982
 6046SOL     OW19036   2.784   2.781   0.428
 6046SOL    HW119037   2.843   2.857   0.400
 6046SOL    HW219038   2.817   2.743   0.514
 6047SOL     OW19039   6.843   0.192   4.387
 6047SOL    HW119040   6.882   0.134   4.458
 6047SOL    HW219041   6.827   0.138   4.305
 6048SOL     OW19042   4.227   6.535   5.369
 6048SOL    HW119043   4.194   6.443   5.393
 6048SOL    HW219044   4.214   6.597   5.446
 6049SOL     OW19045   6.287   4.936   0.870
 6049SOL    HW119046   6.379   4.897   0.860
 6049SOL    HW219047   6.294   5.030   0.902
 6050SOL     OW19048   5.248   4.509   5.140
 6050SOL    HW119049   5.281   4.573   5.209
 6050SOL    HW219050   5.289   4.419   5.156
 6051SOL     OW19051   2.141   1.591   2.712
 6051SOL    HW119052   2.174   1.665   2.771
 6051SOL    HW219053   2.207   1.517   2.712
 6052SOL     OW19054   6.908   0.891   0.515
 6052SOL    HW119055   6.958   0.875   0.430
 6052SOL    HW219056   6.909   0.989   0.536
 6053SOL     OW19057   1.945   0.118   6.487
 6053SOL    HW119058   1.909   0.095   6.578
 6053SOL    HW219059   1.943   0.217   6.475
 6054SOL     OW19060   2.038   4.638   0.357
 6054SOL    HW119061   2.120   4.584   0.378
 6054SOL    HW219062   1.980   4.645   0.438
 6055SOL     OW19063   4.707   0.196   4.873
 6055SOL    HW119064   4.663   0.165   4.958
 6055SOL    HW219065   4.638   0.231   4.810
 6056SOL     OW19066   4.696   2.040   6.453
 6056SOL    HW119067   4.730   1.950   6.479
 6056SOL    HW219068   4.702   2.050   6.354
 6057SOL     OW19069   3.667   1.180   5.552
 6057SOL    HW119070   3.593   1.151   5.491
 6057SOL    HW219071   3.655   1.276   5.576
 6058SOL     OW19072   5.981   2.451   4.468
 6058SOL    HW119073   5.895   2.400   4.474
 6058SOL    HW219074   6.045   2.417   4.536
 6059SOL     OW19075   6.643   4.987   6.460
 6059SOL    HW119076   6.552   5.011   6.494
 6059SOL    HW219077   6.697   5.070   6.449
 6060SOL     OW19078   4.263   5.949   5.803
 6060SOL    HW119079   4.360   5.970   5.787
 6060SOL    HW219080   4.222   5.918   5.717
 6061SOL     OW19081   2.455   1.716   6.309
 6061SOL    HW119082   2.442   1.804   6.262
 6061SOL    HW219083   2.400   1.646   6.264
 6062SOL     OW19084   2.445   0.251   4.295
 6062SOL    HW119085   2.543   0.249   4.314
 6062SOL    HW219086   2.410   0.344   4.309
 6063SOL     OW19087   4.604   0.477   6.328
 6063SOL    HW119088   4.549   0.436   6.401
 6063SOL    HW219089   4.632   0.570   6.355
 6064SOL     OW19090   1.404   5.175   3.587
 6064SOL    HW119091   1.396   5.187   3.488
 6064SOL    HW219092   1.494   5.207   3.617
 6065SOL     OW19093   0.413   0.534   0.961
 6065SOL    HW119094   0.314   0.522   0.957
 6065SOL    HW219095   0.444   0.588   0.883
 6066SOL     OW19096   4.226   2.922   0.151
 6066SOL    HW119097   4.310   2.871   0.129
 6066SOL    HW219098   4.151   2.887   0.095
 6067SOL     OW19099   6.936   1.967   6.829
 6067SOL    HW119100   6.939   2.024   6.911
 6067SOL    HW219101   6.842   1.960   6.797
 6068SOL     OW19102   4.672   2.757   4.931
 6068SOL    HW119103   4.574   2.741   4.944
 6068SOL    HW219104   4.707   2.812   5.007
 6069SOL     OW19105   6.263   4.493   4.594
 6069SOL    HW119106   6.225   4.413   4.548
 6069SOL    HW219107   6.240   4.575   4.542
 6070SOL     OW19108   4.714   2.330   6.200
 6070SOL    HW119109   4.657   2.341   6.282
 6070SOL    HW219110   4.708   2.236   6.167
 6071SOL     OW19111   4.067   5.943   5.154
 6071SOL    HW119112   4.101   5.873   5.091
 6071SOL    HW219113   3.979   5.978   5.121
 6072SOL     OW19114   0.320   2.000   1.092
 6072SOL    HW119115   0.356   1.920   1.141
 6072SOL    HW219116   0.316   1.979   0.994
 6073SOL     OW19117   6.903   2.796   1.127
 6073SOL    HW119118   6.812   2.833   1.147
 6073SOL    HW219119   6.900   2.696   1.137
 6074SOL     OW19120   0.745   0.516   4.941
 6074SOL    HW119121   0.790   0.440   4.988
 6074SOL    HW219122   0.800   0.544   4.862
 6075SOL     OW19123   5.779   4.189   6.758
 6075SOL    HW119124   5.832   4.116   6.713
 6075SOL    HW219125   5.795   4.185   6.857
 6076SOL     OW19126   2.062   6.226   4.245
 6076SOL    HW119127   2.111   6.238   4.331
 6076SOL    HW219128   2.116   6.262   4.169
 6077SOL     OW19129   5.991   6.249   2.383
 6077SOL    HW119130   6.013   6.243   2.286
 6077SOL    HW219131   5.984   6.156   2.421
 6078SOL     OW19132   2.591   4.594   3.592
 6078SOL    HW119133   2.686   4.626   3.587
 6078SOL    HW219134   2.567   4.546   3.507
 6079SOL     OW19135   2.100   1.631   7.016
 6079SOL    HW119136   2.163   1.692   6.967
 6079SOL    HW219137   2.075   1.555   6.957
 6080SOL     OW19138   5.642   2.421   2.092
 6080SOL    HW119139   5.570   2.444   2.026
 6080SOL    HW219140   5.642   2.322   2.109
 6081SOL     OW19141   0.417   3.466   3.624
 6081SOL    HW119142   0.456   3.480   3.715
 6081SOL    HW219143   0.317   3.463   3.631
 6082SOL     OW19144   4.098   1.343   4.052
 6082SOL    HW119145   4.001   1.340   4.074
 6082SOL    HW219146   4.118   1.427   4.000
 6083SOL     OW19147   1.561   6.343   0.194
 6083SOL    HW119148   1.600   6.298   0.274
 6083SOL    HW219149   1.612   6.316   0.112
 6084SOL     OW19150   0.416   4.824   5.667
 6084SOL    HW119151   0.364   4.904   5.698
 6084SOL    HW219152   0.436   4.766   5.746
 6085SOL     OW19153   5.443   4.245   0.812
 6085SOL    HW119154   5.503   4.323   0.834
 6085SOL    HW219155   5.440   4.233   0.713
 6086SOL     OW19156   2.984   1.895   3.703
 6086SOL    HW119157   2.979   1.841   3.787
 6086SOL    HW219158   2.910   1.868   3.642
 6087SOL     OW19159   5.059   6.899   6.899
 6087SOL    HW119160   4.988   6.837   6.866
 6087SOL    HW219161   5.036   6.993   6.875
 6088SOL     OW19162   1.195   0.259   4.801
 6088SOL    HW119163   1.246   0.326   4.748
 6088SOL    HW219164   1.193   0.172   4.751
 6089SOL     OW19165   6.966   3.650   0.182
 6089SOL    HW119166   6.875   3.652   0.223
 6089SOL    HW219167   0.002   3.600   0.241
 6090SOL     OW19168   0.778   5.589   4.540
 6090SOL    HW119169   0.781   5.644   4.623
 6090SOL    HW219170   0.721   5.508   4.556
 6091SOL     OW19171   5.750   1.738   1.981
 6091SOL    HW119172   5.742   1.789   2.067
 6091SOL    HW219173   5.829   1.771   1.929
 6092SOL     OW19174   2.083   2.021   1.767
 6092SOL    HW119175   2.091   1.951   1.838
 6092SOL    HW219176   2.010   1.995   1.703
 6093SOL     OW19177   0.902   2.868   1.115
 6093SOL    HW119178   0.894   2.963   1.146
 6093SOL    HW219179   0.934   2.811   1.190
 6094SOL     OW19180   1.340   0.725   1.589
 6094SOL    HW119181   1.262   0.665   1.607
 6094SOL    HW219182   1.344   0.747   1.491
 6095SOL     OW19183   6.482   3.783   5.951
 6095SOL    HW119184   6.426   3.741   6.023
 6095SOL    HW219185   6.481   3.723   5.870
 6096SOL     OW19186   3.288   2.097   3.383
 6096SOL    HW119187   3.289   2.003   3.349
 6096SOL    HW219188   3.381   2.127   3.403
 6097SOL     OW19189   2.852   2.191   2.270
 6097SOL    HW119190   2.911   2.113   2.245
 6097SOL    HW219191   2.841   2.251   2.191
 6098SOL     OW19192   2.080   2.120   5.791
 6098SOL    HW119193   2.135   2.107   5.873
 6098SOL    HW219194   2.116   2.063   5.717
 6099SOL     OW19195   5.908   5.594   5.160
 6099SOL    HW119196   5.888   5.692   5.155
 6099SOL    HW219197   5.999   5.577   5.124
 6100SOL     OW19198   6.604   3.129   0.376
 6100SOL    HW119199   6.534   3.101   0.311
 6100SOL    HW219200   6.657   3.049   0.405
 6101SOL     OW19201   6.231   1.385   4.994
 6101SOL    HW119202   6.144   1.347   4.965
 6101SOL    HW219203   6.306   1.338   4.948
 6102SOL     OW19204   2.787   0.450   5.419
 6102SOL    HW119205   2.837   0.386   5.360
 6102SOL    HW219206   2.837   0.462   5.505
 6103SOL     OW19207   6.235   6.686   5.853
 6103SOL    HW119208   6.240   6.778   5.816
 6103SOL    HW219209   6.184   6.627   5.790
 6104SOL     OW19210   0.284   2.593   6.846
 6104SOL    HW119211   0.350   2.586   6.772
 6104SOL    HW219212   0.251   2.502   6.871
 6105SOL     OW19213   3.371   6.090   4.230
 6105SOL    HW119214   3.410   6.085   4.138
 6105SOL    HW219215   3.278   6.052   4.228
 6106SOL     OW19216   3.124   5.491   5.401
 6106SOL    HW119217   3.048   5.444   5.357
 6106SOL    HW219218   3.180   5.424   5.450
 6107SOL     OW19219   2.171   4.548   5.342
 6107SOL    HW119220   2.226   4.632   5.345
 6107SOL    HW219221   2.219   4.474   5.389
 6108SOL     OW19222   0.519   2.615   5.090
 6108SOL    HW119223   0.575   2.629   5.008
 6108SOL    HW219224   0.501   2.704   5.133
 6109SOL     OW19225   6.431   4.452   1.374
 6109SOL    HW119226   6.411   4.459   1.277
 6109SOL    HW219227   6.378   4.520   1.425
 6110SOL     OW19228   3.310   1.358   4.752
 6110SOL    HW119229   3.309   1.423   4.676
 6110SOL    HW219230   3.405   1.344   4.782
 6111SOL     OW19231   1.522   4.531   3.016
 6111SOL    HW119232   1.573   4.446   3.002
 6111SOL    HW219233   1.442   4.533   2.956
 6112SOL     OW19234   0.412   1.668   2.400
 6112SOL    HW119235   0.325   1.619   2.400
 6112SOL    HW219236   0.476   1.620   2.340
 6113SOL     OW19237   1.323   6.445   5.819
 6113SOL    HW119238   1.368   6.534   5.808
 6113SOL    HW219239   1.271   6.423   5.736
 6114SOL     OW19240   5.091   5.749   0.413
 6114SOL    HW119241   5.179   5.759   0.461
 6114SOL    HW219242   5.018   5.739   0.480
 6115SOL     OW19243   5.676   5.387   2.424
 6115SOL    HW119244   5.628   5.470   2.450
 6115SOL    HW219245   5.612   5.325   2.378
 6116SOL     OW19246   4.410   1.348   1.801
 6116SOL    HW119247   4.466   1.266   1.800
 6116SOL    HW219248   4.319   1.326   1.838
 6117SOL     OW19249   5.003   0.548   4.720
 6117SOL    HW119250   4.936   0.520   4.651
 6117SOL    HW219251   5.034   0.467   4.770
 6118SOL     OW19252   6.043   0.524   3.040
 6118SOL    HW119253   5.973   0.463   3.076
 6118SOL    HW219254   6.003   0.614   3.021
 6119SOL     OW19255   0.050   5.315   4.355
 6119SOL    HW119256   0.133   5.326   4.410
 6119SOL    HW219257   6.996   5.322   4.414
 6120SOL     OW19258   2.512   0.744   3.075
 6120SOL    HW119259   2.451   0.690   3.018
 6120SOL    HW219260   2.460   0.784   3.151
 6121SOL     OW19261   6.773   2.351   4.422
 6121SOL    HW119262   6.829   2.382   4.500
 6121SOL    HW219263   6.807   2.263   4.390
 6122SOL     OW19264   4.529   5.680   3.309
 6122SOL    HW119265   4.499   5.615   3.240
 6122SOL    HW219266   4.596   5.637   3.369
 6123SOL     OW19267   5.719   1.264   2.487
 6123SOL    HW119268   5.734   1.167   2.507
 6123SOL    HW219269   5.765   1.288   2.402
 6124SOL     OW19270   3.686   0.716   5.578
 6124SOL    HW119271   3.663   0.624   5.548
 6124SOL    HW219272   3.765   0.713   5.639
 6125SOL     OW19273   2.151   5.718   1.578
 6125SOL    HW119274   2.067   5.758   1.615
 6125SOL    HW219275   2.230   5.758   1.624
 6126SOL     OW19276   5.422   5.543   2.795
 6126SOL    HW119277   5.389   5.482   2.867
 6126SOL    HW219278   5.402   5.638   2.821
 6127SOL     OW19279   1.892   5.398   1.962
 6127SOL    HW119280   1.916   5.456   2.040
 6127SOL    HW219281   1.936   5.309   1.972
 6128SOL     OW19282   5.336   1.606   0.762
 6128SOL    HW119283   5.417   1.661   0.741
 6128SOL    HW219284   5.334   1.587   0.860
 6129SOL     OW19285   6.107   4.803   3.610
 6129SOL    HW119286   6.162   4.881   3.637
 6129SOL    HW219287   6.164   4.721   3.607
 6130SOL     OW19288   5.262   3.498   2.270
 6130SOL    HW119289   5.301   3.583   2.234
 6130SOL    HW219290   5.224   3.445   2.195
 6131SOL     OW19291   6.557   1.056   5.199
 6131SOL    HW119292   6.611   1.125   5.247
 6131SOL    HW219293   6.590   1.046   5.105
 6132SOL     OW19294   5.480   2.776   0.916
 6132SOL    HW119295   5.576   2.749   0.923
 6132SOL    HW219296   5.441   2.740   0.831
 6133SOL     OW19297   0.945   4.433   0.614
 6133SOL    HW119298   0.921   4.339   0.636
 6133SOL    HW219299   1.043   4.447   0.629
 6134SOL     OW19300   4.714   3.799   6.230
 6134SOL    HW119301   4.763   3.722   6.187
 6134SOL    HW219302   4.671   3.767   6.315
 6135SOL     OW19303   5.560   0.151   1.175
 6135SOL    HW119304   5.622   0.229   1.173
 6135SOL    HW219305   5.613   0.066   1.171
 6136SOL     OW19306   0.433   1.775   1.495
 6136SOL    HW119307   0.437   1.856   1.553
 6136SOL    HW219308   0.525   1.755   1.460
 6137SOL     OW19309   2.807   6.928   6.175
 6137SOL    HW119310   2.748   6.918   6.255
 6137SOL    HW219311   2.768   6.996   6.113
 6138SOL     OW19312   4.340   0.032   2.904
 6138SOL    HW119313   4.325   0.128   2.877
 6138SOL    HW219314   4.311   6.999   2.829
 6139SOL     OW19315   2.044   4.636   3.996
 6139SOL    HW119316   2.095   4.615   4.080
 6139SOL    HW219317   1.946   4.635   4.016
 6140SOL     OW19318   2.216   6.621   1.373
 6140SOL    HW119319   2.170   6.628   1.285
 6140SOL    HW219320   2.293   6.685   1.376
 6141SOL     OW19321   6.338   6.263   6.163
 6141SOL    HW119322   6.364   6.349   6.209
 6141SOL    HW219323   6.304   6.283   6.071
 6142SOL     OW19324   0.234   4.288   1.873
 6142SOL    HW119325   0.208   4.379   1.907
 6142SOL    HW219326   0.215   4.282   1.775
 6143SOL     OW19327   6.301   5.269   6.359
 6143SOL    HW119328   6.253   5.299   6.442
 6143SOL    HW219329   6.250   5.195   6.317
 6144SOL     OW19330   0.784   4.390   4.127
 6144SOL    HW119331   0.852   4.435   4.185
 6144SOL    HW219332   0.701   4.373   4.181
 6145SOL     OW19333   5.415   6.190   3.755
 6145SOL    HW119334   5.347   6.146   3.813
 6145SOL    HW219335   5.438   6.130   3.678
 6146SOL     OW19336   5.672   1.204   3.132
 6146SOL    HW119337   5.732   1.149   3.073
 6146SOL    HW219338   5.604   1.145   3.174
 6147SOL     OW19339   1.896   3.500   3.411
 6147SOL    HW119340   1.985   3.479   3.452
 6147SOL    HW219341   1.827   3.439   3.449
 6148SOL     OW19342   6.455   6.600   4.815
 6148SOL    HW119343   6.441   6.511   4.857
 6148SOL    HW219344   6.493   6.589   4.723
 6149SOL     OW19345   2.351   6.554   3.662
 6149SOL    HW119346   2.360   6.535   3.565
 6149SOL    HW219347   2.320   6.472   3.710
 6150SOL     OW19348   4.603   5.283   5.834
 6150SOL    HW119349   4.512   5.268   5.796
 6150SOL    HW219350   4.595   5.304   5.931
 6151SOL     OW19351   5.277   2.780   5.575
 6151SOL    HW119352   5.197   2.743   5.528
 6151SOL    HW219353   5.262   2.774   5.674
 6152SOL     OW19354   6.852   4.726   6.829
 6152SOL    HW119355   6.827   4.629   6.827
 6152SOL    HW219356   6.832   4.767   6.739
 6153SOL     OW19357   4.392   3.486   0.952
 6153SOL    HW119358   4.452   3.492   1.032
 6153SOL    HW219359   4.352   3.394   0.948
 6154SOL     OW19360   5.315   3.183   2.642
 6154SOL    HW119361   5.324   3.100   2.587
 6154SOL    HW219362   5.267   3.162   2.726
 6155SOL     OW19363   0.664   3.975   4.922
 6155SOL    HW119364   0.754   3.932   4.922
 6155SOL    HW219365   0.597   3.913   4.962
 6156SOL     OW19366   6.449   0.327   3.353
 6156SOL    HW119367   6.385   0.268   3.304
 6156SOL    HW219368   6.501   0.273   3.419
 6157SOL     OW19369   2.236   1.516   3.762
 6157SOL    HW119370   2.236   1.485   3.667
 6157SOL    HW219371   2.323   1.560   3.783
 6158SOL     OW19372   5.184   0.904   6.735
 6158SOL    HW119373   5.094   0.945   6.717
 6158SOL    HW219374   5.251   0.977   6.751
 6159SOL     OW19375   5.206   3.168   6.648
 6159SOL    HW119376   5.212   3.207   6.556
 6159SOL    HW219377   5.271   3.091   6.655
 6160SOL     OW19378   6.132   6.022   1.855
 6160SOL    HW119379   6.228   6.042   1.875
 6160SOL    HW219380   6.087   5.991   1.939
 6161SOL     OW19381   5.776   0.848   5.867
 6161SOL    HW119382   5.754   0.911   5.793
 6161SOL    HW219383   5.830   0.772   5.831
 6162SOL     OW19384   6.375   5.224   4.176
 6162SOL    HW119385   6.399   5.321   4.176
 6162SOL    HW219386   6.306   5.207   4.106
 6163SOL     OW19387   6.672   4.317   2.359
 6163SOL    HW119388   6.615   4.399   2.365
 6163SOL    HW219389   6.698   4.288   2.451
 6164SOL     OW19390   4.097   2.665   0.486
 6164SOL    HW119391   4.084   2.750   0.538
 6164SOL    HW219392   4.056   2.676   0.395
 6165SOL     OW19393   4.106   6.033   6.826
 6165SOL    HW119394   4.172   6.078   6.767
 6165SOL    HW219395   4.109   6.075   6.917
 6166SOL     OW19396   3.242   1.958   6.142
 6166SOL    HW119397   3.155   1.932   6.101
 6166SOL    HW219398   3.315   1.951   6.074
 6167SOL     OW19399   6.779   4.150   3.720
 6167SOL    HW119400   6.865   4.193   3.746
 6167SOL    HW219401   6.787   4.051   3.731
 6168SOL     OW19402   0.461   2.840   2.875
 6168SOL    HW119403   0.405   2.833   2.957
 6168SOL    HW219404   0.422   2.908   2.813
 6169SOL     OW19405   2.112   3.952   1.942
 6169SOL    HW119406   2.073   3.909   1.860
 6169SOL    HW219407   2.198   3.997   1.918
 6170SOL     OW19408   0.082   3.361   4.789
 6170SOL    HW119409   0.058   3.375   4.693
 6170SOL    HW219410   0.181   3.375   4.800
 6171SOL     OW19411   0.489   0.668   6.322
 6171SOL    HW119412   0.397   0.695   6.293
 6171SOL    HW219413   0.483   0.582   6.372
 6172SOL     OW19414   0.875   3.594   3.557
 6172SOL    HW119415   0.964   3.585   3.602
 6172SOL    HW219416   0.883   3.565   3.462
 6173SOL     OW19417   6.780   6.165   3.669
 6173SOL    HW119418   6.859   6.104   3.675
 6173SOL    HW219419   6.799   6.249   3.719
 6174SOL     OW19420   5.955   4.087   2.145
 6174SOL    HW119421   5.893   4.089   2.223
 6174SOL    HW219422   5.981   3.992   2.126
 6175SOL     OW19423   3.171   2.243   5.939
 6175SOL    HW119424   3.074   2.220   5.932
 6175SOL    HW219425   3.183   2.320   6.002
 6176SOL     OW19426   4.614   3.849   5.945
 6176SOL    HW119427   4.582   3.931   5.993
 6176SOL    HW219428   4.675   3.875   5.870
 6177SOL     OW19429   6.245   1.141   1.407
 6177SOL    HW119430   6.174   1.106   1.468
 6177SOL    HW219431   6.268   1.235   1.433
 6178SOL     OW19432   3.844   4.613   1.423
 6178SOL    HW119433   3.755   4.636   1.384
 6178SOL    HW219434   3.835   4.607   1.523
 6179SOL     OW19435   5.821   4.767   3.557
 6179SOL    HW119436   5.914   4.789   3.584
 6179SOL    HW219437   5.757   4.829   3.603
 6180SOL     OW19438   2.967   4.030   0.174
 6180SOL    HW119439   2.973   4.124   0.141
 6180SOL    HW219440   2.953   4.030   0.274
 6181SOL     OW19441   5.945   5.883   6.489
 6181SOL    HW119442   5.964   5.963   6.546
 6181SOL    HW219443   6.006   5.883   6.411
 6182SOL     OW19444   3.459   2.610   0.678
 6182SOL    HW119445   3.413   2.655   0.600
 6182SOL    HW219446   3.391   2.587   0.747
 6183SOL     OW19447   0.675   0.196   0.738
 6183SOL    HW119448   0.627   0.210   0.824
 6183SOL    HW219449   0.702   0.284   0.700
 6184SOL     OW19450   2.337   0.450   5.511
 6184SOL    HW119451   2.400   0.517   5.551
 6184SOL    HW219452   2.387   0.389   5.450
 6185SOL     OW19453   3.700   2.860   5.536
 6185SOL    HW119454   3.686   2.945   5.586
 6185SOL    HW219455   3.640   2.858   5.456
 6186SOL     OW19456   6.930   1.965   1.805
 6186SOL    HW119457   6.874   1.900   1.754
 6186SOL    HW219458   6.987   2.016   1.741
 6187SOL     OW19459   5.471   1.680   5.789
 6187SOL    HW119460   5.408   1.697   5.864
 6187SOL    HW219461   5.422   1.639   5.712
 6188SOL     OW19462   1.227   1.780   5.091
 6188SOL    HW119463   1.264   1.837   5.018
 6188SOL    HW219464   1.219   1.686   5.059
 6189SOL     OW19465   6.381   6.551   1.337
 6189SOL    HW119466   6.437   6.634   1.345
 6189SOL    HW219467   6.284   6.575   1.350
 6190SOL     OW19468   0.488   2.868   5.223
 6190SOL    HW119469   0.434   2.922   5.158
 6190SOL    HW219470   0.585   2.892   5.214
 6191SOL     OW19471   3.829   3.776   0.074
 6191SOL    HW119472   3.783   3.845   0.019
 6191SOL    HW219473   3.778   3.691   0.071
 6192SOL     OW19474   2.736   1.655   0.646
 6192SOL    HW119475   2.705   1.750   0.643
 6192SOL    HW219476   2.658   1.594   0.655
 6193SOL     OW19477   4.674   5.717   6.635
 6193SOL    HW119478   4.615   5.744   6.710
 6193SOL    HW219479   4.744   5.653   6.669
 6194SOL     OW19480   6.113   6.823   6.214
 6194SOL    HW119481   6.094   6.863   6.124
 6194SOL    HW219482   6.173   6.743   6.202
 6195SOL     OW19483   6.742   6.040   6.110
 6195SOL    HW119484   6.720   6.137   6.104
 6195SOL    HW219485   6.679   5.995   6.173
 6196SOL     OW19486   5.984   3.681   3.175
 6196SOL    HW119487   6.039   3.670   3.092
 6196SOL    HW219488   5.929   3.599   3.189
 6197SOL     OW19489   2.589   5.554   1.918
 6197SOL    HW119490   2.651   5.633   1.914
 6197SOL    HW219491   2.494   5.586   1.910
 6198SOL     OW19492   6.437   0.792   0.037
 6198SOL    HW119493   6.415   0.828   0.128
 6198SOL    HW219494   6.360   0.737   0.003
 6199SOL     OW19495   1.162   6.898   6.783
 6199SOL    HW119496   1.156   6.886   6.882
 6199SOL    HW219497   1.120   6.985   6.757
 6200SOL     OW19498   2.125   1.534   2.245
 6200SOL    HW119499   2.207   1.533   2.188
 6200SOL    HW219500   2.138   1.598   2.321
 6201SOL     OW19501   7.025   4.254   3.755
 6201SOL    HW119502   0.022   4.335   3.809
 6201SOL    HW219503   0.077   4.193   3.751
 6202SOL     OW19504   6.131   1.533   2.645
 6202SOL    HW119505   6.055   1.479   2.681
 6202SOL    HW219506   6.203   1.471   2.613
 6203SOL     OW19507   6.650   6.998   1.679
 6203SOL    HW119508   6.633   0.063   1.717
 6203SOL    HW219509   6.641   6.930   1.751
 6204SOL     OW19510   2.197   0.192   5.094
 6204SOL    HW119511   2.149   0.221   5.177
 6204SOL    HW219512   2.258   0.264   5.063
 6205SOL     OW19513   5.210   4.773   3.369
 6205SOL    HW119514   5.280   4.759   3.439
 6205SOL    HW219515   5.122   4.740   3.403
 6206SOL     OW19516   6.016   1.544   4.592
 6206SOL    HW119517   5.933   1.574   4.641
 6206SOL    HW219518   5.990   1.485   4.516
 6207SOL     OW19519   2.212   4.545   4.685
 6207SOL    HW119520   2.153   4.467   4.666
 6207SOL    HW219521   2.161   4.630   4.671
 6208SOL     OW19522   3.812   3.759   5.803
 6208SOL    HW119523   3.807   3.850   5.844
 6208SOL    HW219524   3.902   3.747   5.761
 6209SOL     OW19525   3.267   2.398   1.481
 6209SOL    HW119526   3.341   2.386   1.547
 6209SOL    HW219527   3.195   2.331   1.499
 6210SOL     OW19528   4.700   2.044   4.039
 6210SOL    HW119529   4.693   2.097   4.124
 6210SOL    HW219530   4.686   2.105   3.961
 6211SOL     OW19531   5.523   4.494   5.379
 6211SOL    HW119532   5.488   4.420   5.437
 6211SOL    HW219533   5.452   4.564   5.368
 6212SOL     OW19534   4.535   5.580   5.015
 6212SOL    HW119535   4.551   5.492   5.059
 6212SOL    HW219536   4.582   5.583   4.927
 6213SOL     OW19537   4.109   6.106   0.082
 6213SOL    HW119538   4.149   6.128   0.171
 6213SOL    HW219539   4.009   6.103   0.090
 6214SOL     OW19540   6.799   5.936   6.418
 6214SOL    HW119541   6.818   6.034   6.411
 6214SOL    HW219542   6.704   5.919   6.390
 6215SOL     OW19543   5.651   2.480   5.847
 6215SOL    HW119544   5.633   2.435   5.760
 6215SOL    HW219545   5.745   2.512   5.850
 6216SOL     OW19546   4.677   1.993   3.455
 6216SOL    HW119547   4.700   1.902   3.490
 6216SOL    HW219548   4.699   2.061   3.524
 6217SOL     OW19549   0.269   4.427   3.133
 6217SOL    HW119550   0.254   4.355   3.200
 6217SOL    HW219551   0.302   4.387   3.047
 6218SOL     OW19552   4.584   6.268   0.033
 6218SOL    HW119553   4.630   6.317   6.985
 6218SOL    HW219554   4.646   6.262   0.112
 6219SOL     OW19555   1.950   1.133   6.058
 6219SOL    HW119556   2.006   1.157   5.979
 6219SOL    HW219557   1.858   1.109   6.028
 6220SOL     OW19558   3.659   0.204   0.776
 6220SOL    HW119559   3.695   0.253   0.697
 6220SOL    HW219560   3.597   0.132   0.745
 6221SOL     OW19561   5.943   5.415   6.824
 6221SOL    HW119562   5.874   5.411   6.753
 6221SOL    HW219563   5.990   5.327   6.830
 6222SOL     OW19564   6.237   1.616   1.758
 6222SOL    HW119565   6.185   1.531   1.759
 6222SOL    HW219566   6.242   1.652   1.665
 6223SOL     OW19567   0.275   4.840   3.843
 6223SOL    HW119568   0.234   4.753   3.816
 6223SOL    HW219569   0.265   4.906   3.769
 6224SOL     OW19570   4.379   0.761   0.280
 6224SOL    HW119571   4.396   0.677   0.332
 6224SOL    HW219572   4.300   0.808   0.318
 6225SOL     OW19573   4.919   6.160   6.457
 6225SOL    HW119574   5.009   6.201   6.471
 6225SOL    HW219575   4.852   6.207   6.513
 6226SOL     OW19576   1.078   1.389   5.159
 6226SOL    HW119577   1.074   1.290   5.168
 6226SOL    HW219578   1.034   1.416   5.073
 6227SOL     OW19579   2.671   4.543   5.316
 6227SOL    HW119580   2.662   4.520   5.413
 6227SOL    HW219581   2.755   4.503   5.280
 6228SOL     OW19582   1.073   3.009   3.330
 6228SOL    HW119583   1.030   2.920   3.314
 6228SOL    HW219584   1.173   2.998   3.329
 6229SOL     OW19585   0.639   3.020   4.432
 6229SOL    HW119586   0.631   3.030   4.532
 6229SOL    HW219587   0.628   3.110   4.389
 6230SOL     OW19588   0.018   0.635   1.682
 6230SOL    HW119589   7.009   0.546   1.655
 6230SOL    HW219590   7.016   0.704   1.615
 6231SOL     OW19591   1.742   5.210   6.882
 6231SOL    HW119592   1.833   5.252   6.874
 6231SOL    HW219593   1.751   5.112   6.894
 6232SOL     OW19594   3.746   0.964   6.668
 6232SOL    HW119595   3.798   0.884   6.641
 6232SOL    HW219596   3.806   1.030   6.714
 6233SOL     OW19597   6.849   2.744   1.740
 6233SOL    HW119598   6.889   2.815   1.682
 6233SOL    HW219599   6.751   2.735   1.720
 6234SOL     OW19600   4.796   5.791   4.640
 6234SOL    HW119601   4.860   5.859   4.676
 6234SOL    HW219602   4.708   5.835   4.621
 6235SOL     OW19603   6.937   0.301   2.740
 6235SOL    HW119604   6.866   0.240   2.776
 6235SOL    HW219605   6.943   0.383   2.797
 6236SOL     OW19606   0.053   5.911   1.732
 6236SOL    HW119607   0.105   5.868   1.659
 6236SOL    HW219608   0.029   5.843   1.801
 6237SOL     OW19609   3.365   1.751   0.390
 6237SOL    HW119610   3.416   1.670   0.416
 6237SOL    HW219611   3.314   1.733   0.306
 6238SOL     OW19612   2.186   0.498   3.765
 6238SOL    HW119613   2.243   0.421   3.736
 6238SOL    HW219614   2.133   0.531   3.688
 6239SOL     OW19615   4.499   1.356   4.336
 6239SOL    HW119616   4.408   1.397   4.331
 6239SOL    HW219617   4.495   1.260   4.308
 6240SOL     OW19618   3.577   2.883   3.836
 6240SOL    HW119619   3.515   2.906   3.761
 6240SOL    HW219620   3.606   2.788   3.828
 6241SOL     OW19621   3.220   0.521   3.279
 6241SOL    HW119622   3.218   0.428   3.241
 6241SOL    HW219623   3.293   0.528   3.347
 6242SOL     OW19624   2.561   1.982   3.387
 6242SOL    HW119625   2.533   1.953   3.296
 6242SOL    HW219626   2.565   2.082   3.390
 6243SOL     OW19627   4.755   1.701   6.245
 6243SOL    HW119628   4.828   1.758   6.207
 6243SOL    HW219629   4.719   1.744   6.328
 6244SOL     OW19630   5.270   3.756   2.158
 6244SOL    HW119631   5.207   3.823   2.199
 6244SOL    HW219632   5.220   3.699   2.093
 6245SOL     OW19633   6.942   4.412   2.497
 6245SOL    HW119634   6.869   4.352   2.531
 6245SOL    HW219635   0.004   4.366   2.507
 6246SOL     OW19636   6.710   0.159   3.826
 6246SOL    HW119637   6.750   0.251   3.833
 6246SOL    HW219638   6.781   0.091   3.843
 6247SOL     OW19639   6.575   6.463   3.929
 6247SOL    HW119640   6.534   6.377   3.898
 6247SOL    HW219641   6.505   6.520   3.973
 6248SOL     OW19642   3.788   2.673   5.694
 6248SOL    HW119643   3.735   2.722   5.626
 6248SOL    HW219644   3.752   2.581   5.705
 6249SOL     OW19645   5.831   3.043   1.907
 6249SOL    HW119646   5.812   2.963   1.849
 6249SOL    HW219647   5.925   3.038   1.941
 6250SOL     OW19648   6.246   0.615   6.961
 6250SOL    HW119649   6.174   0.662   6.909
 6250SOL    HW219650   6.278   0.536   6.910
 6251SOL     OW19651   2.906   0.042   3.972
 6251SOL    HW119652   2.975   0.033   4.044
 6251SOL    HW219653   2.943   0.096   3.897
 6252SOL     OW19654   3.018   5.755   6.483
 6252SOL    HW119655   2.987   5.799   6.568
 6252SOL    HW219656   3.001   5.816   6.406
 6253SOL     OW19657   3.693   5.606   4.632
 6253SOL    HW119658   3.682   5.672   4.556
 6253SOL    HW219659   3.671   5.651   4.718
 6254SOL     OW19660   0.043   0.013   1.189
 6254SOL    HW119661   0.005   0.097   1.152
 6254SOL    HW219662   0.016   0.003   1.285
 6255SOL     OW19663   0.709   1.495   1.693
 6255SOL    HW119664   0.711   1.594   1.682
 6255SOL    HW219665   0.736   1.451   1.607
 6256SOL     OW19666   5.344   6.420   2.218
 6256SOL    HW119667   5.407   6.491   2.186
 6256SOL    HW219668   5.277   6.399   2.147
 6257SOL     OW19669   3.045   4.016   1.261
 6257SOL    HW119670   3.084   4.091   1.314
 6257SOL    HW219671   3.114   3.979   1.199
 6258SOL     OW19672   4.177   5.154   5.163
 6258SOL    HW119673   4.217   5.064   5.182
 6258SOL    HW219674   4.201   5.183   5.071
 6259SOL     OW19675   3.444   0.622   4.659
 6259SOL    HW119676   3.381   0.642   4.584
 6259SOL    HW219677   3.538   0.624   4.624
 6260SOL     OW19678   1.567   1.081   0.062
 6260SOL    HW119679   1.536   1.017   7.018
 6260SOL    HW219680   1.500   1.083   0.136
 6261SOL     OW19681   3.707   0.130   1.016
 6261SOL    HW119682   3.618   0.113   1.058
 6261SOL    HW219683   3.695   0.151   0.919
 6262SOL     OW19684   5.440   0.586   2.221
 6262SOL    HW119685   5.367   0.519   2.230
 6262SOL    HW219686   5.401   0.676   2.201
 6263SOL     OW19687   5.912   6.159   5.675
 6263SOL    HW119688   5.847   6.119   5.609
 6263SOL    HW219689   5.952   6.086   5.730
 6264SOL     OW19690   2.249   6.541   6.775
 6264SOL    HW119691   2.184   6.500   6.837
 6264SOL    HW219692   2.225   6.518   6.680
 6265SOL     OW19693   4.920   0.095   6.434
 6265SOL    HW119694   4.858   0.116   6.358
 6265SOL    HW219695   4.907   0.163   6.507
 6266SOL     OW19696   2.926   5.123   3.149
 6266SOL    HW119697   2.836   5.081   3.142
 6266SOL    HW219698   2.963   5.140   3.058
 6267SOL     OW19699   2.470   6.381   4.662
 6267SOL    HW119700   2.560   6.419   4.641
 6267SOL    HW219701   2.441   6.411   4.752
 6268SOL     OW19702   3.415   1.553   1.117
 6268SOL    HW119703   3.434   1.640   1.071
 6268SOL    HW219704   3.494   1.527   1.173
 6269SOL     OW19705   6.179   4.735   6.928
 6269SOL    HW119706   6.214   4.679   6.853
 6269SOL    HW219707   6.082   4.716   6.942
 6270SOL     OW19708   1.909   5.719   0.673
 6270SOL    HW119709   1.864   5.785   0.733
 6270SOL    HW219710   1.887   5.739   0.578
 6271SOL     OW19711   6.560   3.384   5.663
 6271SOL    HW119712   6.461   3.385   5.658
 6271SOL    HW219713   6.590   3.349   5.752
 6272SOL     OW19714   6.784   0.230   7.015
 6272SOL    HW119715   6.728   0.312   7.003
 6272SOL    HW219716   6.785   0.203   0.084
 6273SOL     OW19717   0.918   6.463   1.227
 6273SOL    HW119718   0.842   6.526   1.240
 6273SOL    HW219719   0.988   6.481   1.296
 6274SOL     OW19720   3.307   5.287   3.576
 6274SOL    HW119721   3.313   5.263   3.479
 6274SOL    HW219722   3.212   5.302   3.601
 6275SOL     OW19723   2.459   5.753   6.863
 6275SOL    HW119724   2.460   5.654   6.872
 6275SOL    HW219725   2.388   5.780   6.798
 6276SOL     OW19726   1.975   4.862   2.928
 6276SOL    HW119727   1.922   4.905   2.855
 6276SOL    HW219728   1.913   4.829   2.999
 6277SOL     OW19729   5.400   2.996   1.279
 6277SOL    HW119730   5.427   3.025   1.187
 6277SOL    HW219731   5.365   2.903   1.276
 6278SOL     OW19732   2.847   1.604   7.002
 6278SOL    HW119733   2.934   1.554   6.998
 6278SOL    HW219734   2.851   1.682   6.940
 6279SOL     OW19735   3.280   6.788   1.964
 6279SOL    HW119736   3.342   6.770   1.887
 6279SOL    HW219737   3.236   6.703   1.992
 6280SOL     OW19738   5.562   2.786   6.469
 6280SOL    HW119739   5.628   2.778   6.544
 6280SOL    HW219740   5.563   2.879   6.433
 6281SOL     OW19741   5.495   3.904   6.048
 6281SOL    HW119742   5.592   3.912   6.025
 6281SOL    HW219743   5.486   3.851   6.133
 6282SOL     OW19744   6.975   3.308   6.281
 6282SOL    HW119745   6.942   3.214   6.290
 6282SOL    HW219746   6.984   3.349   6.372
 6283SOL     OW19747   1.653   6.255   4.878
 6283SOL    HW119748   1.561   6.272   4.914
 6283SOL    HW219749   1.673   6.157   4.883
 6284SOL     OW19750   1.271   3.916   5.226
 6284SOL    HW119751   1.329   3.997   5.233
 6284SOL    HW219752   1.198   3.921   5.293
 6285SOL     OW19753   1.274   3.454   3.251
 6285SOL    HW119754   1.252   3.534   3.306
 6285SOL    HW219755   1.290   3.482   3.156
 6286SOL     OW19756   0.298   2.315   0.160
 6286SOL    HW119757   0.352   2.309   0.244
 6286SOL    HW219758   0.336   2.386   0.101
 6287SOL     OW19759   4.831   4.918   5.087
 6287SOL    HW119760   4.804   5.004   5.130
 6287SOL    HW219761   4.917   4.887   5.126
 6288SOL     OW19762   3.225   4.176   6.795
 6288SOL    HW119763   3.281   4.150   6.716
 6288SOL    HW219764   3.183   4.094   6.834
 6289SOL     OW19765   2.521   4.335   6.145
 6289SOL    HW119766   2.543   4.426   6.111
 6289SOL    HW219767   2.470   4.284   6.076
 6290SOL     OW19768   6.167   5.962   4.518
 6290SOL    HW119769   6.157   5.862   4.514
 6290SOL    HW219770   6.081   6.005   4.494
 6291SOL     OW19771   4.091   3.232   2.949
 6291SOL    HW119772   4.165   3.282   2.994
 6291SOL    HW219773   4.088   3.256   2.852
 6292SOL     OW19774   2.073   3.731   4.313
 6292SOL    HW119775   1.973   3.727   4.309
 6292SOL    HW219776   2.109   3.734   4.220
 6293SOL     OW19777   2.929   1.304   6.725
 6293SOL    HW119778   3.013   1.249   6.726
 6293SOL    HW219779   2.855   1.252   6.682
 6294SOL     OW19780   1.534   1.250   2.485
 6294SOL    HW119781   1.569   1.335   2.446
 6294SOL    HW219782   1.561   1.243   2.580
 6295SOL     OW19783   4.937   3.468   6.424
 6295SOL    HW119784   4.892   3.410   6.492
 6295SOL    HW219785   4.877   3.478   6.344
 6296SOL     OW19786   1.027   3.209   0.338
 6296SOL    HW119787   1.005   3.215   0.241
 6296SOL    HW219788   1.124   3.190   0.349
 6297SOL     OW19789   5.741   1.588   4.667
 6297SOL    HW119790   5.705   1.566   4.758
 6297SOL    HW219791   5.691   1.538   4.598
 6298SOL     OW19792   6.654   6.110   0.994
 6298SOL    HW119793   6.704   6.038   0.945
 6298SOL    HW219794   6.578   6.141   0.938
 6299SOL     OW19795   3.828   1.193   3.495
 6299SOL    HW119796   3.828   1.246   3.411
 6299SOL    HW219797   3.870   1.247   3.569
 6300SOL     OW19798   2.632   1.160   6.797
 6300SOL    HW119799   2.666   1.242   6.844
 6300SOL    HW219800   2.533   1.165   6.788
 6301SOL     OW19801   4.067   6.377   0.003
 6301SOL    HW119802   4.145   6.432   7.000
 6301SOL    HW219803   4.100   6.288   0.034
 6302SOL     OW19804   3.397   2.644   6.309
 6302SOL    HW119805   3.474   2.693   6.350
 6302SOL    HW219806   3.414   2.546   6.315
 6303SOL     OW19807   0.490   5.668   4.760
 6303SOL    HW119808   0.429   5.748   4.757
 6303SOL    HW219809   0.526   5.657   4.852
 6304SOL     OW19810   3.875   0.612   4.782
 6304SOL    HW119811   3.828   0.613   4.870
 6304SOL    HW219812   3.943   0.539   4.781
 6305SOL     OW19813   0.852   5.991   6.300
 6305SOL    HW119814   0.855   5.899   6.262
 6305SOL    HW219815   0.758   6.022   6.308
 6306SOL     OW19816   0.427   5.254   4.300
 6306SOL    HW119817   0.370   5.244   4.382
 6306SOL    HW219818   0.454   5.349   4.289
 6307SOL     OW19819   3.951   2.971   1.920
 6307SOL    HW119820   3.900   2.908   1.978
 6307SOL    HW219821   3.963   3.058   1.967
 6308SOL     OW19822   0.572   2.247   0.654
 6308SOL    HW119823   0.513   2.326   0.637
 6308SOL    HW219824   0.649   2.247   0.589
 6309SOL     OW19825   2.534   6.117   4.719
 6309SOL    HW119826   2.634   6.117   4.711
 6309SOL    HW219827   2.502   6.212   4.721
 6310SOL     OW19828   1.233   0.239   3.093
 6310SOL    HW119829   1.320   0.287   3.087
 6310SOL    HW219830   1.249   0.140   3.095
 6311SOL     OW19831   5.759   0.834   6.483
 6311SOL    HW119832   5.780   0.815   6.388
 6311SOL    HW219833   5.756   0.748   6.535
 6312SOL     OW19834   3.183   5.984   6.833
 6312SOL    HW119835   3.271   5.936   6.837
 6312SOL    HW219836   3.167   6.032   6.919
 6313SOL     OW19837   6.357   5.220   4.510
 6313SOL    HW119838   6.415   5.139   4.510
 6313SOL    HW219839   6.334   5.245   4.416
 6314SOL     OW19840   2.196   6.424   2.720
 6314SOL    HW119841   2.186   6.340   2.667
 6314SOL    HW219842   2.109   6.445   2.766
 6315SOL     OW19843   2.307   2.262   3.871
 6315SOL    HW119844   2.223   2.313   3.889
 6315SOL    HW219845   2.384   2.325   3.866
 6316SOL     OW19846   4.574   1.070   4.531
 6316SOL    HW119847   4.478   1.063   4.559
 6316SOL    HW219848   4.610   0.979   4.511
 6317SOL     OW19849   5.194   5.252   1.982
 6317SOL    HW119850   5.196   5.255   1.882
 6317SOL    HW219851   5.107   5.290   2.014
 6318SOL     OW19852   6.586   6.752   0.238
 6318SOL    HW119853   6.573   6.735   0.336
 6318SOL    HW219854   6.668   6.704   0.206
 6319SOL     OW19855   5.124   1.699   3.813
 6319SOL    HW119856   5.137   1.785   3.863
 6319SOL    HW219857   5.062   1.640   3.866
 6320SOL     OW19858   6.309   1.296   5.715
 6320SOL    HW119859   6.404   1.271   5.694
 6320SOL    HW219860   6.286   1.262   5.806
 6321SOL     OW19861   6.654   2.494   6.920
 6321SOL    HW119862   6.585   2.473   6.990
 6321SOL    HW219863   6.717   2.563   6.956
 6322SOL     OW19864   0.951   0.890   2.230
 6322SOL    HW119865   0.969   0.946   2.150
 6322SOL    HW219866   0.856   0.900   2.258
 6323SOL     OW19867   2.169   4.914   1.291
 6323SOL    HW119868   2.134   4.856   1.217
 6323SOL    HW219869   2.131   5.006   1.283
 6324SOL     OW19870   4.561   2.745   1.087
 6324SOL    HW119871   4.520   2.706   1.170
 6324SOL    HW219872   4.610   2.829   1.111
 6325SOL     OW19873   1.422   2.652   4.064
 6325SOL    HW119874   1.426   2.552   4.065
 6325SOL    HW219875   1.511   2.690   4.092
 6326SOL     OW19876   5.386   4.609   5.879
 6326SOL    HW119877   5.409   4.517   5.848
 6326SOL    HW219878   5.359   4.665   5.800
 6327SOL     OW19879   0.282   1.076   3.455
 6327SOL    HW119880   0.209   1.040   3.513
 6327SOL    HW219881   0.245   1.099   3.364
 6328SOL     OW19882   4.455   3.656   5.342
 6328SOL    HW119883   4.525   3.651   5.271
 6328SOL    HW219884   4.372   3.698   5.305
 6329SOL     OW19885   0.679   2.038   5.534
 6329SOL    HW119886   0.635   2.127   5.522
 6329SOL    HW219887   0.757   2.048   5.596
 6330SOL     OW19888   5.382   1.396   3.581
 6330SOL    HW119889   5.355   1.434   3.493
 6330SOL    HW219890   5.342   1.452   3.655
 6331SOL     OW19891   0.732   2.663   3.211
 6331SOL    HW119892   0.673   2.724   3.264
 6331SOL    HW219893   0.744   2.700   3.119
 6332SOL     OW19894   3.395   1.752   6.492
 6332SOL    HW119895   3.425   1.746   6.587
 6332SOL    HW219896   3.324   1.683   6.475
 6333SOL     OW19897   5.572   1.330   1.058
 6333SOL    HW119898   5.650   1.391   1.043
 6333SOL    HW219899   5.600   1.235   1.041
 6334SOL     OW19900   1.602   1.496   2.000
 6334SOL    HW119901   1.661   1.432   1.952
 6334SOL    HW219902   1.576   1.458   2.089
 6335SOL     OW19903   6.584   2.570   6.660
 6335SOL    HW119904   6.511   2.638   6.675
 6335SOL    HW219905   6.626   2.548   6.748
 6336SOL     OW19906   0.836   4.156   5.105
 6336SOL    HW119907   0.826   4.174   5.007
 6336SOL    HW219908   0.934   4.152   5.128
 6337SOL     OW19909   5.247   6.585   4.907
 6337SOL    HW119910   5.280   6.620   4.819
 6337SOL    HW219911   5.216   6.661   4.963
 6338SOL     OW19912   1.527   1.131   3.061
 6338SOL    HW119913   1.499   1.151   3.155
 6338SOL    HW219914   1.508   1.036   3.039
 6339SOL     OW19915   0.438   4.512   4.018
 6339SOL    HW119916   0.525   4.536   4.062
 6339SOL    HW219917   0.368   4.576   4.047
 6340SOL     OW19918   2.820   4.103   0.424
 6340SOL    HW119919   2.889   4.175   0.431
 6340SOL    HW219920   2.784   4.081   0.514
 6341SOL     OW19921   0.789   4.824   2.395
 6341SOL    HW119922   0.712   4.879   2.427
 6341SOL    HW219923   0.865   4.834   2.460
 6342SOL     OW19924   1.805   0.867   1.514
 6342SOL    HW119925   1.757   0.954   1.501
 6342SOL    HW219926   1.777   0.828   1.602
 6343SOL     OW19927   0.770   5.483   0.427
 6343SOL    HW119928   0.674   5.456   0.421
 6343SOL    HW219929   0.783   5.569   0.379
 6344SOL     OW19930   0.475   1.398   3.907
 6344SOL    HW119931   0.493   1.328   3.977
 6344SOL    HW219932   0.390   1.375   3.859
 6345SOL     OW19933   5.933   2.695   1.868
 6345SOL    HW119934   5.859   2.644   1.824
 6345SOL    HW219935   5.934   2.673   1.966
 6346SOL     OW19936   0.318   4.300   6.024
 6346SOL    HW119937   0.368   4.329   5.942
 6346SOL    HW219938   0.277   4.379   6.069
 6347SOL     OW19939   2.152   2.009   2.830
 6347SOL    HW119940   2.167   1.917   2.865
 6347SOL    HW219941   2.226   2.034   2.769
 6348SOL     OW19942   0.631   2.001   5.880
 6348SOL    HW119943   0.716   2.049   5.900
 6348SOL    HW219944   0.592   1.964   5.964
 6349SOL     OW19945   6.962   1.206   0.446
 6349SOL    HW119946   6.997   1.210   0.539
 6349SOL    HW219947   0.010   1.187   0.382
 6350SOL     OW19948   0.867   6.247   1.804
 6350SOL    HW119949   0.780   6.296   1.813
 6350SOL    HW219950   0.898   6.218   1.894
 6351SOL     OW19951   5.558   3.752   1.686
 6351SOL    HW119952   5.531   3.824   1.750
 6351SOL    HW219953   5.477   3.698   1.662
 6352SOL     OW19954   3.294   0.697   4.459
 6352SOL    HW119955   3.254   0.787   4.445
 6352SOL    HW219956   3.229   0.626   4.432
 6353SOL     OW19957   3.722   6.644   5.833
 6353SOL    HW119958   3.782   6.644   5.913
 6353SOL    HW219959   3.640   6.697   5.853
 6354SOL     OW19960   4.766   5.584   1.377
 6354SOL    HW119961   4.739   5.584   1.473
 6354SOL    HW219962   4.862   5.609   1.369
 6355SOL     OW19963   2.966   4.944   0.503
 6355SOL    HW119964   3.030   5.014   0.471
 6355SOL    HW219965   3.015   4.862   0.529
 6356SOL     OW19966   6.890   5.481   6.059
 6356SOL    HW119967   6.904   5.382   6.065
 6356SOL    HW219968   6.875   5.506   5.963
 6357SOL     OW19969   5.390   1.125   1.905
 6357SOL    HW119970   5.486   1.123   1.878
 6357SOL    HW219971   5.367   1.040   1.952
 6358SOL     OW19972   1.248   1.940   5.687
 6358SOL    HW119973   1.334   1.984   5.663
 6358SOL    HW219974   1.210   1.894   5.607
 6359SOL     OW19975   5.448   6.342   0.462
 6359SOL    HW119976   5.483   6.358   0.369
 6359SOL    HW219977   5.515   6.371   0.529
 6360SOL     OW19978   0.463   1.597   2.011
 6360SOL    HW119979   0.403   1.665   1.968
 6360SOL    HW219980   0.456   1.510   1.962
 6361SOL     OW19981   0.325   0.916   0.413
 6361SOL    HW119982   0.297   0.833   0.461
 6361SOL    HW219983   0.412   0.948   0.450
 6362SOL     OW19984   0.815   5.410   0.669
 6362SOL    HW119985   0.904   5.366   0.679
 6362SOL    HW219986   0.804   5.443   0.576
 6363SOL     OW19987   2.186   3.994   2.813
 6363SOL    HW119988   2.154   3.940   2.891
 6363SOL    HW219989   2.184   4.092   2.837
 6364SOL     OW19990   2.459   2.579   4.128
 6364SOL    HW119991   2.369   2.536   4.135
 6364SOL    HW219992   2.477   2.632   4.211
 6365SOL     OW19993   5.575   6.650   3.186
 6365SOL    HW119994   5.522   6.705   3.251
 6365SOL    HW219995   5.513   6.610   3.118
 6366SOL     OW19996   5.885   0.863   5.160
 6366SOL    HW119997   5.858   0.853   5.256
 6366SOL    HW219998   5.827   0.804   5.103
 6367SOL     OW19999   1.394   2.353   2.546
 6367SOL    HW120000   1.311   2.403   2.572
 6367SOL    HW220001   1.429   2.303   2.625
 6368SOL     OW20002   5.224   3.751   4.710
 6368SOL    HW120003   5.302   3.709   4.663
 6368SOL    HW220004   5.139   3.712   4.676
 6369SOL     OW20005   4.334   5.397   0.428
 6369SOL    HW120006   4.273   5.469   0.395
 6369SOL    HW220007   4.416   5.394   0.369
 6370SOL     OW20008   5.255   4.223   4.452
 6370SOL    HW120009   5.200   4.180   4.380
 6370SOL    HW220010   5.197   4.247   4.529
 6371SOL     OW20011   5.380   4.544   1.625
 6371SOL    HW120012   5.386   4.480   1.549
 6371SOL    HW220013   5.460   4.605   1.624
 6372SOL     OW20014   6.668   1.782   2.328
 6372SOL    HW120015   6.632   1.819   2.414
 6372SOL    HW220016   6.655   1.683   2.326
 6373SOL     OW20017   5.085   4.213   1.626
 6373SOL    HW120018   5.143   4.137   1.657
 6373SOL    HW220019   5.090   4.288   1.692
 6374SOL     OW20020   4.149   3.727   6.865
 6374SOL    HW120021   4.144   3.750   6.962
 6374SOL    HW220022   4.091   3.790   6.813
 6375SOL     OW20023   4.773   1.197   2.158
 6375SOL    HW120024   4.818   1.115   2.124
 6375SOL    HW220025   4.675   1.179   2.170
 6376SOL     OW20026   3.344   0.532   0.161
 6376SOL    HW120027   3.363   0.575   0.249
 6376SOL    HW220028   3.275   0.587   0.112
 6377SOL     OW20029   0.722   0.477   0.942
 6377SOL    HW120030   0.625   0.492   0.960
 6377SOL    HW220031   0.772   0.474   1.028
 6378SOL     OW20032   4.892   4.858   1.763
 6378SOL    HW120033   4.866   4.767   1.730
 6378SOL    HW220034   4.896   4.921   1.686
 6379SOL     OW20035   2.044   5.475   6.871
 6379SOL    HW120036   2.038   5.564   6.825
 6379SOL    HW220037   2.014   5.403   6.809
 6380SOL     OW20038   1.124   4.132   4.997
 6380SOL    HW120039   1.162   4.101   4.910
 6380SOL    HW220040   1.181   4.205   5.034
 6381SOL     OW20041   4.662   2.746   0.605
 6381SOL    HW120042   4.642   2.710   0.513
 6381SOL    HW220043   4.586   2.725   0.666
 6382SOL     OW20044   1.425   1.598   0.522
 6382SOL    HW120045   1.387   1.688   0.542
 6382SOL    HW220046   1.521   1.608   0.495
 6383SOL     OW20047   2.465   2.291   1.800
 6383SOL    HW120048   2.466   2.198   1.764
 6383SOL    HW220049   2.371   2.320   1.818
 6384SOL     OW20050   6.642   2.767   2.252
 6384SOL    HW120051   6.669   2.833   2.181
 6384SOL    HW220052   6.572   2.706   2.215
 6385SOL     OW20053   0.274   3.225   0.511
 6385SOL    HW120054   0.347   3.293   0.501
 6385SOL    HW220055   0.288   3.151   0.446
 6386SOL     OW20056   2.471   3.195   0.385
 6386SOL    HW120057   2.466   3.253   0.466
 6386SOL    HW220058   2.517   3.245   0.311
 6387SOL     OW20059   0.119   0.113   0.062
 6387SOL    HW120060   0.066   0.033   0.089
 6387SOL    HW220061   0.131   0.173   0.142
 6388SOL     OW20062   5.905   5.410   2.274
 6388SOL    HW120063   5.863   5.392   2.363
 6388SOL    HW220064   5.956   5.496   2.278
 6389SOL     OW20065   0.029   0.479   0.565
 6389SOL    HW120066   0.109   0.532   0.535
 6389SOL    HW220067   0.059   0.390   0.599
 6390SOL     OW20068   5.309   0.302   6.773
 6390SOL    HW120069   5.296   0.336   6.680
 6390SOL    HW220070   5.292   0.376   6.838
 6391SOL     OW20071   1.162   1.995   4.685
 6391SOL    HW120072   1.243   1.937   4.687
 6391SOL    HW220073   1.185   2.085   4.721
 6392SOL     OW20074   3.838   6.544   3.306
 6392SOL    HW120075   3.865   6.578   3.396
 6392SOL    HW220076   3.918   6.536   3.247
 6393SOL     OW20077   0.902   5.496   0.080
 6393SOL    HW120078   0.830   5.536   0.137
 6393SOL    HW220079   0.874   5.404   0.052
 6394SOL     OW20080   1.638   5.511   2.125
 6394SOL    HW120081   1.649   5.610   2.128
 6394SOL    HW220082   1.710   5.471   2.068
 6395SOL     OW20083   2.090   3.535   3.600
 6395SOL    HW120084   2.161   3.491   3.546
 6395SOL    HW220085   2.057   3.471   3.670
 6396SOL     OW20086   1.386   3.023   5.655
 6396SOL    HW120087   1.293   3.030   5.619
 6396SOL    HW220088   1.384   3.040   5.754
 6397SOL     OW20089   5.832   3.831   4.703
 6397SOL    HW120090   5.931   3.845   4.705
 6397SOL    HW220091   5.811   3.736   4.724
 6398SOL     OW20092   2.040   7.003   1.805
 6398SOL    HW120093   2.063   0.031   1.886
 6398SOL    HW220094   1.940   6.995   1.798
 6399SOL     OW20095   3.354   0.607   6.455
 6399SOL    HW120096   3.348   0.516   6.416
 6399SOL    HW220097   3.375   0.601   6.553
 6400SOL     OW20098   1.123   5.934   3.355
 6400SOL    HW120099   1.188   6.001   3.319
 6400SOL    HW220100   1.035   5.978   3.370
 6401SOL     OW20101   3.792   4.991   3.142
 6401SOL    HW120102   3.787   4.958   3.236
 6401SOL    HW220103   3.847   5.075   3.139
 6402SOL     OW20104   2.418   4.702   5.381
 6402SOL    HW120105   2.409   4.776   5.314
 6402SOL    HW220106   2.487   4.637   5.350
 6403SOL     OW20107   4.964   5.138   4.879
 6403SOL    HW120108   4.933   5.098   4.965
 6403SOL    HW220109   5.058   5.109   4.861
 6404SOL     OW20110   4.480   6.878   1.543
 6404SOL    HW120111   4.510   6.870   1.638
 6404SOL    HW220112   4.412   6.808   1.524
 6405SOL     OW20113   5.185   1.634   3.041
 6405SOL    HW120114   5.259   1.639   2.973
 6405SOL    HW220115   5.181   1.541   3.078
 6406SOL     OW20116   0.160   3.456   3.250
 6406SOL    HW120117   0.101   3.393   3.300
 6406SOL    HW220118   0.198   3.524   3.313
 6407SOL     OW20119   0.492   6.353   2.834
 6407SOL    HW120120   0.462   6.258   2.827
 6407SOL    HW220121   0.431   6.412   2.779
 6408SOL     OW20122   6.565   0.529   1.884
 6408SOL    HW120123   6.634   0.466   1.847
 6408SOL    HW220124   6.474   0.489   1.874
 6409SOL     OW20125   5.073   5.173   3.902
 6409SOL    HW120126   5.073   5.227   3.818
 6409SOL    HW220127   5.154   5.115   3.904
 6410SOL     OW20128   1.748   1.697   6.974
 6410SOL    HW120129   1.730   1.733   6.882
 6410SOL    HW220130   1.779   1.772   0.007
 6411SOL     OW20131   0.678   2.678   1.829
 6411SOL    HW120132   0.589   2.640   1.803
 6411SOL    HW220133   0.730   2.611   1.881
 6412SOL     OW20134   3.175   1.408   0.471
 6412SOL    HW120135   3.079   1.407   0.443
 6412SOL    HW220136   3.191   1.485   0.533
 6413SOL     OW20137   4.955   6.217   3.085
 6413SOL    HW120138   4.928   6.312   3.098
 6413SOL    HW220139   4.886   6.156   3.125
 6414SOL     OW20140   2.118   0.148   0.671
 6414SOL    HW120141   2.194   0.085   0.654
 6414SOL    HW220142   2.119   0.220   0.602
 6415SOL     OW20143   0.100   2.505   3.977
 6415SOL    HW120144   0.189   2.547   3.996
 6415SOL    HW220145   0.114   2.409   3.952
 6416SOL     OW20146   2.407   6.092   0.281
 6416SOL    HW120147   2.381   6.031   0.355
 6416SOL    HW220148   2.353   6.072   0.199
 6417SOL     OW20149   4.463   2.638   6.205
 6417SOL    HW120150   4.503   2.708   6.265
 6417SOL    HW220151   4.394   2.681   6.146
 6418SOL     OW20152   4.827   4.294   0.397
 6418SOL    HW120153   4.741   4.309   0.446
 6418SOL    HW220154   4.863   4.203   0.421
 6419SOL     OW20155   0.791   6.143   5.978
 6419SOL    HW120156   0.845   6.197   6.043
 6419SOL    HW220157   0.755   6.202   5.907
 6420SOL     OW20158   2.171   4.562   4.223
 6420SOL    HW120159   2.085   4.606   4.247
 6420SOL    HW220160   2.228   4.551   4.304
 6421SOL     OW20161   3.776   0.673   2.040
 6421SOL    HW120162   3.709   0.687   2.113
 6421SOL    HW220163   3.777   0.754   1.980
 6422SOL     OW20164   5.928   2.015   4.550
 6422SOL    HW120165   5.925   1.947   4.477
 6422SOL    HW220166   6.002   1.994   4.614
 6423SOL     OW20167   1.801   4.724   4.517
 6423SOL    HW120168   1.733   4.656   4.487
 6423SOL    HW220169   1.754   4.807   4.548
 6424SOL     OW20170   6.704   4.787   5.467
 6424SOL    HW120171   6.795   4.771   5.430
 6424SOL    HW220172   6.706   4.775   5.566
 6425SOL     OW20173   0.067   5.904   3.937
 6425SOL    HW120174   0.163   5.883   3.921
 6425SOL    HW220175   0.051   5.913   4.036
 6426SOL     OW20176   5.048   4.189   4.652
 6426SOL    HW120177   4.965   4.143   4.685
 6426SOL    HW220178   5.129   4.139   4.682
 6427SOL     OW20179   4.042   3.409   3.173
 6427SOL    HW120180   4.040   3.333   3.238
 6427SOL    HW220181   3.965   3.400   3.110
 6428SOL     OW20182   5.651   2.643   0.324
 6428SOL    HW120183   5.616   2.549   0.321
 6428SOL    HW220184   5.651   2.675   0.419
 6429SOL     OW20185   2.137   1.226   5.848
 6429SOL    HW120186   2.054   1.195   5.802
 6429SOL    HW220187   2.217   1.188   5.802
 6430SOL     OW20188   6.115   0.046   5.268
 6430SOL    HW120189   6.141   0.096   5.185
 6430SOL    HW220190   6.031   0.085   5.306
 6431SOL     OW20191   3.855   4.893   1.932
 6431SOL    HW120192   3.781   4.847   1.883
 6431SOL    HW220193   3.846   4.992   1.919
 6432SOL     OW20194   4.939   4.447   6.216
 6432SOL    HW120195   5.016   4.508   6.200
 6432SOL    HW220196   4.854   4.498   6.209
 6433SOL     OW20197   3.227   4.414   6.191
 6433SOL    HW120198   3.286   4.449   6.118
 6433SOL    HW220199   3.157   4.482   6.212
 6434SOL     OW20200   4.940   5.538   6.400
 6434SOL    HW120201   4.941   5.464   6.332
 6434SOL    HW220202   4.881   5.612   6.367
 6435SOL     OW20203   4.779   2.547   1.269
 6435SOL    HW120204   4.786   2.460   1.221
 6435SOL    HW220205   4.686   2.559   1.304
 6436SOL     OW20206   6.268   3.295   3.668
 6436SOL    HW120207   6.297   3.374   3.613
 6436SOL    HW220208   6.340   3.225   3.665
 6437SOL     OW20209   1.506   2.235   5.447
 6437SOL    HW120210   1.427   2.295   5.460
 6437SOL    HW220211   1.581   2.287   5.405
 6438SOL     OW20212   0.463   4.836   0.028
 6438SOL    HW120213   0.400   4.758   0.021
 6438SOL    HW220214   0.532   4.817   0.098
 6439SOL     OW20215   4.970   6.885   3.288
 6439SOL    HW120216   5.059   6.870   3.245
 6439SOL    HW220217   4.961   6.824   3.367
 6440SOL     OW20218   3.020   1.778   6.104
 6440SOL    HW120219   2.979   1.794   6.014
 6440SOL    HW220220   2.962   1.818   6.175
 6441SOL     OW20221   6.954   1.560   2.337
 6441SOL    HW120222   6.930   1.652   2.370
 6441SOL    HW220223   6.872   1.515   2.301
 6442SOL     OW20224   2.924   2.152   4.891
 6442SOL    HW120225   3.000   2.210   4.918
 6442SOL    HW220226   2.838   2.195   4.918
 6443SOL     OW20227   4.321   3.466   6.592
 6443SOL    HW120228   4.305   3.560   6.565
 6443SOL    HW220229   4.312   3.458   6.692
 6444SOL     OW20230   6.295   3.853   4.912
 6444SOL    HW120231   6.227   3.814   4.974
 6444SOL    HW220232   6.337   3.934   4.954
 6445SOL     OW20233   3.147   3.315   3.599
 6445SOL    HW120234   3.225   3.300   3.539
 6445SOL    HW220235   3.159   3.262   3.683
 6446SOL     OW20236   1.472   1.305   6.547
 6446SOL    HW120237   1.531   1.267   6.618
 6446SOL    HW220238   1.462   1.403   6.561
 6447SOL     OW20239   6.137   3.233   2.397
 6447SOL    HW120240   6.080   3.308   2.430
 6447SOL    HW220241   6.082   3.150   2.388
 6448SOL     OW20242   3.161   5.086   1.848
 6448SOL    HW120243   3.097   5.017   1.814
 6448SOL    HW220244   3.190   5.144   1.772
 6449SOL     OW20245   2.750   5.107   0.550
 6449SOL    HW120246   2.726   5.109   0.647
 6449SOL    HW220247   2.837   5.057   0.538
 6450SOL     OW20248   0.097   4.264   0.104
 6450SOL    HW120249   0.020   4.319   0.134
 6450SOL    HW220250   0.130   4.297   0.016
 6451SOL     OW20251   4.237   2.907   1.418
 6451SOL    HW120252   4.174   2.885   1.343
 6451SOL    HW220253   4.192   2.971   1.481
 6452SOL     OW20254   4.251   1.797   3.897
 6452SOL    HW120255   4.349   1.794   3.878
 6452SOL    HW220256   4.204   1.842   3.821
 6453SOL     OW20257   2.240   0.567   2.134
 6453SOL    HW120258   2.317   0.526   2.087
 6453SOL    HW220259   2.254   0.666   2.140
 6454SOL     OW20260   5.061   2.464   3.618
 6454SOL    HW120261   4.970   2.463   3.575
 6454SOL    HW220262   5.103   2.554   3.604
 6455SOL     OW20263   6.321   2.931   3.793
 6455SOL    HW120264   6.306   2.968   3.701
 6455SOL    HW220265   6.415   2.951   3.821
 6456SOL     OW20266   5.924   0.991   2.447
 6456SOL    HW120267   5.917   0.928   2.525
 6456SOL    HW220268   6.010   1.042   2.453
 6457SOL     OW20269   3.750   0.179   2.378
 6457SOL    HW120270   3.715   0.229   2.457
 6457SOL    HW220271   3.687   0.190   2.301
 6458SOL     OW20272   0.050   5.567   3.864
 6458SOL    HW120273   0.061   5.656   3.820
 6458SOL    HW220274   0.032   5.580   3.961
 6459SOL     OW20275   0.343   3.350   3.033
 6459SOL    HW120276   0.404   3.285   3.079
 6459SOL    HW220277   0.282   3.392   3.099
 6460SOL     OW20278   0.296   5.662   6.814
 6460SOL    HW120279   0.271   5.566   6.804
 6460SOL    HW220280   0.305   5.685   6.911
 6461SOL     OW20281   1.470   6.065   1.085
 6461SOL    HW120282   1.508   6.140   1.139
 6461SOL    HW220283   1.406   6.013   1.141
 6462SOL     OW20284   1.827   4.263   5.197
 6462SOL    HW120285   1.766   4.316   5.139
 6462SOL    HW220286   1.922   4.279   5.170
 6463SOL     OW20287   4.594   2.207   1.050
 6463SOL    HW120288   4.686   2.244   1.034
 6463SOL    HW220289   4.527   2.281   1.051
 6464SOL     OW20290   0.997   3.940   3.921
 6464SOL    HW120291   0.955   3.886   3.848
 6464SOL    HW220292   0.944   4.024   3.934
 6465SOL     OW20293   3.566   1.138   3.733
 6465SOL    HW120294   3.599   1.091   3.815
 6465SOL    HW220295   3.644   1.164   3.676
 6466SOL     OW20296   6.126   4.325   0.073
 6466SOL    HW120297   6.108   4.417   0.040
 6466SOL    HW220298   6.145   4.328   0.171
 6467SOL     OW20299   2.887   3.048   0.361
 6467SOL    HW120300   2.808   3.006   0.316
 6467SOL    HW220301   2.855   3.122   0.421
 6468SOL     OW20302   2.404   1.085   1.215
 6468SOL    HW120303   2.377   1.168   1.167
 6468SOL    HW220304   2.449   1.109   1.301
 6469SOL     OW20305   2.733   1.629   2.038
 6469SOL    HW120306   2.659   1.693   2.057
 6469SOL    HW220307   2.821   1.677   2.046
 6470SOL     OW20308   0.047   1.412   0.064
 6470SOL    HW120309   0.001   1.443   0.147
 6470SOL    HW220310   0.146   1.427   0.072
 6471SOL     OW20311   0.713   6.125   5.434
 6471SOL    HW120312   0.689   6.199   5.497
 6471SOL    HW220313   0.661   6.043   5.457
 6472SOL     OW20314   6.762   6.554   2.977
 6472SOL    HW120315   6.779   6.631   3.039
 6472SOL    HW220316   6.755   6.587   2.883
 6473SOL     OW20317   2.564   1.126   3.528
 6473SOL    HW120318   2.465   1.125   3.519
 6473SOL    HW220319   2.604   1.181   3.455
 6474SOL     OW20320   4.033   5.310   4.757
 6474SOL    HW120321   4.067   5.391   4.709
 6474SOL    HW220322   4.004   5.335   4.849
 6475SOL     OW20323   5.991   5.688   2.250
 6475SOL    HW120324   5.968   5.691   2.153
 6475SOL    HW220325   5.984   5.779   2.290
 6476SOL     OW20326   3.768   2.398   6.573
 6476SOL    HW120327   3.789   2.470   6.639
 6476SOL    HW220328   3.795   2.310   6.611
 6477SOL     OW20329   0.054   5.816   2.215
 6477SOL    HW120330   0.031   5.719   2.224
 6477SOL    HW220331   6.999   5.872   2.228
 6478SOL     OW20332   2.870   5.879   1.425
 6478SOL    HW120333   2.847   5.875   1.522
 6478SOL    HW220334   2.856   5.972   1.391
 6479SOL     OW20335   3.995   6.255   3.173
 6479SOL    HW120336   3.906   6.275   3.129
 6479SOL    HW220337   3.983   6.185   3.243
 6480SOL     OW20338   3.900   1.179   6.742
 6480SOL    HW120339   3.881   1.254   6.678
 6480SOL    HW220340   3.961   1.212   6.814
 6481SOL     OW20341   3.887   2.881   1.612
 6481SOL    HW120342   3.962   2.905   1.674
 6481SOL    HW220343   3.805   2.933   1.636
 6482SOL     OW20344   5.444   3.735   6.273
 6482SOL    HW120345   5.514   3.708   6.339
 6482SOL    HW220346   5.435   3.663   6.203
 6483SOL     OW20347   2.043   6.429   5.260
 6483SOL    HW120348   1.964   6.462   5.209
 6483SOL    HW220349   2.113   6.500   5.263
 6484SOL     OW20350   2.767   0.801   3.387
 6484SOL    HW120351   2.672   0.811   3.418
 6484SOL    HW220352   2.771   0.730   3.316
 6485SOL     OW20353   2.279   5.765   5.114
 6485SOL    HW120354   2.335   5.803   5.188
 6485SOL    HW220355   2.302   5.811   5.028
 6486SOL     OW20356   1.112   4.997   2.860
 6486SOL    HW120357   1.044   4.925   2.866
 6486SOL    HW220358   1.072   5.077   2.815
 6487SOL     OW20359   5.845   4.437   4.182
 6487SOL    HW120360   5.788   4.445   4.100
 6487SOL    HW220361   5.884   4.527   4.204
 6488SOL     OW20362   3.687   5.274   4.828
 6488SOL    HW120363   3.743   5.318   4.758
 6488SOL    HW220364   3.658   5.184   4.796
 6489SOL     OW20365   4.968   2.467   5.015
 6489SOL    HW120366   5.062   2.478   4.983
 6489SOL    HW220367   4.906   2.467   4.936
 6490SOL     OW20368   2.204   2.108   0.008
 6490SOL    HW120369   2.236   2.105   6.940
 6490SOL    HW220370   2.147   2.189   0.021
 6491SOL     OW20371   2.545   6.595   1.907
 6491SOL    HW120372   2.520   6.600   1.810
 6491SOL    HW220373   2.558   6.687   1.943
 6492SOL     OW20374   4.031   3.281   5.095
 6492SOL    HW120375   3.952   3.342   5.106
 6492SOL    HW220376   4.059   3.281   5.000
 6493SOL     OW20377   1.339   4.735   4.231
 6493SOL    HW120378   1.365   4.653   4.180
 6493SOL    HW220379   1.268   4.712   4.298
 6494SOL     OW20380   6.225   0.294   1.215
 6494SOL    HW120381   6.263   0.347   1.139
 6494SOL    HW220382   6.264   0.202   1.214
 6495SOL     OW20383   6.311   0.669   3.078
 6495SOL    HW120384   6.246   0.646   3.151
 6495SOL    HW220385   6.385   0.602   3.078
 6496SOL     OW20386   3.628   2.206   1.250
 6496SOL    HW120387   3.598   2.150   1.173
 6496SOL    HW220388   3.611   2.157   1.336
 6497SOL     OW20389   0.552   1.177   0.683
 6497SOL    HW120390   0.602   1.260   0.658
 6497SOL    HW220391   0.480   1.200   0.749
 6498SOL     OW20392   1.665   4.274   3.784
 6498SOL    HW120393   1.754   4.236   3.757
 6498SOL    HW220394   1.651   4.259   3.882
 6499SOL     OW20395   4.755   2.870   3.274
 6499SOL    HW120396   4.757   2.966   3.304
 6499SOL    HW220397   4.747   2.866   3.175
 6500SOL     OW20398   1.478   4.424   3.255
 6500SOL    HW120399   1.549   4.411   3.324
 6500SOL    HW220400   1.502   4.502   3.197
 6501SOL     OW20401   6.014   1.661   2.411
 6501SOL    HW120402   6.052   1.643   2.502
 6501SOL    HW220403   6.082   1.636   2.342
 6502SOL     OW20404   0.058   3.839   2.243
 6502SOL    HW120405   7.003   3.806   2.195
 6502SOL    HW220406   0.062   3.797   2.334
 6503SOL     OW20407   6.819   3.531   5.948
 6503SOL    HW120408   6.786   3.606   6.004
 6503SOL    HW220409   6.748   3.461   5.940
 6504SOL     OW20410   4.189   6.489   6.114
 6504SOL    HW120411   4.245   6.539   6.048
 6504SOL    HW220412   4.246   6.422   6.162
 6505SOL     OW20413   0.148   5.605   0.832
 6505SOL    HW120414   0.114   5.517   0.864
 6505SOL    HW220415   0.074   5.672   0.831
 6506SOL     OW20416   0.704   3.702   2.436
 6506SOL    HW120417   0.773   3.765   2.398
 6506SOL    HW220418   0.727   3.608   2.411
 6507SOL     OW20419   4.020   5.193   0.334
 6507SOL    HW120420   3.986   5.153   0.249
 6507SOL    HW220421   4.051   5.286   0.316
 6508SOL     OW20422   0.602   0.224   3.097
 6508SOL    HW120423   0.576   0.144   3.043
 6508SOL    HW220424   0.675   0.199   3.160
 6509SOL     OW20425   2.592   1.634   6.722
 6509SOL    HW120426   2.506   1.589   6.746
 6509SOL    HW220427   2.627   1.594   6.637
 6510SOL     OW20428   3.086   6.340   5.636
 6510SOL    HW120429   3.133   6.317   5.551
 6510SOL    HW220430   3.126   6.423   5.675
 6511SOL     OW20431   3.397   1.816   0.682
 6511SOL    HW120432   3.476   1.876   0.693
 6511SOL    HW220433   3.371   1.813   0.586
 6512SOL     OW20434   3.886   1.496   0.207
 6512SOL    HW120435   3.861   1.440   0.285
 6512SOL    HW220436   3.838   1.464   0.126
 6513SOL     OW20437   2.966   4.829   3.061
 6513SOL    HW120438   3.034   4.786   3.120
 6513SOL    HW220439   3.012   4.874   2.984
 6514SOL     OW20440   5.103   6.808   5.248
 6514SOL    HW120441   5.007   6.836   5.244
 6514SOL    HW220442   5.109   6.715   5.284
 6515SOL     OW20443   1.196   4.606   2.626
 6515SOL    HW120444   1.101   4.616   2.656
 6515SOL    HW220445   1.198   4.580   2.530
 6516SOL     OW20446   6.393   3.249   1.704
 6516SOL    HW120447   6.479   3.278   1.664
 6516SOL    HW220448   6.319   3.262   1.638
 6517SOL     OW20449   0.287   3.665   0.737
 6517SOL    HW120450   0.316   3.577   0.774
 6517SOL    HW220451   0.345   3.737   0.773
 6518SOL     OW20452   0.617   1.538   2.244
 6518SOL    HW120453   0.658   1.449   2.261
 6518SOL    HW220454   0.564   1.535   2.159
 6519SOL     OW20455   1.252   1.411   3.201
 6519SOL    HW120456   1.230   1.508   3.187
 6519SOL    HW220457   1.286   1.397   3.294
 6520SOL     OW20458   0.131   5.343   0.439
 6520SOL    HW120459   0.046   5.386   0.472
 6520SOL    HW220460   0.148   5.373   0.345
 6521SOL     OW20461   1.631   3.826   4.169
 6521SOL    HW120462   1.608   3.841   4.073
 6521SOL    HW220463   1.560   3.770   4.212
 6522SOL     OW20464   2.671   2.886   5.357
 6522SOL    HW120465   2.625   2.939   5.285
 6522SOL    HW220466   2.745   2.941   5.396
 6523SOL     OW20467   6.139   6.925   0.316
 6523SOL    HW120468   6.147   6.861   0.240
 6523SOL    HW220469   6.092   6.880   0.392
 6524SOL     OW20470   2.901   2.770   0.714
 6524SOL    HW120471   2.895   2.674   0.742
 6524SOL    HW220472   2.988   2.809   0.745
 6525SOL     OW20473   1.023   4.496   3.536
 6525SOL    HW120474   1.019   4.512   3.438
 6525SOL    HW220475   1.012   4.582   3.585
 6526SOL     OW20476   0.724   5.696   0.674
 6526SOL    HW120477   0.694   5.736   0.587
 6526SOL    HW220478   0.769   5.609   0.657
 6527SOL     OW20479   6.505   1.723   0.279
 6527SOL    HW120480   6.470   1.629   0.282
 6527SOL    HW220481   6.430   1.786   0.257
 6528SOL     OW20482   4.181   6.845   6.597
 6528SOL    HW120483   4.209   6.820   6.505
 6528SOL    HW220484   4.244   6.915   6.633
 6529SOL     OW20485   5.950   0.575   2.366
 6529SOL    HW120486   5.866   0.541   2.324
 6529SOL    HW220487   6.028   0.526   2.330
 6530SOL     OW20488   0.475   2.344   3.060
 6530SOL    HW120489   0.565   2.352   3.103
 6530SOL    HW220490   0.404   2.338   3.130
 6531SOL     OW20491   3.764   4.057   4.975
 6531SOL    HW120492   3.779   4.063   4.876
 6531SOL    HW220493   3.667   4.068   4.995
 6532SOL     OW20494   1.325   7.021   0.140
 6532SOL    HW120495   1.311   6.932   0.098
 6532SOL    HW220496   1.396   0.045   0.090
 6533SOL     OW20497   5.119   4.495   1.449
 6533SOL    HW120498   5.150   4.474   1.357
 6533SOL    HW220499   5.041   4.437   1.472
 6534SOL     OW20500   6.961   4.252   3.147
 6534SOL    HW120501   6.865   4.274   3.161
 6534SOL    HW220502   6.971   4.157   3.116
 6535SOL     OW20503   4.957   2.949   4.967
 6535SOL    HW120504   4.881   2.943   5.032
 6535SOL    HW220505   5.008   3.033   4.983
 6536SOL     OW20506   0.865   4.534   5.153
 6536SOL    HW120507   0.803   4.521   5.076
 6536SOL    HW220508   0.957   4.504   5.127
 6537SOL     OW20509   6.317   5.625   3.992
 6537SOL    HW120510   6.402   5.603   4.041
 6537SOL    HW220511   6.302   5.557   3.921
 6538SOL     OW20512   1.805   2.603   5.430
 6538SOL    HW120513   1.828   2.507   5.444
 6538SOL    HW220514   1.888   2.656   5.413
 6539SOL     OW20515   5.202   0.416   6.270
 6539SOL    HW120516   5.275   0.437   6.205
 6539SOL    HW220517   5.113   0.437   6.228
 6540SOL     OW20518   6.473   2.876   5.639
 6540SOL    HW120519   6.449   2.956   5.585
 6540SOL    HW220520   6.572   2.864   5.640
 6541SOL     OW20521   5.965   1.739   5.568
 6541SOL    HW120522   6.049   1.717   5.619
 6541SOL    HW220523   5.986   1.745   5.470
 6542SOL     OW20524   1.282   4.243   3.271
 6542SOL    HW120525   1.305   4.154   3.231
 6542SOL    HW220526   1.362   4.303   3.267
 6543SOL     OW20527   3.567   1.527   4.448
 6543SOL    HW120528   3.602   1.481   4.366
 6543SOL    HW220529   3.473   1.498   4.465
 6544SOL     OW20530   1.022   6.449   0.963
 6544SOL    HW120531   1.004   6.444   1.061
 6544SOL    HW220532   0.939   6.425   0.913
 6545SOL     OW20533   4.774   6.613   0.935
 6545SOL    HW120534   4.684   6.571   0.921
 6545SOL    HW220535   4.764   6.712   0.940
 6546SOL     OW20536   4.583   4.051   6.181
 6546SOL    HW120537   4.597   4.093   6.271
 6546SOL    HW220538   4.630   3.962   6.179
 6547SOL     OW20539   0.546   5.840   6.253
 6547SOL    HW120540   0.557   5.842   6.154
 6547SOL    HW220541   0.624   5.793   6.294
 6548SOL     OW20542   6.946   1.628   5.718
 6548SOL    HW120543   6.978   1.544   5.675
 6548SOL    HW220544   6.857   1.653   5.681
 6549SOL     OW20545   4.332   1.643   2.381
 6549SOL    HW120546   4.410   1.700   2.352
 6549SOL    HW220547   4.331   1.636   2.480
 6550SOL     OW20548   6.359   6.279   3.133
 6550SOL    HW120549   6.456   6.267   3.111
 6550SOL    HW220550   6.304   6.243   3.058
 6551SOL     OW20551   3.062   4.172   0.822
 6551SOL    HW120552   3.060   4.264   0.782
 6551SOL    HW220553   2.991   4.165   0.892
 6552SOL     OW20554   1.963   5.312   0.340
 6552SOL    HW120555   1.868   5.344   0.347
 6552SOL    HW220556   2.024   5.391   0.337
 6553SOL     OW20557   1.130   1.149   3.418
 6553SOL    HW120558   1.040   1.176   3.452
 6553SOL    HW220559   1.120   1.073   3.354
 6554SOL     OW20560   1.416   2.046   3.940
 6554SOL    HW120561   1.464   1.961   3.921
 6554SOL    HW220562   1.440   2.078   4.032
 6555SOL     OW20563   6.394   3.687   3.773
 6555SOL    HW120564   6.393   3.705   3.872
 6555SOL    HW220565   6.301   3.670   3.741
 6556SOL     OW20566   5.051   3.153   2.318
 6556SOL    HW120567   5.035   3.194   2.407
 6556SOL    HW220568   5.150   3.149   2.300
 6557SOL     OW20569   1.978   0.552   2.056
 6557SOL    HW120570   2.074   0.534   2.075
 6557SOL    HW220571   1.939   0.608   2.129
 6558SOL     OW20572   5.546   6.317   6.390
 6558SOL    HW120573   5.579   6.286   6.301
 6558SOL    HW220574   5.561   6.416   6.398
 6559SOL     OW20575   6.930   2.754   6.419
 6559SOL    HW120576   6.873   2.679   6.389
 6559SOL    HW220577   6.984   2.726   6.498
 6560SOL     OW20578   5.254   4.539   0.283
 6560SOL    HW120579   5.161   4.559   0.254
 6560SOL    HW220580   5.305   4.625   0.293
 6561SOL     OW20581   3.581   4.653   6.760
 6561SOL    HW120582   3.554   4.576   6.703
 6561SOL    HW220583   3.678   4.675   6.744
 6562SOL     OW20584   5.391   2.282   1.467
 6562SOL    HW120585   5.371   2.248   1.559
 6562SOL    HW220586   5.477   2.333   1.468
 6563SOL     OW20587   5.911   5.078   5.265
 6563SOL    HW120588   5.900   4.979   5.263
 6563SOL    HW220589   5.924   5.108   5.360
 6564SOL     OW20590   6.116   3.344   2.991
 6564SOL    HW120591   6.069   3.384   3.071
 6564SOL    HW220592   6.066   3.367   2.908
 6565SOL     OW20593   5.478   0.222   2.940
 6565SOL    HW120594   5.559   0.192   2.888
 6565SOL    HW220595   5.408   0.254   2.876
 6566SOL     OW20596   4.743   5.723   3.097
 6566SOL    HW120597   4.657   5.687   3.134
 6566SOL    HW220598   4.726   5.761   3.006
 6567SOL     OW20599   3.921   0.606   1.229
 6567SOL    HW120600   3.876   0.689   1.194
 6567SOL    HW220601   3.880   0.526   1.186
 6568SOL     OW20602   4.340   1.884   0.694
 6568SOL    HW120603   4.414   1.942   0.727
 6568SOL    HW220604   4.275   1.940   0.642
 6569SOL     OW20605   0.766   4.880   4.631
 6569SOL    HW120606   0.834   4.922   4.571
 6569SOL    HW220607   0.805   4.799   4.675
 6570SOL     OW20608   4.243   0.168   1.920
 6570SOL    HW120609   4.330   0.137   1.957
 6570SOL    HW220610   4.234   0.135   1.826
 6571SOL     OW20611   3.566   5.043   2.739
 6571SOL    HW120612   3.483   4.989   2.750
 6571SOL    HW220613   3.621   5.005   2.664
 6572SOL     OW20614   1.225   5.668   3.985
 6572SOL    HW120615   1.277   5.658   3.900
 6572SOL    HW220616   1.245   5.757   4.026
 6573SOL     OW20617   1.573   1.683   3.012
 6573SOL    HW120618   1.523   1.597   3.018
 6573SOL    HW220619   1.661   1.669   2.968
 6574SOL     OW20620   1.617   5.121   2.669
 6574SOL    HW120621   1.590   5.107   2.574
 6574SOL    HW220622   1.541   5.161   2.720
 6575SOL     OW20623   0.089   1.388   3.217
 6575SOL    HW120624   0.120   1.406   3.310
 6575SOL    HW220625   0.164   1.348   3.164
 6576SOL     OW20626   4.957   5.769   0.975
 6576SOL    HW120627   4.993   5.818   0.896
 6576SOL    HW220628   4.924   5.679   0.946
 6577SOL     OW20629   3.191   1.105   3.772
 6577SOL    HW120630   3.243   1.168   3.714
 6577SOL    HW220631   3.123   1.157   3.823
 6578SOL     OW20632   1.176   4.702   1.292
 6578SOL    HW120633   1.247   4.748   1.345
 6578SOL    HW220634   1.117   4.649   1.354
 6579SOL     OW20635   6.702   1.031   4.085
 6579SOL    HW120636   6.742   0.940   4.095
 6579SOL    HW220637   6.774   1.100   4.092
 6580SOL     OW20638   2.446   2.088   0.133
 6580SOL    HW120639   2.476   2.155   0.201
 6580SOL    HW220640   2.356   2.114   0.098
 6581SOL     OW20641   0.680   1.735   1.072
 6581SOL    HW120642   0.590   1.740   1.116
 6581SOL    HW220643   0.681   1.795   0.992
 6582SOL     OW20644   6.503   1.495   2.997
 6582SOL    HW120645   6.532   1.405   2.964
 6582SOL    HW220646   6.458   1.484   3.086
 6583SOL     OW20647   3.776   5.232   6.831
 6583SOL    HW120648   3.838   5.220   6.754
 6583SOL    HW220649   3.828   5.264   6.911
 6584SOL     OW20650   4.426   2.531   0.058
 6584SOL    HW120651   4.395   2.462   7.019
 6584SOL    HW220652   4.376   2.521   0.144
 6585SOL     OW20653   5.838   6.530   1.570
 6585SOL    HW120654   5.746   6.528   1.532
 6585SOL    HW220655   5.904   6.501   1.500
 6586SOL     OW20656   0.372   1.082   0.020
 6586SOL    HW120657   0.365   1.044   0.111
 6586SOL    HW220658   0.342   1.178   0.021
 6587SOL     OW20659   1.897   4.546   5.396
 6587SOL    HW120660   1.881   4.468   5.455
 6587SOL    HW220661   1.994   4.549   5.370
 6588SOL     OW20662   6.803   2.752   0.740
 6588SOL    HW120663   6.775   2.692   0.814
 6588SOL    HW220664   6.890   2.796   0.764
 6589SOL     OW20665   6.391   0.245   2.310
 6589SOL    HW120666   6.372   0.153   2.342
 6589SOL    HW220667   6.323   0.272   2.241
 6590SOL     OW20668   1.437   6.537   3.964
 6590SOL    HW120669   1.416   6.576   4.054
 6590SOL    HW220670   1.432   6.437   3.970
 6591SOL     OW20671   5.970   4.172   3.652
 6591SOL    HW120672   5.934   4.213   3.736
 6591SOL    HW220673   6.023   4.090   3.675
 6592SOL     OW20674   6.109   6.910   3.212
 6592SOL    HW120675   6.196   6.908   3.162
 6592SOL    HW220676   6.063   6.822   3.201
 6593SOL     OW20677   2.359   1.528   2.073
 6593SOL    HW120678   2.404   1.440   2.059
 6593SOL    HW220679   2.384   1.591   2.000
 6594SOL     OW20680   5.270   0.319   6.502
 6594SOL    HW120681   5.327   0.237   6.515
 6594SOL    HW220682   5.241   0.323   6.406
 6595SOL     OW20683   0.859   2.177   5.209
 6595SOL    HW120684   0.795   2.118   5.258
 6595SOL    HW220685   0.883   2.135   5.122
 6596SOL     OW20686   5.546   0.060   2.589
 6596SOL    HW120687   5.583   7.012   2.644
 6596SOL    HW220688   5.447   0.067   2.604
 6597SOL     OW20689   1.125   4.179   2.306
 6597SOL    HW120690   1.098   4.187   2.401
 6597SOL    HW220691   1.143   4.083   2.284
 6598SOL     OW20692   1.469   4.498   4.149
 6598SOL    HW120693   1.442   4.477   4.055
 6598SOL    HW220694   1.561   4.462   4.166
 6599SOL     OW20695   6.689   5.620   6.159
 6599SOL    HW120696   6.770   5.567   6.132
 6599SOL    HW220697   6.607   5.569   6.135
 6600SOL     OW20698   4.369   0.508   5.124
 6600SOL    HW120699   4.429   0.569   5.073
 6600SOL    HW220700   4.336   0.555   5.206
 6601SOL     OW20701   1.690   2.427   1.356
 6601SOL    HW120702   1.654   2.495   1.292
 6601SOL    HW220703   1.621   2.407   1.425
 6602SOL     OW20704   0.978   5.738   1.860
 6602SOL    HW120705   0.910   5.669   1.837
 6602SOL    HW220706   1.040   5.751   1.782
 6603SOL     OW20707   0.275   3.589   2.906
 6603SOL    HW120708   0.317   3.506   2.945
 6603SOL    HW220709   0.346   3.653   2.879
 6604SOL     OW20710   1.860   6.317   3.219
 6604SOL    HW120711   1.927   6.248   3.246
 6604SOL    HW220712   1.808   6.346   3.299
 6605SOL     OW20713   0.321   5.790   0.937
 6605SOL    HW120714   0.267   5.713   0.902
 6605SOL    HW220715   0.271   5.875   0.922
 6606SOL     OW20716   1.673   3.061   2.919
 6606SOL    HW120717   1.716   2.994   2.980
 6606SOL    HW220718   1.599   3.108   2.968
 6607SOL     OW20719   6.011   3.823   3.495
 6607SOL    HW120720   5.926   3.775   3.474
 6607SOL    HW220721   6.021   3.831   3.595
 6608SOL     OW20722   1.212   5.732   5.957
 6608SOL    HW120723   1.230   5.781   6.043
 6608SOL    HW220724   1.132   5.773   5.913
 6609SOL     OW20725   4.893   1.460   6.245
 6609SOL    HW120726   4.867   1.557   6.239
 6609SOL    HW220727   4.993   1.453   6.249
 6610SOL     OW20728   2.988   5.452   0.780
 6610SOL    HW120729   2.929   5.519   0.825
 6610SOL    HW220730   2.968   5.452   0.682
 6611SOL     OW20731   3.515   1.809   4.467
 6611SOL    HW120732   3.569   1.742   4.416
 6611SOL    HW220733   3.422   1.811   4.431
 6612SOL     OW20734   1.036   0.534   6.187
 6612SOL    HW120735   0.985   0.621   6.187
 6612SOL    HW220736   1.072   0.517   6.279
 6613SOL     OW20737   4.705   6.892   0.664
 6613SOL    HW120738   4.802   6.899   0.637
 6613SOL    HW220739   4.698   6.882   0.763
 6614SOL     OW20740   4.522   5.454   0.962
 6614SOL    HW120741   4.430   5.430   0.933
 6614SOL    HW220742   4.521   5.545   1.003
 6615SOL     OW20743   3.763   5.010   5.935
 6615SOL    HW120744   3.693   4.961   5.987
 6615SOL    HW220745   3.763   5.107   5.961
 6616SOL     OW20746   3.709   1.299   6.339
 6616SOL    HW120747   3.746   1.207   6.327
 6616SOL    HW220748   3.629   1.311   6.280
 6617SOL     OW20749   3.574   0.255   4.231
 6617SOL    HW120750   3.636   0.198   4.176
 6617SOL    HW220751   3.561   0.343   4.185
 6618SOL     OW20752   6.232   2.790   4.140
 6618SOL    HW120753   6.140   2.750   4.143
 6618SOL    HW220754   6.226   2.882   4.100
 6619SOL     OW20755   4.338   6.035   3.988
 6619SOL    HW120756   4.315   6.007   3.895
 6619SOL    HW220757   4.368   6.131   3.987
 6620SOL     OW20758   0.681   3.074   3.286
 6620SOL    HW120759   0.754   3.058   3.219
 6620SOL    HW220760   0.711   3.043   3.376
 6621SOL     OW20761   3.951   3.178   4.527
 6621SOL    HW120762   3.867   3.194   4.475
 6621SOL    HW220763   4.022   3.144   4.466
 6622SOL     OW20764   0.784   5.448   0.956
 6622SOL    HW120765   0.792   5.440   0.856
 6622SOL    HW220766   0.691   5.422   0.984
 6623SOL     OW20767   3.192   4.011   5.227
 6623SOL    HW120768   3.214   3.918   5.196
 6623SOL    HW220769   3.093   4.023   5.228
 6624SOL     OW20770   2.262   1.500   3.462
 6624SOL    HW120771   2.276   1.594   3.430
 6624SOL    HW220772   2.270   1.437   3.385
 6625SOL     OW20773   5.768   3.906   5.944
 6625SOL    HW120774   5.791   3.820   5.899
 6625SOL    HW220775   5.790   3.982   5.882
 6626SOL     OW20776   2.999   6.018   5.114
 6626SOL    HW120777   2.998   6.108   5.069
 6626SOL    HW220778   3.079   5.967   5.085
 6627SOL     OW20779   1.956   6.272   4.592
 6627SOL    HW120780   1.943   6.181   4.631
 6627SOL    HW220781   2.019   6.266   4.514
 6628SOL     OW20782   3.644   5.997   4.633
 6628SOL    HW120783   3.555   5.979   4.591
 6628SOL    HW220784   3.716   5.961   4.574
 6629SOL     OW20785   4.815   6.120   6.215
 6629SOL    HW120786   4.844   6.150   6.306
 6629SOL    HW220787   4.895   6.101   6.159
 6630SOL     OW20788   1.820   0.819   0.512
 6630SOL    HW120789   1.739   0.865   0.548
 6630SOL    HW220790   1.812   0.720   0.528
 6631SOL     OW20791   1.576   3.749   5.967
 6631SOL    HW120792   1.523   3.674   6.006
 6631SOL    HW220793   1.671   3.743   5.997
 6632SOL     OW20794   1.727   0.210   0.433
 6632SOL    HW120795   1.801   0.149   0.405
 6632SOL    HW220796   1.682   0.247   0.351
 6633SOL     OW20797   3.733   5.890   5.872
 6633SOL    HW120798   3.808   5.948   5.839
 6633SOL    HW220799   3.767   5.826   5.940
 6634SOL     OW20800   3.819   1.503   3.879
 6634SOL    HW120801   3.744   1.505   3.813
 6634SOL    HW220802   3.845   1.596   3.903
 6635SOL     OW20803   5.099   4.930   4.375
 6635SOL    HW120804   5.107   5.019   4.330
 6635SOL    HW220805   5.039   4.871   4.321
 6636SOL     OW20806   4.138   0.862   0.013
 6636SOL    HW120807   4.182   0.780   7.004
 6636SOL    HW220808   4.060   0.836   0.069
 6637SOL     OW20809   1.249   1.831   1.218
 6637SOL    HW120810   1.342   1.843   1.182
 6637SOL    HW220811   1.225   1.910   1.273
 6638SOL     OW20812   3.047   3.650   4.325
 6638SOL    HW120813   3.058   3.736   4.375
 6638SOL    HW220814   3.126   3.635   4.266
 6639SOL     OW20815   4.849   2.703   1.051
 6639SOL    HW120816   4.823   2.642   1.127
 6639SOL    HW220817   4.799   2.789   1.060
 6640SOL     OW20818   1.920   3.501   4.764
 6640SOL    HW120819   1.848   3.433   4.776
 6640SOL    HW220820   1.958   3.495   4.672
 6641SOL     OW20821   4.900   1.838   1.365
 6641SOL    HW120822   4.906   1.751   1.416
 6641SOL    HW220823   4.918   1.820   1.268
 6642SOL     OW20824   1.444   5.781   0.056
 6642SOL    HW120825   1.396   5.702   0.017
 6642SOL    HW220826   1.404   5.805   0.144
 6643SOL     OW20827   3.930   5.777   6.559
 6643SOL    HW120828   3.945   5.849   6.491
 6643SOL    HW220829   3.983   5.696   6.534
 6644SOL     OW20830   2.009   6.897   3.500
 6644SOL    HW120831   1.959   6.975   3.537
 6644SOL    HW220832   2.062   6.854   3.573
 6645SOL     OW20833   5.812   2.261   0.380
 6645SOL    HW120834   5.853   2.286   0.468
 6645SOL    HW220835   5.838   2.168   0.356
 6646SOL     OW20836   4.431   6.705   5.668
 6646SOL    HW120837   4.458   6.628   5.726
 6646SOL    HW220838   4.359   6.675   5.605
 6647SOL     OW20839   4.271   5.409   0.858
 6647SOL    HW120840   4.183   5.407   0.906
 6647SOL    HW220841   4.259   5.367   0.768
 6648SOL     OW20842   3.176   6.570   5.764
 6648SOL    HW120843   3.233   6.632   5.710
 6648SOL    HW220844   3.113   6.623   5.820
 6649SOL     OW20845   5.627   3.095   6.682
 6649SOL    HW120846   5.639   3.192   6.700
 6649SOL    HW220847   5.611   3.081   6.584
 6650SOL     OW20848   2.130   1.525   5.111
 6650SOL    HW120849   2.174   1.488   5.193
 6650SOL    HW220850   2.032   1.505   5.113
 6651SOL     OW20851   6.594   1.988   6.465
 6651SOL    HW120852   6.497   1.979   6.487
 6651SOL    HW220853   6.613   1.940   6.380
 6652SOL     OW20854   6.836   4.392   0.425
 6652SOL    HW120855   6.742   4.360   0.427
 6652SOL    HW220856   6.897   4.318   0.454
 6653SOL     OW20857   5.589   4.931   0.235
 6653SOL    HW120858   5.498   4.894   0.255
 6653SOL    HW220859   5.630   4.878   0.160
 6654SOL     OW20860   6.674   4.207   3.153
 6654SOL    HW120861   6.647   4.303   3.139
 6654SOL    HW220862   6.592   4.152   3.170
 6655SOL     OW20863   0.317   4.968   2.131
 6655SOL    HW120864   0.290   4.921   2.215
 6655SOL    HW220865   0.253   5.043   2.113
 6656SOL     OW20866   4.567   1.422   3.230
 6656SOL    HW120867   4.568   1.469   3.142
 6656SOL    HW220868   4.579   1.488   3.303
 6657SOL     OW20869   5.482   2.339   3.628
 6657SOL    HW120870   5.576   2.306   3.620
 6657SOL    HW220871   5.480   2.438   3.612
 6658SOL     OW20872   6.625   5.879   5.299
 6658SOL    HW120873   6.568   5.817   5.353
 6658SOL    HW220874   6.577   5.965   5.284
 6659SOL     OW20875   0.865   5.055   1.918
 6659SOL    HW120876   0.903   4.970   1.954
 6659SOL    HW220877   0.805   5.035   1.841
 6660SOL     OW20878   6.588   6.403   4.249
 6660SOL    HW120879   6.583   6.452   4.163
 6660SOL    HW220880   6.496   6.385   4.283
 6661SOL     OW20881   3.790   5.596   4.009
 6661SOL    HW120882   3.841   5.683   4.009
 6661SOL    HW220883   3.698   5.612   3.973
 6662SOL     OW20884   4.190   6.480   2.023
 6662SOL    HW120885   4.109   6.500   2.079
 6662SOL    HW220886   4.170   6.402   1.964
 6663SOL     OW20887   1.016   3.723   5.999
 6663SOL    HW120888   1.045   3.724   5.903
 6663SOL    HW220889   0.918   3.740   6.004
 6664SOL     OW20890   2.885   0.165   0.838
 6664SOL    HW120891   2.956   0.160   0.768
 6664SOL    HW220892   2.821   0.090   0.827
 6665SOL     OW20893   2.367   0.905   6.149
 6665SOL    HW120894   2.275   0.896   6.111
 6665SOL    HW220895   2.410   0.988   6.113
 6666SOL     OW20896   3.919   6.512   5.634
 6666SOL    HW120897   3.840   6.462   5.598
 6666SOL    HW220898   3.914   6.608   5.606
 6667SOL     OW20899   0.581   6.359   6.712
 6667SOL    HW120900   0.577   6.259   6.705
 6667SOL    HW220901   0.512   6.391   6.777
 6668SOL     OW20902   6.998   4.590   0.540
 6668SOL    HW120903   6.927   4.545   0.486
 6668SOL    HW220904   0.002   4.673   0.492
 6669SOL     OW20905   1.427   1.425   2.990
 6669SOL    HW120906   1.477   1.339   2.993
 6669SOL    HW220907   1.336   1.414   3.029
 6670SOL     OW20908   4.202   2.154   0.896
 6670SOL    HW120909   4.133   2.101   0.848
 6670SOL    HW220910   4.170   2.175   0.988
 6671SOL     OW20911   4.840   5.397   0.401
 6671SOL    HW120912   4.873   5.317   0.451
 6671SOL    HW220913   4.848   5.380   0.303
 6672SOL     OW20914   1.866   2.775   1.366
 6672SOL    HW120915   1.947   2.788   1.423
 6672SOL    HW220916   1.864   2.845   1.295
 6673SOL     OW20917   6.169   3.526   3.838
 6673SOL    HW120918   6.145   3.511   3.934
 6673SOL    HW220919   6.193   3.438   3.796
 6674SOL     OW20920   0.675   1.404   0.659
 6674SOL    HW120921   0.628   1.490   0.640
 6674SOL    HW220922   0.766   1.424   0.694
 6675SOL     OW20923   5.156   1.447   6.283
 6675SOL    HW120924   5.222   1.459   6.210
 6675SOL    HW220925   5.121   1.537   6.311
 6676SOL     OW20926   1.334   4.043   4.183
 6676SOL    HW120927   1.301   4.001   4.099
 6676SOL    HW220928   1.337   3.975   4.256
 6677SOL     OW20929   0.767   1.666   0.168
 6677SOL    HW120930   0.849   1.635   0.120
 6677SOL    HW220931   0.756   1.615   0.253
 6678SOL     OW20932   2.140   4.281   6.603
 6678SOL    HW120933   2.121   4.211   6.534
 6678SOL    HW220934   2.236   4.277   6.630
 6679SOL     OW20935   1.704   1.130   3.887
 6679SOL    HW120936   1.800   1.116   3.914
 6679SOL    HW220937   1.646   1.065   3.936
 6680SOL     OW20938   5.855   6.599   1.277
 6680SOL    HW120939   5.908   6.670   1.323
 6680SOL    HW220940   5.904   6.512   1.281
 6681SOL     OW20941   3.512   5.957   1.841
 6681SOL    HW120942   3.510   6.007   1.754
 6681SOL    HW220943   3.570   6.006   1.906
 6682SOL     OW20944   3.428   5.246   5.751
 6682SOL    HW120945   3.352   5.310   5.743
 6682SOL    HW220946   3.413   5.188   5.832
 6683SOL     OW20947   6.766   4.232   6.354
 6683SOL    HW120948   6.678   4.189   6.370
 6683SOL    HW220949   6.830   4.207   6.427
 6684SOL     OW20950   3.103   5.886   0.257
 6684SOL    HW120951   3.035   5.813   0.247
 6684SOL    HW220952   3.101   5.922   0.350
 6685SOL     OW20953   5.273   3.022   6.965
 6685SOL    HW120954   5.243   3.105   6.917
 6685SOL    HW220955   5.205   2.950   6.950
 6686SOL     OW20956   4.950   5.258   4.537
 6686SOL    HW120957   5.002   5.174   4.522
 6686SOL    HW220958   4.872   5.260   4.475
 6687SOL     OW20959   6.376   2.004   1.957
 6687SOL    HW120960   6.446   1.936   1.978
 6687SOL    HW220961   6.343   2.045   2.042
 6688SOL     OW20962   4.646   4.906   0.586
 6688SOL    HW120963   4.683   4.994   0.556
 6688SOL    HW220964   4.687   4.879   0.673
 6689SOL     OW20965   1.988   4.561   5.767
 6689SOL    HW120966   2.069   4.535   5.820
 6689SOL    HW220967   2.008   4.645   5.715
 6690SOL     OW20968   0.669   6.893   5.744
 6690SOL    HW120969   0.592   6.867   5.686
 6690SOL    HW220970   0.696   6.987   5.723
 6691SOL     OW20971   2.591   2.438   2.671
 6691SOL    HW120972   2.596   2.416   2.574
 6691SOL    HW220973   2.684   2.450   2.707
 6692SOL     OW20974   4.503   5.022   2.140
 6692SOL    HW120975   4.551   4.948   2.094
 6692SOL    HW220976   4.441   5.066   2.075
 6693SOL     OW20977   4.071   1.762   4.781
 6693SOL    HW120978   4.050   1.702   4.703
 6693SOL    HW220979   3.987   1.786   4.829
 6694SOL     OW20980   3.465   4.226   1.864
 6694SOL    HW120981   3.369   4.239   1.838
 6694SOL    HW220982   3.515   4.312   1.854
 6695SOL     OW20983   2.035   2.283   6.752
 6695SOL    HW120984   2.124   2.288   6.797
 6695SOL    HW220985   2.042   2.315   6.658
 6696SOL     OW20986   4.146   3.345   4.305
 6696SOL    HW120987   4.141   3.438   4.267
 6696SOL    HW220988   4.229   3.301   4.271
 6697SOL     OW20989   3.840   2.169   3.012
 6697SOL    HW120990   3.820   2.188   2.915
 6697SOL    HW220991   3.938   2.161   3.024
 6698SOL     OW20992   3.300   3.959   1.516
 6698SOL    HW120993   3.382   3.982   1.569
 6698SOL    HW220994   3.280   4.032   1.451
 6699SOL     OW20995   1.146   4.406   5.599
 6699SOL    HW120996   1.206   4.473   5.644
 6699SOL    HW220997   1.158   4.317   5.642
 6700SOL     OW20998   5.858   6.906   6.867
 6700SOL    HW120999   5.857   6.939   6.961
 6700SOL    HW221000   5.775   6.852   6.850
 6701SOL     OW21001   6.028   0.701   1.409
 6701SOL    HW121002   5.938   0.663   1.431
 6701SOL    HW221003   6.050   0.681   1.313
 6702SOL     OW21004   3.024   2.546   1.497
 6702SOL    HW121005   2.965   2.484   1.548
 6702SOL    HW221006   3.120   2.517   1.508
 6703SOL     OW21007   0.137   1.100   0.261
 6703SOL    HW121008   0.226   1.073   0.297
 6703SOL    HW221009   0.084   1.019   0.236
 6704SOL     OW21010   2.956   0.231   6.291
 6704SOL    HW121011   2.929   0.243   6.386
 6704SOL    HW221012   2.878   0.198   6.238
 6705SOL     OW21013   6.509   4.025   2.502
 6705SOL    HW121014   6.478   4.001   2.410
 6705SOL    HW221015   6.592   4.081   2.496
 6706SOL     OW21016   0.214   6.712   1.596
 6706SOL    HW121017   0.279   6.741   1.666
 6706SOL    HW221018   0.257   6.641   1.539
 6707SOL     OW21019   5.186   0.657   2.373
 6707SOL    HW121020   5.163   0.623   2.464
 6707SOL    HW221021   5.168   0.586   2.305
 6708SOL     OW21022   0.796   4.255   1.336
 6708SOL    HW121023   0.826   4.213   1.421
 6708SOL    HW221024   0.875   4.273   1.278
 6709SOL     OW21025   1.972   4.096   2.285
 6709SOL    HW121026   2.021   4.031   2.342
 6709SOL    HW221027   2.025   4.113   2.202
 6710SOL     OW21028   4.624   1.195   0.638
 6710SOL    HW121029   4.676   1.117   0.673
 6710SOL    HW221030   4.631   1.271   0.703
 6711SOL     OW21031   3.418   6.053   6.530
 6711SOL    HW121032   3.434   6.115   6.453
 6711SOL    HW221033   3.462   6.089   6.612
 6712SOL     OW21034   5.795   3.455   2.014
 6712SOL    HW121035   5.882   3.405   2.015
 6712SOL    HW221036   5.764   3.467   1.920
 6713SOL     OW21037   1.723   5.341   4.914
 6713SOL    HW121038   1.804   5.370   4.863
 6713SOL    HW221039   1.641   5.382   4.873
 6714SOL     OW21040   4.699   1.561   1.235
 6714SOL    HW121041   4.655   1.475   1.209
 6714SOL    HW221042   4.759   1.592   1.161
 6715SOL     OW21043   1.049   0.426   0.085
 6715SOL    HW121044   1.055   0.431   0.185
 6715SOL    HW221045   1.134   0.460   0.045
 6716SOL     OW21046   0.200   5.659   3.028
 6716SOL    HW121047   0.196   5.738   3.088
 6716SOL    HW221048   0.110   5.614   3.025
 6717SOL     OW21049   5.588   2.214   5.223
 6717SOL    HW121050   5.631   2.302   5.207
 6717SOL    HW221051   5.519   2.197   5.152
 6718SOL     OW21052   3.970   1.185   1.494
 6718SOL    HW121053   4.031   1.229   1.428
 6718SOL    HW221054   4.022   1.123   1.552
 6719SOL     OW21055   1.967   1.085   0.401
 6719SOL    HW121056   1.927   1.020   0.336
 6719SOL    HW221057   1.964   1.048   0.493
 6720SOL     OW21058   2.140   0.513   6.340
 6720SOL    HW121059   2.161   0.584   6.407
 6720SOL    HW221060   2.159   0.423   6.380
 6721SOL     OW21061   6.227   1.436   0.410
 6721SOL    HW121062   6.141   1.449   0.362
 6721SOL    HW221063   6.232   1.500   0.487
 6722SOL     OW21064   5.892   3.514   0.003
 6722SOL    HW121065   5.968   3.450   0.011
 6722SOL    HW221066   5.810   3.474   0.045
 6723SOL     OW21067   0.997   2.279   5.893
 6723SOL    HW121068   1.057   2.331   5.833
 6723SOL    HW221069   1.037   2.189   5.911
 6724SOL     OW21070   1.903   3.866   5.126
 6724SOL    HW121071   1.884   3.820   5.040
 6724SOL    HW221072   1.991   3.834   5.162
 6725SOL     OW21073   4.944   2.810   3.563
 6725SOL    HW121074   5.006   2.769   3.497
 6725SOL    HW221075   4.949   2.910   3.556
 6726SOL     OW21076   0.472   1.006   5.736
 6726SOL    HW121077   0.393   0.964   5.690
 6726SOL    HW221078   0.458   1.105   5.742
 6727SOL     OW21079   1.006   4.732   5.356
 6727SOL    HW121080   1.050   4.727   5.446
 6727SOL    HW221081   0.975   4.640   5.330
 6728SOL     OW21082   3.088   2.129   3.570
 6728SOL    HW121083   3.168   2.100   3.518
 6728SOL    HW221084   3.056   2.053   3.627
 6729SOL     OW21085   4.504   1.165   2.222
 6729SOL    HW121086   4.463   1.074   2.215
 6729SOL    HW221087   4.432   1.234   2.226
 6730SOL     OW21088   0.568   1.223   1.646
 6730SOL    HW121089   0.551   1.192   1.552
 6730SOL    HW221090   0.602   1.146   1.700
 6731SOL     OW21091   3.909   6.925   6.534
 6731SOL    HW121092   3.999   6.886   6.554
 6731SOL    HW221093   3.840   6.852   6.533
 6732SOL     OW21094   0.179   5.743   4.396
 6732SOL    HW121095   0.279   5.733   4.401
 6732SOL    HW221096   0.136   5.683   4.463
 6733SOL     OW21097   4.912   4.925   6.319
 6733SOL    HW121098   4.845   4.999   6.327
 6733SOL    HW221099   4.966   4.938   6.236
 6734SOL     OW21100   6.650   1.422   4.232
 6734SOL    HW121101   6.572   1.368   4.265
 6734SOL    HW221102   6.724   1.419   4.299
 6735SOL     OW21103   6.441   2.987   3.351
 6735SOL    HW121104   6.411   2.978   3.446
 6735SOL    HW221105   6.364   3.018   3.295
 6736SOL     OW21106   3.518   3.701   0.746
 6736SOL    HW121107   3.593   3.699   0.812
 6736SOL    HW221108   3.547   3.749   0.664
 6737SOL     OW21109   0.294   3.637   0.472
 6737SOL    HW121110   0.326   3.723   0.433
 6737SOL    HW221111   0.275   3.650   0.570
 6738SOL     OW21112   1.194   5.398   3.627
 6738SOL    HW121113   1.248   5.349   3.695
 6738SOL    HW221114   1.205   5.356   3.537
 6739SOL     OW21115   6.262   0.020   4.867
 6739SOL    HW121116   6.268   6.958   4.820
 6739SOL    HW221117   6.166   0.046   4.876
 6740SOL     OW21118   0.507   6.959   3.881
 6740SOL    HW121119   0.430   6.959   3.944
 6740SOL    HW221120   0.476   6.986   3.790
 6741SOL     OW21121   4.385   1.803   6.516
 6741SOL    HW121122   4.420   1.784   6.607
 6741SOL    HW221123   4.301   1.856   6.522
 6742SOL     OW21124   5.643   4.984   3.620
 6742SOL    HW121125   5.607   4.929   3.544
 6742SOL    HW221126   5.648   5.080   3.592
 6743SOL     OW21127   4.194   4.272   0.613
 6743SOL    HW121128   4.137   4.220   0.676
 6743SOL    HW221129   4.162   4.367   0.609
 6744SOL     OW21130   0.300   6.188   6.273
 6744SOL    HW121131   0.348   6.260   6.222
 6744SOL    HW221132   0.204   6.214   6.284
 6745SOL     OW21133   7.016   4.861   5.081
 6745SOL    HW121134   6.986   4.821   5.168
 6745SOL    HW221135   0.038   4.792   5.027
 6746SOL     OW21136   1.392   2.309   2.288
 6746SOL    HW121137   1.294   2.291   2.282
 6746SOL    HW221138   1.415   2.342   2.380
 6747SOL     OW21139   1.869   6.412   6.032
 6747SOL    HW121140   1.888   6.462   5.947
 6747SOL    HW221141   1.863   6.314   6.012
 6748SOL     OW21142   1.882   0.963   4.784
 6748SOL    HW121143   1.912   0.881   4.734
 6748SOL    HW221144   1.794   0.994   4.748
 6749SOL     OW21145   3.663   5.055   1.377
 6749SOL    HW121146   3.582   5.113   1.378
 6749SOL    HW221147   3.636   4.959   1.382
 6750SOL     OW21148   3.356   1.264   5.056
 6750SOL    HW121149   3.323   1.349   5.098
 6750SOL    HW221150   3.327   1.186   5.111
 6751SOL     OW21151   4.423   0.113   4.088
 6751SOL    HW121152   4.408   0.039   4.153
 6751SOL    HW221153   4.403   0.081   3.995
 6752SOL     OW21154   2.084   5.504   2.454
 6752SOL    HW121155   2.021   5.580   2.435
 6752SOL    HW221156   2.036   5.435   2.507
 6753SOL     OW21157   3.845   3.229   5.695
 6753SOL    HW121158   3.759   3.210   5.648
 6753SOL    HW221159   3.917   3.171   5.658
 6754SOL     OW21160   6.238   2.141   1.138
 6754SOL    HW121161   6.303   2.207   1.174
 6754SOL    HW221162   6.281   2.089   1.063
 6755SOL     OW21163   2.578   5.633   6.272
 6755SOL    HW121164   2.518   5.624   6.351
 6755SOL    HW221165   2.673   5.630   6.302
 6756SOL     OW21166   2.754   2.223   5.464
 6756SOL    HW121167   2.806   2.285   5.406
 6756SOL    HW221168   2.662   2.261   5.480
 6757SOL     OW21169   3.647   6.847   0.420
 6757SOL    HW121170   3.634   6.927   0.479
 6757SOL    HW221171   3.669   6.876   0.327
 6758SOL     OW21172   5.897   2.116   2.739
 6758SOL    HW121173   5.857   2.085   2.652
 6758SOL    HW221174   5.879   2.048   2.810
 6759SOL     OW21175   0.946   2.710   2.814
 6759SOL    HW121176   0.947   2.721   2.714
 6759SOL    HW221177   0.940   2.612   2.836
 6760SOL     OW21178   5.431   2.391   2.957
 6760SOL    HW121179   5.404   2.411   2.862
 6760SOL    HW221180   5.401   2.466   3.016
 6761SOL     OW21181   4.089   2.157   4.710
 6761SOL    HW121182   4.085   2.177   4.612
 6761SOL    HW221183   4.015   2.206   4.756
 6762SOL     OW21184   6.838   5.982   4.115
 6762SOL    HW121185   6.903   5.909   4.136
 6762SOL    HW221186   6.773   5.991   4.190
 6763SOL     OW21187   5.108   5.247   5.108
 6763SOL    HW121188   5.118   5.253   5.208
 6763SOL    HW221189   5.191   5.207   5.069
 6764SOL     OW21190   1.806   5.137   1.108
 6764SOL    HW121191   1.763   5.220   1.145
 6764SOL    HW221192   1.839   5.080   1.183
 6765SOL     OW21193   6.811   5.285   2.632
 6765SOL    HW121194   6.842   5.216   2.567
 6765SOL    HW221195   6.880   5.296   2.704
 6766SOL     OW21196   5.958   0.543   0.646
 6766SOL    HW121197   6.008   0.620   0.608
 6766SOL    HW221198   5.937   0.477   0.573
 6767SOL     OW21199   3.077   0.122   0.451
 6767SOL    HW121200   3.081   0.034   0.500
 6767SOL    HW221201   3.139   0.187   0.495
 6768SOL     OW21202   1.572   0.589   0.943
 6768SOL    HW121203   1.579   0.544   0.854
 6768SOL    HW221204   1.477   0.587   0.973
 6769SOL     OW21205   4.335   2.686   1.569
 6769SOL    HW121206   4.405   2.703   1.639
 6769SOL    HW221207   4.280   2.769   1.556
 6770SOL     OW21208   0.016   0.383   1.581
 6770SOL    HW121209   0.061   0.388   1.491
 6770SOL    HW221210   0.009   0.287   1.608
 6771SOL     OW21211   4.000   2.153   3.394
 6771SOL    HW121212   4.036   2.166   3.486
 6771SOL    HW221213   4.072   2.172   3.327
 6772SOL     OW21214   2.910   1.759   2.453
 6772SOL    HW121215   2.821   1.787   2.416
 6772SOL    HW221216   2.951   1.692   2.392
 6773SOL     OW21217   0.109   4.246   2.543
 6773SOL    HW121218   0.116   4.203   2.453
 6773SOL    HW221219   0.198   4.241   2.590
 6774SOL     OW21220   0.913   1.867   6.873
 6774SOL    HW121221   0.922   1.777   6.831
 6774SOL    HW221222   0.911   1.937   6.802
 6775SOL     OW21223   2.466   4.865   0.817
 6775SOL    HW121224   2.388   4.903   0.867
 6775SOL    HW221225   2.545   4.925   0.828
 6776SOL     OW21226   6.096   4.980   6.978
 6776SOL    HW121227   6.124   4.884   6.972
 6776SOL    HW221228   6.040   4.994   0.033
 6777SOL     OW21229   4.463   4.755   6.720
 6777SOL    HW121230   4.503   4.664   6.708
 6777SOL    HW221231   4.383   4.764   6.661
 6778SOL     OW21232   0.731   5.649   3.013
 6778SOL    HW121233   0.670   5.605   3.079
 6778SOL    HW221234   0.822   5.608   3.020
 6779SOL     OW21235   0.075   5.036   0.340
 6779SOL    HW121236   0.006   5.075   0.279
 6779SOL    HW221237   0.162   5.026   0.291
 6780SOL     OW21238   0.311   1.989   2.056
 6780SOL    HW121239   0.285   2.004   2.152
 6780SOL    HW221240   0.336   2.077   2.014
 6781SOL     OW21241   5.408   5.834   5.696
 6781SOL    HW121242   5.310   5.851   5.705
 6781SOL    HW221243   5.444   5.801   5.784
 6782SOL     OW21244   6.437   1.680   2.787
 6782SOL    HW121245   6.415   1.771   2.823
 6782SOL    HW221246   6.451   1.617   2.863
 6783SOL     OW21247   0.054   6.294   6.623
 6783SOL    HW121248   0.002   6.210   6.636
 6783SOL    HW221249   7.020   6.373   6.633
 6784SOL     OW21250   3.198   3.379   0.752
 6784SOL    HW121251   3.228   3.466   0.714
 6784SOL    HW221252   3.176   3.390   0.848
 6785SOL     OW21253   5.577   6.250   2.128
 6785SOL    HW121254   5.506   6.306   2.170
 6785SOL    HW221255   5.639   6.217   2.199
 6786SOL     OW21256   1.819   2.521   5.886
 6786SOL    HW121257   1.807   2.619   5.871
 6786SOL    HW221258   1.902   2.491   5.839
 6787SOL     OW21259   1.611   3.507   2.440
 6787SOL    HW121260   1.698   3.499   2.392
 6787SOL    HW221261   1.626   3.552   2.529
 6788SOL     OW21262   3.275   3.919   1.130
 6788SOL    HW121263   3.301   3.856   1.203
 6788SOL    HW221264   3.284   3.872   1.042
 6789SOL     OW21265   0.660   6.584   2.479
 6789SOL    HW121266   0.711   6.550   2.559
 6789SOL    HW221267   0.689   6.534   2.398
 6790SOL     OW21268   2.286   2.983   6.819
 6790SOL    HW121269   2.368   3.030   6.786
 6790SOL    HW221270   2.206   3.038   6.795
 6791SOL     OW21271   4.276   3.007   6.365
 6791SOL    HW121272   4.360   3.006   6.310
 6791SOL    HW221273   4.273   2.925   6.422
 6792SOL     OW21274   6.301   6.272   0.427
 6792SOL    HW121275   6.263   6.295   0.337
 6792SOL    HW221276   6.376   6.206   0.415
 6793SOL     OW21277   0.926   3.031   1.396
 6793SOL    HW121278   0.827   3.015   1.391
 6793SOL    HW221279   0.973   2.946   1.417
 6794SOL     OW21280   5.217   0.928   5.190
 6794SOL    HW121281   5.194   0.947   5.094
 6794SOL    HW221282   5.267   1.006   5.228
 6795SOL     OW21283   2.987   5.945   0.513
 6795SOL    HW121284   2.975   6.009   0.590
 6795SOL    HW221285   2.943   5.858   0.535
 6796SOL     OW21286   4.610   1.525   2.992
 6796SOL    HW121287   4.676   1.480   2.932
 6796SOL    HW221288   4.627   1.623   2.994
 6797SOL     OW21289   5.733   3.265   2.254
 6797SOL    HW121290   5.778   3.316   2.181
 6797SOL    HW221291   5.691   3.328   2.319
 6798SOL     OW21292   5.102   5.767   2.903
 6798SOL    HW121293   5.058   5.857   2.899
 6798SOL    HW221294   5.193   5.773   2.863
 6799SOL     OW21295   5.359   5.884   0.267
 6799SOL    HW121296   5.292   5.892   0.340
 6799SOL    HW221297   5.426   5.958   0.275
 6800SOL     OW21298   1.797   4.891   0.231
 6800SOL    HW121299   1.771   4.963   0.295
 6800SOL    HW221300   1.773   4.802   0.270
 6801SOL     OW21301   1.512   2.501   2.111
 6801SOL    HW121302   1.480   2.486   2.018
 6801SOL    HW221303   1.484   2.424   2.169
 6802SOL     OW21304   2.398   6.221   1.655
 6802SOL    HW121305   2.304   6.233   1.621
 6802SOL    HW221306   2.461   6.218   1.577
 6803SOL     OW21307   5.097   1.866   6.841
 6803SOL    HW121308   5.096   1.773   6.880
 6803SOL    HW221309   5.085   1.932   6.915
 6804SOL     OW21310   1.611   5.976   3.588
 6804SOL    HW121311   1.670   6.050   3.619
 6804SOL    HW221312   1.573   5.997   3.498
 6805SOL     OW21313   6.051   0.474   4.833
 6805SOL    HW121314   6.081   0.471   4.738
 6805SOL    HW221315   5.958   0.436   4.840
 6806SOL     OW21316   4.410   0.958   5.259
 6806SOL    HW121317   4.323   0.960   5.308
 6806SOL    HW221318   4.471   1.027   5.297
 6807SOL     OW21319   3.099   2.970   0.180
 6807SOL    HW121320   3.177   2.989   0.239
 6807SOL    HW221321   3.014   2.990   0.229
 6808SOL     OW21322   0.678   2.705   5.924
 6808SOL    HW121323   0.607   2.685   5.857
 6808SOL    HW221324   0.690   2.627   5.986
 6809SOL     OW21325   2.398   3.874   6.901
 6809SOL    HW121326   2.451   3.927   6.967
 6809SOL    HW221327   2.352   3.936   6.838
 6810SOL     OW21328   6.739   0.862   2.265
 6810SOL    HW121329   6.699   0.886   2.176
 6810SOL    HW221330   6.807   0.932   2.290
 6811SOL     OW21331   6.078   4.633   1.252
 6811SOL    HW121332   6.047   4.661   1.161
 6811SOL    HW221333   6.020   4.676   1.322
 6812SOL     OW21334   3.561   3.239   3.167
 6812SOL    HW121335   3.498   3.234   3.090
 6812SOL    HW221336   3.576   3.335   3.193
 6813SOL     OW21337   4.443   2.879   0.827
 6813SOL    HW121338   4.480   2.970   0.846
 6813SOL    HW221339   4.457   2.820   0.907
 6814SOL     OW21340   2.582   3.874   0.868
 6814SOL    HW121341   2.525   3.940   0.918
 6814SOL    HW221342   2.527   3.795   0.842
 6815SOL     OW21343   2.311   0.583   1.331
 6815SOL    HW121344   2.345   0.669   1.292
 6815SOL    HW221345   2.237   0.602   1.395
 6816SOL     OW21346   6.703   4.672   0.035
 6816SOL    HW121347   6.621   4.718   0.067
 6816SOL    HW221348   6.722   4.698   6.967
 6817SOL     OW21349   0.092   1.846   5.685
 6817SOL    HW121350   0.131   1.839   5.777
 6817SOL    HW221351   0.028   1.771   5.670
 6818SOL     OW21352   3.849   6.214   2.691
 6818SOL    HW121353   3.939   6.178   2.713
 6818SOL    HW221354   3.848   6.246   2.596
 6819SOL     OW21355   3.653   0.981   3.931
 6819SOL    HW121356   3.708   1.023   4.003
 6819SOL    HW221357   3.642   0.884   3.950
 6820SOL     OW21358   1.041   4.161   3.159
 6820SOL    HW121359   0.976   4.222   3.203
 6820SOL    HW221360   1.132   4.176   3.197
 6821SOL     OW21361   2.329   2.281   4.567
 6821SOL    HW121362   2.268   2.283   4.646
 6821SOL    HW221363   2.408   2.340   4.585
 6822SOL     OW21364   5.920   2.136   5.916
 6822SOL    HW121365   6.006   2.183   5.898
 6822SOL    HW221366   5.873   2.118   5.830
 6823SOL     OW21367   3.019   3.177   3.056
 6823SOL    HW121368   3.037   3.124   2.974
 6823SOL    HW221369   2.963   3.257   3.034
 6824SOL     OW21370   0.929   4.222   6.570
 6824SOL    HW121371   0.901   4.175   6.654
 6824SOL    HW221372   0.926   4.158   6.493
 6825SOL     OW21373   4.951   0.022   2.040
 6825SOL    HW121374   4.998   0.053   2.123
 6825SOL    HW221375   4.933   6.950   2.047
 6826SOL     OW21376   1.734   3.393   2.797
 6826SOL    HW121377   1.773   3.341   2.874
 6826SOL    HW221378   1.804   3.451   2.758
 6827SOL     OW21379   5.499   5.624   6.206
 6827SOL    HW121380   5.597   5.609   6.192
 6827SOL    HW221381   5.485   5.690   6.279
 6828SOL     OW21382   1.206   2.668   1.252
 6828SOL    HW121383   1.198   2.593   1.187
 6828SOL    HW221384   1.278   2.648   1.318
 6829SOL     OW21385   5.090   6.136   3.665
 6829SOL    HW121386   5.065   6.121   3.569
 6829SOL    HW221387   5.041   6.072   3.723
 6830SOL     OW21388   5.411   1.832   3.557
 6830SOL    HW121389   5.378   1.926   3.565
 6830SOL    HW221390   5.451   1.803   3.644
 6831SOL     OW21391   0.508   0.491   5.610
 6831SOL    HW121392   0.514   0.392   5.597
 6831SOL    HW221393   0.530   0.537   5.524
 6832SOL     OW21394   3.287   5.078   2.118
 6832SOL    HW121395   3.219   5.014   2.154
 6832SOL    HW221396   3.248   5.170   2.115
 6833SOL     OW21397   3.939   4.783   0.470
 6833SOL    HW121398   3.948   4.683   0.467
 6833SOL    HW221399   3.893   4.810   0.554
 6834SOL     OW21400   4.062   6.367   1.721
 6834SOL    HW121401   4.092   6.297   1.786
 6834SOL    HW221402   3.964   6.357   1.705
 6835SOL     OW21403   3.882   6.942   4.733
 6835SOL    HW121404   3.831   6.910   4.654
 6835SOL    HW221405   3.837   7.022   4.772
 6836SOL     OW21406   3.681   6.652   6.959
 6836SOL    HW121407   3.601   6.633   7.016
 6836SOL    HW221408   3.668   6.739   6.911
 6837SOL     OW21409   1.704   3.361   1.996
 6837SOL    HW121410   1.660   3.339   1.909
 6837SOL    HW221411   1.792   3.406   1.978
 6838SOL     OW21412   2.255   1.209   0.004
 6838SOL    HW121413   2.166   1.246   0.031
 6838SOL    HW221414   2.307   1.184   0.086
 6839SOL     OW21415   4.339   1.180   0.611
 6839SOL    HW121416   4.328   1.181   0.511
 6839SOL    HW221417   4.435   1.191   0.635
 6840SOL     OW21418   1.730   1.401   6.094
 6840SOL    HW121419   1.652   1.350   6.059
 6840SOL    HW221420   1.699   1.468   6.161
 6841SOL     OW21421   6.419   2.860   6.198
 6841SOL    HW121422   6.454   2.928   6.263
 6841SOL    HW221423   6.463   2.873   6.109
 6842SOL     OW21424   2.349   4.989   2.831
 6842SOL    HW121425   2.340   4.896   2.867
 6842SOL    HW221426   2.312   5.054   2.897
 6843SOL     OW21427   4.584   6.687   6.758
 6843SOL    HW121428   4.624   6.599   6.781
 6843SOL    HW221429   4.532   6.722   6.836
 6844SOL     OW21430   5.319   0.559   5.350
 6844SOL    HW121431   5.330   0.614   5.433
 6844SOL    HW221432   5.223   0.538   5.336
 6845SOL     OW21433   5.111   2.202   2.315
 6845SOL    HW121434   5.064   2.263   2.251
 6845SOL    HW221435   5.088   2.227   2.408
 6846SOL     OW21436   2.440   3.691   0.316
 6846SOL    HW121437   2.532   3.729   0.324
 6846SOL    HW221438   2.400   3.717   0.228
 6847SOL     OW21439   5.708   3.605   4.117
 6847SOL    HW121440   5.667   3.693   4.137
 6847SOL    HW221441   5.719   3.553   4.202
 6848SOL     OW21442   5.847   5.184   3.318
 6848SOL    HW121443   5.849   5.085   3.330
 6848SOL    HW221444   5.919   5.211   3.254
 6849SOL     OW21445   3.878   4.243   6.612
 6849SOL    HW121446   3.847   4.207   6.700
 6849SOL    HW221447   3.818   4.317   6.583
 6850SOL     OW21448   3.954   1.344   3.701
 6850SOL    HW121449   4.044   1.314   3.670
 6850SOL    HW221450   3.952   1.345   3.801
 6851SOL     OW21451   1.815   2.871   3.690
 6851SOL    HW121452   1.816   2.967   3.661
 6851SOL    HW221453   1.815   2.812   3.609
 6852SOL     OW21454   2.655   5.401   0.493
 6852SOL    HW121455   2.571   5.401   0.439
 6852SOL    HW221456   2.683   5.307   0.511
 6853SOL     OW21457   5.020   3.017   0.139
 6853SOL    HW121458   5.114   3.052   0.136
 6853SOL    HW221459   4.994   2.985   0.048
 6854SOL     OW21460   5.313   6.533   5.785
 6854SOL    HW121461   5.324   6.434   5.795
 6854SOL    HW221462   5.390   6.570   5.734
 6855SOL     OW21463   3.938   5.048   3.617
 6855SOL    HW121464   3.942   5.092   3.706
 6855SOL    HW221465   4.031   5.032   3.584
 6856SOL     OW21466   1.107   1.926   0.076
 6856SOL    HW121467   1.185   1.865   0.068
 6856SOL    HW221468   1.036   1.899   0.010
 6857SOL     OW21469   0.882   3.937   5.473
 6857SOL    HW121470   0.845   3.874   5.405
 6857SOL    HW221471   0.922   4.016   5.426
 6858SOL     OW21472   2.916   4.199   1.594
 6858SOL    HW121473   2.969   4.279   1.621
 6858SOL    HW221474   2.967   4.116   1.616
 6859SOL     OW21475   1.028   1.052   2.486
 6859SOL    HW121476   1.028   1.018   2.392
 6859SOL    HW221477   1.040   1.151   2.485
 6860SOL     OW21478   0.829   6.665   2.143
 6860SOL    HW121479   0.847   6.761   2.163
 6860SOL    HW221480   0.913   6.613   2.154
 6861SOL     OW21481   5.107   2.067   5.078
 6861SOL    HW121482   5.053   2.143   5.115
 6861SOL    HW221483   5.154   2.020   5.152
 6862SOL     OW21484   0.617   4.532   5.279
 6862SOL    HW121485   0.711   4.541   5.245
 6862SOL    HW221486   0.553   4.565   5.209
 6863SOL     OW21487   6.606   6.648   5.633
 6863SOL    HW121488   6.568   6.716   5.570
 6863SOL    HW221489   6.665   6.585   5.583
 6864SOL     OW21490   1.350   3.814   6.237
 6864SOL    HW121491   1.374   3.879   6.166
 6864SOL    HW221492   1.307   3.733   6.196
 6865SOL     OW21493   2.062   0.029   4.202
 6865SOL    HW121494   2.121   6.980   4.174
 6865SOL    HW221495   2.012   0.064   4.123
 6866SOL     OW21496   0.582   4.056   1.477
 6866SOL    HW121497   0.526   4.122   1.426
 6866SOL    HW221498   0.523   3.990   1.523
 6867SOL     OW21499   2.129   3.749   6.756
 6867SOL    HW121500   2.194   3.823   6.739
 6867SOL    HW221501   2.124   3.731   6.854
 6868SOL     OW21502   2.590   5.107   4.564
 6868SOL    HW121503   2.578   5.058   4.478
 6868SOL    HW221504   2.555   5.052   4.639
 6869SOL     OW21505   4.111   0.728   5.846
 6869SOL    HW121506   4.156   0.683   5.769
 6869SOL    HW221507   4.035   0.783   5.812
 6870SOL     OW21508   6.992   2.914   0.881
 6870SOL    HW121509   0.023   2.995   0.894
 6870SOL    HW221510   6.958   2.882   0.969
 6871SOL     OW21511   0.492   3.699   2.605
 6871SOL    HW121512   0.495   3.624   2.672
 6871SOL    HW221513   0.568   3.690   2.541
 6872SOL     OW21514   2.481   3.626   0.820
 6872SOL    HW121515   2.438   3.603   0.907
 6872SOL    HW221516   2.565   3.574   0.808
 6873SOL     OW21517   0.935   4.350   4.393
 6873SOL    HW121518   0.855   4.332   4.451
 6873SOL    HW221519   0.972   4.263   4.359
 6874SOL     OW21520   5.462   6.638   3.574
 6874SOL    HW121521   5.552   6.604   3.547
 6874SOL    HW221522   5.411   6.563   3.617
 6875SOL     OW21523   1.601   2.758   0.813
 6875SOL    HW121524   1.515   2.723   0.848
 6875SOL    HW221525   1.674   2.692   0.829
 6876SOL     OW21526   4.342   5.639   3.704
 6876SOL    HW121527   4.329   5.734   3.730
 6876SOL    HW221528   4.270   5.582   3.745
 6877SOL     OW21529   1.636   3.689   2.670
 6877SOL    HW121530   1.656   3.783   2.641
 6877SOL    HW221531   1.687   3.668   2.753
 6878SOL     OW21532   1.837   0.328   4.346
 6878SOL    HW121533   1.932   0.323   4.376
 6878SOL    HW221534   1.824   0.411   4.291
 6879SOL     OW21535   1.840   2.117   0.338
 6879SOL    HW121536   1.829   2.158   0.247
 6879SOL    HW221537   1.889   2.181   0.397
 6880SOL     OW21538   1.396   5.468   6.589
 6880SOL    HW121539   1.306   5.478   6.548
 6880SOL    HW221540   1.450   5.404   6.534
 6881SOL     OW21541   1.206   2.983   0.470
 6881SOL    HW121542   1.174   3.060   0.524
 6881SOL    HW221543   1.259   3.017   0.392
 6882SOL     OW21544   3.029   6.413   6.259
 6882SOL    HW121545   3.017   6.344   6.188
 6882SOL    HW221546   3.118   6.457   6.249
 6883SOL     OW21547   5.176   0.199   0.040
 6883SOL    HW121548   5.101   0.174   7.005
 6883SOL    HW221549   5.261   0.207   7.013
 6884SOL     OW21550   1.966   3.986   3.102
 6884SOL    HW121551   1.991   4.079   3.074
 6884SOL    HW221552   2.037   3.922   3.074
 6885SOL     OW21553   5.708   5.996   4.761
 6885SOL    HW121554   5.807   5.995   4.755
 6885SOL    HW221555   5.681   6.005   4.857
 6886SOL     OW21556   4.823   1.792   6.512
 6886SOL    HW121557   4.905   1.849   6.521
 6886SOL    HW221558   4.820   1.727   6.588
 6887SOL     OW21559   5.389   5.827   6.403
 6887SOL    HW121560   5.294   5.798   6.397
 6887SOL    HW221561   5.404   5.908   6.346
 6888SOL     OW21562   5.911   4.993   6.605
 6888SOL    HW121563   5.898   5.031   6.513
 6888SOL    HW221564   5.977   4.917   6.600
 6889SOL     OW21565   0.603   2.218   6.806
 6889SOL    HW121566   0.565   2.127   6.792
 6889SOL    HW221567   0.565   2.281   6.738
 6890SOL     OW21568   4.633   5.112   2.929
 6890SOL    HW121569   4.669   5.086   2.840
 6890SOL    HW221570   4.610   5.029   2.981
 6891SOL     OW21571   1.797   1.133   1.143
 6891SOL    HW121572   1.879   1.176   1.104
 6891SOL    HW221573   1.719   1.193   1.130
 6892SOL     OW21574   3.035   1.069   4.482
 6892SOL    HW121575   3.128   1.061   4.447
 6892SOL    HW221576   3.033   1.138   4.555
 6893SOL     OW21577   6.712   3.298   0.144
 6893SOL    HW121578   6.798   3.249   0.134
 6893SOL    HW221579   6.666   3.268   0.228
 6894SOL     OW21580   5.645   5.357   0.683
 6894SOL    HW121581   5.563   5.410   0.660
 6894SOL    HW221582   5.635   5.319   0.775
 6895SOL     OW21583   0.689   6.616   1.280
 6895SOL    HW121584   0.658   6.538   1.334
 6895SOL    HW221585   0.655   6.701   1.322
 6896SOL     OW21586   4.328   2.314   4.491
 6896SOL    HW121587   4.306   2.327   4.587
 6896SOL    HW221588   4.255   2.263   4.447
 6897SOL     OW21589   4.808   3.502   5.363
 6897SOL    HW121590   4.872   3.426   5.347
 6897SOL    HW221591   4.798   3.555   5.280
 6898SOL     OW21592   2.511   1.219   1.447
 6898SOL    HW121593   2.610   1.230   1.436
 6898SOL    HW221594   2.486   1.229   1.543
 6899SOL     OW21595   6.068   6.287   2.699
 6899SOL    HW121596   6.153   6.307   2.650
 6899SOL    HW221597   5.993   6.340   2.659
 6900SOL     OW21598   6.680   3.968   5.379
 6900SOL    HW121599   6.701   3.986   5.283
 6900SOL    HW221600   6.699   4.050   5.433
 6901SOL     OW21601   4.721   4.747   6.858
 6901SOL    HW121602   4.753   4.673   6.798
 6901SOL    HW221603   4.653   4.802   6.809
 6902SOL     OW21604   0.805   5.702   6.251
 6902SOL    HW121605   0.842   5.684   6.160
 6902SOL    HW221606   0.867   5.664   6.320
 6903SOL     OW21607   2.139   5.542   4.471
 6903SOL    HW121608   2.057   5.598   4.459
 6903SOL    HW221609   2.113   5.453   4.510
 6904SOL     OW21610   6.823   6.793   5.235
 6904SOL    HW121611   6.767   6.866   5.197
 6904SOL    HW221612   6.836   6.722   5.167
 6905SOL     OW21613   4.671   5.925   6.088
 6905SOL    HW121614   4.702   5.990   6.158
 6905SOL    HW221615   4.597   5.966   6.035
 6906SOL     OW21616   3.621   1.630   3.726
 6906SOL    HW121617   3.527   1.599   3.736
 6906SOL    HW221618   3.624   1.730   3.733
 6907SOL     OW21619   6.283   2.134   0.727
 6907SOL    HW121620   6.286   2.071   0.649
 6907SOL    HW221621   6.376   2.161   0.751
 6908SOL     OW21622   2.702   4.470   6.744
 6908SOL    HW121623   2.729   4.508   6.833
 6908SOL    HW221624   2.769   4.401   6.716
 6909SOL     OW21625   5.797   6.057   2.516
 6909SOL    HW121626   5.798   6.081   2.613
 6909SOL    HW221627   5.866   5.987   2.497
 6910SOL     OW21628   1.614   2.599   3.491
 6910SOL    HW121629   1.577   2.525   3.435
 6910SOL    HW221630   1.690   2.564   3.547
 6911SOL     OW21631   2.713   0.090   5.908
 6911SOL    HW121632   2.727   0.004   5.860
 6911SOL    HW221633   2.623   0.127   5.884
 6912SOL     OW21634   2.524   3.728   6.677
 6912SOL    HW121635   2.479   3.785   6.746
 6912SOL    HW221636   2.585   3.785   6.621
 6913SOL     OW21637   5.147   6.297   5.971
 6913SOL    HW121638   5.099   6.358   5.908
 6913SOL    HW221639   5.173   6.347   6.053
 6914SOL     OW21640   6.567   2.970   2.038
 6914SOL    HW121641   6.501   2.958   2.112
 6914SOL    HW221642   6.518   2.974   1.951
 6915SOL     OW21643   1.102   2.905   3.000
 6915SOL    HW121644   1.015   2.941   3.034
 6915SOL    HW221645   1.088   2.813   2.963
 6916SOL     OW21646   4.709   6.027   6.820
 6916SOL    HW121647   4.778   5.957   6.800
 6916SOL    HW221648   4.735   6.076   6.903
 6917SOL     OW21649   5.250   5.336   1.278
 6917SOL    HW121650   5.342   5.365   1.255
 6917SOL    HW221651   5.247   5.237   1.287
 6918SOL     OW21652   1.889   3.460   1.636
 6918SOL    HW121653   1.854   3.428   1.548
 6918SOL    HW221654   1.980   3.420   1.651
 6919SOL     OW21655   6.590   6.252   3.342
 6919SOL    HW121656   6.608   6.284   3.249
 6919SOL    HW221657   6.590   6.330   3.404
 6920SOL     OW21658   6.022   0.678   5.432
 6920SOL    HW121659   6.027   0.763   5.484
 6920SOL    HW221660   5.931   0.670   5.391
 6921SOL     OW21661   3.929   0.376   4.104
 6921SOL    HW121662   3.891   0.322   4.028
 6921SOL    HW221663   4.012   0.422   4.072
 6922SOL     OW21664   1.307   5.054   5.805
 6922SOL    HW121665   1.217   5.011   5.793
 6922SOL    HW221666   1.306   5.146   5.765
 6923SOL     OW21667   5.911   6.852   2.582
 6923SOL    HW121668   5.896   6.776   2.519
 6923SOL    HW221669   5.905   6.820   2.676
 6924SOL     OW21670   3.231   6.291   1.026
 6924SOL    HW121671   3.293   6.239   1.084
 6924SOL    HW221672   3.278   6.315   0.941
 6925SOL     OW21673   5.579   6.191   6.160
 6925SOL    HW121674   5.652   6.123   6.160
 6925SOL    HW221675   5.587   6.249   6.079
 6926SOL     OW21676   3.005   2.301   0.153
 6926SOL    HW121677   2.962   2.212   0.138
 6926SOL    HW221678   3.016   2.316   0.252
 6927SOL     OW21679   4.965   0.576   0.607
 6927SOL    HW121680   5.024   0.648   0.571
 6927SOL    HW221681   4.903   0.545   0.535
 6928SOL     OW21682   4.441   5.190   1.280
 6928SOL    HW121683   4.397   5.273   1.315
 6928SOL    HW221684   4.467   5.204   1.184
 6929SOL     OW21685   6.367   5.350   1.169
 6929SOL    HW121686   6.425   5.270   1.178
 6929SOL    HW221687   6.345   5.365   1.072
 6930SOL     OW21688   1.385   6.834   0.695
 6930SOL    HW121689   1.436   6.918   0.680
 6930SOL    HW221690   1.416   6.764   0.630
 6931SOL     OW21691   3.130   2.900   0.815
 6931SOL    HW121692   3.221   2.902   0.773
 6931SOL    HW221693   3.131   2.954   0.899
 6932SOL     OW21694   4.833   5.490   0.033
 6932SOL    HW121695   4.742   5.466   0.066
 6932SOL    HW221696   4.895   5.412   0.047
 6933SOL     OW21697   3.546   5.474   6.344
 6933SOL    HW121698   3.531   5.375   6.345
 6933SOL    HW221699   3.607   5.499   6.420
 6934SOL     OW21700   5.228   3.610   0.184
 6934SOL    HW121701   5.191   3.582   0.273
 6934SOL    HW221702   5.271   3.700   0.193
 6935SOL     OW21703   5.351   5.627   1.569
 6935SOL    HW121704   5.417   5.680   1.623
 6935SOL    HW221705   5.351   5.532   1.601
 6936SOL     OW21706   0.852   2.389   5.026
 6936SOL    HW121707   0.943   2.413   4.995
 6936SOL    HW221708   0.856   2.357   5.121
 6937SOL     OW21709   5.254   5.713   0.093
 6937SOL    HW121710   5.215   5.646   0.156
 6937SOL    HW221711   5.286   5.793   0.144
 6938SOL     OW21712   1.470   0.621   5.069
 6938SOL    HW121713   1.432   0.567   5.144
 6938SOL    HW221714   1.568   0.632   5.082
 6939SOL     OW21715   5.769   4.077   3.456
 6939SOL    HW121716   5.816   4.034   3.379
 6939SOL    HW221717   5.834   4.093   3.530
 6940SOL     OW21718   3.290   6.312   0.751
 6940SOL    HW121719   3.326   6.398   0.716
 6940SOL    HW221720   3.215   6.281   0.692
 6941SOL     OW21721   3.278   3.766   2.695
 6941SOL    HW121722   3.310   3.789   2.787
 6941SOL    HW221723   3.241   3.848   2.651
 6942SOL     OW21724   6.091   6.991   1.842
 6942SOL    HW121725   6.114   6.987   1.745
 6942SOL    HW221726   6.162   0.017   1.891
 6943SOL     OW21727   4.525   5.021   6.564
 6943SOL    HW121728   4.495   5.021   6.659
 6943SOL    HW221729   4.556   4.929   6.539
 6944SOL     OW21730   1.112   4.448   5.107
 6944SOL    HW121731   1.151   4.453   5.016
 6944SOL    HW221732   1.165   4.383   5.163
 6945SOL     OW21733   5.843   2.367   0.849
 6945SOL    HW121734   5.744   2.372   0.853
 6945SOL    HW221735   5.872   2.272   0.851
 6946SOL     OW21736   4.346   5.884   3.002
 6946SOL    HW121737   4.393   5.862   2.916
 6946SOL    HW221738   4.248   5.891   2.986
 6947SOL     OW21739   5.322   4.880   5.058
 6947SOL    HW121740   5.264   4.812   5.104
 6947SOL    HW221741   5.269   4.924   4.985
 6948SOL     OW21742   7.025   4.679   0.260
 6948SOL    HW121743   0.092   4.656   0.287
 6948SOL    HW221744   7.005   4.638   0.170
 6949SOL     OW21745   2.431   1.097   3.815
 6949SOL    HW121746   2.493   1.159   3.862
 6949SOL    HW221747   2.431   1.118   3.717
 6950SOL     OW21748   0.430   0.245   4.520
 6950SOL    HW121749   0.399   0.331   4.479
 6950SOL    HW221750   0.517   0.260   4.567
 6951SOL     OW21751   0.409   5.201   6.366
 6951SOL    HW121752   0.327   5.224   6.418
 6951SOL    HW221753   0.436   5.107   6.388
 6952SOL     OW21754   4.119   5.387   3.634
 6952SOL    HW121755   4.141   5.347   3.545
 6952SOL    HW221756   4.019   5.388   3.645
 6953SOL     OW21757   5.015   1.299   1.202
 6953SOL    HW121758   5.084   1.227   1.191
 6953SOL    HW221759   5.059   1.388   1.205
 6954SOL     OW21760   6.187   3.943   0.291
 6954SOL    HW121761   6.238   4.024   0.321
 6954SOL    HW221762   6.180   3.878   0.366
 6955SOL     OW21763   4.922   6.764   2.111
 6955SOL    HW121764   4.986   6.799   2.179
 6955SOL    HW221765   4.828   6.783   2.140
 6956SOL     OW21766   5.555   5.600   2.554
 6956SOL    HW121767   5.575   5.697   2.538
 6956SOL    HW221768   5.532   5.586   2.650
 6957SOL     OW21769   5.468   5.794   5.982
 6957SOL    HW121770   5.386   5.850   5.998
 6957SOL    HW221771   5.492   5.745   6.066
 6958SOL     OW21772   2.906   3.718   3.754
 6958SOL    HW121773   2.830   3.694   3.815
 6958SOL    HW221774   2.910   3.653   3.678
 6959SOL     OW21775   0.677   4.126   3.152
 6959SOL    HW121776   0.729   4.209   3.173
 6959SOL    HW221777   0.731   4.046   3.176
 6960SOL     OW21778   3.048   4.260   0.476
 6960SOL    HW121779   3.072   4.339   0.419
 6960SOL    HW221780   3.093   4.178   0.440
 6961SOL     OW21781   4.885   1.773   5.051
 6961SOL    HW121782   4.877   1.796   5.148
 6961SOL    HW221783   4.957   1.705   5.038
 6962SOL     OW21784   2.357   6.767   6.398
 6962SOL    HW121785   2.442   6.734   6.356
 6962SOL    HW221786   2.337   6.859   6.365
 6963SOL     OW21787   5.096   6.361   1.059
 6963SOL    HW121788   5.177   6.377   1.003
 6963SOL    HW221789   5.016   6.405   1.018
 6964SOL     OW21790   1.704   0.223   5.480
 6964SOL    HW121791   1.776   0.209   5.549
 6964SOL    HW221792   1.634   0.153   5.492
 6965SOL     OW21793   0.752   1.899   0.070
 6965SOL    HW121794   0.746   1.807   0.108
 6965SOL    HW221795   0.799   1.896   7.009
 6966SOL     OW21796   1.321   6.715   1.398
 6966SOL    HW121797   1.280   6.745   1.311
 6966SOL    HW221798   1.384   6.786   1.431
 6967SOL     OW21799   4.323   1.561   6.363
 6967SOL    HW121800   4.349   1.603   6.450
 6967SOL    HW221801   4.334   1.628   6.289
 6968SOL     OW21802   3.854   6.333   2.432
 6968SOL    HW121803   3.928   6.399   2.415
 6968SOL    HW221804   3.769   6.382   2.449
 6969SOL     OW21805   2.158   1.810   1.984
 6969SOL    HW121806   2.070   1.767   1.966
 6969SOL    HW221807   2.167   1.827   2.082
 6970SOL     OW21808   3.562   4.939   5.701
 6970SOL    HW121809   3.639   4.906   5.646
 6970SOL    HW221810   3.596   4.979   5.786
 6971SOL     OW21811   6.917   4.424   0.171
 6971SOL    HW121812   6.914   4.437   0.270
 6971SOL    HW221813   6.826   4.399   0.138
 6972SOL     OW21814   5.505   3.931   1.894
 6972SOL    HW121815   5.414   3.927   1.937
 6972SOL    HW221816   5.526   4.025   1.869
 6973SOL     OW21817   1.665   3.378   3.203
 6973SOL    HW121818   1.659   3.475   3.181
 6973SOL    HW221819   1.748   3.339   3.161
 6974SOL     OW21820   3.765   3.967   3.143
 6974SOL    HW121821   3.748   3.988   3.239
 6974SOL    HW221822   3.720   3.881   3.119
 6975SOL     OW21823   3.119   5.183   4.396
 6975SOL    HW121824   3.068   5.224   4.471
 6975SOL    HW221825   3.182   5.251   4.358
 6976SOL     OW21826   4.334   4.058   6.081
 6976SOL    HW121827   4.428   4.070   6.113
 6976SOL    HW221828   4.303   3.965   6.101
 6977SOL     OW21829   4.401   5.020   0.885
 6977SOL    HW121830   4.418   4.962   0.965
 6977SOL    HW221831   4.480   5.078   0.869
 6978SOL     OW21832   6.295   3.464   1.329
 6978SOL    HW121833   6.363   3.411   1.279
 6978SOL    HW221834   6.258   3.409   1.404
 6979SOL     OW21835   1.286   3.542   1.623
 6979SOL    HW121836   1.322   3.480   1.693
 6979SOL    HW221837   1.361   3.593   1.582
 6980SOL     OW21838   1.876   5.895   2.993
 6980SOL    HW121839   1.787   5.877   2.950
 6980SOL    HW221840   1.947   5.845   2.943
 6981SOL     OW21841   3.915   3.246   6.887
 6981SOL    HW121842   3.852   3.243   6.809
 6981SOL    HW221843   4.003   3.208   6.859
 6982SOL     OW21844   1.676   0.889   3.334
 6982SOL    HW121845   1.658   0.988   3.335
 6982SOL    HW221846   1.594   0.841   3.366
 6983SOL     OW21847   5.070   0.633   4.255
 6983SOL    HW121848   5.111   0.600   4.340
 6983SOL    HW221849   5.080   0.732   4.250
 6984SOL     OW21850   0.956   2.241   3.414
 6984SOL    HW121851   1.031   2.267   3.354
 6984SOL    HW221852   0.907   2.324   3.444
 6985SOL     OW21853   6.125   3.693   0.415
 6985SOL    HW121854   6.165   3.635   0.343
 6985SOL    HW221855   6.122   3.642   0.501
 6986SOL     OW21856   5.032   4.903   5.259
 6986SOL    HW121857   4.994   4.951   5.338
 6986SOL    HW221858   5.038   4.805   5.278
 6987SOL     OW21859   0.593   1.396   6.362
 6987SOL    HW121860   0.638   1.404   6.451
 6987SOL    HW221861   0.608   1.480   6.309
 6988SOL     OW21862   3.515   1.349   6.144
 6988SOL    HW121863   3.498   1.326   6.049
 6988SOL    HW221864   3.485   1.443   6.162
 6989SOL     OW21865   0.560   5.212   2.372
 6989SOL    HW121866   0.591   5.226   2.278
 6989SOL    HW221867   0.525   5.298   2.409
 6990SOL     OW21868   3.436   2.472   1.084
 6990SOL    HW121869   3.380   2.422   1.018
 6990SOL    HW221870   3.533   2.464   1.059
 6991SOL     OW21871   6.566   3.328   2.268
 6991SOL    HW121872   6.643   3.271   2.295
 6991SOL    HW221873   6.593   3.424   2.269
 6992SOL     OW21874   1.026   6.043   0.166
 6992SOL    HW121875   0.946   6.036   0.106
 6992SOL    HW221876   0.997   6.070   0.257
 6993SOL     OW21877   4.395   1.445   1.456
 6993SOL    HW121878   4.454   1.422   1.534
 6993SOL    HW221879   4.451   1.485   1.383
 6994SOL     OW21880   2.519   0.295   3.399
 6994SOL    HW121881   2.575   0.336   3.327
 6994SOL    HW221882   2.568   0.297   3.486
 6995SOL     OW21883   0.465   3.924   1.158
 6995SOL    HW121884   0.399   3.987   1.198
 6995SOL    HW221885   0.557   3.963   1.166
 6996SOL     OW21886   1.471   0.825   0.349
 6996SOL    HW121887   1.533   0.822   0.427
 6996SOL    HW221888   1.398   0.758   0.361
 6997SOL     OW21889   5.754   5.433   5.877
 6997SOL    HW121890   5.671   5.388   5.910
 6997SOL    HW221891   5.793   5.381   5.801
 6998SOL     OW21892   6.389   1.294   7.003
 6998SOL    HW121893   6.432   1.204   7.014
 6998SOL    HW221894   6.423   1.337   6.918
 6999SOL     OW21895   0.157   3.237   0.199
 6999SOL    HW121896   0.199   3.249   0.109
 6999SOL    HW221897   0.183   3.147   0.236
 7000SOL     OW21898   6.823   6.551   3.710
 7000SOL    HW121899   6.909   6.583   3.669
 7000SOL    HW221900   6.839   6.527   3.806
 7001SOL     OW21901   0.231   1.816   4.514
 7001SOL    HW121902   0.164   1.881   4.549
 7001SOL    HW221903   0.257   1.842   4.421
 7002SOL     OW21904   0.731   5.139   2.609
 7002SOL    HW121905   0.687   5.178   2.528
 7002SOL    HW221906   0.664   5.087   2.662
 7003SOL     OW21907   6.896   4.407   1.054
 7003SOL    HW121908   6.836   4.469   1.003
 7003SOL    HW221909   6.882   4.420   1.152
 7004SOL     OW21910   2.112   6.477   0.541
 7004SOL    HW121911   2.159   6.403   0.588
 7004SOL    HW221912   2.031   6.505   0.593
 7005SOL     OW21913   0.772   6.105   0.758
 7005SOL    HW121914   0.768   6.020   0.811
 7005SOL    HW221915   0.857   6.107   0.706
 7006SOL     OW21916   1.359   0.276   4.501
 7006SOL    HW121917   1.358   0.202   4.434
 7006SOL    HW221918   1.453   0.305   4.519
 7007SOL     OW21919   2.457   0.180   5.842
 7007SOL    HW121920   2.393   0.243   5.886
 7007SOL    HW221921   2.473   0.210   5.748
 7008SOL     OW21922   5.706   3.717   3.208
 7008SOL    HW121923   5.690   3.712   3.307
 7008SOL    HW221924   5.804   3.708   3.190
 7009SOL     OW21925   4.505   5.338   1.844
 7009SOL    HW121926   4.594   5.301   1.870
 7009SOL    HW221927   4.504   5.357   1.746
 7010SOL     OW21928   5.236   3.973   1.664
 7010SOL    HW121929   5.271   3.969   1.570
 7010SOL    HW221930   5.302   3.929   1.725
 7011SOL     OW21931   3.385   6.193   0.092
 7011SOL    HW121932   3.450   6.218   0.020
 7011SOL    HW221933   3.435   6.153   0.169
 7012SOL     OW21934   6.326   2.534   0.564
 7012SOL    HW121935   6.410   2.481   0.549
 7012SOL    HW221936   6.350   2.625   0.598
 7013SOL     OW21937   2.660   1.420   0.368
 7013SOL    HW121938   2.683   1.333   0.324
 7013SOL    HW221939   2.678   1.414   0.466
 7014SOL     OW21940   6.171   2.834   1.525
 7014SOL    HW121941   6.232   2.758   1.502
 7014SOL    HW221942   6.130   2.870   1.441
 7015SOL     OW21943   5.310   6.105   0.903
 7015SOL    HW121944   5.331   6.202   0.889
 7015SOL    HW221945   5.279   6.091   0.997
 7016SOL     OW21946   2.854   4.877   0.897
 7016SOL    HW121947   2.823   4.937   0.823
 7016SOL    HW221948   2.950   4.853   0.883
 7017SOL     OW21949   5.344   5.313   4.785
 7017SOL    HW121950   5.428   5.345   4.741
 7017SOL    HW221951   5.315   5.378   4.855
 7018SOL     OW21952   5.065   3.405   4.449
 7018SOL    HW121953   5.082   3.345   4.527
 7018SOL    HW221954   5.043   3.350   4.368
 7019SOL     OW21955   4.491   5.366   2.138
 7019SOL    HW121956   4.493   5.348   2.039
 7019SOL    HW221957   4.399   5.348   2.173
 7020SOL     OW21958   1.043   2.961   6.686
 7020SOL    HW121959   1.077   3.041   6.635
 7020SOL    HW221960   1.037   2.883   6.625
 7021SOL     OW21961   1.118   2.232   5.297
 7021SOL    HW121962   1.030   2.196   5.267
 7021SOL    HW221963   1.189   2.164   5.282
 7022SOL     OW21964   3.300   2.155   0.509
 7022SOL    HW121965   3.346   2.234   0.549
 7022SOL    HW221966   3.369   2.096   0.466
 7023SOL     OW21967   0.676   1.919   0.830
 7023SOL    HW121968   0.637   2.006   0.861
 7023SOL    HW221969   0.647   1.902   0.736
 7024SOL     OW21970   3.611   3.154   3.839
 7024SOL    HW121971   3.619   3.055   3.851
 7024SOL    HW221972   3.625   3.176   3.742
 7025SOL     OW21973   3.958   6.371   0.631
 7025SOL    HW121974   3.975   6.433   0.706
 7025SOL    HW221975   3.940   6.279   0.667
 7026SOL     OW21976   3.470   2.600   1.420
 7026SOL    HW121977   3.389   2.547   1.393
 7026SOL    HW221978   3.548   2.573   1.365
 7027SOL     OW21979   2.088   5.344   2.921
 7027SOL    HW121980   2.079   5.260   2.975
 7027SOL    HW221981   2.154   5.405   2.965
 7028SOL     OW21982   2.897   0.160   3.309
 7028SOL    HW121983   2.826   0.227   3.289
 7028SOL    HW221984   2.913   0.103   3.228
 7029SOL     OW21985   3.192   3.725   4.871
 7029SOL    HW121986   3.230   3.642   4.831
 7029SOL    HW221987   3.095   3.731   4.850
 7030SOL     OW21988   6.312   1.523   5.253
 7030SOL    HW121989   6.303   1.493   5.348
 7030SOL    HW221990   6.286   1.448   5.192
 7031SOL     OW21991   3.985   6.743   0.513
 7031SOL    HW121992   3.982   6.722   0.415
 7031SOL    HW221993   4.067   6.702   0.553
 7032SOL     OW21994   4.019   6.033   4.145
 7032SOL    HW121995   4.102   5.977   4.147
 7032SOL    HW221996   3.977   6.034   4.236
 7033SOL     OW21997   1.600   1.948   4.751
 7033SOL    HW121998   1.566   2.036   4.718
 7033SOL    HW221999   1.684   1.962   4.804
 7034SOL     OW22000   6.560   0.912   3.549
 7034SOL    HW122001   6.534   0.996   3.596
 7034SOL    HW222002   6.604   0.934   3.462
 7035SOL     OW22003   1.825   0.548   0.306
 7035SOL    HW122004   1.734   0.543   0.265
 7035SOL    HW222005   1.816   0.549   0.406
 7036SOL     OW22006   6.681   1.266   2.024
 7036SOL    HW122007   6.777   1.252   2.049
 7036SOL    HW222008   6.636   1.177   2.016
 7037SOL     OW22009   1.277   0.901   6.191
 7037SOL    HW122010   1.291   0.880   6.094
 7037SOL    HW222011   1.311   0.993   6.210
 7038SOL     OW22012   1.473   3.547   6.610
 7038SOL    HW122013   1.444   3.640   6.632
 7038SOL    HW222014   1.520   3.548   6.521
 7039SOL     OW22015   0.855   6.314   2.582
 7039SOL    HW122016   0.814   6.224   2.601
 7039SOL    HW222017   0.818   6.381   2.645
 7040SOL     OW22018   4.881   3.158   4.734
 7040SOL    HW122019   4.870   3.078   4.794
 7040SOL    HW222020   4.875   3.242   4.788
 7041SOL     OW22021   1.819   0.059   3.884
 7041SOL    HW122022   1.861   0.141   3.922
 7041SOL    HW222023   1.765   0.012   3.955
 7042SOL     OW22024   4.574   6.174   5.439
 7042SOL    HW122025   4.528   6.090   5.411
 7042SOL    HW222026   4.546   6.249   5.379
 7043SOL     OW22027   1.910   5.246   1.423
 7043SOL    HW122028   1.954   5.198   1.499
 7043SOL    HW222029   1.861   5.326   1.459
 7044SOL     OW22030   4.995   6.322   4.288
 7044SOL    HW122031   5.028   6.257   4.356
 7044SOL    HW222032   5.072   6.361   4.238
 7045SOL     OW22033   6.356   5.972   2.575
 7045SOL    HW122034   6.400   6.028   2.645
 7045SOL    HW222035   6.290   5.911   2.619
 7046SOL     OW22036   3.018   2.139   4.278
 7046SOL    HW122037   2.977   2.049   4.265
 7046SOL    HW222038   3.042   2.152   4.374
 7047SOL     OW22039   1.292   6.244   0.775
 7047SOL    HW122040   1.387   6.253   0.746
 7047SOL    HW222041   1.261   6.328   0.819
 7048SOL     OW22042   6.895   6.239   4.914
 7048SOL    HW122043   6.818   6.221   4.853
 7048SOL    HW222044   6.861   6.275   5.001
 7049SOL     OW22045   3.845   0.812   2.960
 7049SOL    HW122046   3.859   0.817   3.059
 7049SOL    HW222047   3.748   0.802   2.941
 7050SOL     OW22048   4.273   4.283   1.290
 7050SOL    HW122049   4.360   4.233   1.295
 7050SOL    HW222050   4.199   4.227   1.327
 7051SOL     OW22051   0.507   0.944   1.744
 7051SOL    HW122052   0.479   0.914   1.835
 7051SOL    HW222053   0.429   0.941   1.682
 7052SOL     OW22054   4.995   0.059   2.657
 7052SOL    HW122055   4.993   6.985   2.652
 7052SOL    HW222056   4.967   0.088   2.749
 7053SOL     OW22057   2.083   3.395   3.113
 7053SOL    HW122058   2.137   3.479   3.122
 7053SOL    HW222059   2.111   3.346   3.031
 7054SOL     OW22060   6.671   0.649   0.295
 7054SOL    HW122061   6.669   0.717   0.368
 7054SOL    HW222062   6.744   0.672   0.231
 7055SOL     OW22063   2.114   0.960   6.977
 7055SOL    HW122064   2.168   1.040   7.002
 7055SOL    HW222065   2.138   0.883   0.009
 7056SOL     OW22066   0.202   5.599   1.278
 7056SOL    HW122067   0.277   5.595   1.344
 7056SOL    HW222068   0.226   5.661   1.204
 7057SOL     OW22069   3.120   4.867   4.703
 7057SOL    HW122070   3.130   4.769   4.717
 7057SOL    HW222071   3.116   4.914   4.792
 7058SOL     OW22072   5.334   3.093   5.860
 7058SOL    HW122073   5.432   3.115   5.859
 7058SOL    HW222074   5.298   3.095   5.767
 7059SOL     OW22075   2.032   0.231   5.329
 7059SOL    HW122076   1.983   0.308   5.370
 7059SOL    HW222077   1.965   0.167   5.290
 7060SOL     OW22078   3.717   0.831   1.746
 7060SOL    HW122079   3.618   0.832   1.760
 7060SOL    HW222080   3.740   0.766   1.674
 7061SOL     OW22081   0.777   1.787   1.737
 7061SOL    HW122082   0.755   1.884   1.728
 7061SOL    HW222083   0.747   1.754   1.826
 7062SOL     OW22084   3.601   0.944   3.141
 7062SOL    HW122085   3.509   0.950   3.101
 7062SOL    HW222086   3.598   0.982   3.234
 7063SOL     OW22087   0.937   0.587   2.007
 7063SOL    HW122088   0.867   0.644   2.050
 7063SOL    HW222089   1.023   0.638   2.001
 7064SOL     OW22090   4.334   1.530   5.295
 7064SOL    HW122091   4.300   1.599   5.359
 7064SOL    HW222092   4.297   1.549   5.204
 7065SOL     OW22093   3.926   5.110   5.690
 7065SOL    HW122094   3.849   5.172   5.708
 7065SOL    HW222095   3.891   5.018   5.670
 7066SOL     OW22096   3.988   0.216   0.020
 7066SOL    HW122097   4.006   0.313   0.005
 7066SOL    HW222098   3.904   0.190   6.999
 7067SOL     OW22099   1.862   3.644   6.757
 7067SOL    HW122100   1.867   3.678   6.663
 7067SOL    HW222101   1.937   3.682   6.810
 7068SOL     OW22102   5.273   3.601   4.445
 7068SOL    HW122103   5.263   3.641   4.353
 7068SOL    HW222104   5.189   3.552   4.469
 7069SOL     OW22105   6.021   0.228   6.505
 7069SOL    HW122106   6.011   0.140   6.459
 7069SOL    HW222107   5.947   0.289   6.478
 7070SOL     OW22108   0.176   6.920   4.965
 7070SOL    HW122109   0.264   6.958   4.936
 7070SOL    HW222110   0.188   6.824   4.992
 7071SOL     OW22111   4.977   6.219   6.830
 7071SOL    HW122112   5.024   6.166   6.759
 7071SOL    HW222113   4.950   6.159   6.904
 7072SOL     OW22114   0.259   3.648   6.227
 7072SOL    HW122115   0.221   3.710   6.296
 7072SOL    HW222116   0.313   3.700   6.161
 7073SOL     OW22117   5.183   1.439   3.272
 7073SOL    HW122118   5.252   1.405   3.207
 7073SOL    HW222119   5.210   1.529   3.305
 7074SOL     OW22120   6.008   4.200   3.099
 7074SOL    HW122121   6.071   4.255   3.043
 7074SOL    HW222122   6.024   4.220   3.196
 7075SOL     OW22123   3.049   5.028   3.737
 7075SOL    HW122124   3.050   4.976   3.822
 7075SOL    HW222125   3.130   5.007   3.684
 7076SOL     OW22126   5.691   2.145   2.164
 7076SOL    HW122127   5.731   2.207   2.231
 7076SOL    HW222128   5.702   2.051   2.195
 7077SOL     OW22129   3.246   5.427   1.349
 7077SOL    HW122130   3.313   5.499   1.368
 7077SOL    HW222131   3.181   5.460   1.281
 7078SOL     OW22132   5.492   0.699   6.822
 7078SOL    HW122133   5.467   0.705   6.726
 7078SOL    HW222134   5.482   0.604   6.854
 7079SOL     OW22135   1.250   6.566   5.067
 7079SOL    HW122136   1.186   6.503   5.022
 7079SOL    HW222137   1.200   6.647   5.098
 7080SOL     OW22138   4.545   2.106   5.566
 7080SOL    HW122139   4.471   2.074   5.508
 7080SOL    HW222140   4.563   2.203   5.546
 7081SOL     OW22141   1.932   0.006   0.381
 7081SOL    HW122142   1.974   0.082   0.431
 7081SOL    HW222143   1.991   6.952   0.386
 7082SOL     OW22144   6.517   4.416   3.019
 7082SOL    HW122145   6.519   4.331   2.967
 7082SOL    HW222146   6.583   4.481   2.980
 7083SOL     OW22147   6.150   2.760   3.105
 7083SOL    HW122148   6.229   2.732   3.052
 7083SOL    HW222149   6.067   2.717   3.069
 7084SOL     OW22150   0.827   6.216   6.982
 7084SOL    HW122151   0.894   6.204   6.909
 7084SOL    HW222152   0.875   6.230   0.042
 7085SOL     OW22153   0.637   3.557   2.077
 7085SOL    HW122154   0.565   3.585   2.015
 7085SOL    HW222155   0.700   3.495   2.030
 7086SOL     OW22156   5.786   1.150   4.375
 7086SOL    HW122157   5.763   1.121   4.282
 7086SOL    HW222158   5.876   1.115   4.399
 7087SOL     OW22159   5.264   3.510   2.920
 7087SOL    HW122160   5.299   3.533   2.829
 7087SOL    HW222161   5.218   3.421   2.916
 7088SOL     OW22162   6.360   1.811   4.729
 7088SOL    HW122163   6.319   1.724   4.700
 7088SOL    HW222164   6.431   1.793   4.796
 7089SOL     OW22165   3.080   5.990   2.026
 7089SOL    HW122166   3.020   5.939   2.088
 7089SOL    HW222167   3.135   5.926   1.972
 7090SOL     OW22168   4.457   2.478   1.027
 7090SOL    HW122169   4.496   2.571   1.027
 7090SOL    HW222170   4.386   2.472   1.098
 7091SOL     OW22171   6.821   6.219   6.874
 7091SOL    HW122172   6.782   6.130   6.851
 7091SOL    HW222173   6.896   6.207   6.939
 7092SOL     OW22174   4.249   1.308   6.265
 7092SOL    HW122175   4.153   1.302   6.241
 7092SOL    HW222176   4.270   1.400   6.299
 7093SOL     OW22177   3.340   3.005   1.675
 7093SOL    HW122178   3.374   2.946   1.602
 7093SOL    HW222179   3.276   2.954   1.733
 7094SOL     OW22180   3.051   0.124   5.461
 7094SOL    HW122181   3.146   0.141   5.486
 7094SOL    HW222182   2.994   0.122   5.543
 7095SOL     OW22183   2.561   4.632   5.017
 7095SOL    HW122184   2.568   4.731   5.025
 7095SOL    HW222185   2.652   4.591   5.016
 7096SOL     OW22186   0.087   0.936   1.257
 7096SOL    HW122187   0.036   0.932   1.171
 7096SOL    HW222188   0.102   1.031   1.282
 7097SOL     OW22189   4.268   0.912   1.754
 7097SOL    HW122190   4.298   0.818   1.742
 7097SOL    HW222191   4.305   0.949   1.839
 7098SOL     OW22192   1.476   6.843   4.163
 7098SOL    HW122193   1.565   6.859   4.120
 7098SOL    HW222194   1.403   6.862   4.097
 7099SOL     OW22195   2.739   2.199   3.710
 7099SOL    HW122196   2.826   2.223   3.754
 7099SOL    HW222197   2.714   2.105   3.735
 7100SOL     OW22198   6.077   3.826   1.306
 7100SOL    HW122199   6.032   3.840   1.394
 7100SOL    HW222200   6.175   3.811   1.321
 7101SOL     OW22201   2.569   6.095   5.661
 7101SOL    HW122202   2.667   6.093   5.641
 7101SOL    HW222203   2.546   6.022   5.725
 7102SOL     OW22204   5.536   0.827   2.005
 7102SOL    HW122205   5.495   0.746   1.964
 7102SOL    HW222206   5.482   0.854   2.085
 7103SOL     OW22207   4.847   3.714   2.967
 7103SOL    HW122208   4.887   3.774   2.897
 7103SOL    HW222209   4.747   3.723   2.965
 7104SOL     OW22210   5.171   3.938   3.321
 7104SOL    HW122211   5.156   3.970   3.228
 7104SOL    HW222212   5.266   3.911   3.333
 7105SOL     OW22213   3.189   4.041   4.015
 7105SOL    HW122214   3.197   4.012   4.111
 7105SOL    HW222215   3.180   4.141   4.011
 7106SOL     OW22216   3.006   2.676   1.048
 7106SOL    HW122217   3.106   2.678   1.042
 7106SOL    HW222218   2.967   2.717   0.966
 7107SOL     OW22219   3.425   0.915   6.119
 7107SOL    HW122220   3.396   0.989   6.180
 7107SOL    HW222221   3.392   0.828   6.154
 7108SOL     OW22222   4.779   0.615   2.094
 7108SOL    HW122223   4.772   0.515   2.088
 7108SOL    HW222224   4.866   0.644   2.053
 7109SOL     OW22225   2.492   5.590   6.554
 7109SOL    HW122226   2.527   5.498   6.573
 7109SOL    HW222227   2.529   5.655   6.620
 7110SOL     OW22228   3.424   6.487   4.180
 7110SOL    HW122229   3.519   6.490   4.148
 7110SOL    HW222230   3.418   6.426   4.259
 7111SOL     OW22231   6.780   0.546   5.156
 7111SOL    HW122232   6.802   0.450   5.168
 7111SOL    HW222233   6.865   0.598   5.144
 7112SOL     OW22234   1.478   4.866   5.012
 7112SOL    HW122235   1.477   4.965   5.020
 7112SOL    HW222236   1.564   4.830   5.048
 7113SOL     OW22237   3.571   6.282   5.305
 7113SOL    HW122238   3.573   6.194   5.352
 7113SOL    HW222239   3.643   6.285   5.236
 7114SOL     OW22240   4.990   4.498   0.454
 7114SOL    HW122241   4.925   4.425   0.430
 7114SOL    HW222242   5.063   4.500   0.387
 7115SOL     OW22243   6.332   3.816   6.371
 7115SOL    HW122244   6.344   3.751   6.296
 7115SOL    HW222245   6.417   3.823   6.423
 7116SOL     OW22246   6.388   3.622   4.073
 7116SOL    HW122247   6.394   3.634   4.172
 7116SOL    HW222248   6.445   3.546   4.044
 7117SOL     OW22249   6.006   0.014   2.915
 7117SOL    HW122250   5.950   0.046   2.839
 7117SOL    HW222251   5.970   0.051   3.001
 7118SOL     OW22252   4.393   4.480   5.499
 7118SOL    HW122253   4.322   4.543   5.530
 7118SOL    HW222254   4.351   4.392   5.476
 7119SOL     OW22255   3.515   6.770   4.796
 7119SOL    HW122256   3.507   6.868   4.779
 7119SOL    HW222257   3.528   6.755   4.895
 7120SOL     OW22258   4.945   0.262   0.185
 7120SOL    HW122259   4.892   0.187   0.223
 7120SOL    HW222260   5.028   0.227   0.142
 7121SOL     OW22261   1.859   5.892   2.218
 7121SOL    HW122262   1.820   5.800   2.223
 7121SOL    HW222263   1.891   5.919   2.308
 7122SOL     OW22264   2.682   1.381   6.929
 7122SOL    HW122265   2.756   1.447   6.946
 7122SOL    HW222266   2.599   1.431   6.904
 7123SOL     OW22267   5.243   5.395   5.823
 7123SOL    HW122268   5.196   5.440   5.899
 7123SOL    HW222269   5.195   5.415   5.737
 7124SOL     OW22270   1.534   2.109   1.636
 7124SOL    HW122271   1.570   2.030   1.685
 7124SOL    HW222272   1.592   2.189   1.655
 7125SOL     OW22273   0.655   6.571   1.577
 7125SOL    HW122274   0.631   6.504   1.507
 7125SOL    HW222275   0.751   6.558   1.604
 7126SOL     OW22276   3.230   5.123   0.733
 7126SOL    HW122277   3.239   5.220   0.755
 7126SOL    HW222278   3.270   5.068   0.807
 7127SOL     OW22279   2.582   6.759   5.556
 7127SOL    HW122280   2.559   6.840   5.502
 7127SOL    HW222281   2.606   6.684   5.494
 7128SOL     OW22282   4.137   4.196   6.580
 7128SOL    HW122283   4.147   4.219   6.483
 7128SOL    HW222284   4.047   4.224   6.613
 7129SOL     OW22285   0.562   6.984   0.629
 7129SOL    HW122286   0.594   0.038   0.679
 7129SOL    HW222287   0.606   6.902   0.666
 7130SOL     OW22288   3.309   6.565   3.728
 7130SOL    HW122289   3.325   6.483   3.673
 7130SOL    HW222290   3.396   6.596   3.767
 7131SOL     OW22291   3.446   1.576   2.775
 7131SOL    HW122292   3.403   1.557   2.687
 7131SOL    HW222293   3.543   1.551   2.770
 7132SOL     OW22294   5.374   4.568   0.656
 7132SOL    HW122295   5.357   4.489   0.598
 7132SOL    HW222296   5.466   4.603   0.640
 7133SOL     OW22297   5.013   5.707   3.151
 7133SOL    HW122298   4.914   5.721   3.149
 7133SOL    HW222299   5.050   5.716   3.059
 7134SOL     OW22300   5.296   5.031   0.814
 7134SOL    HW122301   5.211   5.066   0.773
 7134SOL    HW222302   5.354   5.108   0.839
 7135SOL     OW22303   1.795   2.575   0.902
 7135SOL    HW122304   1.722   2.507   0.894
 7135SOL    HW222305   1.878   2.530   0.933
 7136SOL     OW22306   2.099   1.682   1.612
 7136SOL    HW122307   2.153   1.653   1.533
 7136SOL    HW222308   2.151   1.750   1.664
 7137SOL     OW22309   3.069   1.912   1.588
 7137SOL    HW122310   3.075   1.943   1.683
 7137SOL    HW222311   3.161   1.912   1.547
 7138SOL     OW22312   0.978   2.892   0.726
 7138SOL    HW122313   0.948   2.978   0.684
 7138SOL    HW222314   0.948   2.816   0.668
 7139SOL     OW22315   6.064   6.361   0.882
 7139SOL    HW122316   6.117   6.383   0.800
 7139SOL    HW222317   6.014   6.276   0.866
 7140SOL     OW22318   6.479   3.612   0.200
 7140SOL    HW122319   6.488   3.619   0.101
 7140SOL    HW222320   6.402   3.551   0.222
 7141SOL     OW22321   3.526   0.823   0.640
 7141SOL    HW122322   3.440   0.818   0.690
 7141SOL    HW222323   3.602   0.803   0.701
 7142SOL     OW22324   3.230   0.152   4.807
 7142SOL    HW122325   3.328   0.137   4.821
 7142SOL    HW222326   3.198   0.222   4.870
 7143SOL     OW22327   2.962   4.465   6.532
 7143SOL    HW122328   2.891   4.467   6.462
 7143SOL    HW222329   3.003   4.373   6.536
 7144SOL     OW22330   6.785   0.794   5.879
 7144SOL    HW122331   6.827   0.864   5.822
 7144SOL    HW222332   6.788   0.706   5.832
 7145SOL     OW22333   5.171   2.355   6.673
 7145SOL    HW122334   5.234   2.334   6.598
 7145SOL    HW222335   5.110   2.277   6.687
 7146SOL     OW22336   1.680   2.403   4.921
 7146SOL    HW122337   1.609   2.465   4.887
 7146SOL    HW222338   1.749   2.456   4.971
 7147SOL     OW22339   6.285   6.769   1.853
 7147SOL    HW122340   6.350   6.836   1.890
 7147SOL    HW222341   6.216   6.748   1.922
 7148SOL     OW22342   6.321   6.964   0.918
 7148SOL    HW122343   6.379   6.883   0.922
 7148SOL    HW222344   6.306   6.999   1.011
 7149SOL     OW22345   5.694   4.685   5.980
 7149SOL    HW122346   5.640   4.624   6.037
 7149SOL    HW222347   5.745   4.632   5.913
 7150SOL     OW22348   3.566   3.029   6.810
 7150SOL    HW122349   3.514   3.087   6.872
 7150SOL    HW222350   3.618   3.086   6.747
 7151SOL     OW22351   3.240   1.084   0.776
 7151SOL    HW122352   3.268   1.179   0.786
 7151SOL    HW222353   3.176   1.075   0.700
 7152SOL     OW22354   6.641   1.368   6.451
 7152SOL    HW122355   6.574   1.315   6.502
 7152SOL    HW222356   6.721   1.385   6.510
 7153SOL     OW22357   3.673   5.547   0.697
 7153SOL    HW122358   3.715   5.528   0.785
 7153SOL    HW222359   3.593   5.606   0.710
 7154SOL     OW22360   3.925   2.186   1.913
 7154SOL    HW122361   3.902   2.226   1.824
 7154SOL    HW222362   3.841   2.165   1.963
 7155SOL     OW22363   2.052   1.160   2.248
 7155SOL    HW122364   1.971   1.101   2.239
 7155SOL    HW222365   2.040   1.242   2.192
 7156SOL     OW22366   5.732   3.400   6.221
 7156SOL    HW122367   5.790   3.447   6.287
 7156SOL    HW222368   5.686   3.469   6.164
 7157SOL     OW22369   6.280   4.158   5.814
 7157SOL    HW122370   6.326   4.108   5.887
 7157SOL    HW222371   6.313   4.125   5.725
 7158SOL     OW22372   4.140   6.811   3.814
 7158SOL    HW122373   4.167   6.788   3.720
 7158SOL    HW222374   4.127   6.910   3.821
 7159SOL     OW22375   0.886   6.085   3.111
 7159SOL    HW122376   0.853   6.162   3.057
 7159SOL    HW222377   0.862   6.099   3.207
 7160SOL     OW22378   6.672   0.111   3.398
 7160SOL    HW122379   6.639   0.139   3.488
 7160SOL    HW222380   6.753   0.165   3.374
 7161SOL     OW22381   3.950   3.054   3.076
 7161SOL    HW122382   3.999   3.099   3.001
 7161SOL    HW222383   3.984   3.087   3.163
 7162SOL     OW22384   0.381   5.838   1.964
 7162SOL    HW122385   0.475   5.804   1.973
 7162SOL    HW222386   0.353   5.831   1.868
 7163SOL     OW22387   6.790   1.442   1.339
 7163SOL    HW122388   6.877   1.489   1.349
 7163SOL    HW222389   6.726   1.474   1.409
 7164SOL     OW22390   2.049   1.234   6.688
 7164SOL    HW122391   2.081   1.269   6.601
 7164SOL    HW222392   2.060   1.134   6.690
 7165SOL     OW22393   5.530   1.301   0.620
 7165SOL    HW122394   5.538   1.393   0.582
 7165SOL    HW222395   5.446   1.259   0.586
 7166SOL     OW22396   6.575   5.860   6.249
 7166SOL    HW122397   6.481   5.876   6.220
 7166SOL    HW222398   6.605   5.771   6.215
 7167SOL     OW22399   5.880   2.894   4.642
 7167SOL    HW122400   5.939   2.871   4.564
 7167SOL    HW222401   5.875   2.816   4.704
 7168SOL     OW22402   2.627   0.876   1.798
 7168SOL    HW122403   2.564   0.943   1.761
 7168SOL    HW222404   2.700   0.857   1.732
 7169SOL     OW22405   2.078   4.076   6.426
 7169SOL    HW122406   2.089   3.980   6.402
 7169SOL    HW222407   2.146   4.131   6.378
 7170SOL     OW22408   3.667   1.174   0.625
 7170SOL    HW122409   3.703   1.147   0.714
 7170SOL    HW222410   3.735   1.229   0.576
 7171SOL     OW22411   6.974   4.395   0.747
 7171SOL    HW122412   6.973   4.481   0.695
 7171SOL    HW222413   6.969   4.415   0.845
 7172SOL     OW22414   1.404   2.363   4.096
 7172SOL    HW122415   1.311   2.361   4.133
 7172SOL    HW222416   1.456   2.285   4.133
 7173SOL     OW22417   4.821   5.520   5.943
 7173SOL    HW122418   4.749   5.480   5.999
 7173SOL    HW222419   4.811   5.488   5.848
 7174SOL     OW22420   6.423   4.394   1.986
 7174SOL    HW122421   6.408   4.363   1.892
 7174SOL    HW222422   6.512   4.439   1.992
 7175SOL     OW22423   6.287   3.657   6.106
 7175SOL    HW122424   6.294   3.579   6.168
 7175SOL    HW222425   6.216   3.639   6.038
 7176SOL     OW22426   0.869   0.478   5.573
 7176SOL    HW122427   0.931   0.471   5.495
 7176SOL    HW222428   0.786   0.526   5.546
 7177SOL     OW22429   1.335   5.645   3.691
 7177SOL    HW122430   1.276   5.724   3.676
 7177SOL    HW222431   1.283   5.561   3.674
 7178SOL     OW22432   2.178   6.957   5.083
 7178SOL    HW122433   2.175   0.030   5.081
 7178SOL    HW222434   2.252   6.926   5.142
 7179SOL     OW22435   3.162   5.397   6.024
 7179SOL    HW122436   3.085   5.452   6.056
 7179SOL    HW222437   3.133   5.341   5.947
 7180SOL     OW22438   1.836   3.491   0.938
 7180SOL    HW122439   1.753   3.436   0.940
 7180SOL    HW222440   1.907   3.442   0.887
 7181SOL     OW22441   2.655   1.428   5.595
 7181SOL    HW122442   2.565   1.459   5.566
 7181SOL    HW222443   2.649   1.389   5.687
 7182SOL     OW22444   1.557   1.777   3.912
 7182SOL    HW122445   1.594   1.763   3.820
 7182SOL    HW222446   1.628   1.759   3.980
 7183SOL     OW22447   0.453   6.773   1.691
 7183SOL    HW122448   0.510   6.691   1.687
 7183SOL    HW222449   0.503   6.847   1.737
 7184SOL     OW22450   6.500   0.150   4.003
 7184SOL    HW122451   6.563   0.159   3.926
 7184SOL    HW222452   6.416   0.105   3.971
 7185SOL     OW22453   4.313   1.054   4.567
 7185SOL    HW122454   4.261   1.133   4.601
 7185SOL    HW222455   4.292   1.039   4.471
 7186SOL     OW22456   0.181   0.459   6.553
 7186SOL    HW122457   0.193   0.405   6.470
 7186SOL    HW222458   0.127   0.540   6.532
 7187SOL     OW22459   3.221   3.153   4.118
 7187SOL    HW122460   3.248   3.067   4.162
 7187SOL    HW222461   3.301   3.196   4.076
 7188SOL     OW22462   4.279   4.609   0.369
 7188SOL    HW122463   4.268   4.510   0.370
 7188SOL    HW222464   4.374   4.633   0.390
 7189SOL     OW22465   6.681   2.552   5.913
 7189SOL    HW122466   6.738   2.566   5.832
 7189SOL    HW222467   6.737   2.558   5.995
 7190SOL     OW22468   5.571   5.249   1.220
 7190SOL    HW122469   5.600   5.187   1.293
 7190SOL    HW222470   5.581   5.203   1.132
 7191SOL     OW22471   6.886   4.997   4.343
 7191SOL    HW122472   6.956   4.987   4.414
 7191SOL    HW222473   6.826   5.073   4.366
 7192SOL     OW22474   2.814   4.991   6.688
 7192SOL    HW122475   2.737   5.056   6.690
 7192SOL    HW222476   2.779   4.898   6.678
 7193SOL     OW22477   2.548   2.181   2.832
 7193SOL    HW122478   2.521   2.275   2.853
 7193SOL    HW222479   2.647   2.172   2.844
 7194SOL     OW22480   3.373   2.569   6.047
 7194SOL    HW122481   3.280   2.533   6.048
 7194SOL    HW222482   3.393   2.613   6.134
 7195SOL     OW22483   0.599   4.980   4.888
 7195SOL    HW122484   0.660   5.046   4.932
 7195SOL    HW222485   0.635   4.888   4.902
 7196SOL     OW22486   3.381   4.068   2.113
 7196SOL    HW122487   3.422   4.143   2.062
 7196SOL    HW222488   3.282   4.075   2.109
 7197SOL     OW22489   3.122   4.194   6.087
 7197SOL    HW122490   3.138   4.278   6.139
 7197SOL    HW222491   3.086   4.123   6.147
 7198SOL     OW22492   0.423   0.565   1.991
 7198SOL    HW122493   0.343   0.565   2.050
 7198SOL    HW222494   0.407   0.625   1.912
 7199SOL     OW22495   6.561   1.024   2.022
 7199SOL    HW122496   6.472   1.066   2.039
 7199SOL    HW222497   6.549   0.928   1.998
 7200SOL     OW22498   1.001   2.378   0.600
 7200SOL    HW122499   1.084   2.356   0.550
 7200SOL    HW222500   0.930   2.310   0.580
 7201SOL     OW22501   5.335   5.362   4.085
 7201SOL    HW122502   5.363   5.450   4.124
 7201SOL    HW222503   5.300   5.376   3.993
 7202SOL     OW22504   4.841   1.030   5.879
 7202SOL    HW122505   4.836   1.110   5.939
 7202SOL    HW222506   4.937   1.007   5.861
 7203SOL     OW22507   0.146   1.196   1.381
 7203SOL    HW122508   0.064   1.248   1.356
 7203SOL    HW222509   0.184   1.233   1.466
 7204SOL     OW22510   5.912   0.201   1.934
 7204SOL    HW122511   5.898   0.247   2.021
 7204SOL    HW222512   5.944   0.108   1.951
 7205SOL     OW22513   2.900   2.060   3.975
 7205SOL    HW122514   2.925   1.991   4.043
 7205SOL    HW222515   2.982   2.091   3.928
 7206SOL     OW22516   2.338   3.556   0.549
 7206SOL    HW122517   2.350   3.626   0.620
 7206SOL    HW222518   2.366   3.593   0.461
 7207SOL     OW22519   1.789   1.466   4.046
 7207SOL    HW122520   1.781   1.449   4.144
 7207SOL    HW222521   1.702   1.445   4.002
 7208SOL     OW22522   2.866   0.272   4.597
 7208SOL    HW122523   2.826   0.341   4.537
 7208SOL    HW222524   2.959   0.252   4.568
 7209SOL     OW22525   3.421   1.689   2.140
 7209SOL    HW122526   3.371   1.746   2.205
 7209SOL    HW222527   3.517   1.683   2.167
 7210SOL     OW22528   2.291   1.587   3.103
 7210SOL    HW122529   2.291   1.496   3.144
 7210SOL    HW222530   2.317   1.655   3.172
 7211SOL     OW22531   4.414   5.996   4.870
 7211SOL    HW122532   4.446   5.973   4.961
 7211SOL    HW222533   4.324   6.041   4.876
 7212SOL     OW22534   6.620   4.264   5.787
 7212SOL    HW122535   6.567   4.202   5.845
 7212SOL    HW222536   6.674   4.325   5.846
 7213SOL     OW22537   3.594   2.096   0.099
 7213SOL    HW122538   3.617   2.193   0.103
 7213SOL    HW222539   3.629   2.056   0.014
 7214SOL     OW22540   6.946   0.794   6.106
 7214SOL    HW122541   6.890   0.795   6.189
 7214SOL    HW222542   6.896   0.747   6.033
 7215SOL     OW22543   6.389   2.211   2.947
 7215SOL    HW122544   6.319   2.176   3.009
 7215SOL    HW222545   6.346   2.259   2.871
 7216SOL     OW22546   3.379   6.578   3.010
 7216SOL    HW122547   3.322   6.572   3.091
 7216SOL    HW222548   3.434   6.662   3.013
 7217SOL     OW22549   1.881   2.737   3.448
 7217SOL    HW122550   1.971   2.699   3.471
 7217SOL    HW222551   1.812   2.665   3.453
 7218SOL     OW22552   6.425   3.788   4.482
 7218SOL    HW122553   6.374   3.874   4.484
 7218SOL    HW222554   6.362   3.711   4.478
 7219SOL     OW22555   3.554   5.716   2.702
 7219SOL    HW122556   3.647   5.718   2.665
 7219SOL    HW222557   3.491   5.757   2.636
 7220SOL     OW22558   6.284   4.825   4.731
 7220SOL    HW122559   6.362   4.866   4.684
 7220SOL    HW222560   6.238   4.761   4.669
 7221SOL     OW22561   3.644   5.349   4.165
 7221SOL    HW122562   3.676   5.320   4.074
 7221SOL    HW222563   3.702   5.423   4.198
 7222SOL     OW22564   0.170   6.202   4.430
 7222SOL    HW122565   0.175   6.120   4.487
 7222SOL    HW222566   0.089   6.198   4.372
 7223SOL     OW22567   0.089   3.553   1.695
 7223SOL    HW122568   0.119   3.647   1.678
 7223SOL    HW222569   0.044   3.548   1.784
 7224SOL     OW22570   3.783   1.622   3.219
 7224SOL    HW122571   3.832   1.613   3.133
 7224SOL    HW222572   3.807   1.709   3.262
 7225SOL     OW22573   1.767   5.935   0.775
 7225SOL    HW122574   1.798   6.012   0.720
 7225SOL    HW222575   1.672   5.950   0.803
 7226SOL     OW22576   5.971   6.097   0.766
 7226SOL    HW122577   6.020   6.010   0.759
 7226SOL    HW222578   5.978   6.146   0.679
 7227SOL     OW22579   2.340   0.658   1.717
 7227SOL    HW122580   2.368   0.675   1.811
 7227SOL    HW222581   2.276   0.729   1.688
 7228SOL     OW22582   7.010   3.085   2.303
 7228SOL    HW122583   7.013   3.013   2.233
 7228SOL    HW222584   0.061   3.147   2.290
 7229SOL     OW22585   6.674   0.912   5.537
 7229SOL    HW122586   6.582   0.952   5.529
 7229SOL    HW222587   6.675   0.822   5.494
 7230SOL     OW22588   1.954   4.757   4.282
 7230SOL    HW122589   1.917   4.763   4.374
 7230SOL    HW222590   1.957   4.849   4.241
 7231SOL     OW22591   4.456   1.194   6.413
 7231SOL    HW122592   4.422   1.231   6.326
 7231SOL    HW222593   4.539   1.242   6.440
 7232SOL     OW22594   5.246   6.842   3.179
 7232SOL    HW122595   5.330   6.827   3.232
 7232SOL    HW222596   5.235   6.770   3.112
 7233SOL     OW22597   6.858   1.162   4.698
 7233SOL    HW122598   6.904   1.235   4.647
 7233SOL    HW222599   6.762   1.157   4.669
 7234SOL     OW22600   5.114   4.036   3.057
 7234SOL    HW122601   5.019   4.044   3.088
 7234SOL    HW222602   5.123   3.957   2.997
 7235SOL     OW22603   7.009   5.621   1.470
 7235SOL    HW122604   0.077   5.633   1.440
 7235SOL    HW222605   6.964   5.553   1.413
 7236SOL     OW22606   1.745   2.899   2.713
 7236SOL    HW122607   1.726   2.945   2.800
 7236SOL    HW222608   1.841   2.869   2.711
 7237SOL     OW22609   5.551   0.906   0.134
 7237SOL    HW122610   5.474   0.901   0.198
 7237SOL    HW222611   5.604   0.821   0.138
 7238SOL     OW22612   3.690   3.244   0.860
 7238SOL    HW122613   3.653   3.254   0.952
 7238SOL    HW222614   3.788   3.264   0.860
 7239SOL     OW22615   6.970   2.464   2.310
 7239SOL    HW122616   0.042   2.479   2.302
 7239SOL    HW222617   6.923   2.521   2.243
 7240SOL     OW22618   6.862   2.091   6.432
 7240SOL    HW122619   6.865   2.089   6.332
 7240SOL    HW222620   6.769   2.071   6.462
 7241SOL     OW22621   2.643   1.475   1.424
 7241SOL    HW122622   2.551   1.460   1.387
 7241SOL    HW222623   2.703   1.400   1.394
 7242SOL     OW22624   6.447   5.541   4.911
 7242SOL    HW122625   6.427   5.575   4.819
 7242SOL    HW222626   6.364   5.541   4.966
 7243SOL     OW22627   6.100   4.421   6.512
 7243SOL    HW122628   6.027   4.356   6.531
 7243SOL    HW222629   6.154   4.390   6.434
 7244SOL     OW22630   0.556   6.265   6.990
 7244SOL    HW122631   0.646   6.225   6.971
 7244SOL    HW222632   0.485   6.198   6.966
 7245SOL     OW22633   0.899   3.255   0.102
 7245SOL    HW122634   0.839   3.218   0.031
 7245SOL    HW222635   0.913   3.353   0.087
 7246SOL     OW22636   3.684   6.761   3.598
 7246SOL    HW122637   3.682   6.855   3.630
 7246SOL    HW222638   3.778   6.733   3.581
 7247SOL     OW22639   3.213   3.382   5.707
 7247SOL    HW122640   3.165   3.466   5.684
 7247SOL    HW222641   3.312   3.396   5.698
 7248SOL     OW22642   3.417   0.777   4.871
 7248SOL    HW122643   3.412   0.704   4.804
 7248SOL    HW222644   3.341   0.841   4.856
 7249SOL     OW22645   3.983   5.188   2.100
 7249SOL    HW122646   3.891   5.163   2.129
 7249SOL    HW222647   4.041   5.202   2.180
 7250SOL     OW22648   5.064   5.525   5.631
 7250SOL    HW122649   4.984   5.481   5.672
 7250SOL    HW222650   5.080   5.614   5.673
 7251SOL     OW22651   6.883   5.890   5.387
 7251SOL    HW122652   6.948   5.935   5.326
 7251SOL    HW222653   6.791   5.900   5.350
 7252SOL     OW22654   3.462   4.114   2.406
 7252SOL    HW122655   3.411   4.063   2.337
 7252SOL    HW222656   3.478   4.207   2.374
 7253SOL     OW22657   1.526   6.091   5.510
 7253SOL    HW122658   1.614   6.058   5.477
 7253SOL    HW222659   1.533   6.187   5.535
 7254SOL     OW22660   5.230   4.152   4.041
 7254SOL    HW122661   5.309   4.211   4.057
 7254SOL    HW222662   5.221   4.087   4.116
 7255SOL     OW22663   5.307   3.213   6.397
 7255SOL    HW122664   5.238   3.233   6.328
 7255SOL    HW222665   5.362   3.295   6.414
 7256SOL     OW22666   3.497   6.764   5.949
 7256SOL    HW122667   3.536   6.856   5.955
 7256SOL    HW222668   3.511   6.716   6.035
 7257SOL     OW22669   0.688   1.688   4.612
 7257SOL    HW122670   0.693   1.746   4.693
 7257SOL    HW222671   0.766   1.707   4.552
 7258SOL     OW22672   6.450   1.989   3.383
 7258SOL    HW122673   6.364   1.953   3.346
 7258SOL    HW222674   6.497   2.042   3.312
 7259SOL     OW22675   0.918   4.542   3.069
 7259SOL    HW122676   0.824   4.535   3.104
 7259SOL    HW222677   0.982   4.504   3.136
 7260SOL     OW22678   5.537   3.330   1.243
 7260SOL    HW122679   5.630   3.295   1.248
 7260SOL    HW222680   5.503   3.351   1.335
 7261SOL     OW22681   0.062   4.299   6.627
 7261SOL    HW122682   0.096   4.282   6.720
 7261SOL    HW222683   7.008   4.358   6.632
 7262SOL     OW22684   6.605   2.123   5.848
 7262SOL    HW122685   6.558   2.080   5.770
 7262SOL    HW222686   6.702   2.099   5.846
 7263SOL     OW22687   0.532   5.465   6.987
 7263SOL    HW122688   0.523   5.416   6.900
 7263SOL    HW222689   0.604   5.422   0.015
 7264SOL     OW22690   5.866   1.468   1.035
 7264SOL    HW122691   5.908   1.537   1.093
 7264SOL    HW222692   5.859   1.502   0.942
 7265SOL     OW22693   4.204   5.568   5.286
 7265SOL    HW122694   4.220   5.583   5.188
 7265SOL    HW222695   4.248   5.482   5.313
 7266SOL     OW22696   0.067   0.704   3.771
 7266SOL    HW122697   0.122   0.630   3.733
 7266SOL    HW222698   0.123   0.760   3.832
 7267SOL     OW22699   6.158   5.706   4.489
 7267SOL    HW122700   6.072   5.663   4.515
 7267SOL    HW222701   6.214   5.641   4.438
 7268SOL     OW22702   6.447   6.229   3.888
 7268SOL    HW122703   6.352   6.255   3.870
 7268SOL    HW222704   6.476   6.160   3.821
 7269SOL     OW22705   2.403   5.050   5.034
 7269SOL    HW122706   2.491   5.006   5.049
 7269SOL    HW222707   2.416   5.148   5.018
 7270SOL     OW22708   0.477   1.714   4.179
 7270SOL    HW122709   0.463   1.651   4.103
 7270SOL    HW222710   0.389   1.750   4.210
 7271SOL     OW22711   0.815   4.176   3.944
 7271SOL    HW122712   0.818   4.251   4.011
 7271SOL    HW222713   0.735   4.186   3.886
 7272SOL     OW22714   5.992   5.596   2.931
 7272SOL    HW122715   6.068   5.602   2.866
 7272SOL    HW222716   6.025   5.554   3.016
 7273SOL     OW22717   0.150   2.805   5.482
 7273SOL    HW122718   0.214   2.874   5.515
 7273SOL    HW222719   0.200   2.721   5.461
 7274SOL     OW22720   0.743   4.604   6.895
 7274SOL    HW122721   0.794   4.658   6.828
 7274SOL    HW222722   0.675   4.548   6.849
 7275SOL     OW22723   6.315   0.185   3.170
 7275SOL    HW122724   6.255   0.264   3.173
 7275SOL    HW222725   6.332   0.159   3.074
 7276SOL     OW22726   4.571   6.904   3.734
 7276SOL    HW122727   4.651   6.933   3.786
 7276SOL    HW222728   4.513   6.983   3.715
 7277SOL     OW22729   4.375   0.369   5.774
 7277SOL    HW122730   4.386   0.284   5.826
 7277SOL    HW222731   4.396   0.447   5.833
 7278SOL     OW22732   2.919   3.644   2.504
 7278SOL    HW122733   2.977   3.710   2.457
 7278SOL    HW222734   2.837   3.627   2.449
 7279SOL     OW22735   3.683   5.937   6.323
 7279SOL    HW122736   3.744   5.900   6.253
 7279SOL    HW222737   3.633   5.862   6.366
 7280SOL     OW22738   4.473   0.583   5.932
 7280SOL    HW122739   4.414   0.568   6.011
 7280SOL    HW222740   4.474   0.681   5.909
 7281SOL     OW22741   4.310   1.297   6.770
 7281SOL    HW122742   4.310   1.201   6.743
 7281SOL    HW222743   4.398   1.338   6.746
 7282SOL     OW22744   6.006   5.101   1.792
 7282SOL    HW122745   6.086   5.080   1.849
 7282SOL    HW222746   5.941   5.155   1.844
 7283SOL     OW22747   2.492   0.814   3.454
 7283SOL    HW122748   2.419   0.800   3.386
 7283SOL    HW222749   2.490   0.909   3.485
 7284SOL     OW22750   6.993   3.844   5.592
 7284SOL    HW122751   7.007   3.896   5.508
 7284SOL    HW222752   6.897   3.851   5.621
 7285SOL     OW22753   5.476   5.823   2.174
 7285SOL    HW122754   5.478   5.737   2.225
 7285SOL    HW222755   5.455   5.898   2.237
 7286SOL     OW22756   2.648   3.069   1.013
 7286SOL    HW122757   2.720   3.095   1.078
 7286SOL    HW222758   2.687   3.058   0.922
 7287SOL     OW22759   6.419   0.792   6.344
 7287SOL    HW122760   6.326   0.763   6.363
 7287SOL    HW222761   6.420   0.891   6.327
 7288SOL     OW22762   3.923   0.475   6.783
 7288SOL    HW122763   4.001   0.480   6.722
 7288SOL    HW222764   3.840   0.461   6.730
 7289SOL     OW22765   5.522   2.023   2.801
 7289SOL    HW122766   5.523   1.965   2.883
 7289SOL    HW222767   5.613   2.063   2.788
 7290SOL     OW22768   2.346   5.222   4.758
 7290SOL    HW122769   2.320   5.138   4.805
 7290SOL    HW222770   2.330   5.211   4.660
 7291SOL     OW22771   2.536   6.280   1.434
 7291SOL    HW122772   2.623   6.329   1.434
 7291SOL    HW222773   2.486   6.300   1.350
 7292SOL     OW22774   2.631   6.680   3.746
 7292SOL    HW122775   2.725   6.646   3.752
 7292SOL    HW222776   2.631   6.772   3.707
 7293SOL     OW22777   2.149   1.769   4.949
 7293SOL    HW122778   2.156   1.855   5.001
 7293SOL    HW222779   2.113   1.697   5.008
 7294SOL     OW22780   2.872   4.996   0.229
 7294SOL    HW122781   2.888   4.958   0.320
 7294SOL    HW222782   2.775   5.013   0.217
 7295SOL     OW22783   0.152   1.118   0.937
 7295SOL    HW122784   0.206   1.149   1.014
 7295SOL    HW222785   0.068   1.172   0.931
 7296SOL     OW22786   3.217   4.806   0.583
 7296SOL    HW122787   3.205   4.747   0.663
 7296SOL    HW222788   3.279   4.881   0.607
 7297SOL     OW22789   4.888   6.362   0.844
 7297SOL    HW122790   4.942   6.401   0.769
 7297SOL    HW222791   4.837   6.435   0.889
 7298SOL     OW22792   5.863   4.094   4.770
 7298SOL    HW122793   5.769   4.124   4.786
 7298SOL    HW222794   5.863   3.995   4.752
 7299SOL     OW22795   6.741   3.261   0.659
 7299SOL    HW122796   6.666   3.223   0.605
 7299SOL    HW222797   6.765   3.352   0.624
 7300SOL     OW22798   5.281   5.569   0.838
 7300SOL    HW122799   5.298   5.654   0.887
 7300SOL    HW222800   5.186   5.541   0.851
 7301SOL     OW22801   0.069   6.715   5.904
 7301SOL    HW122802   0.109   6.626   5.880
 7301SOL    HW222803   0.141   6.779   5.930
 7302SOL     OW22804   6.811   0.773   0.092
 7302SOL    HW122805   6.824   0.767   7.020
 7302SOL    HW222806   6.775   0.864   0.115
 7303SOL     OW22807   3.112   0.664   0.082
 7303SOL    HW122808   3.069   0.600   0.145
 7303SOL    HW222809   3.060   0.667   7.023
 7304SOL     OW22810   4.120   3.879   5.922
 7304SOL    HW122811   4.104   3.810   5.851
 7304SOL    HW222812   4.199   3.853   5.977
 7305SOL     OW22813   4.919   1.682   0.040
 7305SOL    HW122814   4.947   1.737   0.118
 7305SOL    HW222815   4.880   1.596   0.072
 7306SOL     OW22816   5.084   4.756   1.420
 7306SOL    HW122817   5.118   4.662   1.423
 7306SOL    HW222818   5.158   4.819   1.444
 7307SOL     OW22819   3.719   6.606   1.609
 7307SOL    HW122820   3.759   6.698   1.605
 7307SOL    HW222821   3.686   6.581   1.518
 7308SOL     OW22822   6.732   3.118   4.388
 7308SOL    HW122823   6.682   3.032   4.379
 7308SOL    HW222824   6.667   3.194   4.386
 7309SOL     OW22825   4.934   6.552   0.463
 7309SOL    HW122826   4.998   6.478   0.441
 7309SOL    HW222827   4.944   6.578   0.559
 7310SOL     OW22828   2.753   5.455   1.192
 7310SOL    HW122829   2.677   5.402   1.155
 7310SOL    HW222830   2.801   5.400   1.260
 7311SOL     OW22831   2.754   2.155   1.881
 7311SOL    HW122832   2.784   2.222   1.948
 7311SOL    HW222833   2.685   2.196   1.821
 7312SOL     OW22834   6.925   2.121   5.505
 7312SOL    HW122835   6.936   2.204   5.559
 7312SOL    HW222836   6.827   2.101   5.494
 7313SOL     OW22837   4.186   2.160   6.751
 7313SOL    HW122838   4.094   2.196   6.733
 7313SOL    HW222839   4.205   2.084   6.688
 7314SOL     OW22840   6.939   3.501   5.292
 7314SOL    HW122841   7.023   3.554   5.287
 7314SOL    HW222842   6.861   3.563   5.298
 7315SOL     OW22843   6.841   0.388   3.883
 7315SOL    HW122844   6.941   0.394   3.876
 7315SOL    HW222845   6.800   0.469   3.839
 7316SOL     OW22846   3.699   3.428   5.878
 7316SOL    HW122847   3.739   3.343   5.842
 7316SOL    HW222848   3.748   3.455   5.961
 7317SOL     OW22849   3.374   1.050   3.048
 7317SOL    HW122850   3.402   1.140   3.084
 7317SOL    HW222851   3.283   1.057   3.009
 7318SOL     OW22852   1.116   2.358   1.389
 7318SOL    HW122853   1.067   2.272   1.401
 7318SOL    HW222854   1.214   2.341   1.378
 7319SOL     OW22855   6.063   4.711   6.625
 7319SOL    HW122856   6.129   4.783   6.606
 7319SOL    HW222857   6.099   4.623   6.592
 7320SOL     OW22858   0.237   3.518   2.372
 7320SOL    HW122859   0.316   3.579   2.371
 7320SOL    HW222860   0.205   3.505   2.466
 7321SOL     OW22861   2.225   1.713   4.695
 7321SOL    HW122862   2.218   1.733   4.793
 7321SOL    HW222863   2.135   1.687   4.660
 7322SOL     OW22864   0.799   3.942   3.307
 7322SOL    HW122865   0.823   3.845   3.301
 7322SOL    HW222866   0.810   3.974   3.401
 7323SOL     OW22867   1.811   2.147   3.069
 7323SOL    HW122868   1.862   2.203   3.003
 7323SOL    HW222869   1.857   2.059   3.081
 7324SOL     OW22870   5.885   0.918   3.539
 7324SOL    HW122871   5.792   0.953   3.548
 7324SOL    HW222872   5.948   0.994   3.522
 7325SOL     OW22873   3.610   6.812   6.217
 7325SOL    HW122874   3.602   6.770   6.308
 7325SOL    HW222875   3.566   6.901   6.218
 7326SOL     OW22876   2.959   6.737   5.857
 7326SOL    HW122877   2.895   6.785   5.796
 7326SOL    HW222878   2.920   6.733   5.949
 7327SOL     OW22879   1.590   2.753   6.359
 7327SOL    HW122880   1.610   2.670   6.306
 7327SOL    HW222881   1.498   2.745   6.399
 7328SOL     OW22882   2.913   6.746   6.551
 7328SOL    HW122883   2.891   6.687   6.473
 7328SOL    HW222884   2.829   6.773   6.597
 7329SOL     OW22885   4.249   3.621   0.761
 7329SOL    HW122886   4.239   3.553   0.689
 7329SOL    HW222887   4.280   3.576   0.845
 7330SOL     OW22888   3.255   1.290   6.527
 7330SOL    HW122889   3.231   1.213   6.469
 7330SOL    HW222890   3.244   1.264   6.623
 7331SOL     OW22891   4.569   0.370   2.477
 7331SOL    HW122892   4.587   0.346   2.573
 7331SOL    HW222893   4.587   0.467   2.463
 7332SOL     OW22894   2.677   6.001   0.176
 7332SOL    HW122895   2.732   5.933   0.224
 7332SOL    HW222896   2.621   6.050   0.242
 7333SOL     OW22897   0.946   4.439   2.797
 7333SOL    HW122898   0.846   4.439   2.793
 7333SOL    HW222899   0.976   4.495   2.874
 7334SOL     OW22900   3.823   6.153   5.002
 7334SOL    HW122901   3.786   6.066   5.036
 7334SOL    HW222902   3.864   6.204   5.077
 7335SOL     OW22903   2.048   2.545   2.792
 7335SOL    HW122904   1.983   2.498   2.732
 7335SOL    HW222905   2.079   2.629   2.747
 7336SOL     OW22906   1.692   5.717   4.292
 7336SOL    HW122907   1.724   5.796   4.239
 7336SOL    HW222908   1.675   5.640   4.230
 7337SOL     OW22909   0.344   2.969   2.241
 7337SOL    HW122910   0.335   3.014   2.152
 7337SOL    HW222911   0.254   2.956   2.282
 7338SOL     OW22912   6.802   2.278   1.733
 7338SOL    HW122913   6.749   2.254   1.652
 7338SOL    HW222914   6.764   2.231   1.813
 7339SOL     OW22915   6.654   6.070   4.336
 7339SOL    HW122916   6.574   6.036   4.287
 7339SOL    HW222917   6.631   6.155   4.384
 7340SOL     OW22918   2.323   0.204   0.128
 7340SOL    HW122919   2.260   0.127   0.117
 7340SOL    HW222920   2.272   0.290   0.123
 7341SOL     OW22921   6.022   2.524   6.954
 7341SOL    HW122922   6.073   2.536   0.013
 7341SOL    HW222923   5.926   2.545   6.971
 7342SOL     OW22924   0.234   6.760   2.913
 7342SOL    HW122925   0.156   6.710   2.950
 7342SOL    HW222926   0.211   6.857   2.908
 7343SOL     OW22927   5.630   3.488   0.821
 7343SOL    HW122928   5.623   3.393   0.851
 7343SOL    HW222929   5.634   3.548   0.900
 7344SOL     OW22930   1.271   5.918   6.537
 7344SOL    HW122931   1.329   5.954   6.463
 7344SOL    HW222932   1.198   5.984   6.557
 7345SOL     OW22933   3.683   4.186   5.830
 7345SOL    HW122934   3.769   4.141   5.855
 7345SOL    HW222935   3.678   4.193   5.731
 7346SOL     OW22936   3.947   5.612   2.933
 7346SOL    HW122937   3.867   5.566   2.894
 7346SOL    HW222938   4.015   5.543   2.959
 7347SOL     OW22939   6.206   2.286   6.962
 7347SOL    HW122940   6.276   2.324   7.022
 7347SOL    HW222941   6.137   2.356   6.942
 7348SOL     OW22942   1.470   3.923   2.488
 7348SOL    HW122943   1.554   3.947   2.439
 7348SOL    HW222944   1.438   3.833   2.459
 7349SOL     OW22945   3.879   1.151   0.849
 7349SOL    HW122946   3.931   1.180   0.930
 7349SOL    HW222947   3.835   1.063   0.867
 7350SOL     OW22948   2.942   0.476   5.623
 7350SOL    HW122949   3.019   0.421   5.654
 7350SOL    HW222950   2.943   0.564   5.669
 7351SOL     OW22951   4.269   5.049   4.004
 7351SOL    HW122952   4.252   5.026   3.908
 7351SOL    HW222953   4.288   4.966   4.056
 7352SOL     OW22954   0.277   2.667   3.316
 7352SOL    HW122955   0.185   2.699   3.340
 7352SOL    HW222956   0.272   2.573   3.282
 7353SOL     OW22957   6.330   0.367   6.900
 7353SOL    HW122958   6.287   0.336   6.985
 7353SOL    HW222959   6.298   0.310   6.824
 7354SOL     OW22960   1.434   1.594   2.620
 7354SOL    HW122961   1.507   1.532   2.592
 7354SOL    HW222962   1.350   1.570   2.572
 7355SOL     OW22963   0.511   1.937   6.390
 7355SOL    HW122964   0.513   2.033   6.364
 7355SOL    HW222965   0.593   1.915   6.442
 7356SOL     OW22966   4.136   3.606   6.262
 7356SOL    HW122967   4.194   3.531   6.229
 7356SOL    HW222968   4.056   3.615   6.203
 7357SOL     OW22969   5.455   6.043   1.985
 7357SOL    HW122970   5.373   6.062   2.039
 7357SOL    HW222971   5.532   6.096   2.020
 7358SOL     OW22972   5.858   1.920   2.911
 7358SOL    HW122973   5.847   1.926   3.010
 7358SOL    HW222974   5.943   1.873   2.889
 7359SOL     OW22975   4.643   0.366   6.701
 7359SOL    HW122976   4.598   0.299   6.760
 7359SOL    HW222977   4.642   0.456   6.746
 7360SOL     OW22978   2.647   3.223   5.316
 7360SOL    HW122979   2.594   3.292   5.365
 7360SOL    HW222980   2.585   3.156   5.275
 7361SOL     OW22981   4.930   0.299   2.036
 7361SOL    HW122982   4.831   0.314   2.032
 7361SOL    HW222983   4.950   0.204   2.016
 7362SOL     OW22984   3.743   5.538   6.525
 7362SOL    HW122985   3.727   5.586   6.611
 7362SOL    HW222986   3.842   5.533   6.508
 7363SOL     OW22987   3.747   0.425   1.061
 7363SOL    HW122988   3.702   0.440   1.148
 7363SOL    HW222989   3.686   0.376   0.999
 7364SOL     OW22990   5.064   0.055   1.495
 7364SOL    HW122991   5.090   0.148   1.519
 7364SOL    HW222992   5.119   7.017   1.549
 7365SOL     OW22993   5.763   4.642   2.344
 7365SOL    HW122994   5.823   4.566   2.320
 7365SOL    HW222995   5.668   4.612   2.341
 7366SOL     OW22996   2.449   1.260   4.102
 7366SOL    HW122997   2.532   1.219   4.062
 7366SOL    HW222998   2.454   1.360   4.093
 7367SOL     OW22999   4.427   0.908   6.367
 7367SOL    HW123000   4.398   0.924   6.461
 7367SOL    HW223001   4.386   0.977   6.307
 7368SOL     OW23002   4.040   3.624   2.899
 7368SOL    HW123003   4.076   3.607   2.991
 7368SOL    HW223004   3.945   3.594   2.894
 7369SOL     OW23005   5.586   2.381   0.843
 7369SOL    HW123006   5.498   2.391   0.797
 7369SOL    HW223007   5.590   2.444   0.921
 7370SOL     OW23008   2.377   1.926   4.569
 7370SOL    HW123009   2.329   1.972   4.494
 7370SOL    HW223010   2.317   1.858   4.610
 7371SOL     OW23011   3.892   0.240   3.875
 7371SOL    HW123012   3.934   0.232   3.785
 7371SOL    HW223013   3.794   0.254   3.865
 7372SOL     OW23014   4.575   6.860   4.937
 7372SOL    HW123015   4.515   6.790   4.975
 7372SOL    HW223016   4.652   6.817   4.889
 7373SOL     OW23017   5.316   3.077   4.406
 7373SOL    HW123018   5.389   3.145   4.407
 7373SOL    HW223019   5.351   2.991   4.368
 7374SOL     OW23020   0.213   1.738   5.140
 7374SOL    HW123021   0.233   1.825   5.185
 7374SOL    HW223022   0.120   1.740   5.103
 7375SOL     OW23023   2.091   3.296   2.224
 7375SOL    HW123024   2.038   3.248   2.154
 7375SOL    HW223025   2.164   3.347   2.179
 7376SOL     OW23026   0.367   4.429   0.539
 7376SOL    HW123027   0.457   4.445   0.579
 7376SOL    HW223028   0.300   4.412   0.611
 7377SOL     OW23029   3.246   5.773   0.546
 7377SOL    HW123030   3.148   5.795   0.542
 7377SOL    HW223031   3.260   5.678   0.517
 7378SOL     OW23032   1.490   6.287   4.032
 7378SOL    HW123033   1.526   6.296   4.126
 7378SOL    HW223034   1.539   6.213   3.985
 7379SOL     OW23035   4.219   0.792   0.668
 7379SOL    HW123036   4.223   0.710   0.725
 7379SOL    HW223037   4.237   0.873   0.724
 7380SOL     OW23038   5.624   3.657   2.924
 7380SOL    HW123039   5.631   3.564   2.888
 7380SOL    HW223040   5.672   3.662   3.012
 7381SOL     OW23041   3.986   0.850   0.238
 7381SOL    HW123042   3.909   0.914   0.230
 7381SOL    HW223043   4.063   0.895   0.282
 7382SOL     OW23044   6.719   1.199   6.230
 7382SOL    HW123045   6.750   1.108   6.256
 7382SOL    HW223046   6.692   1.250   6.311
 7383SOL     OW23047   2.228   6.492   1.593
 7383SOL    HW123048   2.180   6.407   1.575
 7383SOL    HW223049   2.230   6.548   1.511
 7384SOL     OW23050   0.164   6.964   0.926
 7384SOL    HW123051   0.102   6.978   1.004
 7384SOL    HW223052   0.146   6.875   0.885
 7385SOL     OW23053   5.043   4.645   2.649
 7385SOL    HW123054   5.072   4.725   2.702
 7385SOL    HW223055   5.123   4.595   2.618
 7386SOL     OW23056   6.423   3.335   0.457
 7386SOL    HW123057   6.491   3.263   0.446
 7386SOL    HW223058   6.446   3.391   0.537
 7387SOL     OW23059   6.480   5.384   5.570
 7387SOL    HW123060   6.537   5.307   5.542
 7387SOL    HW223061   6.387   5.352   5.587
 7388SOL     OW23062   1.882   6.131   2.626
 7388SOL    HW123063   1.865   6.226   2.601
 7388SOL    HW223064   1.806   6.097   2.681
 7389SOL     OW23065   6.209   3.127   0.469
 7389SOL    HW123066   6.235   3.148   0.375
 7389SOL    HW223067   6.255   3.190   0.531
 7390SOL     OW23068   2.533   1.788   2.619
 7390SOL    HW123069   2.549   1.856   2.547
 7390SOL    HW223070   2.599   1.714   2.611
 7391SOL     OW23071   3.693   2.998   3.149
 7391SOL    HW123072   3.780   3.026   3.108
 7391SOL    HW223073   3.628   3.074   3.145
 7392SOL     OW23074   3.403   5.801   6.480
 7392SOL    HW123075   3.406   5.749   6.565
 7392SOL    HW223076   3.414   5.899   6.499
 7393SOL     OW23077   5.620   5.768   4.464
 7393SOL    HW123078   5.636   5.683   4.413
 7393SOL    HW223079   5.548   5.820   4.419
 7394SOL     OW23080   2.468   1.947   5.783
 7394SOL    HW123081   2.441   2.017   5.718
 7394SOL    HW223082   2.526   1.988   5.854
 7395SOL     OW23083   2.834   5.166   1.013
 7395SOL    HW123084   2.899   5.171   1.088
 7395SOL    HW223085   2.882   5.177   0.926
 7396SOL     OW23086   2.177   5.176   1.908
 7396SOL    HW123087   2.254   5.223   1.864
 7396SOL    HW223088   2.208   5.089   1.946
 7397SOL     OW23089   5.188   4.521   3.841
 7397SOL    HW123090   5.248   4.587   3.888
 7397SOL    HW223091   5.128   4.477   3.908
 7398SOL     OW23092   2.324   4.191   2.421
 7398SOL    HW123093   2.304   4.108   2.473
 7398SOL    HW223094   2.311   4.172   2.323
 7399SOL     OW23095   5.171   1.963   4.807
 7399SOL    HW123096   5.150   2.018   4.887
 7399SOL    HW223097   5.232   2.014   4.746
 7400SOL     OW23098   5.263   3.128   5.596
 7400SOL    HW123099   5.251   3.227   5.583
 7400SOL    HW223100   5.176   3.082   5.577
 7401SOL     OW23101   1.444   2.887   3.819
 7401SOL    HW123102   1.410   2.843   3.735
 7401SOL    HW223103   1.376   2.878   3.891
 7402SOL     OW23104   3.306   6.408   5.273
 7402SOL    HW123105   3.256   6.339   5.324
 7402SOL    HW223106   3.403   6.387   5.274
 7403SOL     OW23107   1.203   3.283   4.899
 7403SOL    HW123108   1.136   3.323   4.837
 7403SOL    HW223109   1.222   3.347   4.974
 7404SOL     OW23110   3.066   3.864   0.813
 7404SOL    HW123111   3.058   3.959   0.843
 7404SOL    HW223112   3.034   3.856   0.719
 7405SOL     OW23113   3.159   6.103   4.903
 7405SOL    HW123114   3.255   6.117   4.925
 7405SOL    HW223115   3.131   6.169   4.833
 7406SOL     OW23116   0.846   1.238   5.043
 7406SOL    HW123117   0.798   1.180   5.109
 7406SOL    HW223118   0.836   1.334   5.070
 7407SOL     OW23119   1.002   6.070   5.384
 7407SOL    HW123120   0.905   6.067   5.406
 7407SOL    HW223121   1.020   6.146   5.322
 7408SOL     OW23122   3.589   3.887   5.383
 7408SOL    HW123123   3.535   3.956   5.432
 7408SOL    HW223124   3.529   3.814   5.352
 7409SOL     OW23125   6.277   4.012   0.675
 7409SOL    HW123126   6.343   4.071   0.721
 7409SOL    HW223127   6.324   3.933   0.635
 7410SOL     OW23128   6.998   0.268   1.096
 7410SOL    HW123129   6.920   0.222   1.139
 7410SOL    HW223130   0.032   0.303   1.167
 7411SOL     OW23131   1.280   2.230   4.795
 7411SOL    HW123132   1.361   2.262   4.745
 7411SOL    HW223133   1.236   2.307   4.841
 7412SOL     OW23134   4.398   6.389   6.729
 7412SOL    HW123135   4.330   6.445   6.775
 7412SOL    HW223136   4.473   6.368   6.793
 7413SOL     OW23137   4.145   6.734   2.905
 7413SOL    HW123138   4.105   6.768   2.990
 7413SOL    HW223139   4.097   6.651   2.876
 7414SOL     OW23140   2.455   2.037   3.947
 7414SOL    HW123141   2.510   2.073   4.022
 7414SOL    HW223142   2.408   2.113   3.901
 7415SOL     OW23143   3.678   6.494   6.250
 7415SOL    HW123144   3.647   6.546   6.330
 7415SOL    HW223145   3.770   6.460   6.267
 7416SOL     OW23146   1.164   1.442   2.074
 7416SOL    HW123147   1.122   1.405   2.157
 7416SOL    HW223148   1.096   1.444   2.000
 7417SOL     OW23149   0.550   1.679   3.635
 7417SOL    HW123150   0.536   1.732   3.552
 7417SOL    HW223151   0.475   1.696   3.699
 7418SOL     OW23152   1.901   4.298   6.037
 7418SOL    HW123153   1.867   4.263   6.124
 7418SOL    HW223154   1.844   4.263   5.963
 7419SOL     OW23155   0.095   3.537   3.922
 7419SOL    HW123156   0.121   3.526   3.826
 7419SOL    HW223157   0.177   3.543   3.978
 7420SOL     OW23158   6.246   7.021   1.564
 7420SOL    HW123159   6.244   0.091   1.590
 7420SOL    HW223160   6.323   7.004   1.503
 7421SOL     OW23161   4.889   4.350   1.328
 7421SOL    HW123162   4.859   4.297   1.248
 7421SOL    HW223163   4.893   4.289   1.408
 7422SOL     OW23164   5.592   2.654   2.296
 7422SOL    HW123165   5.637   2.583   2.242
 7422SOL    HW223166   5.510   2.617   2.339
 7423SOL     OW23167   5.903   2.077   6.165
 7423SOL    HW123168   5.903   2.075   6.065
 7423SOL    HW223169   5.991   2.113   6.197
 7424SOL     OW23170   0.768   1.833   3.810
 7424SOL    HW123171   0.723   1.750   3.842
 7424SOL    HW223172   0.799   1.820   3.716
 7425SOL     OW23173   5.897   0.866   0.100
 7425SOL    HW123174   5.972   0.804   0.125
 7425SOL    HW223175   5.891   0.939   0.169
 7426SOL     OW23176   3.452   3.018   5.963
 7426SOL    HW123177   3.473   2.925   5.934
 7426SOL    HW223178   3.534   3.075   5.958
 7427SOL     OW23179   3.437   1.392   3.846
 7427SOL    HW123180   3.370   1.416   3.776
 7427SOL    HW223181   3.459   1.295   3.839
 7428SOL     OW23182   4.112   6.005   5.418
 7428SOL    HW123183   4.121   6.000   5.318
 7428SOL    HW223184   4.132   5.915   5.458
 7429SOL     OW23185   1.591   6.680   2.713
 7429SOL    HW123186   1.672   6.724   2.675
 7429SOL    HW223187   1.510   6.733   2.689
 7430SOL     OW23188   6.658   5.344   2.342
 7430SOL    HW123189   6.577   5.313   2.292
 7430SOL    HW223190   6.667   5.291   2.427
 7431SOL     OW23191   1.612   1.700   4.427
 7431SOL    HW123192   1.529   1.702   4.372
 7431SOL    HW223193   1.667   1.781   4.409
 7432SOL     OW23194   1.694   0.022   3.175
 7432SOL    HW123195   1.627   0.001   3.247
 7432SOL    HW223196   1.754   6.970   3.161
 7433SOL     OW23197   2.684   0.237   0.243
 7433SOL    HW123198   2.666   0.146   0.206
 7433SOL    HW223199   2.642   0.306   0.183
 7434SOL     OW23200   3.880   6.097   5.761
 7434SOL    HW123201   3.883   6.189   5.801
 7434SOL    HW223202   3.973   6.063   5.747
 7435SOL     OW23203   4.740   5.310   3.142
 7435SOL    HW123204   4.671   5.328   3.212
 7435SOL    HW223205   4.694   5.289   3.056
 7436SOL     OW23206   5.246   2.883   6.353
 7436SOL    HW123207   5.233   2.973   6.311
 7436SOL    HW223208   5.314   2.831   6.301
 7437SOL     OW23209   3.808   6.220   0.947
 7437SOL    HW123210   3.859   6.182   0.870
 7437SOL    HW223211   3.710   6.212   0.929
 7438SOL     OW23212   2.128   0.653   0.446
 7438SOL    HW123213   2.221   0.690   0.448
 7438SOL    HW223214   2.082   0.684   0.363
 7439SOL     OW23215   1.054   4.569   5.980
 7439SOL    HW123216   1.117   4.495   6.003
 7439SOL    HW223217   0.963   4.546   6.014
 7440SOL     OW23218   5.348   3.291   4.798
 7440SOL    HW123219   5.351   3.217   4.866
 7440SOL    HW223220   5.256   3.297   4.760
 7441SOL     OW23221   5.937   5.934   1.681
 7441SOL    HW123222   5.978   5.855   1.634
 7441SOL    HW223223   6.007   5.984   1.731
 7442SOL     OW23224   5.061   0.557   5.393
 7442SOL    HW123225   5.005   0.567   5.310
 7442SOL    HW223226   5.006   0.517   5.466
 7443SOL     OW23227   6.839   0.305   2.043
 7443SOL    HW123228   6.805   0.383   1.990
 7443SOL    HW223229   6.919   0.266   1.997
 7444SOL     OW23230   1.268   6.252   6.848
 7444SOL    HW123231   1.292   6.296   6.935
 7444SOL    HW223232   1.346   6.256   6.786
 7445SOL     OW23233   3.988   6.251   1.142
 7445SOL    HW123234   3.922   6.215   1.075
 7445SOL    HW223235   3.947   6.327   1.192
 7446SOL     OW23236   5.504   3.694   0.379
 7446SOL    HW123237   5.514   3.623   0.448
 7446SOL    HW223238   5.575   3.684   0.309
 7447SOL     OW23239   0.710   4.919   1.383
 7447SOL    HW123240   0.725   4.847   1.316
 7447SOL    HW223241   0.625   4.900   1.433
 7448SOL     OW23242   4.269   4.792   6.490
 7448SOL    HW123243   4.306   4.841   6.411
 7448SOL    HW223244   4.246   4.858   6.562
 7449SOL     OW23245   0.697   4.381   6.285
 7449SOL    HW123246   0.676   4.284   6.275
 7449SOL    HW223247   0.642   4.434   6.221
 7450SOL     OW23248   5.199   1.890   5.303
 7450SOL    HW123249   5.286   1.863   5.260
 7450SOL    HW223250   5.218   1.942   5.386
 7451SOL     OW23251   5.510   5.121   3.200
 7451SOL    HW123252   5.422   5.076   3.211
 7451SOL    HW223253   5.515   5.164   3.110
 7452SOL     OW23254   6.351   5.205   5.263
 7452SOL    HW123255   6.345   5.296   5.303
 7452SOL    HW223256   6.398   5.210   5.175
 7453SOL     OW23257   3.685   5.962   6.849
 7453SOL    HW123258   3.764   5.908   6.818
 7453SOL    HW223259   3.611   5.900   6.876
 7454SOL     OW23260   3.488   2.295   0.668
 7454SOL    HW123261   3.546   2.286   0.749
 7454SOL    HW223262   3.504   2.384   0.626
 7455SOL     OW23263   6.701   2.860   3.656
 7455SOL    HW123264   6.776   2.806   3.693
 7455SOL    HW223265   6.709   2.866   3.556
 7456SOL     OW23266   3.468   2.054   5.721
 7456SOL    HW123267   3.518   1.997   5.656
 7456SOL    HW223268   3.444   2.141   5.678
 7457SOL     OW23269   2.730   0.096   2.910
 7457SOL    HW123270   2.675   0.122   2.831
 7457SOL    HW223271   2.672   0.095   2.992
 7458SOL     OW23272   1.251   5.416   5.179
 7458SOL    HW123273   1.267   5.323   5.144
 7458SOL    HW223274   1.262   5.482   5.104
 7459SOL     OW23275   5.910   0.495   2.793
 7459SOL    HW123276   5.918   0.397   2.778
 7459SOL    HW223277   5.972   0.522   2.868
 7460SOL     OW23278   1.639   6.382   0.945
 7460SOL    HW123279   1.604   6.460   0.996
 7460SOL    HW223280   1.688   6.321   1.007
 7461SOL     OW23281   1.275   4.942   6.134
 7461SOL    HW123282   1.227   5.020   6.175
 7461SOL    HW223283   1.231   4.917   6.048
 7462SOL     OW23284   1.086   4.865   0.533
 7462SOL    HW123285   1.147   4.864   0.612
 7462SOL    HW223286   1.130   4.913   0.457
 7463SOL     OW23287   3.341   4.791   1.088
 7463SOL    HW123288   3.436   4.768   1.067
 7463SOL    HW223289   3.292   4.708   1.114
 7464SOL     OW23290   6.407   6.025   5.238
 7464SOL    HW123291   6.404   6.022   5.338
 7464SOL    HW223292   6.322   5.985   5.201
 7465SOL     OW23293   1.505   5.054   0.466
 7465SOL    HW123294   1.511   5.088   0.372
 7465SOL    HW223295   1.456   5.120   0.523
 7466SOL     OW23296   0.619   6.695   4.838
 7466SOL    HW123297   0.539   6.637   4.826
 7466SOL    HW223298   0.632   6.751   4.756
 7467SOL     OW23299   0.292   2.809   6.047
 7467SOL    HW123300   0.379   2.834   6.090
 7467SOL    HW223301   0.304   2.806   5.948
 7468SOL     OW23302   6.154   3.724   5.846
 7468SOL    HW123303   6.185   3.735   5.751
 7468SOL    HW223304   6.141   3.815   5.886
 7469SOL     OW23305   6.387   2.325   1.287
 7469SOL    HW123306   6.447   2.330   1.367
 7469SOL    HW223307   6.298   2.365   1.309
 7470SOL     OW23308   5.306   3.261   4.119
 7470SOL    HW123309   5.243   3.324   4.073
 7470SOL    HW223310   5.254   3.184   4.156
 7471SOL     OW23311   5.250   6.206   5.561
 7471SOL    HW123312   5.226   6.120   5.515
 7471SOL    HW223313   5.170   6.266   5.562
 7472SOL     OW23314   6.047   6.060   5.334
 7472SOL    HW123315   5.954   6.098   5.339
 7472SOL    HW223316   6.112   6.129   5.364
 7473SOL     OW23317   4.040   6.146   3.627
 7473SOL    HW123318   4.117   6.198   3.664
 7473SOL    HW223319   4.068   6.102   3.542
 7474SOL     OW23320   6.657   2.011   5.470
 7474SOL    HW123321   6.587   2.083   5.477
 7474SOL    HW223322   6.632   1.949   5.396
 7475SOL     OW23323   4.890   2.630   0.781
 7475SOL    HW123324   4.820   2.668   0.721
 7475SOL    HW223325   4.867   2.651   0.876
 7476SOL     OW23326   1.711   0.753   2.753
 7476SOL    HW123327   1.790   0.760   2.815
 7476SOL    HW223328   1.689   0.656   2.740
 7477SOL     OW23329   0.695   4.468   4.926
 7477SOL    HW123330   0.634   4.394   4.954
 7477SOL    HW223331   0.732   4.448   4.836
 7478SOL     OW23332   1.013   1.468   5.903
 7478SOL    HW123333   1.110   1.470   5.927
 7478SOL    HW223334   0.975   1.560   5.911
 7479SOL     OW23335   6.117   3.296   0.096
 7479SOL    HW123336   6.097   3.199   0.110
 7479SOL    HW223337   6.208   3.305   0.054
 7480SOL     OW23338   4.040   4.786   2.636
 7480SOL    HW123339   4.012   4.758   2.728
 7480SOL    HW223340   4.112   4.724   2.603
 7481SOL     OW23341   0.335   3.889   6.417
 7481SOL    HW123342   0.405   3.924   6.479
 7481SOL    HW223343   0.342   3.935   6.329
 7482SOL     OW23344   3.764   1.757   2.691
 7482SOL    HW123345   3.784   1.806   2.776
 7482SOL    HW223346   3.690   1.803   2.643
 7483SOL     OW23347   4.956   2.273   5.898
 7483SOL    HW123348   4.885   2.298   5.832
 7483SOL    HW223349   4.919   2.206   5.962
 7484SOL     OW23350   3.140   6.805   4.094
 7484SOL    HW123351   3.123   6.861   4.174
 7484SOL    HW223352   3.213   6.739   4.113
 7485SOL     OW23353   2.992   6.987   4.998
 7485SOL    HW123354   2.920   0.028   4.988
 7485SOL    HW223355   3.036   6.970   4.910
 7486SOL     OW23356   2.547   6.582   1.212
 7486SOL    HW123357   2.468   6.525   1.235
 7486SOL    HW223358   2.630   6.526   1.211
 7487SOL     OW23359   4.566   6.585   3.875
 7487SOL    HW123360   4.582   6.624   3.784
 7487SOL    HW223361   4.504   6.644   3.927
 7488SOL     OW23362   0.914   5.180   3.688
 7488SOL    HW123363   0.927   5.248   3.761
 7488SOL    HW223364   0.818   5.183   3.658
 7489SOL     OW23365   6.255   3.337   6.509
 7489SOL    HW123366   6.244   3.390   6.594
 7489SOL    HW223367   6.276   3.242   6.532
 7490SOL     OW23368   1.314   2.209   1.803
 7490SOL    HW123369   1.386   2.186   1.737
 7490SOL    HW223370   1.301   2.132   1.866
 7491SOL     OW23371   4.154   3.167   0.265
 7491SOL    HW123372   4.070   3.127   0.301
 7491SOL    HW223373   4.217   3.094   0.239
 7492SOL     OW23374   1.481   0.461   4.199
 7492SOL    HW123375   1.489   0.460   4.298
 7492SOL    HW223376   1.456   0.552   4.168
 7493SOL     OW23377   6.807   4.284   5.063
 7493SOL    HW123378   6.795   4.200   5.011
 7493SOL    HW223379   6.799   4.264   5.161
 7494SOL     OW23380   5.900   1.021   2.778
 7494SOL    HW123381   5.808   1.028   2.739
 7494SOL    HW223382   5.952   0.951   2.730
 7495SOL     OW23383   1.508   3.908   5.579
 7495SOL    HW123384   1.524   3.814   5.609
 7495SOL    HW223385   1.595   3.953   5.561
 7496SOL     OW23386   5.900   4.312   2.616
 7496SOL    HW123387   5.972   4.366   2.572
 7496SOL    HW223388   5.811   4.340   2.582
 7497SOL     OW23389   0.249   6.879   0.316
 7497SOL    HW123390   0.279   6.784   0.311
 7497SOL    HW223391   0.150   6.883   0.301
 7498SOL     OW23392   2.997   0.122   2.535
 7498SOL    HW123393   3.067   0.193   2.543
 7498SOL    HW223394   2.922   0.155   2.478
 7499SOL     OW23395   4.090   1.842   3.569
 7499SOL    HW123396   4.048   1.754   3.546
 7499SOL    HW223397   4.029   1.893   3.629
 7500SOL     OW23398   3.687   6.942   2.729
 7500SOL    HW123399   3.644   6.968   2.815
 7500SOL    HW223400   3.617   6.923   2.660
 7501SOL     OW23401   5.832   2.367   4.978
 7501SOL    HW123402   5.918   2.370   4.928
 7501SOL    HW223403   5.817   2.275   5.014
 7502SOL     OW23404   4.003   0.694   4.358
 7502SOL    HW123405   4.063   0.703   4.278
 7502SOL    HW223406   4.018   0.771   4.420
 7503SOL     OW23407   1.786   6.569   1.523
 7503SOL    HW123408   1.773   6.594   1.427
 7503SOL    HW223409   1.824   6.647   1.573
 7504SOL     OW23410   6.392   6.566   3.671
 7504SOL    HW123411   6.444   6.650   3.658
 7504SOL    HW223412   6.350   6.566   3.762
 7505SOL     OW23413   0.985   6.837   5.480
 7505SOL    HW123414   0.986   6.926   5.527
 7505SOL    HW223415   0.993   6.764   5.548
 7506SOL     OW23416   2.709   1.712   3.037
 7506SOL    HW123417   2.760   1.697   3.121
 7506SOL    HW223418   2.756   1.667   2.961
 7507SOL     OW23419   6.433   4.176   4.617
 7507SOL    HW123420   6.480   4.099   4.572
 7507SOL    HW223421   6.492   4.256   4.617
 7508SOL     OW23422   1.840   5.965   6.654
 7508SOL    HW123423   1.907   6.037   6.636
 7508SOL    HW223424   1.751   6.007   6.673
 7509SOL     OW23425   5.454   4.107   0.352
 7509SOL    HW123426   5.524   4.093   0.422
 7509SOL    HW223427   5.497   4.129   0.265
 7510SOL     OW23428   3.808   3.706   3.674
 7510SOL    HW123429   3.858   3.652   3.606
 7510SOL    HW223430   3.825   3.803   3.659
 7511SOL     OW23431   3.697   6.307   3.349
 7511SOL    HW123432   3.755   6.231   3.320
 7511SOL    HW223433   3.744   6.393   3.334
 7512SOL     OW23434   3.594   0.112   5.988
 7512SOL    HW123435   3.585   0.200   5.942
 7512SOL    HW223436   3.690   0.094   6.009
 7513SOL     OW23437   0.956   2.224   2.089
 7513SOL    HW123438   0.988   2.131   2.071
 7513SOL    HW223439   0.960   2.277   2.004
 7514SOL     OW23440   1.609   4.212   2.146
 7514SOL    HW123441   1.584   4.264   2.064
 7514SOL    HW223442   1.642   4.122   2.120
 7515SOL     OW23443   0.238   4.685   4.094
 7515SOL    HW123444   0.250   4.748   4.017
 7515SOL    HW223445   0.141   4.663   4.104
 7516SOL     OW23446   1.399   6.317   4.974
 7516SOL    HW123447   1.412   6.264   5.058
 7516SOL    HW223448   1.382   6.413   4.998
 7517SOL     OW23449   0.694   1.455   6.969
 7517SOL    HW123450   0.741   1.516   0.006
 7517SOL    HW223451   0.606   1.496   6.944
 7518SOL     OW23452   4.707   2.635   3.392
 7518SOL    HW123453   4.779   2.566   3.380
 7518SOL    HW223454   4.735   2.720   3.348
 7519SOL     OW23455   3.890   6.117   4.374
 7519SOL    HW123456   3.814   6.132   4.311
 7519SOL    HW223457   3.880   6.176   4.454
 7520SOL     OW23458   1.475   2.290   0.579
 7520SOL    HW123459   1.520   2.201   0.566
 7520SOL    HW223460   1.464   2.308   0.677
 7521SOL     OW23461   3.973   1.557   5.210
 7521SOL    HW123462   3.969   1.511   5.299
 7521SOL    HW223463   3.987   1.490   5.138
 7522SOL     OW23464   1.933   0.187   3.334
 7522SOL    HW123465   1.976   0.203   3.423
 7522SOL    HW223466   1.841   0.149   3.348
 7523SOL     OW23467   5.527   0.958   6.351
 7523SOL    HW123468   5.525   1.055   6.327
 7523SOL    HW223469   5.582   0.908   6.284
 7524SOL     OW23470   0.326   3.382   4.878
 7524SOL    HW123471   0.372   3.302   4.916
 7524SOL    HW223472   0.362   3.465   4.921
 7525SOL     OW23473   4.567   5.876   6.396
 7525SOL    HW123474   4.549   5.975   6.400
 7525SOL    HW223475   4.607   5.847   6.483
 7526SOL     OW23476   2.499   3.313   1.644
 7526SOL    HW123477   2.444   3.350   1.719
 7526SOL    HW223478   2.476   3.361   1.559
 7527SOL     OW23479   4.242   4.968   3.741
 7527SOL    HW123480   4.226   4.880   3.696
 7527SOL    HW223481   4.299   5.026   3.683
 7528SOL     OW23482   6.556   3.033   6.640
 7528SOL    HW123483   6.645   2.987   6.647
 7528SOL    HW223484   6.521   3.051   6.732
 7529SOL     OW23485   6.808   2.858   4.581
 7529SOL    HW123486   6.810   2.816   4.490
 7529SOL    HW223487   6.809   2.786   4.651
 7530SOL     OW23488   6.658   1.954   1.723
 7530SOL    HW123489   6.614   1.990   1.641
 7530SOL    HW223490   6.607   1.874   1.755
 7531SOL     OW23491   4.302   2.010   3.623
 7531SOL    HW123492   4.219   1.959   3.597
 7531SOL    HW223493   4.293   2.104   3.592
 7532SOL     OW23494   4.545   5.420   6.080
 7532SOL    HW123495   4.542   5.507   6.130
 7532SOL    HW223496   4.452   5.393   6.054
 7533SOL     OW23497   4.574   3.916   1.738
 7533SOL    HW123498   4.594   4.008   1.771
 7533SOL    HW223499   4.659   3.868   1.719
 7534SOL     OW23500   4.560   6.976   4.611
 7534SOL    HW123501   4.608   6.889   4.612
 7534SOL    HW223502   4.491   6.978   4.684
 7535SOL     OW23503   0.348   5.900   3.601
 7535SOL    HW123504   0.386   5.852   3.681
 7535SOL    HW223505   0.310   5.987   3.631
 7536SOL     OW23506   4.663   6.091   5.055
 7536SOL    HW123507   4.660   5.993   5.037
 7536SOL    HW223508   4.751   6.128   5.026
 7537SOL     OW23509   3.266   6.348   3.308
 7537SOL    HW123510   3.262   6.432   3.362
 7537SOL    HW223511   3.357   6.340   3.267
 7538SOL     OW23512   0.625   4.361   0.662
 7538SOL    HW123513   0.663   4.300   0.592
 7538SOL    HW223514   0.599   4.307   0.742
 7539SOL     OW23515   0.519   6.562   3.968
 7539SOL    HW123516   0.564   6.513   3.893
 7539SOL    HW223517   0.422   6.574   3.946
 7540SOL     OW23518   6.326   5.069   3.062
 7540SOL    HW123519   6.363   5.123   3.137
 7540SOL    HW223520   6.293   5.130   2.990
 7541SOL     OW23521   1.805   4.147   6.813
 7541SOL    HW123522   1.805   4.086   6.892
 7541SOL    HW223523   1.855   4.230   6.834
 7542SOL     OW23524   5.711   5.544   5.585
 7542SOL    HW123525   5.701   5.627   5.640
 7542SOL    HW223526   5.620   5.510   5.559
 7543SOL     OW23527   2.437   1.027   6.548
 7543SOL    HW123528   2.415   1.082   6.629
 7543SOL    HW223529   2.422   1.081   6.466
 7544SOL     OW23530   6.825   2.697   4.329
 7544SOL    HW123531   6.819   2.642   4.245
 7544SOL    HW223532   6.897   2.660   4.387
 7545SOL     OW23533   1.182   4.983   6.911
 7545SOL    HW123534   1.141   4.996   7.002
 7545SOL    HW223535   1.111   4.956   6.846
 7546SOL     OW23536   3.110   2.902   1.876
 7546SOL    HW123537   3.174   2.896   1.953
 7546SOL    HW223538   3.095   2.811   1.837
 7547SOL     OW23539   4.674   0.365   1.983
 7547SOL    HW123540   4.680   0.396   1.888
 7547SOL    HW223541   4.592   0.311   1.995
 7548SOL     OW23542   4.153   1.955   6.511
 7548SOL    HW123543   4.113   2.035   6.466
 7548SOL    HW223544   4.091   1.877   6.500
 7549SOL     OW23545   4.874   2.403   4.387
 7549SOL    HW123546   4.816   2.484   4.379
 7549SOL    HW223547   4.900   2.390   4.483
 7550SOL     OW23548   2.490   4.524   4.632
 7550SOL    HW123549   2.508   4.435   4.674
 7550SOL    HW223550   2.395   4.550   4.646
 7551SOL     OW23551   5.894   2.612   5.771
 7551SOL    HW123552   5.853   2.692   5.727
 7551SOL    HW223553   5.951   2.643   5.847
 7552SOL     OW23554   2.502   5.994   5.140
 7552SOL    HW123555   2.589   6.036   5.111
 7552SOL    HW223556   2.454   5.959   5.059
 7553SOL     OW23557   5.599   6.380   5.959
 7553SOL    HW123558   5.563   6.431   6.038
 7553SOL    HW223559   5.522   6.350   5.902
 7554SOL     OW23560   5.195   0.681   1.130
 7554SOL    HW123561   5.107   0.704   1.171
 7554SOL    HW223562   5.196   0.585   1.104
 7555SOL     OW23563   3.337   4.926   5.519
 7555SOL    HW123564   3.361   4.842   5.471
 7555SOL    HW223565   3.413   4.955   5.577
 7556SOL     OW23566   0.030   6.733   0.868
 7556SOL    HW123567   6.968   6.755   0.827
 7556SOL    HW223568   0.020   6.654   0.929
 7557SOL     OW23569   4.871   6.874   0.194
 7557SOL    HW123570   4.970   6.866   0.195
 7557SOL    HW223571   4.835   6.859   0.286
 7558SOL     OW23572   1.226   1.998   4.376
 7558SOL    HW123573   1.127   2.007   4.389
 7558SOL    HW223574   1.265   1.949   4.454
 7559SOL     OW23575   3.348   1.791   4.683
 7559SOL    HW123576   3.261   1.820   4.643
 7559SOL    HW223577   3.423   1.812   4.621
 7560SOL     OW23578   0.767   0.894   5.852
 7560SOL    HW123579   0.840   0.852   5.798
 7560SOL    HW223580   0.681   0.890   5.801
 7561SOL     OW23581   5.571   2.057   4.853
 7561SOL    HW123582   5.514   2.122   4.903
 7561SOL    HW223583   5.589   2.091   4.761
 7562SOL     OW23584   1.214   4.273   3.826
 7562SOL    HW123585   1.283   4.344   3.842
 7562SOL    HW223586   1.212   4.251   3.728
 7563SOL     OW23587   3.259   5.340   2.314
 7563SOL    HW123588   3.290   5.424   2.358
 7563SOL    HW223589   3.197   5.363   2.239
 7564SOL     OW23590   4.228   1.925   5.085
 7564SOL    HW123591   4.194   1.832   5.102
 7564SOL    HW223592   4.266   1.929   4.993
 7565SOL     OW23593   5.615   4.157   6.390
 7565SOL    HW123594   5.664   4.113   6.314
 7565SOL    HW223595   5.531   4.198   6.357
 7566SOL     OW23596   4.528   4.458   1.172
 7566SOL    HW123597   4.559   4.377   1.221
 7566SOL    HW223598   4.468   4.512   1.232
 7567SOL     OW23599   1.911   0.732   4.473
 7567SOL    HW123600   1.920   0.638   4.505
 7567SOL    HW223601   1.997   0.781   4.488
 7568SOL     OW23602   6.055   5.004   1.520
 7568SOL    HW123603   6.058   5.021   1.619
 7568SOL    HW223604   6.026   5.087   1.473
 7569SOL     OW23605   4.362   4.008   0.136
 7569SOL    HW123606   4.456   3.976   0.153
 7569SOL    HW223607   4.353   4.102   0.168
 7570SOL     OW23608   6.690   2.838   2.964
 7570SOL    HW123609   6.776   2.849   3.014
 7570SOL    HW223610   6.638   2.923   2.966
 7571SOL     OW23611   4.521   2.495   2.894
 7571SOL    HW123612   4.614   2.467   2.870
 7571SOL    HW223613   4.513   2.505   2.993
 7572SOL     OW23614   4.415   6.354   2.241
 7572SOL    HW123615   4.338   6.416   2.229
 7572SOL    HW223616   4.497   6.406   2.265
 7573SOL     OW23617   5.095   6.580   5.406
 7573SOL    HW123618   5.092   6.481   5.398
 7573SOL    HW223619   5.023   6.612   5.468
 7574SOL     OW23620   0.193   1.314   3.854
 7574SOL    HW123621   0.151   1.401   3.880
 7574SOL    HW223622   0.156   1.240   3.911
 7575SOL     OW23623   7.008   7.000   2.785
 7575SOL    HW123624   0.057   0.039   2.783
 7575SOL    HW223625   6.924   0.020   2.811
 7576SOL     OW23626   5.480   3.122   0.673
 7576SOL    HW123627   5.503   3.153   0.765
 7576SOL    HW223628   5.406   3.055   0.677
 7577SOL     OW23629   1.300   6.791   0.949
 7577SOL    HW123630   1.220   6.851   0.957
 7577SOL    HW223631   1.352   6.815   0.867
 7578SOL     OW23632   6.861   5.719   3.273
 7578SOL    HW123633   6.864   5.764   3.184
 7578SOL    HW223634   6.932   5.649   3.278
 7579SOL     OW23635   6.996   1.481   0.332
 7579SOL    HW123636   0.045   1.546   0.339
 7579SOL    HW223637   7.006   1.412   0.404
 7580SOL     OW23638   2.382   4.816   3.740
 7580SOL    HW123639   2.394   4.718   3.756
 7580SOL    HW223640   2.286   4.840   3.755
 7581SOL     OW23641   6.840   0.864   2.620
 7581SOL    HW123642   6.773   0.819   2.561
 7581SOL    HW223643   6.845   0.816   2.708
 7582SOL     OW23644   3.226   1.565   5.289
 7582SOL    HW123645   3.192   1.561   5.195
 7582SOL    HW223646   3.160   1.522   5.351
 7583SOL     OW23647   5.164   2.856   2.472
 7583SOL    HW123648   5.251   2.814   2.450
 7583SOL    HW223649   5.147   2.932   2.409
 7584SOL     OW23650   0.207   1.090   3.193
 7584SOL    HW123651   0.153   1.012   3.160
 7584SOL    HW223652   0.211   1.160   3.122
 7585SOL     OW23653   1.278   1.463   6.993
 7585SOL    HW123654   1.287   1.374   0.011
 7585SOL    HW223655   1.365   1.486   6.948
 7586SOL     OW23656   1.355   1.783   2.801
 7586SOL    HW123657   1.372   1.737   2.888
 7586SOL    HW223658   1.367   1.718   2.725
 7587SOL     OW23659   3.653   0.820   0.865
 7587SOL    HW123660   3.572   0.798   0.920
 7587SOL    HW223661   3.736   0.806   0.920
 7588SOL     OW23662   1.990   2.303   4.333
 7588SOL    HW123663   2.056   2.363   4.287
 7588SOL    HW223664   1.933   2.356   4.395
 7589SOL     OW23665   0.618   1.002   2.838
 7589SOL    HW123666   0.627   0.904   2.858
 7589SOL    HW223667   0.706   1.038   2.808
 7590SOL     OW23668   0.315   1.424   0.044
 7590SOL    HW123669   0.333   1.483   6.992
 7590SOL    HW223670   0.401   1.405   0.092
 7591SOL     OW23671   4.174   3.090   5.272
 7591SOL    HW123672   4.158   3.139   5.358
 7591SOL    HW223673   4.127   3.136   5.198
 7592SOL     OW23674   0.100   6.547   5.035
 7592SOL    HW123675   0.103   6.538   5.135
 7592SOL    HW223676   0.129   6.462   4.992
 7593SOL     OW23677   1.275   1.564   6.296
 7593SOL    HW123678   1.324   1.479   6.274
 7593SOL    HW223679   1.177   1.547   6.297
 7594SOL     OW23680   0.296   4.631   0.065
 7594SOL    HW123681   0.204   4.613   0.030
 7594SOL    HW223682   0.297   4.621   0.164
 7595SOL     OW23683   0.377   3.033   6.338
 7595SOL    HW123684   0.286   3.073   6.346
 7595SOL    HW223685   0.390   2.967   6.413
 7596SOL     OW23686   3.178   1.096   5.500
 7596SOL    HW123687   3.187   1.060   5.592
 7596SOL    HW223688   3.084   1.084   5.468
 7597SOL     OW23689   1.302   4.507   2.320
 7597SOL    HW123690   1.315   4.433   2.254
 7597SOL    HW223691   1.391   4.543   2.348
 7598SOL     OW23692   6.371   1.432   3.252
 7598SOL    HW123693   6.327   1.519   3.277
 7598SOL    HW223694   6.462   1.429   3.294
 7599SOL     OW23695   3.913   3.447   0.588
 7599SOL    HW123696   3.881   3.366   0.637
 7599SOL    HW223697   3.914   3.525   0.651
 7600SOL     OW23698   1.776   0.040   4.625
 7600SOL    HW123699   1.816   0.022   4.715
 7600SOL    HW223700   1.843   0.019   4.554
 7601SOL     OW23701   3.511   6.178   2.476
 7601SOL    HW123702   3.477   6.195   2.384
 7601SOL    HW223703   3.495   6.259   2.533
 7602SOL     OW23704   6.909   1.619   0.578
 7602SOL    HW123705   6.848   1.689   0.541
 7602SOL    HW223706   6.858   1.533   0.588
 7603SOL     OW23707   3.171   0.357   5.157
 7603SOL    HW123708   3.123   0.386   5.075
 7603SOL    HW223709   3.137   0.409   5.236
 7604SOL     OW23710   0.673   2.517   4.477
 7604SOL    HW123711   0.713   2.434   4.438
 7604SOL    HW223712   0.660   2.585   4.405
 7605SOL     OW23713   2.305   6.376   0.134
 7605SOL    HW123714   2.248   6.407   0.059
 7605SOL    HW223715   2.367   6.304   0.102
 7606SOL     OW23716   6.325   1.692   3.574
 7606SOL    HW123717   6.391   1.623   3.600
 7606SOL    HW223718   6.334   1.711   3.476
 7607SOL     OW23719   2.433   5.945   5.866
 7607SOL    HW123720   2.432   5.925   5.964
 7607SOL    HW223721   2.402   5.865   5.816
 7608SOL     OW23722   6.110   2.636   6.341
 7608SOL    HW123723   6.110   2.695   6.421
 7608SOL    HW223724   6.204   2.616   6.313
 7609SOL     OW23725   0.490   2.138   4.674
 7609SOL    HW123726   0.489   2.164   4.578
 7609SOL    HW223727   0.489   2.220   4.731
 7610SOL     OW23728   3.706   5.242   5.308
 7610SOL    HW123729   3.799   5.273   5.286
 7610SOL    HW223730   3.673   5.181   5.236
 7611SOL     OW23731   4.912   3.535   1.081
 7611SOL    HW123732   4.864   3.489   1.156
 7611SOL    HW223733   4.853   3.535   1.000
 7612SOL     OW23734   3.111   1.504   3.265
 7612SOL    HW123735   3.165   1.473   3.187
 7612SOL    HW223736   3.113   1.604   3.268
 7613SOL     OW23737   0.383   1.302   2.236
 7613SOL    HW123738   0.401   1.354   2.320
 7613SOL    HW223739   0.300   1.337   2.193
 7614SOL     OW23740   5.258   4.094   0.928
 7614SOL    HW123741   5.330   4.131   0.869
 7614SOL    HW223742   5.211   4.020   0.881
 7615SOL     OW23743   5.819   3.617   5.074
 7615SOL    HW123744   5.778   3.708   5.065
 7615SOL    HW223745   5.804   3.565   4.990
 7616SOL     OW23746   6.086   6.934   3.500
 7616SOL    HW123747   6.090   6.925   3.400
 7616SOL    HW223748   6.108   0.001   3.526
 7617SOL     OW23749   5.275   5.450   3.837
 7617SOL    HW123750   5.338   5.497   3.775
 7617SOL    HW223751   5.199   5.413   3.784
 7618SOL     OW23752   2.371   2.630   0.121
 7618SOL    HW123753   2.290   2.682   0.148
 7618SOL    HW223754   2.367   2.539   0.160
 7619SOL     OW23755   0.523   2.177   4.383
 7619SOL    HW123756   0.603   2.232   4.357
 7619SOL    HW223757   0.535   2.083   4.352
 7620SOL     OW23758   4.073   4.132   1.433
 7620SOL    HW123759   4.000   4.198   1.451
 7620SOL    HW223760   4.034   4.049   1.393
 7621SOL     OW23761   6.542   4.312   0.271
 7621SOL    HW123762   6.467   4.374   0.296
 7621SOL    HW223763   6.564   4.325   0.174
 7622SOL     OW23764   3.097   3.537   1.389
 7622SOL    HW123765   3.066   3.613   1.447
 7622SOL    HW223766   3.019   3.502   1.337
 7623SOL     OW23767   4.723   4.707   1.038
 7623SOL    HW123768   4.684   4.737   1.125
 7623SOL    HW223769   4.771   4.620   1.050
 7624SOL     OW23770   0.684   2.721   2.268
 7624SOL    HW123771   0.687   2.663   2.349
 7624SOL    HW223772   0.748   2.797   2.278
 7625SOL     OW23773   5.464   1.112   1.501
 7625SOL    HW123774   5.526   1.176   1.455
 7625SOL    HW223775   5.400   1.162   1.558
 7626SOL     OW23776   5.169   1.428   5.357
 7626SOL    HW123777   5.245   1.386   5.408
 7626SOL    HW223778   5.206   1.485   5.283
 7627SOL     OW23779   3.783   2.582   6.781
 7627SOL    HW123780   3.753   2.512   6.846
 7627SOL    HW223781   3.778   2.672   6.825
 7628SOL     OW23782   3.278   2.443   0.089
 7628SOL    HW123783   3.202   2.391   0.129
 7628SOL    HW223784   3.262   2.541   0.103
 7629SOL     OW23785   6.138   2.992   3.980
 7629SOL    HW123786   6.202   2.959   3.911
 7629SOL    HW223787   6.052   3.021   3.937
 7630SOL     OW23788   1.387   7.001   5.339
 7630SOL    HW123789   1.336   6.916   5.334
 7630SOL    HW223790   1.444   7.011   5.257
 7631SOL     OW23791   1.607   6.934   5.873
 7631SOL    HW123792   1.558   6.993   5.808
 7631SOL    HW223793   1.609   6.978   5.962
 7632SOL     OW23794   5.205   5.256   0.331
 7632SOL    HW123795   5.296   5.270   0.292
 7632SOL    HW223796   5.210   5.267   0.431
 7633SOL     OW23797   6.633   1.386   0.933
 7633SOL    HW123798   6.724   1.350   0.954
 7633SOL    HW223799   6.566   1.312   0.940
 7634SOL     OW23800   6.668   2.175   0.639
 7634SOL    HW123801   6.624   2.087   0.658
 7634SOL    HW223802   6.613   2.225   0.572
 7635SOL     OW23803   2.314   4.271   5.925
 7635SOL    HW123804   2.246   4.199   5.907
 7635SOL    HW223805   2.404   4.241   5.894
 7636SOL     OW23806   0.426   3.426   4.560
 7636SOL    HW123807   0.393   3.424   4.654
 7636SOL    HW223808   0.355   3.390   4.499
 7637SOL     OW23809   0.317   6.662   4.511
 7637SOL    HW123810   0.252   6.619   4.574
 7637SOL    HW223811   0.386   6.595   4.483
 7638SOL     OW23812   0.363   6.157   1.588
 7638SOL    HW123813   0.454   6.116   1.587
 7638SOL    HW223814   0.316   6.132   1.673
 7639SOL     OW23815   1.628   0.697   0.051
 7639SOL    HW123816   1.600   0.602   0.064
 7639SOL    HW223817   1.711   0.700   7.022
 7640SOL     OW23818   2.990   1.156   0.309
 7640SOL    HW123819   2.939   1.232   0.267
 7640SOL    HW223820   3.013   1.089   0.239
 7641SOL     OW23821   0.220   4.195   3.488
 7641SOL    HW123822   0.305   4.248   3.487
 7641SOL    HW223823   0.192   4.175   3.394
 7642SOL     OW23824   5.940   0.722   3.352
 7642SOL    HW123825   5.939   0.798   3.417
 7642SOL    HW223826   5.976   0.640   3.397
 7643SOL     OW23827   5.357   4.176   3.022
 7643SOL    HW123828   5.337   4.270   3.053
 7643SOL    HW223829   5.275   4.120   3.033
 7644SOL     OW23830   5.340   3.358   1.045
 7644SOL    HW123831   5.404   3.334   1.118
 7644SOL    HW223832   5.264   3.293   1.044
 7645SOL     OW23833   3.648   4.536   6.071
 7645SOL    HW123834   3.580   4.474   6.031
 7645SOL    HW223835   3.731   4.485   6.093
 7646SOL     OW23836   0.253   2.178   1.469
 7646SOL    HW123837   0.334   2.163   1.525
 7646SOL    HW223838   0.184   2.226   1.522
 7647SOL     OW23839   6.563   2.860   4.951
 7647SOL    HW123840   6.627   2.902   5.016
 7647SOL    HW223841   6.513   2.931   4.902
 7648SOL     OW23842   2.958   1.800   2.025
 7648SOL    HW123843   2.964   1.871   1.954
 7648SOL    HW223844   3.043   1.747   2.026
 7649SOL     OW23845   5.038   1.082   5.653
 7649SOL    HW123846   5.007   1.159   5.597
 7649SOL    HW223847   5.111   1.112   5.715
 7650SOL     OW23848   4.204   1.751   0.921
 7650SOL    HW123849   4.246   1.663   0.898
 7650SOL    HW223850   4.225   1.817   0.849
 7651SOL     OW23851   2.548   4.805   5.820
 7651SOL    HW123852   2.630   4.795   5.764
 7651SOL    HW223853   2.467   4.791   5.763
 7652SOL     OW23854   0.055   1.089   3.955
 7652SOL    HW123855   7.005   1.059   3.898
 7652SOL    HW223856   0.138   1.041   3.927
 7653SOL     OW23857   0.829   1.250   6.469
 7653SOL    HW123858   0.832   1.232   6.371
 7653SOL    HW223859   0.920   1.234   6.508
 7654SOL     OW23860   5.326   2.177   6.506
 7654SOL    HW123861   5.357   2.105   6.568
 7654SOL    HW223862   5.405   2.218   6.461
 7655SOL     OW23863   2.818   1.448   3.227
 7655SOL    HW123864   2.758   1.511   3.277
 7655SOL    HW223865   2.890   1.416   3.288
 7656SOL     OW23866   7.020   3.281   6.587
 7656SOL    HW123867   6.991   3.190   6.555
 7656SOL    HW223868   6.971   3.302   6.672
 7657SOL     OW23869   0.924   3.881   4.383
 7657SOL    HW123870   0.825   3.871   4.393
 7657SOL    HW223871   0.966   3.790   4.382
 7658SOL     OW23872   2.230   1.516   0.710
 7658SOL    HW123873   2.289   1.589   0.676
 7658SOL    HW223874   2.206   1.533   0.806
 7659SOL     OW23875   4.536   3.921   5.579
 7659SOL    HW123876   4.448   3.944   5.621
 7659SOL    HW223877   4.566   3.995   5.520
 7660SOL     OW23878   0.393   5.421   4.686
 7660SOL    HW123879   0.358   5.370   4.764
 7660SOL    HW223880   0.437   5.505   4.717
 7661SOL     OW23881   4.779   1.968   5.520
 7661SOL    HW123882   4.737   1.891   5.472
 7661SOL    HW223883   4.709   2.016   5.573
 7662SOL     OW23884   0.308   1.221   1.135
 7662SOL    HW123885   0.243   1.231   1.211
 7662SOL    HW223886   0.401   1.229   1.169
 7663SOL     OW23887   6.825   5.605   5.384
 7663SOL    HW123888   6.792   5.696   5.410
 7663SOL    HW223889   6.749   5.549   5.354
 7664SOL     OW23890   4.038   2.139   2.579
 7664SOL    HW123891   4.000   2.190   2.502
 7664SOL    HW223892   4.130   2.107   2.556
 7665SOL     OW23893   4.330   0.681   5.346
 7665SOL    HW123894   4.288   0.763   5.306
 7665SOL    HW223895   4.387   0.707   5.423
 7666SOL     OW23896   5.318   4.786   4.278
 7666SOL    HW123897   5.303   4.688   4.270
 7666SOL    HW223898   5.244   4.827   4.332
 7667SOL     OW23899   4.232   5.778   1.231
 7667SOL    HW123900   4.267   5.852   1.174
 7667SOL    HW223901   4.279   5.778   1.319
 7668SOL     OW23902   1.912   5.567   0.956
 7668SOL    HW123903   1.893   5.657   0.995
 7668SOL    HW223904   1.920   5.574   0.857
 7669SOL     OW23905   2.731   6.899   5.746
 7669SOL    HW123906   2.651   6.852   5.709
 7669SOL    HW223907   2.789   6.930   5.670
 7670SOL     OW23908   0.737   6.644   0.097
 7670SOL    HW123909   0.758   6.622   0.002
 7670SOL    HW223910   0.723   6.743   0.105
 7671SOL     OW23911   4.213   6.565   1.193
 7671SOL    HW123912   4.234   6.467   1.198
 7671SOL    HW223913   4.242   6.601   1.105
 7672SOL     OW23914   4.552   4.922   3.121
 7672SOL    HW123915   4.611   4.960   3.192
 7672SOL    HW223916   4.585   4.831   3.095
 7673SOL     OW23917   1.330   5.938   4.667
 7673SOL    HW123918   1.415   5.905   4.706
 7673SOL    HW223919   1.256   5.874   4.688
 7674SOL     OW23920   3.937   5.840   3.949
 7674SOL    HW123921   3.954   5.924   4.000
 7674SOL    HW223922   4.024   5.799   3.922
 7675SOL     OW23923   4.903   6.653   3.442
 7675SOL    HW123924   4.829   6.632   3.506
 7675SOL    HW223925   4.988   6.613   3.475
 7676SOL     OW23926   3.359   2.581   5.355
 7676SOL    HW123927   3.301   2.519   5.303
 7676SOL    HW223928   3.335   2.676   5.333
 7677SOL     OW23929   5.692   4.669   0.833
 7677SOL    HW123930   5.694   4.573   0.862
 7677SOL    HW223931   5.602   4.708   0.855
 7678SOL     OW23932   1.634   0.333   5.238
 7678SOL    HW123933   1.664   0.295   5.325
 7678SOL    HW223934   1.553   0.285   5.206
 7679SOL     OW23935   2.497   5.793   5.322
 7679SOL    HW123936   2.570   5.725   5.321
 7679SOL    HW223937   2.524   5.872   5.267
 7680SOL     OW23938   2.243   0.075   5.430
 7680SOL    HW123939   2.190   0.150   5.389
 7680SOL    HW223940   2.183   7.024   5.447
 7681SOL     OW23941   3.036   3.510   6.420
 7681SOL    HW123942   2.997   3.521   6.329
 7681SOL    HW223943   3.044   3.413   6.442
 7682SOL     OW23944   3.129   1.421   2.777
 7682SOL    HW123945   3.068   1.345   2.756
 7682SOL    HW223946   3.123   1.490   2.704
 7683SOL     OW23947   0.912   0.451   4.647
 7683SOL    HW123948   0.954   0.411   4.728
 7683SOL    HW223949   0.969   0.432   4.567
 7684SOL     OW23950   4.285   2.401   1.500
 7684SOL    HW123951   4.328   2.315   1.528
 7684SOL    HW223952   4.287   2.465   1.577
 7685SOL     OW23953   2.420   0.569   0.338
 7685SOL    HW123954   2.455   0.551   0.429
 7685SOL    HW223955   2.477   0.522   0.270
 7686SOL     OW23956   6.214   0.132   4.542
 7686SOL    HW123957   6.116   0.143   4.560
 7686SOL    HW223958   6.265   0.143   4.628
 7687SOL     OW23959   5.749   4.664   5.130
 7687SOL    HW123960   5.653   4.636   5.136
 7687SOL    HW223961   5.774   4.677   5.034
 7688SOL     OW23962   0.259   4.807   6.640
 7688SOL    HW123963   0.226   4.750   6.565
 7688SOL    HW223964   0.358   4.820   6.631
 7689SOL     OW23965   4.683   0.490   1.756
 7689SOL    HW123966   4.610   0.527   1.813
 7689SOL    HW223967   4.654   0.490   1.660
 7690SOL     OW23968   6.103   5.651   1.490
 7690SOL    HW123969   6.141   5.738   1.457
 7690SOL    HW223970   6.177   5.595   1.526
 7691SOL     OW23971   4.407   4.576   2.950
 7691SOL    HW123972   4.338   4.643   2.923
 7691SOL    HW223973   4.452   4.606   3.034
 7692SOL     OW23974   2.312   6.857   2.279
 7692SOL    HW123975   2.309   6.904   2.191
 7692SOL    HW223976   2.219   6.841   2.312
 7693SOL     OW23977   1.823   1.903   0.974
 7693SOL    HW123978   1.857   1.835   1.039
 7693SOL    HW223979   1.788   1.983   1.023
 7694SOL     OW23980   5.686   1.858   5.543
 7694SOL    HW123981   5.779   1.825   5.533
 7694SOL    HW223982   5.674   1.899   5.633
 7695SOL     OW23983   4.572   0.317   3.519
 7695SOL    HW123984   4.611   0.232   3.553
 7695SOL    HW223985   4.610   0.337   3.428
 7696SOL     OW23986   1.090   2.715   6.246
 7696SOL    HW123987   1.064   2.638   6.188
 7696SOL    HW223988   1.181   2.746   6.222
 7697SOL     OW23989   4.552   6.865   2.631
 7697SOL    HW123990   4.575   6.953   2.673
 7697SOL    HW223991   4.510   6.806   2.700
 7698SOL     OW23992   6.587   2.663   0.523
 7698SOL    HW123993   6.509   2.714   0.560
 7698SOL    HW223994   6.664   2.671   0.585
 7699SOL     OW23995   4.384   5.795   5.986
 7699SOL    HW123996   4.331   5.798   6.071
 7699SOL    HW223997   4.350   5.865   5.923
 7700SOL     OW23998   5.373   5.808   2.777
 7700SOL    HW123999   5.414   5.827   2.866
 7700SOL    HW224000   5.435   5.840   2.705
 7701SOL     OW24001   0.568   2.366   5.961
 7701SOL    HW124002   0.483   2.352   5.910
 7701SOL    HW224003   0.552   2.429   6.036
 7702SOL     OW24004   4.245   0.243   4.409
 7702SOL    HW124005   4.196   0.161   4.440
 7702SOL    HW224006   4.195   0.324   4.438
 7703SOL     OW24007   6.336   6.555   5.079
 7703SOL    HW124008   6.368   6.642   5.041
 7703SOL    HW224009   6.399   6.482   5.051
 7704SOL     OW24010   6.993   1.419   4.660
 7704SOL    HW124011   7.007   1.443   4.756
 7704SOL    HW224012   0.023   1.477   4.602
 7705SOL     OW24013   1.068   4.890   0.116
 7705SOL    HW124014   0.986   4.946   0.107
 7705SOL    HW224015   1.042   4.795   0.132
 7706SOL     OW24016   3.729   2.952   2.527
 7706SOL    HW124017   3.646   2.985   2.481
 7706SOL    HW224018   3.779   2.891   2.466
 7707SOL     OW24019   6.252   4.317   6.323
 7707SOL    HW124020   6.295   4.226   6.318
 7707SOL    HW224021   6.214   4.340   6.234
 7708SOL     OW24022   2.696   0.063   4.634
 7708SOL    HW124023   2.678   0.074   4.536
 7708SOL    HW224024   2.758   0.135   4.665
 7709SOL     OW24025   0.090   5.282   1.471
 7709SOL    HW124026   0.090   5.195   1.519
 7709SOL    HW224027   0.169   5.286   1.410
 7710SOL     OW24028   0.400   3.300   1.085
 7710SOL    HW124029   0.434   3.359   1.158
 7710SOL    HW224030   0.394   3.352   1.000
 7711SOL     OW24031   0.179   4.671   5.048
 7711SOL    HW124032   0.235   4.637   4.972
 7711SOL    HW224033   0.238   4.689   5.127
 7712SOL     OW24034   0.076   4.701   5.614
 7712SOL    HW124035   0.088   4.754   5.697
 7712SOL    HW224036   0.004   4.632   5.628
 7713SOL     OW24037   1.941   4.648   0.065
 7713SOL    HW124038   1.894   4.600   7.017
 7713SOL    HW224039   1.956   4.585   0.141
 7714SOL     OW24040   6.382   1.009   5.516
 7714SOL    HW124041   6.378   1.060   5.429
 7714SOL    HW224042   6.289   0.998   5.552
 7715SOL     OW24043   3.359   2.910   6.218
 7715SOL    HW124044   3.423   2.837   6.243
 7715SOL    HW224045   3.371   2.934   6.122
 7716SOL     OW24046   1.200   6.048   5.664
 7716SOL    HW124047   1.217   5.967   5.607
 7716SOL    HW224048   1.102   6.061   5.674
 7717SOL     OW24049   1.090   1.603   6.797
 7717SOL    HW124050   1.101   1.684   6.738
 7717SOL    HW224051   1.111   1.521   6.744
 7718SOL     OW24052   1.326   3.509   2.986
 7718SOL    HW124053   1.371   3.576   2.928
 7718SOL    HW224054   1.382   3.426   2.991
 7719SOL     OW24055   2.197   4.272   4.859
 7719SOL    HW124056   2.258   4.196   4.882
 7719SOL    HW224057   2.241   4.358   4.885
 7720SOL     OW24058   5.373   1.183   0.063
 7720SOL    HW124059   5.368   1.195   0.162
 7720SOL    HW224060   5.467   1.195   0.032
 7721SOL     OW24061   0.668   0.854   2.583
 7721SOL    HW124062   0.726   0.923   2.627
 7721SOL    HW224063   0.671   0.865   2.484
 7722SOL     OW24064   1.702   6.329   3.450
 7722SOL    HW124065   1.767   6.314   3.525
 7722SOL    HW224066   1.628   6.263   3.456
 7723SOL     OW24067   4.910   4.059   0.459
 7723SOL    HW124068   4.989   4.010   0.495
 7723SOL    HW224069   4.893   4.032   0.365
 7724SOL     OW24070   2.099   3.933   1.303
 7724SOL    HW124071   2.161   4.011   1.293
 7724SOL    HW224072   2.061   3.932   1.395
 7725SOL     OW24073   5.149   3.168   3.105
 7725SOL    HW124074   5.123   3.072   3.111
 7725SOL    HW224075   5.069   3.226   3.122
 7726SOL     OW24076   0.982   3.154   6.301
 7726SOL    HW124077   1.009   3.158   6.398
 7726SOL    HW224078   0.885   3.133   6.294
 7727SOL     OW24079   4.649   1.031   2.515
 7727SOL    HW124080   4.558   0.990   2.519
 7727SOL    HW224081   4.682   1.032   2.420
 7728SOL     OW24082   2.144   3.326   4.555
 7728SOL    HW124083   2.150   3.426   4.561
 7728SOL    HW224084   2.187   3.285   4.635
 7729SOL     OW24085   6.929   2.153   4.031
 7729SOL    HW124086   7.001   2.174   3.965
 7729SOL    HW224087   6.856   2.220   4.023
 7730SOL     OW24088   6.101   4.124   5.286
 7730SOL    HW124089   6.132   4.200   5.228
 7730SOL    HW224090   6.176   4.060   5.299
 7731SOL     OW24091   6.710   6.853   6.560
 7731SOL    HW124092   6.647   6.824   6.632
 7731SOL    HW224093   6.702   6.791   6.482
 7732SOL     OW24094   4.426   0.737   6.672
 7732SOL    HW124095   4.432   0.832   6.700
 7732SOL    HW224096   4.504   0.686   6.708
 7733SOL     OW24097   6.201   5.917   2.283
 7733SOL    HW124098   6.260   5.991   2.251
 7733SOL    HW224099   6.258   5.843   2.319
 7734SOL     OW24100   3.155   4.009   4.709
 7734SOL    HW124101   3.238   4.058   4.686
 7734SOL    HW224102   3.178   3.922   4.753
 7735SOL     OW24103   6.887   6.301   0.459
 7735SOL    HW124104   6.894   6.231   0.529
 7735SOL    HW224105   6.950   6.376   0.480
 7736SOL     OW24106   2.386   2.655   0.441
 7736SOL    HW124107   2.428   2.739   0.408
 7736SOL    HW224108   2.392   2.651   0.541
 7737SOL     OW24109   3.914   4.892   0.861
 7737SOL    HW124110   3.895   4.984   0.826
 7737SOL    HW224111   3.852   4.826   0.818
 7738SOL     OW24112   2.269   0.066   6.287
 7738SOL    HW124113   2.232   0.144   6.337
 7738SOL    HW224114   2.368   0.077   6.277
 7739SOL     OW24115   1.380   1.895   0.571
 7739SOL    HW124116   1.451   1.942   0.519
 7739SOL    HW224117   1.316   1.963   0.609
 7740SOL     OW24118   1.820   0.642   4.889
 7740SOL    HW124119   1.805   0.589   4.973
 7740SOL    HW224120   1.907   0.616   4.847
 7741SOL     OW24121   1.720   4.494   6.091
 7741SOL    HW124122   1.781   4.415   6.084
 7741SOL    HW224123   1.641   4.470   6.148
 7742SOL     OW24124   3.946   1.700   4.252
 7742SOL    HW124125   3.944   1.795   4.221
 7742SOL    HW224126   4.013   1.649   4.199
 7743SOL     OW24127   5.309   2.071   5.522
 7743SOL    HW124128   5.361   2.065   5.607
 7743SOL    HW224129   5.320   2.162   5.482
 7744SOL     OW24130   0.500   6.236   4.848
 7744SOL    HW124131   0.460   6.250   4.938
 7744SOL    HW224132   0.437   6.270   4.778
 7745SOL     OW24133   2.271   6.904   1.046
 7745SOL    HW124134   2.277   6.996   1.007
 7745SOL    HW224135   2.175   6.883   1.067
 7746SOL     OW24136   1.226   6.040   0.934
 7746SOL    HW124137   1.242   6.110   0.865
 7746SOL    HW224138   1.287   6.056   1.012
 7747SOL     OW24139   1.302   6.144   0.173
 7747SOL    HW124140   1.239   6.215   0.202
 7747SOL    HW224141   1.251   6.069   0.130
 7748SOL     OW24142   4.559   1.947   5.820
 7748SOL    HW124143   4.529   1.958   5.725
 7748SOL    HW224144   4.528   2.025   5.873
 7749SOL     OW24145   4.038   3.859   4.082
 7749SOL    HW124146   4.130   3.894   4.102
 7749SOL    HW224147   4.041   3.759   4.076
 7750SOL     OW24148   5.949   4.368   5.602
 7750SOL    HW124149   5.959   4.429   5.523
 7750SOL    HW224150   5.968   4.274   5.574
 7751SOL     OW24151   6.844   1.055   5.341
 7751SOL    HW124152   6.885   0.993   5.274
 7751SOL    HW224153   6.776   1.005   5.395
 7752SOL     OW24154   6.548   5.586   5.792
 7752SOL    HW124155   6.515   5.532   5.715
 7752SOL    HW224156   6.518   5.544   5.878
 7753SOL     OW24157   2.473   1.057   4.466
 7753SOL    HW124158   2.467   1.066   4.565
 7753SOL    HW224159   2.408   1.120   4.423
 7754SOL     OW24160   5.735   0.564   1.820
 7754SOL    HW124161   5.665   0.613   1.769
 7754SOL    HW224162   5.724   0.581   1.918
 7755SOL     OW24163   0.915   6.070   5.713
 7755SOL    HW124164   0.878   6.136   5.648
 7755SOL    HW224165   0.870   6.082   5.802
 7756SOL     OW24166   3.703   5.172   2.184
 7756SOL    HW124167   3.648   5.190   2.102
 7756SOL    HW224168   3.684   5.079   2.216
 7757SOL     OW24169   4.841   6.316   5.896
 7757SOL    HW124170   4.880   6.271   5.816
 7757SOL    HW224171   4.876   6.409   5.902
 7758SOL     OW24172   2.280   2.031   5.359
 7758SOL    HW124173   2.321   1.998   5.274
 7758SOL    HW224174   2.254   2.127   5.349
 7759SOL     OW24175   2.167   0.802   4.546
 7759SOL    HW124176   2.243   0.759   4.595
 7759SOL    HW224177   2.201   0.844   4.462
 7760SOL     OW24178   4.910   2.976   2.148
 7760SOL    HW124179   4.852   3.008   2.074
 7760SOL    HW224180   4.932   3.053   2.208
 7761SOL     OW24181   3.548   6.917   6.638
 7761SOL    HW124182   3.584   7.007   6.613
 7761SOL    HW224183   3.532   6.864   6.555
 7762SOL     OW24184   4.051   1.689   0.594
 7762SOL    HW124185   4.035   1.598   0.631
 7762SOL    HW224186   4.010   1.758   0.654
 7763SOL     OW24187   1.622   2.022   0.514
 7763SOL    HW124188   1.691   2.041   0.444
 7763SOL    HW224189   1.666   1.978   0.593
 7764SOL     OW24190   3.313   3.209   2.623
 7764SOL    HW124191   3.254   3.160   2.687
 7764SOL    HW224192   3.259   3.277   2.574
 7765SOL     OW24193   6.783   1.899   2.759
 7765SOL    HW124194   6.824   1.884   2.849
 7765SOL    HW224195   6.830   1.976   2.714
 7766SOL     OW24196   0.137   2.800   6.712
 7766SOL    HW124197   0.204   2.873   6.709
 7766SOL    HW224198   0.178   2.718   6.752
 7767SOL     OW24199   4.716   5.567   4.467
 7767SOL    HW124200   4.722   5.608   4.376
 7767SOL    HW224201   4.710   5.639   4.536
 7768SOL     OW24202   4.012   4.980   2.401
 7768SOL    HW124203   3.992   4.917   2.476
 7768SOL    HW224204   3.984   4.939   2.314
 7769SOL     OW24205   5.488   1.604   1.377
 7769SOL    HW124206   5.402   1.600   1.326
 7769SOL    HW224207   5.531   1.693   1.362
 7770SOL     OW24208   3.406   5.051   1.055
 7770SOL    HW124209   3.386   4.954   1.062
 7770SOL    HW224210   3.371   5.099   1.135
 7771SOL     OW24211   2.214   1.930   5.628
 7771SOL    HW124212   2.300   1.905   5.673
 7771SOL    HW224213   2.234   1.968   5.537
 7772SOL     OW24214   5.020   1.226   4.354
 7772SOL    HW124215   4.980   1.217   4.263
 7772SOL    HW224216   4.995   1.148   4.410
 7773SOL     OW24217   4.136   4.214   5.979
 7773SOL    HW124218   4.060   4.155   5.954
 7773SOL    HW224219   4.210   4.159   6.016
 7774SOL     OW24220   5.073   1.711   6.353
 7774SOL    HW124221   5.068   1.749   6.260
 7774SOL    HW224222   5.077   1.786   6.419
 7775SOL     OW24223   3.160   6.440   2.269
 7775SOL    HW124224   3.169   6.362   2.331
 7775SOL    HW224225   3.077   6.430   2.214
 7776SOL     OW24226   3.671   3.768   6.746
 7776SOL    HW124227   3.679   3.822   6.831
 7776SOL    HW224228   3.581   3.723   6.744
 7777SOL     OW24229   2.024   1.462   6.825
 7777SOL    HW124230   1.931   1.495   6.806
 7777SOL    HW224231   2.033   1.368   6.791
 7778SOL     OW24232   5.583   0.945   6.904
 7778SOL    HW124233   5.563   0.946   7.002
 7778SOL    HW224234   5.574   0.852   6.870
 7779SOL     OW24235   3.958   3.017   0.345
 7779SOL    HW124236   3.908   3.027   0.431
 7779SOL    HW224237   3.916   2.944   0.290
 7780SOL     OW24238   1.782   6.446   4.695
 7780SOL    HW124239   1.822   6.379   4.633
 7780SOL    HW224240   1.730   6.398   4.767
 7781SOL     OW24241   1.259   4.492   4.600
 7781SOL    HW124242   1.307   4.574   4.629
 7781SOL    HW224243   1.295   4.461   4.512
 7782SOL     OW24244   3.029   4.719   6.566
 7782SOL    HW124245   3.011   4.626   6.534
 7782SOL    HW224246   2.974   4.784   6.513
 7783SOL     OW24247   2.629   5.351   6.611
 7783SOL    HW124248   2.724   5.342   6.644
 7783SOL    HW224249   2.575   5.275   6.646
 7784SOL     OW24250   0.404   2.850   7.004
 7784SOL    HW124251   0.380   2.755   7.023
 7784SOL    HW224252   0.403   2.902   0.063
 7785SOL     OW24253   2.399   5.791   4.252
 7785SOL    HW124254   2.415   5.757   4.159
 7785SOL    HW224255   2.479   5.842   4.283
 7786SOL     OW24256   3.045   4.330   5.363
 7786SOL    HW124257   3.135   4.372   5.379
 7786SOL    HW224258   2.999   4.375   5.287
 7787SOL     OW24259   2.399   2.752   5.211
 7787SOL    HW124260   2.394   2.832   5.151
 7787SOL    HW224261   2.457   2.774   5.290
 7788SOL     OW24262   1.675   1.623   0.387
 7788SOL    HW124263   1.612   1.694   0.357
 7788SOL    HW224264   1.766   1.663   0.401
 7789SOL     OW24265   1.776   0.706   1.288
 7789SOL    HW124266   1.797   0.746   1.377
 7789SOL    HW224267   1.796   0.772   1.216
 7790SOL     OW24268   5.315   3.061   2.320
 7790SOL    HW124269   5.378   3.090   2.393
 7790SOL    HW224270   5.358   2.989   2.266
 7791SOL     OW24271   1.740   4.865   4.797
 7791SOL    HW124272   1.796   4.793   4.758
 7791SOL    HW224273   1.715   4.841   4.891
 7792SOL     OW24274   2.358   5.473   6.151
 7792SOL    HW124275   2.378   5.466   6.053
 7792SOL    HW224276   2.433   5.520   6.197
 7793SOL     OW24277   1.360   1.299   6.179
 7793SOL    HW124278   1.409   1.237   6.240
 7793SOL    HW224279   1.266   1.267   6.165
 7794SOL     OW24280   5.148   5.868   4.302
 7794SOL    HW124281   5.058   5.906   4.282
 7794SOL    HW224282   5.172   5.801   4.232
 7795SOL     OW24283   2.474   4.336   5.229
 7795SOL    HW124284   2.546   4.404   5.214
 7795SOL    HW224285   2.511   4.261   5.283
 7796SOL     OW24286   3.827   4.034   3.651
 7796SOL    HW124287   3.735   4.073   3.656
 7796SOL    HW224288   3.867   4.034   3.743
 7797SOL     OW24289   0.310   0.054   3.006
 7797SOL    HW124290   0.402   0.026   2.979
 7797SOL    HW224291   0.257   0.079   2.925
 7798SOL     OW24292   3.389   5.565   0.412
 7798SOL    HW124293   3.445   5.569   0.329
 7798SOL    HW224294   3.436   5.614   0.486
 7799SOL     OW24295   0.055   5.032   1.547
 7799SOL    HW124296   0.058   4.989   1.637
 7799SOL    HW224297   7.006   4.992   1.494
 7800SOL     OW24298   0.645   5.747   1.910
 7800SOL    HW124299   0.734   5.791   1.924
 7800SOL    HW224300   0.658   5.648   1.898
 7801SOL     OW24301   3.664   2.082   6.796
 7801SOL    HW124302   3.570   2.110   6.817
 7801SOL    HW224303   3.675   1.984   6.811
 7802SOL     OW24304   5.711   2.097   1.891
 7802SOL    HW124305   5.648   2.021   1.907
 7802SOL    HW224306   5.738   2.137   1.978
 7803SOL     OW24307   4.391   4.267   5.298
 7803SOL    HW124308   4.319   4.203   5.272
 7803SOL    HW224309   4.385   4.350   5.242
 7804SOL     OW24310   5.071   2.069   5.683
 7804SOL    HW124311   5.153   2.083   5.627
 7804SOL    HW224312   4.995   2.119   5.642
 7805SOL     OW24313   5.048   3.620   2.050
 7805SOL    HW124314   5.032   3.534   2.097
 7805SOL    HW224315   4.969   3.680   2.061
 7806SOL     OW24316   5.505   2.710   5.908
 7806SOL    HW124317   5.407   2.727   5.902
 7806SOL    HW224318   5.525   2.617   5.879
 7807SOL     OW24319   0.372   4.617   6.380
 7807SOL    HW124320   0.363   4.524   6.415
 7807SOL    HW224321   0.467   4.647   6.389
 7808SOL     OW24322   0.639   1.432   4.707
 7808SOL    HW124323   0.628   1.530   4.689
 7808SOL    HW224324   0.625   1.415   4.805
 7809SOL     OW24325   2.519   5.561   4.822
 7809SOL    HW124326   2.479   5.606   4.742
 7809SOL    HW224327   2.556   5.473   4.796
 7810SOL     OW24328   2.774   1.108   6.574
 7810SOL    HW124329   2.720   1.078   6.653
 7810SOL    HW224330   2.712   1.137   6.501
 7811SOL     OW24331   6.165   4.391   4.030
 7811SOL    HW124332   6.224   4.361   3.955
 7811SOL    HW224333   6.116   4.475   4.003
 7812SOL     OW24334   1.586   1.488   3.400
 7812SOL    HW124335   1.674   1.465   3.360
 7812SOL    HW224336   1.549   1.409   3.448
 7813SOL     OW24337   6.923   3.117   0.169
 7813SOL    HW124338   6.944   3.030   0.126
 7813SOL    HW224339   7.006   3.173   0.174
 7814SOL     OW24340   0.232   3.245   2.788
 7814SOL    HW124341   0.310   3.186   2.767
 7814SOL    HW224342   0.248   3.292   2.875
 7815SOL     OW24343   6.674   1.849   6.191
 7815SOL    HW124344   6.611   1.778   6.223
 7815SOL    HW224345   6.701   1.829   6.097
 7816SOL     OW24346   1.137   3.742   4.687
 7816SOL    HW124347   1.074   3.665   4.674
 7816SOL    HW224348   1.171   3.741   4.781
 7817SOL     OW24349   5.587   4.155   4.798
 7817SOL    HW124350   5.583   4.242   4.749
 7817SOL    HW224351   5.589   4.171   4.896
 7818SOL     OW24352   5.538   6.177   1.616
 7818SOL    HW124353   5.524   6.246   1.687
 7818SOL    HW224354   5.550   6.087   1.658
 7819SOL     OW24355   6.570   1.983   1.453
 7819SOL    HW124356   6.598   2.070   1.412
 7819SOL    HW224357   6.480   1.958   1.418
 7820SOL     OW24358   1.461   0.893   6.913
 7820SOL    HW124359   1.390   0.855   6.855
 7820SOL    HW224360   1.537   0.828   6.919
 7821SOL     OW24361   3.050   5.240   2.111
 7821SOL    HW124362   3.033   5.253   2.013
 7821SOL    HW224363   2.982   5.176   2.148
 7822SOL     OW24364   1.804   5.926   5.476
 7822SOL    HW124365   1.804   6.000   5.408
 7822SOL    HW224366   1.767   5.843   5.435
 7823SOL     OW24367   1.485   4.662   4.690
 7823SOL    HW124368   1.558   4.667   4.758
 7823SOL    HW224369   1.410   4.722   4.717
 7824SOL     OW24370   0.398   2.800   5.783
 7824SOL    HW124371   0.490   2.838   5.788
 7824SOL    HW224372   0.386   2.754   5.695
 7825SOL     OW24373   3.219   1.549   6.415
 7825SOL    HW124374   3.125   1.567   6.445
 7825SOL    HW224375   3.249   1.461   6.451
 7826SOL     OW24376   0.340   2.994   6.767
 7826SOL    HW124377   0.362   2.941   6.849
 7826SOL    HW224378   0.383   3.084   6.773
 7827SOL     OW24379   0.107   6.536   4.624
 7827SOL    HW124380   0.079   6.629   4.646
 7827SOL    HW224381   0.036   6.472   4.653
 7828SOL     OW24382   0.705   4.549   6.501
 7828SOL    HW124383   0.707   4.501   6.413
 7828SOL    HW224384   0.650   4.498   6.567
 7829SOL     OW24385   4.045   2.895   0.624
 7829SOL    HW124386   3.966   2.956   0.626
 7829SOL    HW224387   4.121   2.940   0.579
 7830SOL     OW24388   2.715   4.711   4.654
 7830SOL    HW124389   2.652   4.633   4.661
 7830SOL    HW224390   2.731   4.731   4.557
 7831SOL     OW24391   1.725   1.576   0.678
 7831SOL    HW124392   1.732   1.583   0.579
 7831SOL    HW224393   1.713   1.481   0.705
 7832SOL     OW24394   6.432   0.991   4.408
 7832SOL    HW124395   6.362   1.029   4.469
 7832SOL    HW224396   6.441   0.893   4.424
 7833SOL     OW24397   1.677   0.790   4.124
 7833SOL    HW124398   1.716   0.882   4.123
 7833SOL    HW224399   1.577   0.796   4.126
 7834SOL     OW24400   5.969   3.158   4.652
 7834SOL    HW124401   6.051   3.156   4.709
 7834SOL    HW224402   5.916   3.075   4.669
 7835SOL     OW24403   4.224   2.278   5.309
 7835SOL    HW124404   4.197   2.342   5.237
 7835SOL    HW224405   4.278   2.204   5.269
 7836SOL     OW24406   3.856   3.501   5.096
 7836SOL    HW124407   3.772   3.515   5.043
 7836SOL    HW224408   3.845   3.542   5.187
 7837SOL     OW24409   6.481   5.665   6.733
 7837SOL    HW124410   6.577   5.661   6.761
 7837SOL    HW224411   6.467   5.606   6.654
 7838SOL     OW24412   5.101   5.500   1.131
 7838SOL    HW124413   5.134   5.444   1.206
 7838SOL    HW224414   5.082   5.593   1.164
 7839SOL     OW24415   5.706   3.445   4.372
 7839SOL    HW124416   5.754   3.425   4.458
 7839SOL    HW224417   5.608   3.431   4.384
 7840SOL     OW24418   1.994   3.177   3.960
 7840SOL    HW124419   2.030   3.087   3.936
 7840SOL    HW224420   1.959   3.175   4.054
 7841SOL     OW24421   5.123   2.449   6.036
 7841SOL    HW124422   5.071   2.387   5.977
 7841SOL    HW224423   5.220   2.444   6.012
 7842SOL     OW24424   1.862   0.937   2.205
 7842SOL    HW124425   1.893   0.843   2.194
 7842SOL    HW224426   1.797   0.942   2.282
 7843SOL     OW24427   0.325   6.812   3.427
 7843SOL    HW124428   0.285   6.720   3.434
 7843SOL    HW224429   0.283   6.861   3.351
 7844SOL     OW24430   3.385   1.727   2.995
 7844SOL    HW124431   3.287   1.740   3.009
 7844SOL    HW224432   3.402   1.687   2.905
 7845SOL     OW24433   6.272   3.081   1.217
 7845SOL    HW124434   6.315   3.030   1.291
 7845SOL    HW224435   6.335   3.090   1.141
 7846SOL     OW24436   0.646   2.169   0.085
 7846SOL    HW124437   0.626   2.231   0.009
 7846SOL    HW224438   0.668   2.078   0.050
 7847SOL     OW24439   5.744   3.137   4.955
 7847SOL    HW124440   5.700   3.065   5.007
 7847SOL    HW224441   5.716   3.130   4.859
 7848SOL     OW24442   3.088   4.694   0.806
 7848SOL    HW124443   3.154   4.682   0.880
 7848SOL    HW224444   3.054   4.605   0.777
 7849SOL     OW24445   4.603   4.526   6.691
 7849SOL    HW124446   4.538   4.465   6.646
 7849SOL    HW224447   4.633   4.484   6.777
 7850SOL     OW24448   6.884   1.017   3.810
 7850SOL    HW124449   6.860   0.935   3.758
 7850SOL    HW224450   6.802   1.070   3.828
 7851SOL     OW24451   0.453   4.015   2.046
 7851SOL    HW124452   0.394   4.081   1.998
 7851SOL    HW224453   0.500   4.061   2.121
 7852SOL     OW24454   1.005   2.375   6.375
 7852SOL    HW124455   1.073   2.305   6.397
 7852SOL    HW224456   1.035   2.426   6.294
 7853SOL     OW24457   4.134   2.939   1.727
 7853SOL    HW124458   4.100   2.963   1.818
 7853SOL    HW224459   4.231   2.964   1.721
 7854SOL     OW24460   4.866   2.738   6.504
 7854SOL    HW124461   4.873   2.793   6.588
 7854SOL    HW224462   4.915   2.652   6.517
 7855SOL     OW24463   4.704   6.997   4.339
 7855SOL    HW124464   4.644   7.009   4.418
 7855SOL    HW224465   4.664   6.928   4.278
 7856SOL     OW24466   2.301   6.677   4.797
 7856SOL    HW124467   2.251   6.609   4.743
 7856SOL    HW224468   2.261   6.767   4.780
 7857SOL     OW24469   5.935   4.176   1.311
 7857SOL    HW124470   6.006   4.137   1.370
 7857SOL    HW224471   5.915   4.112   1.237
 7858SOL     OW24472   0.447   4.640   5.862
 7858SOL    HW124473   0.451   4.553   5.814
 7858SOL    HW224474   0.373   4.639   5.928
 7859SOL     OW24475   5.122   2.658   0.235
 7859SOL    HW124476   5.049   2.607   0.281
 7859SOL    HW224477   5.197   2.596   0.212
 7860SOL     OW24478   2.596   0.800   4.367
 7860SOL    HW124479   2.538   0.878   4.391
 7860SOL    HW224480   2.682   0.833   4.327
 7861SOL     OW24481   2.552   6.316   1.016
 7861SOL    HW124482   2.484   6.386   1.035
 7861SOL    HW224483   2.509   6.226   1.018
 7862SOL     OW24484   2.628   5.774   0.823
 7862SOL    HW124485   2.609   5.691   0.770
 7862SOL    HW224486   2.548   5.834   0.820
 7863SOL     OW24487   6.618   4.219   3.530
 7863SOL    HW124488   6.682   4.255   3.462
 7863SOL    HW224489   6.668   4.195   3.613
 7864SOL     OW24490   2.091   6.881   5.483
 7864SOL    HW124491   2.023   6.909   5.550
 7864SOL    HW224492   2.161   6.825   5.528
 7865SOL     OW24493   6.080   5.478   3.479
 7865SOL    HW124494   6.088   5.409   3.551
 7865SOL    HW224495   5.985   5.482   3.448
 7866SOL     OW24496   1.043   6.927   5.880
 7866SOL    HW124497   1.037   6.975   5.793
 7866SOL    HW224498   0.984   6.846   5.877
 7867SOL     OW24499   5.624   6.372   3.777
 7867SOL    HW124500   5.614   6.448   3.713
 7867SOL    HW224501   5.555   6.302   3.757
 7868SOL     OW24502   3.133   6.029   1.346
 7868SOL    HW124503   3.171   6.103   1.402
 7868SOL    HW224504   3.074   6.067   1.275
 7869SOL     OW24505   5.265   5.120   5.755
 7869SOL    HW124506   5.306   5.037   5.792
 7869SOL    HW224507   5.302   5.200   5.802
 7870SOL     OW24508   5.623   6.165   4.969
 7870SOL    HW124509   5.668   6.202   5.050
 7870SOL    HW224510   5.566   6.236   4.927
 7871SOL     OW24511   5.254   1.457   1.947
 7871SOL    HW124512   5.222   1.436   1.855
 7871SOL    HW224513   5.282   1.373   1.992
 7872SOL     OW24514   1.954   5.874   2.553
 7872SOL    HW124515   2.031   5.908   2.499
 7872SOL    HW224516   1.898   5.950   2.583
 7873SOL     OW24517   6.256   1.424   6.736
 7873SOL    HW124518   6.163   1.461   6.731
 7873SOL    HW224519   6.304   1.465   6.813
 7874SOL     OW24520   5.600   2.183   0.666
 7874SOL    HW124521   5.528   2.214   0.604
 7874SOL    HW224522   5.596   2.236   0.751
 7875SOL     OW24523   5.054   4.251   6.762
 7875SOL    HW124524   4.978   4.306   6.728
 7875SOL    HW224525   5.022   4.158   6.780
 7876SOL     OW24526   0.581   0.040   2.623
 7876SOL    HW124527   0.505   0.063   2.562
 7876SOL    HW224528   0.573   6.971   2.650
 7877SOL     OW24529   0.034   2.081   3.059
 7877SOL    HW124530   0.099   2.094   3.133
 7877SOL    HW224531   0.066   2.130   2.978
 7878SOL     OW24532   4.035   4.764   3.088
 7878SOL    HW124533   3.975   4.834   3.050
 7878SOL    HW224534   4.077   4.712   3.014
 7879SOL     OW24535   2.620   4.605   2.970
 7879SOL    HW124536   2.690   4.676   2.969
 7879SOL    HW224537   2.585   4.590   2.877
 7880SOL     OW24538   1.592   3.962   2.000
 7880SOL    HW124539   1.613   3.866   2.018
 7880SOL    HW224540   1.589   3.978   1.901
 7881SOL     OW24541   5.077   4.380   4.055
 7881SOL    HW124542   5.139   4.302   4.049
 7881SOL    HW224543   4.995   4.363   4.001
 7882SOL     OW24544   1.369   3.599   0.881
 7882SOL    HW124545   1.360   3.504   0.852
 7882SOL    HW224546   1.447   3.641   0.835
 7883SOL     OW24547   0.956   1.191   5.360
 7883SOL    HW124548   0.955   1.145   5.271
 7883SOL    HW224549   1.051   1.209   5.387
 7884SOL     OW24550   0.892   2.696   4.214
 7884SOL    HW124551   0.809   2.657   4.175
 7884SOL    HW224552   0.971   2.642   4.185
 7885SOL     OW24553   6.135   5.643   0.005
 7885SOL    HW124554   6.035   5.639   0.013
 7885SOL    HW224555   6.173   5.552   0.023
 7886SOL     OW24556   4.919   5.248   6.733
 7886SOL    HW124557   4.988   5.256   6.662
 7886SOL    HW224558   4.828   5.242   6.691
 7887SOL     OW24559   4.755   1.998   6.849
 7887SOL    HW124560   4.663   2.038   6.852
 7887SOL    HW224561   4.747   1.899   6.837
 7888SOL     OW24562   4.955   1.021   4.535
 7888SOL    HW124563   4.871   0.984   4.575
 7888SOL    HW224564   4.989   1.096   4.592
 7889SOL     OW24565   1.268   6.497   2.075
 7889SOL    HW124566   1.262   6.458   1.984
 7889SOL    HW224567   1.176   6.510   2.113
 7890SOL     OW24568   1.908   3.147   2.746
 7890SOL    HW124569   1.937   3.063   2.790
 7890SOL    HW224570   1.818   3.175   2.782
 7891SOL     OW24571   1.713   4.618   2.783
 7891SOL    HW124572   1.756   4.548   2.840
 7891SOL    HW224573   1.713   4.705   2.832
 7892SOL     OW24574   1.815   2.148   5.686
 7892SOL    HW124575   1.790   2.051   5.679
 7892SOL    HW224576   1.911   2.156   5.713
 7893SOL     OW24577   6.254   6.391   1.565
 7893SOL    HW124578   6.324   6.453   1.527
 7893SOL    HW224579   6.242   6.412   1.662
 7894SOL     OW24580   3.088   6.965   1.845
 7894SOL    HW124581   3.167   6.922   1.888
 7894SOL    HW224582   3.034   6.896   1.797
 7895SOL     OW24583   0.304   1.713   3.745
 7895SOL    HW124584   0.274   1.699   3.650
 7895SOL    HW224585   0.248   1.657   3.806
 7896SOL     OW24586   4.634   2.206   5.302
 7896SOL    HW124587   4.546   2.160   5.289
 7896SOL    HW224588   4.699   2.142   5.343
 7897SOL     OW24589   3.290   3.394   6.063
 7897SOL    HW124590   3.205   3.446   6.061
 7897SOL    HW224591   3.283   3.315   6.003
 7898SOL     OW24592   4.179   2.245   3.195
 7898SOL    HW124593   4.255   2.258   3.258
 7898SOL    HW224594   4.177   2.321   3.129
 7899SOL     OW24595   5.215   1.261   2.701
 7899SOL    HW124596   5.278   1.211   2.761
 7899SOL    HW224597   5.128   1.276   2.748
 7900SOL     OW24598   1.606   5.495   0.931
 7900SOL    HW124599   1.608   5.396   0.917
 7900SOL    HW224600   1.541   5.537   0.868
 7901SOL     OW24601   6.189   6.329   0.128
 7901SOL    HW124602   6.268   6.295   0.076
 7901SOL    HW224603   6.145   6.254   0.175
 7902SOL     OW24604   4.479   3.849   6.922
 7902SOL    HW124605   4.468   3.887   6.830
 7902SOL    HW224606   4.413   3.891   6.984
 7903SOL     OW24607   0.328   2.183   6.629
 7903SOL    HW124608   0.231   2.195   6.610
 7903SOL    HW224609   0.380   2.183   6.543
 7904SOL     OW24610   6.575   1.078   2.605
 7904SOL    HW124611   6.589   0.980   2.623
 7904SOL    HW224612   6.658   1.128   2.631
 7905SOL     OW24613   3.538   1.440   0.721
 7905SOL    HW124614   3.596   1.364   0.692
 7905SOL    HW224615   3.587   1.526   0.712
 7906SOL     OW24616   6.403   6.038   0.004
 7906SOL    HW124617   6.336   6.047   6.957
 7906SOL    HW224618   6.376   5.962   0.063
 7907SOL     OW24619   0.011   2.894   2.091
 7907SOL    HW124620   6.968   2.920   2.024
 7907SOL    HW224621   7.010   2.810   2.137
 7908SOL     OW24622   6.132   2.077   3.747
 7908SOL    HW124623   6.081   2.099   3.830
 7908SOL    HW224624   6.123   2.153   3.681
 7909SOL     OW24625   4.712   4.649   4.966
 7909SOL    HW124626   4.656   4.647   4.883
 7909SOL    HW224627   4.800   4.690   4.946
 7910SOL     OW24628   5.769   3.302   5.664
 7910SOL    HW124629   5.801   3.339   5.751
 7910SOL    HW224630   5.690   3.355   5.633
 7911SOL     OW24631   5.703   4.803   0.040
 7911SOL    HW124632   5.652   4.718   0.029
 7911SOL    HW224633   5.689   4.861   6.987
 7912SOL     OW24634   6.570   5.106   5.888
 7912SOL    HW124635   6.541   5.055   5.969
 7912SOL    HW224636   6.663   5.139   5.901
 7913SOL     OW24637   0.148   5.894   6.507
 7913SOL    HW124638   0.184   5.919   6.417
 7913SOL    HW224639   0.097   5.808   6.499
 7914SOL     OW24640   6.732   3.542   2.296
 7914SOL    HW124641   6.706   3.629   2.339
 7914SOL    HW224642   6.826   3.518   2.322
 7915SOL     OW24643   4.076   1.703   2.728
 7915SOL    HW124644   4.001   1.755   2.769
 7915SOL    HW224645   4.088   1.618   2.779
 7916SOL     OW24646   5.365   3.742   5.550
 7916SOL    HW124647   5.372   3.659   5.606
 7916SOL    HW224648   5.274   3.748   5.510
 7917SOL     OW24649   3.061   3.884   4.442
 7917SOL    HW124650   3.153   3.910   4.414
 7917SOL    HW224651   3.041   3.923   4.532
 7918SOL     OW24652   6.358   1.830   2.411
 7918SOL    HW124653   6.355   1.744   2.360
 7918SOL    HW224654   6.430   1.825   2.480
 7919SOL     OW24655   5.930   5.253   2.051
 7919SOL    HW124656   5.874   5.171   2.061
 7919SOL    HW224657   5.916   5.313   2.130
 7920SOL     OW24658   0.609   5.774   1.619
 7920SOL    HW124659   0.579   5.869   1.621
 7920SOL    HW224660   0.604   5.735   1.711
 7921SOL     OW24661   3.469   6.785   1.734
 7921SOL    HW124662   3.457   6.740   1.645
 7921SOL    HW224663   3.435   6.879   1.729
 7922SOL     OW24664   0.713   5.105   6.842
 7922SOL    HW124665   0.634   5.045   6.852
 7922SOL    HW224666   0.796   5.050   6.835
 7923SOL     OW24667   1.568   1.824   2.452
 7923SOL    HW124668   1.657   1.834   2.496
 7923SOL    HW224669   1.514   1.756   2.502
 7924SOL     OW24670   2.246   0.236   4.079
 7924SOL    HW124671   2.346   0.229   4.077
 7924SOL    HW224672   2.219   0.311   4.139
 7925SOL     OW24673   6.995   1.098   6.771
 7925SOL    HW124674   6.954   1.128   6.857
 7925SOL    HW224675   0.061   1.065   6.788
 7926SOL     OW24676   3.440   0.389   1.727
 7926SOL    HW124677   3.500   0.322   1.770
 7926SOL    HW224678   3.421   0.361   1.633
 7927SOL     OW24679   4.529   4.839   4.444
 7927SOL    HW124680   4.555   4.904   4.516
 7927SOL    HW224681   4.561   4.873   4.355
 7928SOL     OW24682   1.501   5.026   1.411
 7928SOL    HW124683   1.447   5.108   1.393
 7928SOL    HW224684   1.529   5.025   1.507
 7929SOL     OW24685   3.529   4.159   4.197
 7929SOL    HW124686   3.561   4.248   4.165
 7929SOL    HW224687   3.504   4.103   4.118
 7930SOL     OW24688   4.881   5.856   4.262
 7930SOL    HW124689   4.829   5.934   4.229
 7930SOL    HW224690   4.838   5.771   4.231
 7931SOL     OW24691   1.578   2.830   0.545
 7931SOL    HW124692   1.594   2.815   0.643
 7931SOL    HW224693   1.582   2.742   0.497
 7932SOL     OW24694   2.823   6.988   1.329
 7932SOL    HW124695   2.803   6.952   1.238
 7932SOL    HW224696   2.738   7.013   1.375
 7933SOL     OW24697   1.467   0.438   0.006
 7933SOL    HW124698   1.423   0.349   7.022
 7933SOL    HW224699   1.397   0.508   0.020
 7934SOL     OW24700   2.860   3.665   6.201
 7934SOL    HW124701   2.802   3.619   6.133
 7934SOL    HW224702   2.838   3.763   6.202
 7935SOL     OW24703   4.241   6.284   1.136
 7935SOL    HW124704   4.273   6.268   1.230
 7935SOL    HW224705   4.142   6.265   1.132
 7936SOL     OW24706   4.705   6.070   3.115
 7936SOL    HW124707   4.712   6.023   3.203
 7936SOL    HW224708   4.632   6.139   3.119
 7937SOL     OW24709   6.050   6.399   5.761
 7937SOL    HW124710   5.987   6.325   5.741
 7937SOL    HW224711   5.999   6.485   5.773
 7938SOL     OW24712   5.808   4.722   4.819
 7938SOL    HW124713   5.892   4.669   4.811
 7938SOL    HW224714   5.786   4.762   4.729
 7939SOL     OW24715   0.994   0.703   4.908
 7939SOL    HW124716   1.033   0.699   4.816
 7939SOL    HW224717   0.916   0.764   4.909
 7940SOL     OW24718   1.596   5.722   1.119
 7940SOL    HW124719   1.582   5.665   1.038
 7940SOL    HW224720   1.664   5.792   1.100
 7941SOL     OW24721   0.317   0.317   0.423
 7941SOL    HW124722   0.374   0.361   0.354
 7941SOL    HW224723   0.353   0.226   0.442
 7942SOL     OW24724   0.876   0.824   1.783
 7942SOL    HW124725   0.941   0.817   1.859
 7942SOL    HW224726   0.818   0.905   1.797
 7943SOL     OW24727   5.381   1.956   1.035
 7943SOL    HW124728   5.355   1.976   1.130
 7943SOL    HW224729   5.480   1.941   1.030
 7944SOL     OW24730   1.102   4.456   2.032
 7944SOL    HW124731   1.189   4.414   2.059
 7944SOL    HW224732   1.027   4.397   2.059
 7945SOL     OW24733   5.408   6.372   1.797
 7945SOL    HW124734   5.373   6.449   1.743
 7945SOL    HW224735   5.349   6.357   1.876
 7946SOL     OW24736   1.724   1.889   5.647
 7946SOL    HW124737   1.720   1.831   5.728
 7946SOL    HW224738   1.726   1.832   5.565
 7947SOL     OW24739   3.761   3.760   6.423
 7947SOL    HW124740   3.675   3.738   6.378
 7947SOL    HW224741   3.765   3.859   6.442
 7948SOL     OW24742   0.541   6.464   0.175
 7948SOL    HW124743   0.538   6.396   0.101
 7948SOL    HW224744   0.600   6.539   0.148
 7949SOL     OW24745   5.771   4.481   4.482
 7949SOL    HW124746   5.785   4.459   4.386
 7949SOL    HW224747   5.791   4.578   4.498
 7950SOL     OW24748   3.432   5.092   4.440
 7950SOL    HW124749   3.405   5.175   4.490
 7950SOL    HW224750   3.373   5.016   4.469
 7951SOL     OW24751   3.045   3.048   1.305
 7951SOL    HW124752   3.032   3.108   1.384
 7951SOL    HW224753   3.090   2.963   1.334
 7952SOL     OW24754   5.835   3.532   0.628
 7952SOL    HW124755   5.782   3.579   0.699
 7952SOL    HW224756   5.775   3.470   0.577
 7953SOL     OW24757   1.928   3.027   2.487
 7953SOL    HW124758   1.894   3.063   2.574
 7953SOL    HW224759   1.856   2.975   2.442
 7954SOL     OW24760   4.891   5.519   5.218
 7954SOL    HW124761   4.963   5.484   5.159
 7954SOL    HW224762   4.867   5.612   5.191
 7955SOL     OW24763   1.050   6.652   5.683
 7955SOL    HW124764   0.979   6.690   5.743
 7955SOL    HW224765   1.140   6.675   5.720
 7956SOL     OW24766   5.727   0.221   3.582
 7956SOL    HW124767   5.743   0.123   3.573
 7956SOL    HW224768   5.634   0.237   3.614
 7957SOL     OW24769   1.370   2.730   0.925
 7957SOL    HW124770   1.327   2.722   1.015
 7957SOL    HW224771   1.301   2.718   0.854
 7958SOL     OW24772   2.524   5.775   2.703
 7958SOL    HW124773   2.485   5.690   2.670
 7958SOL    HW224774   2.491   5.851   2.648
 7959SOL     OW24775   5.554   4.922   0.964
 7959SOL    HW124776   5.470   4.882   0.929
 7959SOL    HW224777   5.585   4.870   1.044
 7960SOL     OW24778   2.267   2.244   1.061
 7960SOL    HW124779   2.356   2.200   1.045
 7960SOL    HW224780   2.270   2.294   1.147
 7961SOL     OW24781   1.766   5.085   6.553
 7961SOL    HW124782   1.721   5.096   6.464
 7961SOL    HW224783   1.704   5.041   6.617
 7962SOL     OW24784   1.255   0.340   2.331
 7962SOL    HW124785   1.195   0.282   2.276
 7962SOL    HW224786   1.220   0.434   2.330
 7963SOL     OW24787   0.365   0.782   5.062
 7963SOL    HW124788   0.386   0.708   4.998
 7963SOL    HW224789   0.283   0.830   5.031
 7964SOL     OW24790   6.085   5.967   3.498
 7964SOL    HW124791   6.110   5.871   3.485
 7964SOL    HW224792   6.119   5.998   3.587
 7965SOL     OW24793   5.515   2.171   0.161
 7965SOL    HW124794   5.441   2.107   0.181
 7965SOL    HW224795   5.603   2.124   0.172
 7966SOL     OW24796   6.965   4.899   3.972
 7966SOL    HW124797   6.925   4.983   3.936
 7966SOL    HW224798   6.975   4.832   3.898
 7967SOL     OW24799   2.820   6.130   2.760
 7967SOL    HW124800   2.823   6.035   2.788
 7967SOL    HW224801   2.905   6.175   2.787
 7968SOL     OW24802   2.010   1.368   2.069
 7968SOL    HW124803   2.043   1.448   2.120
 7968SOL    HW224804   1.988   1.395   1.975
 7969SOL     OW24805   2.932   2.070   3.189
 7969SOL    HW124806   2.899   2.110   3.274
 7969SOL    HW224807   3.003   2.128   3.149
 7970SOL     OW24808   0.448   4.653   3.241
 7970SOL    HW124809   0.398   4.575   3.203
 7970SOL    HW224810   0.395   4.693   3.316
 7971SOL     OW24811   2.440   1.687   1.604
 7971SOL    HW124812   2.538   1.667   1.610
 7971SOL    HW224813   2.419   1.722   1.513
 7972SOL     OW24814   0.411   4.286   2.199
 7972SOL    HW124815   0.378   4.255   2.288
 7972SOL    HW224816   0.358   4.366   2.170
 7973SOL     OW24817   4.686   2.682   2.761
 7973SOL    HW124818   4.683   2.673   2.661
 7973SOL    HW224819   4.596   2.663   2.800
 7974SOL     OW24820   5.278   0.307   4.524
 7974SOL    HW124821   5.208   0.325   4.454
 7974SOL    HW224822   5.363   0.281   4.480
 7975SOL     OW24823   2.675   1.215   3.950
 7975SOL    HW124824   2.723   1.231   3.864
 7975SOL    HW224825   2.717   1.138   3.998
 7976SOL     OW24826   0.907   5.162   6.604
 7976SOL    HW124827   0.837   5.222   6.567
 7976SOL    HW224828   0.975   5.216   6.655
 7977SOL     OW24829   5.230   6.238   1.546
 7977SOL    HW124830   5.259   6.213   1.454
 7977SOL    HW224831   5.283   6.318   1.577
 7978SOL     OW24832   4.530   2.681   5.621
 7978SOL    HW124833   4.473   2.746   5.670
 7978SOL    HW224834   4.477   2.599   5.600
 7979SOL     OW24835   3.688   6.522   4.173
 7979SOL    HW124836   3.709   6.528   4.271
 7979SOL    HW224837   3.754   6.576   4.121
 7980SOL     OW24838   3.244   6.282   1.524
 7980SOL    HW124839   3.209   6.242   1.608
 7980SOL    HW224840   3.313   6.351   1.546
 7981SOL     OW24841   1.153   5.237   3.018
 7981SOL    HW124842   1.171   5.212   3.113
 7981SOL    HW224843   1.129   5.155   2.966
 7982SOL     OW24844   6.547   3.365   0.889
 7982SOL    HW124845   6.632   3.400   0.929
 7982SOL    HW224846   6.563   3.342   0.793
 7983SOL     OW24847   5.148   2.571   2.584
 7983SOL    HW124848   5.117   2.589   2.491
 7983SOL    HW224849   5.086   2.615   2.649
 7984SOL     OW24850   0.536   1.150   1.384
 7984SOL    HW124851   0.573   1.179   1.296
 7984SOL    HW224852   0.479   1.069   1.371
 7985SOL     OW24853   0.106   1.629   2.009
 7985SOL    HW124854   0.186   1.683   1.981
 7985SOL    HW224855   0.039   1.689   2.053
 7986SOL     OW24856   3.741   1.584   0.521
 7986SOL    HW124857   3.785   1.494   0.528
 7986SOL    HW224858   3.742   1.628   0.611
 7987SOL     OW24859   0.556   3.054   4.761
 7987SOL    HW124860   0.540   3.106   4.845
 7987SOL    HW224861   0.473   3.004   4.737
 7988SOL     OW24862   2.871   1.337   5.480
 7988SOL    HW124863   2.955   1.380   5.513
 7988SOL    HW224864   2.792   1.384   5.520
 7989SOL     OW24865   2.792   2.572   5.388
 7989SOL    HW124866   2.785   2.566   5.488
 7989SOL    HW224867   2.718   2.630   5.353
 7990SOL     OW24868   1.560   2.210   4.694
 7990SOL    HW124869   1.597   2.247   4.609
 7990SOL    HW224870   1.576   2.275   4.768
 7991SOL     OW24871   0.926   3.177   5.826
 7991SOL    HW124872   0.890   3.270   5.821
 7991SOL    HW224873   0.872   3.124   5.891
 7992SOL     OW24874   2.334   1.266   1.035
 7992SOL    HW124875   2.307   1.208   0.959
 7992SOL    HW224876   2.365   1.354   1.001
 7993SOL     OW24877   2.114   6.778   6.542
 7993SOL    HW124878   2.209   6.754   6.523
 7993SOL    HW224879   2.077   6.831   6.466
 7994SOL     OW24880   5.569   1.001   3.306
 7994SOL    HW124881   5.495   1.027   3.368
 7994SOL    HW224882   5.597   0.907   3.325
 7995SOL     OW24883   3.339   5.222   3.319
 7995SOL    HW124884   3.404   5.290   3.284
 7995SOL    HW224885   3.384   5.133   3.326
 7996SOL     OW24886   3.733   0.041   4.973
 7996SOL    HW124887   3.775   0.106   5.036
 7996SOL    HW224888   3.740   6.975   5.010
 7997SOL     OW24889   5.466   2.710   1.605
 7997SOL    HW124890   5.514   2.780   1.658
 7997SOL    HW224891   5.368   2.712   1.627
 7998SOL     OW24892   5.899   4.673   6.855
 7998SOL    HW124893   5.825   4.734   6.825
 7998SOL    HW224894   5.958   4.653   6.777
 7999SOL     OW24895   1.936   0.452   5.495
 7999SOL    HW124896   2.013   0.491   5.545
 7999SOL    HW224897   1.896   0.521   5.434
 8000SOL     OW24898   6.273   6.596   5.355
 8000SOL    HW124899   6.283   6.581   5.256
 8000SOL    HW224900   6.325   6.526   5.404
 8001SOL     OW24901   2.177   6.933   1.325
 8001SOL    HW124902   2.256   6.893   1.279
 8001SOL    HW224903   2.125   6.988   1.259
 8002SOL     OW24904   5.751   3.074   5.253
 8002SOL    HW124905   5.670   3.020   5.273
 8002SOL    HW224906   5.803   3.031   5.179
 8003SOL     OW24907   3.606   5.166   3.019
 8003SOL    HW124908   3.633   5.083   3.067
 8003SOL    HW224909   3.507   5.165   3.002
 8004SOL     OW24910   1.939   3.872   2.749
 8004SOL    HW124911   2.033   3.897   2.774
 8004SOL    HW224912   1.907   3.932   2.676
 8005SOL     OW24913   2.998   1.388   1.448
 8005SOL    HW124914   2.979   1.484   1.469
 8005SOL    HW224915   2.999   1.335   1.532
 8006SOL     OW24916   3.331   6.040   0.559
 8006SOL    HW124917   3.418   6.061   0.602
 8006SOL    HW224918   3.334   5.947   0.521
 8007SOL     OW24919   0.450   0.661   4.192
 8007SOL    HW124920   0.437   0.674   4.093
 8007SOL    HW224921   0.526   0.717   4.223
 8008SOL     OW24922   6.251   6.664   0.492
 8008SOL    HW124923   6.175   6.724   0.518
 8008SOL    HW224924   6.246   6.645   0.394
 8009SOL     OW24925   6.619   6.721   3.655
 8009SOL    HW124926   6.701   6.671   3.681
 8009SOL    HW224927   6.640   6.781   3.578
 8010SOL     OW24928   2.520   3.068   6.736
 8010SOL    HW124929   2.589   3.014   6.783
 8010SOL    HW224930   2.521   3.047   6.639
 8011SOL     OW24931   2.783   2.164   0.450
 8011SOL    HW124932   2.807   2.135   0.542
 8011SOL    HW224933   2.738   2.089   0.402
 8012SOL     OW24934   3.041   6.280   1.973
 8012SOL    HW124935   2.997   6.301   2.060
 8012SOL    HW224936   3.070   6.184   1.972
 8013SOL     OW24937   6.032   4.530   5.071
 8013SOL    HW124938   5.945   4.508   5.029
 8013SOL    HW224939   6.087   4.585   5.008
 8014SOL     OW24940   2.116   6.305   0.302
 8014SOL    HW124941   2.112   6.361   0.384
 8014SOL    HW224942   2.200   6.326   0.252
 8015SOL     OW24943   2.095   2.715   0.064
 8015SOL    HW124944   2.071   2.646   0.134
 8015SOL    HW224945   2.065   2.682   7.001
 8016SOL     OW24946   3.482   6.511   1.141
 8016SOL    HW124947   3.507   6.554   1.055
 8016SOL    HW224948   3.383   6.517   1.154
 8017SOL     OW24949   5.996   4.245   4.370
 8017SOL    HW124950   6.058   4.175   4.335
 8017SOL    HW224951   5.978   4.312   4.298
 8018SOL     OW24952   5.370   2.169   5.012
 8018SOL    HW124953   5.368   2.268   5.000
 8018SOL    HW224954   5.277   2.134   5.023
 8019SOL     OW24955   2.778   5.562   0.923
 8019SOL    HW124956   2.802   5.530   1.014
 8019SOL    HW224957   2.709   5.634   0.929
 8020SOL     OW24958   5.484   5.619   6.780
 8020SOL    HW124959   5.448   5.560   6.852
 8020SOL    HW224960   5.408   5.659   6.729
 8021SOL     OW24961   0.892   0.683   1.431
 8021SOL    HW124962   0.802   0.719   1.454
 8021SOL    HW224963   0.944   0.669   1.515
 8022SOL     OW24964   4.532   6.220   2.765
 8022SOL    HW124965   4.628   6.196   2.755
 8022SOL    HW224966   4.475   6.149   2.724
 8023SOL     OW24967   6.364   6.869   3.081
 8023SOL    HW124968   6.398   6.894   3.172
 8023SOL    HW224969   6.387   6.773   3.062
 8024SOL     OW24970   4.549   4.852   5.128
 8024SOL    HW124971   4.518   4.869   5.222
 8024SOL    HW224972   4.647   4.870   5.122
 8025SOL     OW24973   3.710   5.587   6.799
 8025SOL    HW124974   3.672   5.537   6.877
 8025SOL    HW224975   3.799   5.625   6.824
 8026SOL     OW24976   0.978   2.856   0.354
 8026SOL    HW124977   1.039   2.924   0.396
 8026SOL    HW224978   0.939   2.798   0.426
 8027SOL     OW24979   5.033   2.988   5.613
 8027SOL    HW124980   5.020   2.983   5.712
 8027SOL    HW224981   4.966   2.930   5.567
 8028SOL     OW24982   5.541   4.478   6.780
 8028SOL    HW124983   5.569   4.539   6.705
 8028SOL    HW224984   5.549   4.383   6.750
 8029SOL     OW24985   3.343   4.269   0.941
 8029SOL    HW124986   3.412   4.204   0.911
 8029SOL    HW224987   3.252   4.230   0.928
 8030SOL     OW24988   5.664   3.934   6.572
 8030SOL    HW124989   5.630   4.023   6.542
 8030SOL    HW224990   5.764   3.934   6.570
 8031SOL     OW24991   3.473   5.664   1.517
 8031SOL    HW124992   3.448   5.631   1.426
 8031SOL    HW224993   3.552   5.724   1.511
 8032SOL     OW24994   5.097   3.732   5.977
 8032SOL    HW124995   5.048   3.806   6.022
 8032SOL    HW224996   5.180   3.768   5.934
 8033SOL     OW24997   5.698   2.770   0.024
 8033SOL    HW124998   5.650   2.848   7.010
 8033SOL    HW224999   5.711   2.785   0.122
 8034SOL     OW25000   5.730   0.656   5.341
 8034SOL    HW125001   5.687   0.711   5.413
 8034SOL    HW225002   5.671   0.577   5.320
 8035SOL     OW25003   5.770   6.498   6.652
 8035SOL    HW125004   5.704   6.428   6.679
 8035SOL    HW225005   5.818   6.470   6.570
 8036SOL     OW25006   2.145   4.647   1.772
 8036SOL    HW125007   2.107   4.662   1.864
 8036SOL    HW225008   2.102   4.566   1.731
 8037SOL     OW25009   1.378   3.230   1.481
 8037SOL    HW125010   1.378   3.271   1.390
 8037SOL    HW225011   1.295   3.176   1.493
 8038SOL     OW25012   7.021   2.359   4.263
 8038SOL    HW125013   0.036   2.446   4.289
 8038SOL    HW225014   6.936   2.376   4.212
 8039SOL     OW25015   2.727   0.050   3.558
 8039SOL    HW125016   2.773   6.995   3.592
 8039SOL    HW225017   2.772   0.081   3.474
 8040SOL     OW25018   6.936   5.759   0.860
 8040SOL    HW125019   6.886   5.839   0.827
 8040SOL    HW225020   6.872   5.684   0.876
 8041SOL     OW25021   4.422   1.599   0.790
 8041SOL    HW125022   4.454   1.682   0.836
 8041SOL    HW225023   4.456   1.597   0.697
 8042SOL     OW25024   3.402   3.254   1.558
 8042SOL    HW125025   3.411   3.174   1.617
 8042SOL    HW225026   3.470   3.322   1.583
 8043SOL     OW25027   2.849   6.633   2.034
 8043SOL    HW125028   2.930   6.597   1.989
 8043SOL    HW225029   2.796   6.558   2.074
 8044SOL     OW25030   3.162   3.810   1.921
 8044SOL    HW125031   3.203   3.774   2.005
 8044SOL    HW225032   3.141   3.735   1.859
 8045SOL     OW25033   5.907   2.621   3.354
 8045SOL    HW125034   5.820   2.645   3.310
 8045SOL    HW225035   5.892   2.602   3.451
 8046SOL     OW25036   6.781   5.187   6.310
 8046SOL    HW125037   6.835   5.191   6.226
 8046SOL    HW225038   6.828   5.236   6.382
 8047SOL     OW25039   3.547   6.083   3.993
 8047SOL    HW125040   3.536   6.149   3.919
 8047SOL    HW225041   3.547   5.990   3.956
 8048SOL     OW25042   7.022   6.888   5.675
 8048SOL    HW125043   6.952   6.835   5.627
 8048SOL    HW225044   0.037   6.832   5.747
 8049SOL     OW25045   1.095   5.307   0.659
 8049SOL    HW125046   1.126   5.335   0.750
 8049SOL    HW225047   1.042   5.223   0.666
 8050SOL     OW25048   1.556   2.959   1.193
 8050SOL    HW125049   1.471   2.940   1.242
 8050SOL    HW225050   1.536   2.978   1.097
 8051SOL     OW25051   4.581   0.985   3.828
 8051SOL    HW125052   4.671   0.942   3.827
 8051SOL    HW225053   4.560   1.020   3.736
 8052SOL     OW25054   2.623   1.426   3.031
 8052SOL    HW125055   2.597   1.521   3.010
 8052SOL    HW225056   2.706   1.426   3.087
 8053SOL     OW25057   3.883   3.672   2.285
 8053SOL    HW125058   3.904   3.707   2.376
 8053SOL    HW225059   3.800   3.617   2.289
 8054SOL     OW25060   4.163   6.095   4.704
 8054SOL    HW125061   4.144   6.157   4.780
 8054SOL    HW225062   4.208   6.146   4.630
 8055SOL     OW25063   1.885   6.955   5.646
 8055SOL    HW125064   1.873   0.027   5.658
 8055SOL    HW225065   1.844   6.906   5.723
 8056SOL     OW25066   4.259   1.675   3.010
 8056SOL    HW125067   4.297   1.745   2.949
 8056SOL    HW225068   4.278   1.585   2.972
 8057SOL     OW25069   3.704   6.522   3.053
 8057SOL    HW125070   3.766   6.536   3.130
 8057SOL    HW225071   3.704   6.604   2.995
 8058SOL     OW25072   2.490   1.104   3.109
 8058SOL    HW125073   2.566   1.079   3.050
 8058SOL    HW225074   2.420   1.033   3.105
 8059SOL     OW25075   2.931   1.697   3.893
 8059SOL    HW125076   2.896   1.719   3.983
 8059SOL    HW225077   3.017   1.646   3.902
 8060SOL     OW25078   0.408   1.643   4.614
 8060SOL    HW125079   0.500   1.680   4.605
 8060SOL    HW225080   0.343   1.702   4.565
 8061SOL     OW25081   0.253   5.267   2.073
 8061SOL    HW125082   0.352   5.270   2.087
 8061SOL    HW225083   0.207   5.320   2.145
 8062SOL     OW25084   1.915   3.806   3.463
 8062SOL    HW125085   1.836   3.850   3.421
 8062SOL    HW225086   1.889   3.716   3.498
 8063SOL     OW25087   3.266   3.018   0.369
 8063SOL    HW125088   3.365   3.028   0.356
 8063SOL    HW225089   3.233   3.089   0.430
 8064SOL     OW25090   6.906   3.946   6.809
 8064SOL    HW125091   6.927   3.931   6.712
 8064SOL    HW225092   6.892   3.858   6.854
 8065SOL     OW25093   4.785   0.421   5.458
 8065SOL    HW125094   4.844   0.341   5.468
 8065SOL    HW225095   4.709   0.400   5.397
 8066SOL     OW25096   1.644   0.292   1.545
 8066SOL    HW125097   1.643   0.219   1.613
 8066SOL    HW225098   1.552   0.331   1.535
 8067SOL     OW25099   5.140   2.460   1.933
 8067SOL    HW125100   5.075   2.446   1.858
 8067SOL    HW225101   5.175   2.553   1.930
 8068SOL     OW25102   0.731   4.290   4.547
 8068SOL    HW125103   0.703   4.216   4.608
 8068SOL    HW225104   0.663   4.364   4.550
 8069SOL     OW25105   1.605   6.399   1.779
 8069SOL    HW125106   1.695   6.411   1.820
 8069SOL    HW225107   1.604   6.440   1.688
 8070SOL     OW25108   3.874   0.311   1.337
 8070SOL    HW125109   3.908   0.271   1.252
 8070SOL    HW225110   3.774   0.316   1.334
 8071SOL     OW25111   3.884   6.311   6.731
 8071SOL    HW125112   3.833   6.238   6.685
 8071SOL    HW225113   3.914   6.279   6.821
 8072SOL     OW25114   5.367   0.899   1.364
 8072SOL    HW125115   5.310   0.939   1.292
 8072SOL    HW225116   5.388   0.970   1.432
 8073SOL     OW25117   4.232   6.519   5.788
 8073SOL    HW125118   4.329   6.496   5.794
 8073SOL    HW225119   4.208   6.584   5.860
 8074SOL     OW25120   3.332   3.838   0.206
 8074SOL    HW125121   3.325   3.857   0.304
 8074SOL    HW225122   3.267   3.896   0.157
 8075SOL     OW25123   0.159   1.702   2.756
 8075SOL    HW125124   0.169   1.736   2.663
 8075SOL    HW225125   0.150   1.779   2.819
 8076SOL     OW25126   6.058   3.107   5.927
 8076SOL    HW125127   6.007   3.190   5.950
 8076SOL    HW225128   6.018   3.065   5.845
 8077SOL     OW25129   1.583   0.107   0.830
 8077SOL    HW125130   1.551   0.161   0.753
 8077SOL    HW225131   1.504   0.073   0.882
 8078SOL     OW25132   6.278   3.455   0.895
 8078SOL    HW125133   6.376   3.437   0.902
 8078SOL    HW225134   6.227   3.374   0.924
 8079SOL     OW25135   6.594   1.953   2.131
 8079SOL    HW125136   6.639   1.923   2.215
 8079SOL    HW225137   6.656   2.012   2.079
 8080SOL     OW25138   3.568   4.982   0.140
 8080SOL    HW125139   3.499   5.007   0.208
 8080SOL    HW225140   3.565   4.883   0.124
 8081SOL     OW25141   6.147   0.906   5.576
 8081SOL    HW125142   6.181   0.880   5.666
 8081SOL    HW225143   6.084   0.983   5.585
 8082SOL     OW25144   6.910   3.065   3.753
 8082SOL    HW125145   6.844   3.036   3.683
 8082SOL    HW225146   6.958   2.984   3.787
 8083SOL     OW25147   4.344   2.378   3.656
 8083SOL    HW125148   4.423   2.439   3.646
 8083SOL    HW225149   4.352   2.329   3.743
 8084SOL     OW25150   6.656   0.245   0.853
 8084SOL    HW125151   6.696   0.280   0.768
 8084SOL    HW225152   6.654   0.317   0.922
 8085SOL     OW25153   5.612   1.299   1.374
 8085SOL    HW125154   5.572   1.378   1.420
 8085SOL    HW225155   5.587   1.300   1.277
 8086SOL     OW25156   3.332   0.205   5.558
 8086SOL    HW125157   3.367   0.292   5.522
 8086SOL    HW225158   3.405   0.137   5.558
 8087SOL     OW25159   3.092   2.806   1.450
 8087SOL    HW125160   3.059   2.712   1.447
 8087SOL    HW225161   3.062   2.849   1.535
 8088SOL     OW25162   4.016   0.918   3.176
 8088SOL    HW125163   3.964   0.921   3.262
 8088SOL    HW225164   4.056   1.008   3.158
 8089SOL     OW25165   5.713   3.088   0.335
 8089SOL    HW125166   5.624   3.053   0.309
 8089SOL    HW225167   5.774   3.012   0.358
 8090SOL     OW25168   4.927   1.808   5.312
 8090SOL    HW125169   5.004   1.871   5.297
 8090SOL    HW225170   4.954   1.740   5.380
 8091SOL     OW25171   3.112   4.945   5.779
 8091SOL    HW125172   3.138   4.909   5.690
 8091SOL    HW225173   3.032   4.895   5.813
 8092SOL     OW25174   1.206   1.824   4.043
 8092SOL    HW125175   1.235   1.888   3.973
 8092SOL    HW225176   1.150   1.752   4.002
 8093SOL     OW25177   5.601   6.077   1.385
 8093SOL    HW125178   5.572   6.091   1.480
 8093SOL    HW225179   5.693   6.038   1.383
 8094SOL     OW25180   0.606   3.378   5.830
 8094SOL    HW125181   0.568   3.352   5.919
 8094SOL    HW225182   0.703   3.399   5.840
 8095SOL     OW25183   5.405   3.975   4.399
 8095SOL    HW125184   5.363   4.030   4.472
 8095SOL    HW225185   5.498   3.950   4.426
 8096SOL     OW25186   3.687   5.847   1.448
 8096SOL    HW125187   3.752   5.893   1.389
 8096SOL    HW225188   3.730   5.824   1.536
 8097SOL     OW25189   5.024   1.167   3.871
 8097SOL    HW125190   4.994   1.166   3.966
 8097SOL    HW225191   4.944   1.165   3.811
 8098SOL     OW25192   2.872   6.548   3.782
 8098SOL    HW125193   2.955   6.598   3.807
 8098SOL    HW225194   2.891   6.450   3.781
 8099SOL     OW25195   5.016   6.418   5.076
 8099SOL    HW125196   5.050   6.455   4.989
 8099SOL    HW225197   4.917   6.430   5.081
 8100SOL     OW25198   0.441   6.466   0.902
 8100SOL    HW125199   0.502   6.390   0.922
 8100SOL    HW225200   0.352   6.450   0.946
 8101SOL     OW25201   1.346   6.082   3.684
 8101SOL    HW125202   1.319   6.142   3.608
 8101SOL    HW225203   1.426   6.028   3.658
 8102SOL     OW25204   0.121   5.633   6.012
 8102SOL    HW125205   0.068   5.549   6.016
 8102SOL    HW225206   0.099   5.690   6.092
 8103SOL     OW25207   2.936   1.240   2.740
 8103SOL    HW125208   2.963   1.144   2.752
 8103SOL    HW225209   2.862   1.245   2.673
 8104SOL     OW25210   2.665   6.872   6.388
 8104SOL    HW125211   2.614   6.793   6.355
 8104SOL    HW225212   2.673   6.869   6.487
 8105SOL     OW25213   1.928   2.151   2.806
 8105SOL    HW125214   1.871   2.073   2.832
 8105SOL    HW225215   2.024   2.125   2.815
 8106SOL     OW25216   0.704   3.620   4.437
 8106SOL    HW125217   0.685   3.707   4.393
 8106SOL    HW225218   0.647   3.549   4.397
 8107SOL     OW25219   2.176   6.287   6.304
 8107SOL    HW125220   2.247   6.227   6.268
 8107SOL    HW225221   2.090   6.237   6.314
 8108SOL     OW25222   1.214   3.083   4.035
 8108SOL    HW125223   1.138   3.118   3.980
 8108SOL    HW225224   1.188   2.996   4.077
 8109SOL     OW25225   1.876   5.301   5.191
 8109SOL    HW125226   1.827   5.317   5.105
 8109SOL    HW225227   1.964   5.257   5.171
 8110SOL     OW25228   2.171   4.686   1.438
 8110SOL    HW125229   2.213   4.761   1.388
 8110SOL    HW225230   2.196   4.691   1.535
 8111SOL     OW25231   2.408   5.512   4.331
 8111SOL    HW125232   2.313   5.487   4.348
 8111SOL    HW225233   2.414   5.612   4.319
 8112SOL     OW25234   3.218   0.942   4.837
 8112SOL    HW125235   3.146   0.873   4.827
 8112SOL    HW225236   3.212   1.008   4.762
 8113SOL     OW25237   3.892   2.686   5.959
 8113SOL    HW125238   3.869   2.678   5.862
 8113SOL    HW225239   3.953   2.611   5.985
 8114SOL     OW25240   2.860   3.472   1.229
 8114SOL    HW125241   2.788   3.476   1.299
 8114SOL    HW225242   2.831   3.525   1.149
 8115SOL     OW25243   3.793   1.454   0.972
 8115SOL    HW125244   3.722   1.385   0.985
 8115SOL    HW225245   3.764   1.519   0.902
 8116SOL     OW25246   6.254   0.547   5.314
 8116SOL    HW125247   6.187   0.601   5.364
 8116SOL    HW225248   6.224   0.535   5.220
 8117SOL     OW25249   2.197   1.727   6.032
 8117SOL    HW125250   2.163   1.821   6.029
 8117SOL    HW225251   2.176   1.681   5.945
 8118SOL     OW25252   0.827   3.115   4.694
 8118SOL    HW125253   0.893   3.041   4.707
 8118SOL    HW225254   0.739   3.088   4.733
 8119SOL     OW25255   1.293   6.279   2.910
 8119SOL    HW125256   1.225   6.205   2.907
 8119SOL    HW225257   1.369   6.252   2.968
 8120SOL     OW25258   4.283   3.841   1.799
 8120SOL    HW125259   4.360   3.905   1.799
 8120SOL    HW225260   4.203   3.886   1.838
 8121SOL     OW25261   6.465   0.573   2.750
 8121SOL    HW125262   6.481   0.554   2.653
 8121SOL    HW225263   6.547   0.614   2.790
 8122SOL     OW25264   6.640   6.608   2.105
 8122SOL    HW125265   6.625   6.645   2.197
 8122SOL    HW225266   6.703   6.531   2.110
 8123SOL     OW25267   0.851   6.076   0.373
 8123SOL    HW125268   0.905   6.090   0.456
 8123SOL    HW225269   0.762   6.121   0.385
 8124SOL     OW25270   1.016   5.884   2.690
 8124SOL    HW125271   1.114   5.869   2.698
 8124SOL    HW225272   0.973   5.874   2.781
 8125SOL     OW25273   5.277   5.417   3.017
 8125SOL    HW125274   5.178   5.405   3.025
 8125SOL    HW225275   5.318   5.425   3.108
 8126SOL     OW25276   5.696   5.116   2.196
 8126SOL    HW125277   5.639   5.131   2.114
 8126SOL    HW225278   5.682   5.023   2.229
 8127SOL     OW25279   3.128   4.519   0.395
 8127SOL    HW125280   3.218   4.562   0.406
 8127SOL    HW225281   3.059   4.573   0.443
 8128SOL     OW25282   4.003   2.497   5.378
 8128SOL    HW125283   4.080   2.514   5.316
 8128SOL    HW225284   3.948   2.580   5.386
 8129SOL     OW25285   4.859   6.731   6.800
 8129SOL    HW125286   4.880   6.647   6.850
 8129SOL    HW225287   4.762   6.730   6.773
 8130SOL     OW25288   1.946   6.529   0.735
 8130SOL    HW125289   1.858   6.559   0.696
 8130SOL    HW225290   1.998   6.609   0.764
 8131SOL     OW25291   1.698   1.859   0.712
 8131SOL    HW125292   1.681   1.764   0.685
 8131SOL    HW225293   1.726   1.863   0.808
 8132SOL     OW25294   6.721   4.950   3.626
 8132SOL    HW125295   6.772   4.974   3.709
 8132SOL    HW225296   6.733   4.853   3.606
 8133SOL     OW25297   1.120   5.468   2.088
 8133SOL    HW125298   1.079   5.389   2.042
 8133SOL    HW225299   1.214   5.479   2.058
 8134SOL     OW25300   2.229   2.356   2.311
 8134SOL    HW125301   2.134   2.389   2.316
 8134SOL    HW225302   2.261   2.334   2.403
 8135SOL     OW25303   4.479   5.813   1.649
 8135SOL    HW125304   4.446   5.893   1.700
 8135SOL    HW225305   4.478   5.733   1.708
 8136SOL     OW25306   3.872   5.969   1.226
 8136SOL    HW125307   3.943   6.030   1.193
 8136SOL    HW225308   3.896   5.874   1.204
 8137SOL     OW25309   2.548   3.947   5.583
 8137SOL    HW125310   2.541   4.033   5.633
 8137SOL    HW225311   2.585   3.876   5.642
 8138SOL     OW25312   4.861   1.017   3.515
 8138SOL    HW125313   4.901   1.025   3.424
 8138SOL    HW225314   4.829   1.107   3.545
 8139SOL     OW25315   2.019   2.705   3.858
 8139SOL    HW125316   1.945   2.725   3.794
 8139SOL    HW225317   2.045   2.790   3.905
 8140SOL     OW25318   4.136   0.299   0.782
 8140SOL    HW125319   4.230   0.326   0.763
 8140SOL    HW225320   4.135   0.215   0.837
 8141SOL     OW25321   5.017   0.635   5.081
 8141SOL    HW125322   4.921   0.652   5.060
 8141SOL    HW225323   5.074   0.662   5.003
 8142SOL     OW25324   2.177   6.083   1.161
 8142SOL    HW125325   2.174   6.040   1.251
 8142SOL    HW225326   2.122   6.167   1.163
 8143SOL     OW25327   6.297   5.067   0.285
 8143SOL    HW125328   6.297   5.124   0.367
 8143SOL    HW225329   6.207   5.072   0.240
 8144SOL     OW25330   0.031   4.923   6.939
 8144SOL    HW125331   0.031   4.929   6.839
 8144SOL    HW225332   7.025   4.833   6.967
 8145SOL     OW25333   5.627   5.347   6.942
 8145SOL    HW125334   5.691   5.420   6.918
 8145SOL    HW225335   5.533   5.383   6.936
 8146SOL     OW25336   5.923   0.277   4.077
 8146SOL    HW125337   5.984   0.225   4.136
 8146SOL    HW225338   5.942   0.254   3.981
 8147SOL     OW25339   1.761   0.904   6.614
 8147SOL    HW125340   1.829   0.929   6.545
 8147SOL    HW225341   1.800   0.916   6.706
 8148SOL     OW25342   4.835   5.054   0.235
 8148SOL    HW125343   4.817   5.109   0.316
 8148SOL    HW225344   4.752   5.050   0.178
 8149SOL     OW25345   0.423   5.982   5.278
 8149SOL    HW125346   0.415   6.077   5.309
 8149SOL    HW225347   0.505   5.973   5.222
 8150SOL     OW25348   0.437   3.647   1.153
 8150SOL    HW125349   0.442   3.747   1.159
 8150SOL    HW225350   0.453   3.607   1.243
 8151SOL     OW25351   6.517   5.803   2.961
 8151SOL    HW125352   6.477   5.780   2.872
 8151SOL    HW225353   6.610   5.767   2.966
 8152SOL     OW25354   4.910   1.569   3.421
 8152SOL    HW125355   4.912   1.591   3.324
 8152SOL    HW225356   4.898   1.470   3.433
 8153SOL     OW25357   0.192   1.543   2.419
 8153SOL    HW125358   0.198   1.499   2.509
 8153SOL    HW225359   0.095   1.559   2.397
 8154SOL     OW25360   1.732   0.369   2.720
 8154SOL    HW125361   1.827   0.380   2.749
 8154SOL    HW225362   1.717   0.276   2.687
 8155SOL     OW25363   2.141   5.402   3.376
 8155SOL    HW125364   2.222   5.398   3.317
 8155SOL    HW225365   2.142   5.324   3.439
 8156SOL     OW25366   6.913   5.181   1.768
 8156SOL    HW125367   6.887   5.116   1.696
 8156SOL    HW225368   7.012   5.178   1.781
 8157SOL     OW25369   0.251   3.342   5.160
 8157SOL    HW125370   0.282   3.409   5.227
 8157SOL    HW225371   0.234   3.388   5.072
 8158SOL     OW25372   6.058   5.163   6.782
 8158SOL    HW125373   5.989   5.113   6.731
 8158SOL    HW225374   6.083   5.111   6.864
 8159SOL     OW25375   3.304   6.720   5.565
 8159SOL    HW125376   3.394   6.678   5.578
 8159SOL    HW225377   3.275   6.708   5.470
 8160SOL     OW25378   5.316   1.214   3.122
 8160SOL    HW125379   5.317   1.143   3.192
 8160SOL    HW225380   5.311   1.171   3.032
 8161SOL     OW25381   5.642   3.049   1.524
 8161SOL    HW125382   5.556   3.100   1.518
 8161SOL    HW225383   5.708   3.103   1.576
 8162SOL     OW25384   0.444   5.435   5.852
 8162SOL    HW125385   0.530   5.460   5.806
 8162SOL    HW225386   0.463   5.408   5.946
 8163SOL     OW25387   4.665   4.399   5.220
 8163SOL    HW125388   4.750   4.373   5.174
 8163SOL    HW225389   4.647   4.336   5.295
 8164SOL     OW25390   4.801   1.611   0.861
 8164SOL    HW125391   4.831   1.535   0.919
 8164SOL    HW225392   4.847   1.605   0.772
 8165SOL     OW25393   0.326   1.469   0.567
 8165SOL    HW125394   0.394   1.418   0.515
 8165SOL    HW225395   0.327   1.565   0.539
 8166SOL     OW25396   1.906   1.562   5.377
 8166SOL    HW125397   1.996   1.586   5.415
 8166SOL    HW225398   1.898   1.463   5.372
 8167SOL     OW25399   1.261   2.724   4.404
 8167SOL    HW125400   1.233   2.814   4.373
 8167SOL    HW225401   1.345   2.697   4.357
 8168SOL     OW25402   2.467   0.716   1.985
 8168SOL    HW125403   2.505   0.678   2.069
 8168SOL    HW225404   2.541   0.735   1.920
 8169SOL     OW25405   5.132   2.206   0.266
 8169SOL    HW125406   5.155   2.249   0.178
 8169SOL    HW225407   5.040   2.168   0.261
 8170SOL     OW25408   6.391   5.233   2.315
 8170SOL    HW125409   6.344   5.244   2.403
 8170SOL    HW225410   6.422   5.139   2.305
 8171SOL     OW25411   1.861   0.869   1.097
 8171SOL    HW125412   1.826   0.841   1.007
 8171SOL    HW225413   1.850   0.968   1.108
 8172SOL     OW25414   0.681   2.589   0.672
 8172SOL    HW125415   0.707   2.532   0.750
 8172SOL    HW225416   0.592   2.560   0.637
 8173SOL     OW25417   6.061   1.061   1.845
 8173SOL    HW125418   6.151   1.043   1.805
 8173SOL    HW225419   6.071   1.123   1.923
 8174SOL     OW25420   2.745   4.866   3.223
 8174SOL    HW125421   2.779   4.895   3.313
 8174SOL    HW225422   2.823   4.855   3.161
 8175SOL     OW25423   0.358   1.384   5.171
 8175SOL    HW125424   0.403   1.359   5.085
 8175SOL    HW225425   0.292   1.458   5.154
 8176SOL     OW25426   2.219   4.274   0.498
 8176SOL    HW125427   2.277   4.335   0.445
 8176SOL    HW225428   2.275   4.227   0.566
 8177SOL     OW25429   3.621   1.067   3.393
 8177SOL    HW125430   3.700   1.113   3.434
 8177SOL    HW225431   3.569   1.020   3.464
 8178SOL     OW25432   2.462   6.623   1.637
 8178SOL    HW125433   2.451   6.718   1.608
 8178SOL    HW225434   2.382   6.570   1.609
 8179SOL     OW25435   5.825   1.258   3.366
 8179SOL    HW125436   5.779   1.289   3.449
 8179SOL    HW225437   5.758   1.217   3.304
 8180SOL     OW25438   5.051   6.446   0.143
 8180SOL    HW125439   5.130   6.479   0.091
 8180SOL    HW225440   5.082   6.395   0.223
 8181SOL     OW25441   0.702   0.468   0.644
 8181SOL    HW125442   0.736   0.508   0.729
 8181SOL    HW225443   0.605   0.446   0.654
 8182SOL     OW25444   2.929   3.767   4.764
 8182SOL    HW125445   2.916   3.706   4.686
 8182SOL    HW225446   2.919   3.862   4.735
 8183SOL     OW25447   0.523   0.287   4.862
 8183SOL    HW125448   0.513   0.191   4.836
 8183SOL    HW225449   0.604   0.325   4.817
 8184SOL     OW25450   0.296   6.413   6.613
 8184SOL    HW125451   0.366   6.390   6.545
 8184SOL    HW225452   0.218   6.351   6.603
 8185SOL     OW25453   0.776   5.822   6.888
 8185SOL    HW125454   0.677   5.809   6.886
 8185SOL    HW225455   0.802   5.866   6.975
 8186SOL     OW25456   1.393   5.757   6.736
 8186SOL    HW125457   1.372   5.812   6.817
 8186SOL    HW225458   1.340   5.791   6.658
 8187SOL     OW25459   0.624   0.875   5.554
 8187SOL    HW125460   0.595   0.940   5.625
 8187SOL    HW225461   0.581   0.899   5.467
 8188SOL     OW25462   2.132   2.670   3.487
 8188SOL    HW125463   2.209   2.733   3.481
 8188SOL    HW225464   2.167   2.576   3.494
 8189SOL     OW25465   5.637   5.352   3.861
 8189SOL    HW125466   5.584   5.369   3.778
 8189SOL    HW225467   5.589   5.286   3.919
 8190SOL     OW25468   6.793   3.634   3.342
 8190SOL    HW125469   6.784   3.595   3.250
 8190SOL    HW225470   6.720   3.700   3.357
 8191SOL     OW25471   3.254   5.386   0.837
 8191SOL    HW125472   3.169   5.416   0.794
 8191SOL    HW225473   3.271   5.442   0.918
 8192SOL     OW25474   0.654   4.836   3.395
 8192SOL    HW125475   0.711   4.873   3.322
 8192SOL    HW225476   0.612   4.750   3.364
 8193SOL     OW25477   0.377   4.289   4.701
 8193SOL    HW125478   0.342   4.354   4.769
 8193SOL    HW225479   0.451   4.332   4.649
 8194SOL     OW25480   4.676   6.456   1.625
 8194SOL    HW125481   4.710   6.491   1.538
 8194SOL    HW225482   4.636   6.366   1.612
 8195SOL     OW25483   5.901   6.364   3.100
 8195SOL    HW125484   5.948   6.405   3.022
 8195SOL    HW225485   5.939   6.274   3.119
 8196SOL     OW25486   5.117   0.734   0.446
 8196SOL    HW125487   5.069   0.762   0.362
 8196SOL    HW225488   5.161   0.645   0.432
 8197SOL     OW25489   4.119   1.393   2.573
 8197SOL    HW125490   4.175   1.475   2.582
 8197SOL    HW225491   4.064   1.398   2.490
 8198SOL     OW25492   1.342   0.018   2.354
 8198SOL    HW125493   1.406   6.974   2.385
 8198SOL    HW225494   1.331   0.012   2.255
 8199SOL     OW25495   5.551   3.067   6.425
 8199SOL    HW125496   5.466   3.118   6.411
 8199SOL    HW225497   5.607   3.073   6.343
 8200SOL     OW25498   4.540   3.129   0.883
 8200SOL    HW125499   4.603   3.163   0.813
 8200SOL    HW225500   4.471   3.198   0.902
 8201SOL     OW25501   6.752   6.558   5.389
 8201SOL    HW125502   6.784   6.653   5.386
 8201SOL    HW225503   6.702   6.537   5.305
 8202SOL     OW25504   0.706   6.638   1.922
 8202SOL    HW125505   0.745   6.654   2.013
 8202SOL    HW225506   0.755   6.693   1.854
 8203SOL     OW25507   1.119   3.705   1.482
 8203SOL    HW125508   1.179   3.646   1.537
 8203SOL    HW225509   1.128   3.680   1.386
 8204SOL     OW25510   3.142   3.054   1.053
 8204SOL    HW125511   3.115   3.046   1.149
 8204SOL    HW225512   3.089   3.127   1.009
 8205SOL     OW25513   0.928   3.607   0.625
 8205SOL    HW125514   0.998   3.672   0.653
 8205SOL    HW225515   0.848   3.656   0.592
 8206SOL     OW25516   3.825   0.625   0.134
 8206SOL    HW125517   3.884   0.545   0.127
 8206SOL    HW225518   3.872   0.696   0.186
 8207SOL     OW25519   3.931   3.057   4.821
 8207SOL    HW125520   4.003   3.061   4.751
 8207SOL    HW225521   3.893   3.148   4.835
 8208SOL     OW25522   2.537   0.835   0.718
 8208SOL    HW125523   2.546   0.739   0.690
 8208SOL    HW225524   2.494   0.839   0.808
 8209SOL     OW25525   6.319   1.198   5.312
 8209SOL    HW125526   6.224   1.171   5.300
 8209SOL    HW225527   6.378   1.140   5.255
 8210SOL     OW25528   1.509   2.865   6.982
 8210SOL    HW125529   1.535   2.818   0.040
 8210SOL    HW225530   1.574   2.939   6.964
 8211SOL     OW25531   3.055   4.642   1.449
 8211SOL    HW125532   2.990   4.711   1.420
 8211SOL    HW225533   3.134   4.686   1.492
 8212SOL     OW25534   1.776   2.488   3.704
 8212SOL    HW125535   1.854   2.486   3.641
 8212SOL    HW225536   1.775   2.404   3.758
 8213SOL     OW25537   6.902   5.391   1.351
 8213SOL    HW125538   6.979   5.342   1.392
 8213SOL    HW225539   6.875   5.346   1.266
 8214SOL     OW25540   5.393   4.292   3.352
 8214SOL    HW125541   5.347   4.323   3.268
 8214SOL    HW225542   5.329   4.237   3.406
 8215SOL     OW25543   3.564   5.726   4.390
 8215SOL    HW125544   3.490   5.698   4.329
 8215SOL    HW225545   3.564   5.826   4.398
 8216SOL     OW25546   4.873   4.422   3.541
 8216SOL    HW125547   4.878   4.519   3.520
 8216SOL    HW225548   4.955   4.394   3.592
 8217SOL     OW25549   2.262   5.904   0.078
 8217SOL    HW125550   2.225   5.904   0.171
 8217SOL    HW225551   2.332   5.833   0.070
 8218SOL     OW25552   0.518   1.392   0.221
 8218SOL    HW125553   0.521   1.322   0.293
 8218SOL    HW225554   0.594   1.455   0.233
 8219SOL     OW25555   6.434   2.173   6.736
 8219SOL    HW125556   6.367   2.234   6.777
 8219SOL    HW225557   6.395   2.081   6.726
 8220SOL     OW25558   3.574   3.586   2.586
 8220SOL    HW125559   3.478   3.590   2.559
 8220SOL    HW225560   3.586   3.632   2.674
 8221SOL     OW25561   5.065   5.692   3.834
 8221SOL    HW125562   5.121   5.615   3.864
 8221SOL    HW225563   5.110   5.739   3.758
 8222SOL     OW25564   5.324   1.620   2.197
 8222SOL    HW125565   5.328   1.650   2.102
 8222SOL    HW225566   5.414   1.632   2.239
 8223SOL     OW25567   0.468   4.894   6.179
 8223SOL    HW125568   0.553   4.947   6.182
 8223SOL    HW225569   0.490   4.796   6.180
 8224SOL     OW25570   1.210   2.805   3.969
 8224SOL    HW125571   1.153   2.808   4.051
 8224SOL    HW225572   1.282   2.736   3.981
 8225SOL     OW25573   4.914   1.283   6.926
 8225SOL    HW125574   5.002   1.254   6.962
 8225SOL    HW225575   4.920   1.297   6.827
 8226SOL     OW25576   5.305   0.272   0.859
 8226SOL    HW125577   5.353   0.349   0.817
 8226SOL    HW225578   5.209   0.274   0.831
 8227SOL     OW25579   6.652   3.389   3.557
 8227SOL    HW125580   6.641   3.324   3.632
 8227SOL    HW225581   6.635   3.343   3.470
 8228SOL     OW25582   6.469   2.826   5.302
 8228SOL    HW125583   6.372   2.804   5.294
 8228SOL    HW225584   6.488   2.861   5.393
 8229SOL     OW25585   3.966   4.832   0.211
 8229SOL    HW125586   3.954   4.816   0.309
 8229SOL    HW225587   3.961   4.930   0.192
 8230SOL     OW25588   5.535   0.614   4.268
 8230SOL    HW125589   5.537   0.540   4.201
 8230SOL    HW225590   5.618   0.670   4.258
 8231SOL     OW25591   5.118   6.204   0.676
 8231SOL    HW125592   5.032   6.172   0.716
 8231SOL    HW225593   5.183   6.226   0.750
 8232SOL     OW25594   3.666   2.098   6.448
 8232SOL    HW125595   3.702   2.019   6.496
 8232SOL    HW225596   3.566   2.092   6.442
 8233SOL     OW25597   0.564   5.321   6.762
 8233SOL    HW125598   0.637   5.262   6.795
 8233SOL    HW225599   0.506   5.270   6.698
 8234SOL     OW25600   2.912   2.721   6.499
 8234SOL    HW125601   2.912   2.771   6.412
 8234SOL    HW225602   2.976   2.763   6.562
 8235SOL     OW25603   4.121   3.817   1.300
 8235SOL    HW125604   4.180   3.790   1.224
 8235SOL    HW225605   4.178   3.838   1.380
 8236SOL     OW25606   5.982   3.020   0.167
 8236SOL    HW125607   5.929   3.103   0.184
 8236SOL    HW225608   5.923   2.940   0.179
 8237SOL     OW25609   3.926   6.279   5.239
 8237SOL    HW125610   3.885   6.219   5.308
 8237SOL    HW225611   3.902   6.374   5.258
 8238SOL     OW25612   1.827   2.187   6.298
 8238SOL    HW125613   1.864   2.201   6.206
 8238SOL    HW225614   1.730   2.209   6.298
 8239SOL     OW25615   0.548   1.593   6.162
 8239SOL    HW125616   0.535   1.546   6.075
 8239SOL    HW225617   0.559   1.691   6.145
 8240SOL     OW25618   3.419   4.043   3.204
 8240SOL    HW125619   3.510   4.065   3.240
 8240SOL    HW225620   3.406   4.092   3.117
 8241SOL     OW25621   3.767   6.899   0.164
 8241SOL    HW125622   3.863   6.898   0.136
 8241SOL    HW225623   3.708   6.893   0.084
 8242SOL     OW25624   0.900   4.480   5.704
 8242SOL    HW125625   0.837   4.426   5.648
 8242SOL    HW225626   0.994   4.459   5.678
 8243SOL     OW25627   0.802   3.468   5.500
 8243SOL    HW125628   0.893   3.428   5.498
 8243SOL    HW225629   0.742   3.416   5.438
 8244SOL     OW25630   0.508   6.678   4.250
 8244SOL    HW125631   0.527   6.594   4.200
 8244SOL    HW225632   0.416   6.711   4.226
 8245SOL     OW25633   3.686   2.357   0.921
 8245SOL    HW125634   3.722   2.304   0.845
 8245SOL    HW225635   3.748   2.432   0.942
 8246SOL     OW25636   5.415   3.444   6.179
 8246SOL    HW125637   5.315   3.440   6.177
 8246SOL    HW225638   5.448   3.431   6.272
 8247SOL     OW25639   0.592   7.021   1.764
 8247SOL    HW125640   0.551   0.067   1.819
 8247SOL    HW225641   0.682   0.024   1.732
 8248SOL     OW25642   5.531   4.560   3.446
 8248SOL    HW125643   5.532   4.466   3.410
 8248SOL    HW225644   5.462   4.567   3.518
 8249SOL     OW25645   2.110   4.840   3.811
 8249SOL    HW125646   2.059   4.926   3.809
 8249SOL    HW225647   2.084   4.789   3.893
 8250SOL     OW25648   4.041   3.831   2.733
 8250SOL    HW125649   3.973   3.804   2.666
 8250SOL    HW225650   4.050   3.759   2.802
 8251SOL     OW25651   5.664   1.839   4.599
 8251SOL    HW125652   5.674   1.752   4.647
 8251SOL    HW225653   5.755   1.876   4.578
 8252SOL     OW25654   2.188   2.490   5.509
 8252SOL    HW125655   2.158   2.500   5.604
 8252SOL    HW225656   2.127   2.541   5.449
 8253SOL     OW25657   3.355   2.848   5.223
 8253SOL    HW125658   3.302   2.910   5.166
 8253SOL    HW225659   3.449   2.844   5.189
 8254SOL     OW25660   3.681   4.943   3.675
 8254SOL    HW125661   3.663   4.892   3.759
 8254SOL    HW225662   3.778   4.963   3.668
 8255SOL     OW25663   4.211   5.687   3.983
 8255SOL    HW125664   4.242   5.593   3.976
 8255SOL    HW225665   4.209   5.715   4.079
 8256SOL     OW25666   6.732   1.512   4.728
 8256SOL    HW125667   6.810   1.463   4.689
 8256SOL    HW225668   6.755   1.609   4.736
 8257SOL     OW25669   6.142   5.039   3.310
 8257SOL    HW125670   6.196   5.068   3.231
 8257SOL    HW225671   6.092   4.956   3.288
 8258SOL     OW25672   4.119   1.503   0.071
 8258SOL    HW125673   4.179   1.578   0.100
 8258SOL    HW225674   4.033   1.507   0.123
 8259SOL     OW25675   3.570   1.949   2.940
 8259SOL    HW125676   3.525   1.870   2.981
 8259SOL    HW225677   3.669   1.936   2.943
 8260SOL     OW25678   3.165   6.601   0.469
 8260SOL    HW125679   3.182   6.527   0.404
 8260SOL    HW225680   3.169   6.564   0.562
 8261SOL     OW25681   5.280   1.246   1.682
 8261SOL    HW125682   5.277   1.345   1.700
 8261SOL    HW225683   5.294   1.197   1.767
 8262SOL     OW25684   1.038   3.136   1.769
 8262SOL    HW125685   1.094   3.166   1.847
 8262SOL    HW225686   1.008   3.042   1.784
 8263SOL     OW25687   6.371   1.648   1.240
 8263SOL    HW125688   6.316   1.660   1.322
 8263SOL    HW225689   6.432   1.726   1.228
 8264SOL     OW25690   1.828   5.119   2.821
 8264SOL    HW125691   1.752   5.145   2.762
 8264SOL    HW225692   1.814   5.157   2.912
 8265SOL     OW25693   1.914   0.693   1.837
 8265SOL    HW125694   1.944   0.641   1.916
 8265SOL    HW225695   1.978   0.769   1.821
 8266SOL     OW25696   3.631   6.478   2.487
 8266SOL    HW125697   3.576   6.485   2.403
 8266SOL    HW225698   3.580   6.518   2.563
 8267SOL     OW25699   1.304   3.332   1.232
 8267SOL    HW125700   1.231   3.395   1.259
 8267SOL    HW225701   1.265   3.256   1.180
 8268SOL     OW25702   2.510   6.486   5.719
 8268SOL    HW125703   2.522   6.578   5.682
 8268SOL    HW225704   2.584   6.465   5.782
 8269SOL     OW25705   5.789   1.874   1.179
 8269SOL    HW125706   5.831   1.962   1.158
 8269SOL    HW225707   5.860   1.804   1.188
 8270SOL     OW25708   3.294   6.307   3.611
 8270SOL    HW125709   3.270   6.271   3.522
 8270SOL    HW225710   3.217   6.296   3.674
 8271SOL     OW25711   6.965   1.612   3.158
 8271SOL    HW125712   6.998   1.523   3.189
 8271SOL    HW225713   6.882   1.600   3.104
 8272SOL     OW25714   3.950   1.027   2.865
 8272SOL    HW125715   3.863   1.070   2.840
 8272SOL    HW225716   3.932   0.943   2.916
 8273SOL     OW25717   2.678   6.975   0.889
 8273SOL    HW125718   2.665   6.897   0.827
 8273SOL    HW225719   2.691   6.941   0.982
 8274SOL     OW25720   5.007   5.403   3.062
 8274SOL    HW125721   5.018   5.417   2.963
 8274SOL    HW225722   4.910   5.394   3.084
 8275SOL     OW25723   5.155   1.973   5.907
 8275SOL    HW125724   5.153   2.035   5.986
 8275SOL    HW225725   5.128   2.024   5.825
 8276SOL     OW25726   1.136   1.943   3.691
 8276SOL    HW125727   1.181   1.854   3.696
 8276SOL    HW225728   1.042   1.932   3.659
 8277SOL     OW25729   0.288   0.336   0.021
 8277SOL    HW125730   0.217   0.268   0.005
 8277SOL    HW225731   0.301   0.390   6.965
 8278SOL     OW25732   2.112   2.564   0.327
 8278SOL    HW125733   2.023   2.591   0.364
 8278SOL    HW225734   2.182   2.579   0.396
 8279SOL     OW25735   0.736   6.628   4.409
 8279SOL    HW125736   0.811   6.604   4.347
 8279SOL    HW225737   0.666   6.679   4.359
 8280SOL     OW25738   3.473   2.591   5.610
 8280SOL    HW125739   3.400   2.577   5.543
 8280SOL    HW225740   3.562   2.579   5.566
 8281SOL     OW25741   6.700   6.287   1.590
 8281SOL    HW125742   6.788   6.244   1.609
 8281SOL    HW225743   6.644   6.286   1.673
 8282SOL     OW25744   5.457   2.395   5.653
 8282SOL    HW125745   5.360   2.377   5.666
 8282SOL    HW225746   5.469   2.475   5.593
 8283SOL     OW25747   1.937   3.806   5.920
 8283SOL    HW125748   1.928   3.830   5.823
 8283SOL    HW225749   2.027   3.836   5.953
 8284SOL     OW25750   6.874   4.391   2.166
 8284SOL    HW125751   6.798   4.351   2.218
 8284SOL    HW225752   6.879   4.489   2.185
 8285SOL     OW25753   3.525   3.173   4.982
 8285SOL    HW125754   3.425   3.172   4.983
 8285SOL    HW225755   3.559   3.198   5.073
 8286SOL     OW25756   6.559   2.181   6.094
 8286SOL    HW125757   6.506   2.263   6.074
 8286SOL    HW225758   6.599   2.145   6.009
 8287SOL     OW25759   1.470   5.428   4.824
 8287SOL    HW125760   1.499   5.418   4.729
 8287SOL    HW225761   1.371   5.415   4.830
 8288SOL     OW25762   2.291   2.832   2.987
 8288SOL    HW125763   2.229   2.910   2.982
 8288SOL    HW225764   2.323   2.809   2.895
 8289SOL     OW25765   0.667   6.919   0.135
 8289SOL    HW125766   0.715   6.923   0.223
 8289SOL    HW225767   0.577   6.961   0.144
 8290SOL     OW25768   5.860   1.735   0.629
 8290SOL    HW125769   5.882   1.714   0.534
 8290SOL    HW225770   5.853   1.834   0.640
 8291SOL     OW25771   4.059   6.939   6.218
 8291SOL    HW125772   4.024   6.846   6.206
 8291SOL    HW225773   4.005   7.002   6.162
 8292SOL     OW25774   3.009   6.618   6.781
 8292SOL    HW125775   3.006   6.677   6.700
 8292SOL    HW225776   3.006   6.522   6.752
 8293SOL     OW25777   5.015   6.065   6.026
 8293SOL    HW125778   4.952   6.054   5.949
 8293SOL    HW225779   5.074   6.145   6.010
 8294SOL     OW25780   5.436   2.504   6.639
 8294SOL    HW125781   5.391   2.579   6.688
 8294SOL    HW225782   5.390   2.488   6.552
 8295SOL     OW25783   5.431   4.357   1.422
 8295SOL    HW125784   5.363   4.285   1.412
 8295SOL    HW225785   5.523   4.317   1.421
 8296SOL     OW25786   1.707   5.517   6.891
 8296SOL    HW125787   1.713   5.608   6.932
 8296SOL    HW225788   1.776   5.458   6.931
 8297SOL     OW25789   6.091   2.282   3.573
 8297SOL    HW125790   6.071   2.285   3.475
 8297SOL    HW225791   6.089   2.375   3.610
 8298SOL     OW25792   5.048   1.051   1.576
 8298SOL    HW125793   4.993   1.101   1.509
 8298SOL    HW225794   5.135   1.097   1.588
 8299SOL     OW25795   6.578   2.284   2.022
 8299SOL    HW125796   6.652   2.217   2.015
 8299SOL    HW225797   6.528   2.269   2.107
 8300SOL     OW25798   0.525   4.494   4.569
 8300SOL    HW125799   0.490   4.578   4.610
 8300SOL    HW225800   0.564   4.515   4.479
 8301SOL     OW25801   4.278   3.255   0.985
 8301SOL    HW125802   4.318   3.172   1.024
 8301SOL    HW225803   4.211   3.292   1.049
 8302SOL     OW25804   5.931   6.073   6.703
 8302SOL    HW125805   5.869   6.131   6.651
 8302SOL    HW225806   6.000   6.129   6.749
 8303SOL     OW25807   0.207   0.182   4.716
 8303SOL    HW125808   0.271   0.199   4.641
 8303SOL    HW225809   0.113   0.193   4.683
 8304SOL     OW25810   0.713   3.764   6.537
 8304SOL    HW125811   0.660   3.747   6.621
 8304SOL    HW225812   0.690   3.695   6.469
 8305SOL     OW25813   3.611   5.298   3.884
 8305SOL    HW125814   3.596   5.372   3.819
 8305SOL    HW225815   3.550   5.222   3.862
 8306SOL     OW25816   0.248   3.202   4.624
 8306SOL    HW125817   0.304   3.143   4.681
 8306SOL    HW225818   0.152   3.192   4.649
 8307SOL     OW25819   3.880   5.759   0.670
 8307SOL    HW125820   3.808   5.818   0.706
 8307SOL    HW225821   3.857   5.663   0.689
 8308SOL     OW25822   3.965   6.549   2.152
 8308SOL    HW125823   3.905   6.625   2.129
 8308SOL    HW225824   3.983   6.550   2.251
 8309SOL     OW25825   5.719   6.038   2.267
 8309SOL    HW125826   5.621   6.021   2.255
 8309SOL    HW225827   5.737   6.062   2.362
 8310SOL     OW25828   0.017   4.934   0.577
 8310SOL    HW125829   0.028   4.964   0.482
 8310SOL    HW225830   0.107   4.924   0.620
 8311SOL     OW25831   6.847   1.227   6.984
 8311SOL    HW125832   6.901   1.303   7.021
 8311SOL    HW225833   6.812   1.172   0.033
 8312SOL     OW25834   5.232   6.928   1.638
 8312SOL    HW125835   5.220   6.873   1.721
 8312SOL    HW225836   5.276   6.874   1.567
 8313SOL     OW25837   3.838   1.553   2.946
 8313SOL    HW125838   3.936   1.537   2.930
 8313SOL    HW225839   3.787   1.535   2.862
 8314SOL     OW25840   6.252   0.177   1.972
 8314SOL    HW125841   6.204   0.241   2.032
 8314SOL    HW225842   6.232   0.200   1.877
 8315SOL     OW25843   4.508   3.133   0.500
 8315SOL    HW125844   4.516   3.205   0.431
 8315SOL    HW225845   4.439   3.066   0.471
 8316SOL     OW25846   1.203   4.237   0.803
 8316SOL    HW125847   1.298   4.215   0.825
 8316SOL    HW225848   1.196   4.263   0.707
 8317SOL     OW25849   2.290   4.158   2.166
 8317SOL    HW125850   2.299   4.081   2.102
 8317SOL    HW225851   2.309   4.243   2.118
 8318SOL     OW25852   4.152   1.246   4.686
 8318SOL    HW125853   4.116   1.312   4.620
 8318SOL    HW225854   4.085   1.174   4.701
 8319SOL     OW25855   3.275   1.040   5.256
 8319SOL    HW125856   3.352   0.976   5.258
 8319SOL    HW225857   3.250   1.066   5.349
 8320SOL     OW25858   2.807   4.683   1.305
 8320SOL    HW125859   2.762   4.668   1.217
 8320SOL    HW225860   2.819   4.595   1.352
 8321SOL     OW25861   0.961   0.061   0.466
 8321SOL    HW125862   0.865   0.086   0.456
 8321SOL    HW225863   1.013   0.099   0.389
 8322SOL     OW25864   0.308   0.486   6.825
 8322SOL    HW125865   0.387   0.438   6.787
 8322SOL    HW225866   0.230   0.475   6.763
 8323SOL     OW25867   0.801   1.340   2.592
 8323SOL    HW125868   0.800   1.405   2.669
 8323SOL    HW225869   0.870   1.269   2.609
 8324SOL     OW25870   6.103   0.298   2.401
 8324SOL    HW125871   6.165   0.362   2.448
 8324SOL    HW225872   6.117   0.206   2.438
 8325SOL     OW25873   3.307   2.949   4.294
 8325SOL    HW125874   3.394   2.920   4.256
 8325SOL    HW225875   3.295   2.909   4.385
 8326SOL     OW25876   4.279   2.835   5.684
 8326SOL    HW125877   4.212   2.768   5.651
 8326SOL    HW225878   4.339   2.861   5.609
 8327SOL     OW25879   5.571   2.263   6.371
 8327SOL    HW125880   5.627   2.341   6.398
 8327SOL    HW225881   5.625   2.179   6.377
 8328SOL     OW25882   2.297   2.399   5.922
 8328SOL    HW125883   2.349   2.465   5.977
 8328SOL    HW225884   2.332   2.307   5.940
 8329SOL     OW25885   6.834   2.779   5.329
 8329SOL    HW125886   6.823   2.786   5.428
 8329SOL    HW225887   6.890   2.699   5.307
 8330SOL     OW25888   2.124   6.062   0.425
 8330SOL    HW125889   2.123   6.145   0.370
 8330SOL    HW225890   2.078   6.078   0.511
 8331SOL     OW25891   2.702   0.475   1.267
 8331SOL    HW125892   2.730   0.406   1.334
 8331SOL    HW225893   2.679   0.430   1.180
 8332SOL     OW25894   4.723   5.239   2.258
 8332SOL    HW125895   4.664   5.247   2.178
 8332SOL    HW225896   4.814   5.208   2.230
 8333SOL     OW25897   0.607   6.137   0.314
 8333SOL    HW125898   0.554   6.076   0.256
 8333SOL    HW225899   0.576   6.231   0.301
 8334SOL     OW25900   6.335   2.061   3.977
 8334SOL    HW125901   6.236   2.069   3.964
 8334SOL    HW225902   6.379   2.039   3.890
 8335SOL     OW25903   6.188   6.030   5.665
 8335SOL    HW125904   6.138   6.103   5.619
 8335SOL    HW225905   6.151   6.016   5.757
 8336SOL     OW25906   0.671   1.699   1.440
 8336SOL    HW125907   0.742   1.733   1.501
 8336SOL    HW225908   0.709   1.629   1.380
 8337SOL     OW25909   0.777   6.530   2.722
 8337SOL    HW125910   0.858   6.558   2.773
 8337SOL    HW225911   0.694   6.555   2.773
 8338SOL     OW25912   1.641   4.541   1.345
 8338SOL    HW125913   1.716   4.598   1.380
 8338SOL    HW225914   1.559   4.597   1.333
 8339SOL     OW25915   5.528   1.727   2.399
 8339SOL    HW125916   5.524   1.629   2.421
 8339SOL    HW225917   5.485   1.779   2.472
 8340SOL     OW25918   4.904   3.830   0.704
 8340SOL    HW125919   4.919   3.826   0.606
 8340SOL    HW225920   4.846   3.753   0.732
 8341SOL     OW25921   2.343   6.367   1.226
 8341SOL    HW125922   2.327   6.374   1.127
 8341SOL    HW225923   2.258   6.340   1.271
 8342SOL     OW25924   4.186   0.889   0.419
 8342SOL    HW125925   4.192   0.843   0.507
 8342SOL    HW225926   4.207   0.986   0.431
 8343SOL     OW25927   1.420   5.407   6.201
 8343SOL    HW125928   1.476   5.370   6.275
 8343SOL    HW225929   1.472   5.477   6.152
 8344SOL     OW25930   4.375   6.666   5.968
 8344SOL    HW125931   4.435   6.597   5.929
 8344SOL    HW225932   4.429   6.745   5.995
 8345SOL     OW25933   6.040   1.654   3.044
 8345SOL    HW125934   5.944   1.625   3.050
 8345SOL    HW225935   6.098   1.575   3.024
 8346SOL     OW25936   2.598   5.122   1.236
 8346SOL    HW125937   2.637   5.030   1.239
 8346SOL    HW225938   2.519   5.123   1.174
 8347SOL     OW25939   3.355   6.908   5.236
 8347SOL    HW125940   3.302   6.829   5.267
 8347SOL    HW225941   3.293   6.980   5.206
 8348SOL     OW25942   0.951   0.907   1.279
 8348SOL    HW125943   0.944   0.883   1.182
 8348SOL    HW225944   0.941   0.824   1.335
 8349SOL     OW25945   5.849   3.698   0.894
 8349SOL    HW125946   5.869   3.600   0.899
 8349SOL    HW225947   5.911   3.748   0.954
 8350SOL     OW25948   6.255   1.448   5.505
 8350SOL    HW125949   6.188   1.397   5.452
 8350SOL    HW225950   6.309   1.384   5.560
 8351SOL     OW25951   3.134   5.899   3.934
 8351SOL    HW125952   3.057   5.842   3.905
 8351SOL    HW225953   3.132   5.986   3.885
 8352SOL     OW25954   6.750   6.373   2.610
 8352SOL    HW125955   6.723   6.390   2.516
 8352SOL    HW225956   6.685   6.310   2.653
 8353SOL     OW25957   6.865   3.466   2.635
 8353SOL    HW125958   6.952   3.440   2.677
 8353SOL    HW225959   6.861   3.430   2.542
 8354SOL     OW25960   2.959   1.495   6.542
 8354SOL    HW125961   2.907   1.483   6.458
 8354SOL    HW225962   2.941   1.419   6.604
 8355SOL     OW25963   3.655   0.148   6.649
 8355SOL    HW125964   3.697   0.168   6.738
 8355SOL    HW225965   3.574   0.206   6.638
 8356SOL     OW25966   1.609   5.613   0.368
 8356SOL    HW125967   1.523   5.606   0.418
 8356SOL    HW225968   1.642   5.522   0.345
 8357SOL     OW25969   4.063   5.714   4.989
 8357SOL    HW125970   4.114   5.628   4.988
 8357SOL    HW225971   3.972   5.699   5.027
 8358SOL     OW25972   2.132   2.813   5.833
 8358SOL    HW125973   2.115   2.853   5.744
 8358SOL    HW225974   2.128   2.884   5.903
 8359SOL     OW25975   4.234   5.431   4.448
 8359SOL    HW125976   4.175   5.409   4.371
 8359SOL    HW225977   4.184   5.486   4.515
 8360SOL     OW25978   5.163   6.604   3.039
 8360SOL    HW125979   5.239   6.547   3.010
 8360SOL    HW225980   5.081   6.548   3.050
 8361SOL     OW25981   1.586   0.976   2.693
 8361SOL    HW125982   1.625   0.885   2.704
 8361SOL    HW225983   1.506   0.972   2.633
 8362SOL     OW25984   2.861   2.090   0.094
 8362SOL    HW125985   2.819   2.055   0.011
 8362SOL    HW225986   2.805   2.163   0.133
 8363SOL     OW25987   0.219   2.992   0.319
 8363SOL    HW125988   0.142   2.928   0.319
 8363SOL    HW225989   0.287   2.961   0.385
 8364SOL     OW25990   6.498   3.630   3.047
 8364SOL    HW125991   6.543   3.718   3.064
 8364SOL    HW225992   6.493   3.613   2.948
 8365SOL     OW25993   1.718   3.032   6.702
 8365SOL    HW125994   1.620   3.013   6.694
 8365SOL    HW225995   1.741   3.047   6.798
 8366SOL     OW25996   3.978   6.214   2.128
 8366SOL    HW125997   3.906   6.207   2.059
 8366SOL    HW225998   3.964   6.296   2.183
 8367SOL     OW25999   5.124   6.209   3.970
 8367SOL    HW126000   5.105   6.263   3.888
 8367SOL    HW226001   5.148   6.269   4.045
 8368SOL     OW26002   2.358   5.178   5.864
 8368SOL    HW126003   2.356   5.140   5.956
 8368SOL    HW226004   2.316   5.269   5.865
 8369SOL     OW26005   2.320   1.389   0.409
 8369SOL    HW126006   2.250   1.318   0.416
 8369SOL    HW226007   2.278   1.475   0.379
 8370SOL     OW26008   1.434   1.579   6.523
 8370SOL    HW126009   1.417   1.660   6.579
 8370SOL    HW226010   1.394   1.592   6.432
 8371SOL     OW26011   1.402   3.326   0.797
 8371SOL    HW126012   1.435   3.325   0.703
 8371SOL    HW226013   1.344   3.246   0.813
 8372SOL     OW26014   6.962   0.735   2.876
 8372SOL    HW126015   7.024   0.657   2.886
 8372SOL    HW226016   7.014   0.820   2.879
 8373SOL     OW26017   1.201   5.900   5.201
 8373SOL    HW126018   1.134   5.923   5.130
 8373SOL    HW226019   1.178   5.947   5.286
 8374SOL     OW26020   6.596   0.448   6.945
 8374SOL    HW126021   6.632   0.477   6.856
 8374SOL    HW226022   6.505   0.408   6.932
 8375SOL     OW26023   3.356   0.356   6.321
 8375SOL    HW126024   3.356   0.400   6.231
 8375SOL    HW226025   3.317   0.265   6.313
 8376SOL     OW26026   2.722   0.571   4.085
 8376SOL    HW126027   2.815   0.608   4.082
 8376SOL    HW226028   2.668   0.610   4.010
 8377SOL     OW26029   5.874   4.710   1.420
 8377SOL    HW126030   5.844   4.764   1.499
 8377SOL    HW226031   5.801   4.647   1.392
 8378SOL     OW26032   5.072   3.289   2.843
 8378SOL    HW126033   5.021   3.371   2.871
 8378SOL    HW226034   5.009   3.212   2.836
 8379SOL     OW26035   6.275   2.981   2.175
 8379SOL    HW126036   6.281   2.945   2.268
 8379SOL    HW226037   6.284   3.081   2.178
 8380SOL     OW26038   4.932   1.380   3.074
 8380SOL    HW126039   4.981   1.421   3.151
 8380SOL    HW226040   4.852   1.330   3.109
 8381SOL     OW26041   1.569   5.149   5.036
 8381SOL    HW126042   1.632   5.221   5.005
 8381SOL    HW226043   1.552   5.160   5.134
 8382SOL     OW26044   0.967   2.711   2.535
 8382SOL    HW126045   1.023   2.688   2.455
 8382SOL    HW226046   0.937   2.806   2.529
 8383SOL     OW26047   3.151   2.389   6.338
 8383SOL    HW126048   3.154   2.488   6.326
 8383SOL    HW226049   3.170   2.366   6.433
 8384SOL     OW26050   6.849   0.001   2.308
 8384SOL    HW126051   6.811   6.962   2.374
 8384SOL    HW226052   6.780   0.070   2.286
 8385SOL     OW26053   4.999   2.392   2.148
 8385SOL    HW126054   5.030   2.442   2.068
 8385SOL    HW226055   4.928   2.326   2.121
 8386SOL     OW26056   0.745   3.759   2.906
 8386SOL    HW126057   0.844   3.763   2.891
 8386SOL    HW226058   0.711   3.669   2.877
 8387SOL     OW26059   0.826   2.358   1.273
 8387SOL    HW126060   0.910   2.310   1.248
 8387SOL    HW226061   0.747   2.305   1.241
 8388SOL     OW26062   2.549   0.220   1.943
 8388SOL    HW126063   2.611   0.141   1.942
 8388SOL    HW226064   2.478   0.207   1.874
 8389SOL     OW26065   5.133   2.807   2.114
 8389SOL    HW126066   5.212   2.849   2.159
 8389SOL    HW226067   5.052   2.865   2.128
 8390SOL     OW26068   5.452   1.777   5.157
 8390SOL    HW126069   5.529   1.837   5.176
 8390SOL    HW226070   5.438   1.770   5.058
 8391SOL     OW26071   6.316   1.140   1.136
 8391SOL    HW126072   6.292   1.230   1.099
 8391SOL    HW226073   6.315   1.143   1.236
 8392SOL     OW26074   5.810   3.377   4.616
 8392SOL    HW126075   5.723   3.334   4.639
 8392SOL    HW226076   5.885   3.313   4.633
 8393SOL     OW26077   5.315   0.493   1.491
 8393SOL    HW126078   5.252   0.567   1.467
 8393SOL    HW226079   5.348   0.449   1.408
 8394SOL     OW26080   5.907   3.831   2.054
 8394SOL    HW126081   5.810   3.839   2.028
 8394SOL    HW226082   5.959   3.795   1.976
 8395SOL     OW26083   2.299   1.172   5.092
 8395SOL    HW126084   2.379   1.126   5.053
 8395SOL    HW226085   2.327   1.224   5.172
 8396SOL     OW26086   4.252   5.513   5.025
 8396SOL    HW126087   4.327   5.567   4.986
 8396SOL    HW226088   4.255   5.420   4.989
 8397SOL     OW26089   6.285   1.235   3.406
 8397SOL    HW126090   6.195   1.234   3.450
 8397SOL    HW226091   6.297   1.321   3.356
 8398SOL     OW26092   5.727   2.097   5.736
 8398SOL    HW126093   5.652   2.109   5.802
 8398SOL    HW226094   5.699   2.132   5.647
 8399SOL     OW26095   0.243   5.735   0.601
 8399SOL    HW126096   0.155   5.781   0.591
 8399SOL    HW226097   0.244   5.683   0.687
 8400SOL     OW26098   1.546   2.370   4.432
 8400SOL    HW126099   1.462   2.325   4.404
 8400SOL    HW226100   1.547   2.464   4.397
 8401SOL     OW26101   3.177   0.361   5.745
 8401SOL    HW126102   3.249   0.428   5.764
 8401SOL    HW226103   3.217   0.281   5.702
 8402SOL     OW26104   3.877   1.035   6.019
 8402SOL    HW126105   3.892   1.086   5.935
 8402SOL    HW226106   3.962   0.991   6.048
 8403SOL     OW26107   6.108   5.277   4.707
 8403SOL    HW126108   6.064   5.189   4.724
 8403SOL    HW226109   6.207   5.264   4.702
 8404SOL     OW26110   2.068   1.915   6.666
 8404SOL    HW126111   1.999   1.920   6.738
 8404SOL    HW226112   2.046   1.980   6.594
 8405SOL     OW26113   4.306   1.313   5.460
 8405SOL    HW126114   4.225   1.258   5.442
 8405SOL    HW226115   4.323   1.375   5.383
 8406SOL     OW26116   4.663   1.059   6.239
 8406SOL    HW126117   4.577   1.070   6.289
 8406SOL    HW226118   4.667   0.967   6.198
 8407SOL     OW26119   3.570   6.627   3.802
 8407SOL    HW126120   3.603   6.694   3.736
 8407SOL    HW226121   3.557   6.672   3.891
 8408SOL     OW26122   4.663   0.720   1.223
 8408SOL    HW126123   4.592   0.650   1.214
 8408SOL    HW226124   4.628   0.797   1.276
 8409SOL     OW26125   4.787   2.249   2.118
 8409SOL    HW126126   4.792   2.152   2.143
 8409SOL    HW226127   4.708   2.291   2.163
 8410SOL     OW26128   6.789   1.838   1.447
 8410SOL    HW126129   6.779   1.778   1.526
 8410SOL    HW226130   6.706   1.893   1.436
 8411SOL     OW26131   1.437   5.498   0.579
 8411SOL    HW126132   1.502   5.432   0.616
 8411SOL    HW226133   1.422   5.571   0.646
 8412SOL     OW26134   2.886   2.346   6.666
 8412SOL    HW126135   2.841   2.430   6.695
 8412SOL    HW226136   2.942   2.310   6.740
 8413SOL     OW26137   4.519   5.569   5.437
 8413SOL    HW126138   4.602   5.513   5.440
 8413SOL    HW226139   4.440   5.511   5.413
 8414SOL     OW26140   1.121   1.302   2.625
 8414SOL    HW126141   1.189   1.351   2.570
 8414SOL    HW226142   1.167   1.245   2.693
 8415SOL     OW26143   2.534   0.349   5.366
 8415SOL    HW126144   2.524   0.274   5.301
 8415SOL    HW226145   2.622   0.394   5.350
 8416SOL     OW26146   6.341   1.733   5.501
 8416SOL    HW126147   6.346   1.644   5.454
 8416SOL    HW226148   6.388   1.726   5.589
 8417SOL     OW26149   1.448   4.122   5.238
 8417SOL    HW126150   1.446   4.152   5.143
 8417SOL    HW226151   1.542   4.100   5.264
 8418SOL     OW26152   1.076   6.465   2.530
 8418SOL    HW126153   0.988   6.418   2.534
 8418SOL    HW226154   1.094   6.510   2.618
 8419SOL     OW26155   5.283   0.946   3.955
 8419SOL    HW126156   5.299   1.040   3.926
 8419SOL    HW226157   5.314   0.935   4.049
 8420SOL     OW26158   3.006   0.016   2.082
 8420SOL    HW126159   3.028   7.006   1.991
 8420SOL    HW226160   3.086   0.062   2.120
 8421SOL     OW26161   4.209   6.107   6.019
 8421SOL    HW126162   4.219   6.089   5.921
 8421SOL    HW226163   4.256   6.192   6.042
 8422SOL     OW26164   5.177   2.561   3.013
 8422SOL    HW126165   5.173   2.461   3.016
 8422SOL    HW226166   5.084   2.598   3.023
 8423SOL     OW26167   5.572   4.667   6.567
 8423SOL    HW126168   5.661   4.638   6.532
 8423SOL    HW226169   5.584   4.738   6.636
 8424SOL     OW26170   1.944   0.255   4.051
 8424SOL    HW126171   1.889   0.338   4.047
 8424SOL    HW226172   2.041   0.279   4.060
 8425SOL     OW26173   3.445   2.885   2.942
 8425SOL    HW126174   3.519   2.916   2.883
 8425SOL    HW226175   3.478   2.876   3.036
 8426SOL     OW26176   3.465   3.026   2.486
 8426SOL    HW126177   3.446   3.099   2.552
 8426SOL    HW226178   3.379   2.982   2.460
 8427SOL     OW26179   3.334   3.788   3.519
 8427SOL    HW126180   3.310   3.750   3.608
 8427SOL    HW226181   3.252   3.798   3.463
 8428SOL     OW26182   0.101   0.436   0.942
 8428SOL    HW126183   0.101   0.514   1.003
 8428SOL    HW226184   0.031   0.370   0.971
 8429SOL     OW26185   1.741   5.472   6.579
 8429SOL    HW126186   1.808   5.512   6.516
 8429SOL    HW226187   1.753   5.512   6.670
 8430SOL     OW26188   4.108   6.419   4.661
 8430SOL    HW126189   4.108   6.506   4.710
 8430SOL    HW226190   4.193   6.411   4.609
 8431SOL     OW26191   3.158   4.044   5.550
 8431SOL    HW126192   3.198   3.955   5.528
 8431SOL    HW226193   3.118   4.084   5.468
 8432SOL     OW26194   6.294   5.765   6.459
 8432SOL    HW126195   6.242   5.796   6.380
 8432SOL    HW226196   6.237   5.771   6.541
 8433SOL     OW26197   5.185   2.341   0.898
 8433SOL    HW126198   5.149   2.422   0.852
 8433SOL    HW226199   5.127   2.262   0.878
 8434SOL     OW26200   1.966   5.354   5.612
 8434SOL    HW126201   1.911   5.303   5.546
 8434SOL    HW226202   2.059   5.318   5.612
 8435SOL     OW26203   4.696   1.201   2.887
 8435SOL    HW126204   4.731   1.251   2.807
 8435SOL    HW226205   4.597   1.194   2.882
 8436SOL     OW26206   2.362   6.652   2.610
 8436SOL    HW126207   2.417   6.683   2.687
 8436SOL    HW226208   2.300   6.580   2.640
 8437SOL     OW26209   2.117   3.700   2.470
 8437SOL    HW126210   2.138   3.614   2.515
 8437SOL    HW226211   2.159   3.702   2.379
 8438SOL     OW26212   1.832   4.115   2.616
 8438SOL    HW126213   1.821   4.097   2.518
 8438SOL    HW226214   1.764   4.063   2.668
 8439SOL     OW26215   5.905   5.898   3.836
 8439SOL    HW126216   5.995   5.864   3.865
 8439SOL    HW226217   5.872   5.842   3.760
 8440SOL     OW26218   1.773   1.045   2.990
 8440SOL    HW126219   1.765   0.951   3.021
 8440SOL    HW226220   1.696   1.098   3.026
 8441SOL     OW26221   6.072   1.132   5.227
 8441SOL    HW126222   6.081   1.065   5.153
 8441SOL    HW226223   6.020   1.092   5.302
 8442SOL     OW26224   3.561   1.471   5.251
 8442SOL    HW126225   3.534   1.551   5.305
 8442SOL    HW226226   3.481   1.415   5.231
 8443SOL     OW26227   1.623   3.970   2.771
 8443SOL    HW126228   1.643   3.993   2.867
 8443SOL    HW226229   1.527   3.993   2.752
 8444SOL     OW26230   4.965   5.267   4.153
 8444SOL    HW126231   5.023   5.249   4.073
 8444SOL    HW226232   4.880   5.311   4.123
 8445SOL     OW26233   4.429   6.402   6.457
 8445SOL    HW126234   4.462   6.483   6.409
 8445SOL    HW226235   4.421   6.421   6.555
 8446SOL     OW26236   0.257   5.991   4.575
 8446SOL    HW126237   0.282   5.954   4.664
 8446SOL    HW226238   0.241   5.915   4.511
 8447SOL     OW26239   3.883   1.837   3.357
 8447SOL    HW126240   3.932   1.850   3.443
 8447SOL    HW226241   3.846   1.925   3.327
 8448SOL     OW26242   4.820   6.750   2.892
 8448SOL    HW126243   4.854   6.744   2.986
 8448SOL    HW226244   4.739   6.692   2.881
 8449SOL     OW26245   1.483   2.452   3.044
 8449SOL    HW126246   1.517   2.489   2.957
 8449SOL    HW226247   1.502   2.354   3.048
 8450SOL     OW26248   0.022   0.842   0.275
 8450SOL    HW126249   6.974   0.791   0.233
 8450SOL    HW226250   0.100   0.781   0.290
 8451SOL     OW26251   4.619   1.956   1.171
 8451SOL    HW126252   4.614   2.037   1.112
 8451SOL    HW226253   4.616   1.985   1.267
 8452SOL     OW26254   5.323   1.530   5.129
 8452SOL    HW126255   5.376   1.612   5.149
 8452SOL    HW226256   5.231   1.555   5.099
 8453SOL     OW26257   0.727   6.303   0.554
 8453SOL    HW126258   0.707   6.400   0.570
 8453SOL    HW226259   0.714   6.252   0.639
 8454SOL     OW26260   0.170   4.160   0.350
 8454SOL    HW126261   0.149   4.233   0.284
 8454SOL    HW226262   0.216   4.085   0.303
 8455SOL     OW26263   0.344   0.808   2.892
 8455SOL    HW126264   0.399   0.743   2.839
 8455SOL    HW226265   0.402   0.853   2.960
 8456SOL     OW26266   6.037   1.261   3.799
 8456SOL    HW126267   6.096   1.296   3.872
 8456SOL    HW226268   6.002   1.171   3.825
 8457SOL     OW26269   6.528   5.931   5.002
 8457SOL    HW126270   6.579   5.855   5.042
 8457SOL    HW226271   6.506   5.997   5.074
 8458SOL     OW26272   0.364   0.248   6.582
 8458SOL    HW126273   0.372   0.155   6.547
 8458SOL    HW226274   0.273   0.283   6.562
 8459SOL     OW26275   1.569   5.463   3.431
 8459SOL    HW126276   1.604   5.481   3.523
 8459SOL    HW226277   1.643   5.425   3.375
 8460SOL     OW26278   3.462   4.058   4.972
 8460SOL    HW126279   3.448   3.960   4.960
 8460SOL    HW226280   3.385   4.097   5.022
 8461SOL     OW26281   6.320   4.016   3.647
 8461SOL    HW126282   6.243   3.989   3.705
 8461SOL    HW226283   6.363   4.098   3.685
 8462SOL     OW26284   2.120   2.888   1.497
 8462SOL    HW126285   2.082   2.966   1.547
 8462SOL    HW226286   2.200   2.918   1.445
 8463SOL     OW26287   5.660   0.947   2.672
 8463SOL    HW126288   5.612   0.936   2.585
 8463SOL    HW226289   5.658   0.860   2.721
 8464SOL     OW26290   5.922   2.669   4.816
 8464SOL    HW126291   5.915   2.575   4.849
 8464SOL    HW226292   6.005   2.711   4.851
 8465SOL     OW26293   1.557   3.058   0.400
 8465SOL    HW126294   1.588   2.991   0.467
 8465SOL    HW226295   1.636   3.103   0.358
 8466SOL     OW26296   1.233   6.204   3.449
 8466SOL    HW126297   1.193   6.222   3.360
 8466SOL    HW226298   1.194   6.266   3.517
 8467SOL     OW26299   2.605   5.528   0.726
 8467SOL    HW126300   2.646   5.474   0.653
 8467SOL    HW226301   2.662   5.523   0.808
 8468SOL     OW26302   4.389   1.951   0.011
 8468SOL    HW126303   4.355   1.931   6.946
 8468SOL    HW226304   4.374   2.047   0.033
 8469SOL     OW26305   3.496   2.535   6.960
 8469SOL    HW126306   3.469   2.571   6.871
 8469SOL    HW226307   3.414   2.515   7.014
 8470SOL     OW26308   2.428   2.701   6.033
 8470SOL    HW126309   2.415   2.648   6.117
 8470SOL    HW226310   2.454   2.795   6.056
 8471SOL     OW26311   3.470   0.763   4.248
 8471SOL    HW126312   3.545   0.797   4.305
 8471SOL    HW226313   3.399   0.724   4.307
 8472SOL     OW26314   1.571   6.316   4.282
 8472SOL    HW126315   1.527   6.381   4.344
 8472SOL    HW226316   1.594   6.232   4.333
 8473SOL     OW26317   6.531   5.216   0.230
 8473SOL    HW126318   6.460   5.149   0.251
 8473SOL    HW226319   6.560   5.206   0.134
 8474SOL     OW26320   3.500   4.037   1.661
 8474SOL    HW126321   3.515   4.114   1.723
 8474SOL    HW226322   3.582   3.980   1.658
 8475SOL     OW26323   5.417   1.550   2.895
 8475SOL    HW126324   5.439   1.517   2.987
 8475SOL    HW226325   5.500   1.585   2.852
 8476SOL     OW26326   4.508   0.662   2.076
 8476SOL    HW126327   4.606   0.656   2.095
 8476SOL    HW226328   4.461   0.584   2.116
 8477SOL     OW26329   3.256   1.352   1.355
 8477SOL    HW126330   3.268   1.358   1.256
 8477SOL    HW226331   3.160   1.334   1.376
 8478SOL     OW26332   1.289   0.180   5.738
 8478SOL    HW126333   1.206   0.210   5.691
 8478SOL    HW226334   1.269   0.163   5.834
 8479SOL     OW26335   5.605   0.822   1.260
 8479SOL    HW126336   5.661   0.895   1.299
 8479SOL    HW226337   5.511   0.830   1.294
 8480SOL     OW26338   2.320   1.836   1.091
 8480SOL    HW126339   2.397   1.895   1.067
 8480SOL    HW226340   2.248   1.891   1.134
 8481SOL     OW26341   3.527   0.458   4.071
 8481SOL    HW126342   3.429   0.445   4.058
 8481SOL    HW226343   3.549   0.555   4.068
 8482SOL     OW26344   1.472   6.807   2.376
 8482SOL    HW126345   1.449   6.715   2.342
 8482SOL    HW226346   1.568   6.808   2.404
 8483SOL     OW26347   4.087   5.542   1.273
 8483SOL    HW126348   4.133   5.629   1.256
 8483SOL    HW226349   4.003   5.558   1.324
 8484SOL     OW26350   0.903   5.069   4.465
 8484SOL    HW126351   0.961   5.045   4.387
 8484SOL    HW226352   0.832   5.133   4.435
 8485SOL     OW26353   2.646   3.372   6.499
 8485SOL    HW126354   2.701   3.432   6.556
 8485SOL    HW226355   2.553   3.368   6.535
 8486SOL     OW26356   4.788   0.561   2.808
 8486SOL    HW126357   4.810   0.523   2.718
 8486SOL    HW226358   4.689   0.570   2.817
 8487SOL     OW26359   4.273   6.703   0.979
 8487SOL    HW126360   4.196   6.705   0.916
 8487SOL    HW226361   4.352   6.662   0.932
 8488SOL     OW26362   4.695   2.846   4.206
 8488SOL    HW126363   4.621   2.810   4.149
 8488SOL    HW226364   4.753   2.907   4.151
 8489SOL     OW26365   4.133   4.776   2.086
 8489SOL    HW126366   4.097   4.805   1.997
 8489SOL    HW226367   4.057   4.760   2.149
 8490SOL     OW26368   4.179   5.346   2.681
 8490SOL    HW126369   4.209   5.264   2.731
 8490SOL    HW226370   4.083   5.335   2.656
 8491SOL     OW26371   2.450   0.419   2.063
 8491SOL    HW126372   2.489   0.335   2.025
 8491SOL    HW226373   2.461   0.419   2.162
 8492SOL     OW26374   6.024   3.337   5.066
 8492SOL    HW126375   6.030   3.397   4.986
 8492SOL    HW226376   5.955   3.373   5.129
 8493SOL     OW26377   4.025   2.033   0.264
 8493SOL    HW126378   4.074   2.089   0.330
 8493SOL    HW226379   4.034   1.936   0.289
 8494SOL     OW26380   4.042   5.487   6.489
 8494SOL    HW126381   4.126   5.435   6.470
 8494SOL    HW226382   3.991   5.500   6.404
 8495SOL     OW26383   0.250   2.849   1.077
 8495SOL    HW126384   0.181   2.921   1.069
 8495SOL    HW226385   0.294   2.856   1.166
 8496SOL     OW26386   0.173   2.613   3.670
 8496SOL    HW126387   0.256   2.627   3.724
 8496SOL    HW226388   0.105   2.565   3.725
 8497SOL     OW26389   6.057   5.890   2.987
 8497SOL    HW126390   6.103   5.907   3.073
 8497SOL    HW226391   6.025   5.795   2.984
 8498SOL     OW26392   0.409   0.728   0.750
 8498SOL    HW126393   0.343   0.782   0.801
 8498SOL    HW226394   0.448   0.784   0.676
 8499SOL     OW26395   3.398   4.060   6.635
 8499SOL    HW126396   3.419   3.994   6.707
 8499SOL    HW226397   3.478   4.118   6.618
 8500SOL     OW26398   3.034   0.491   6.184
 8500SOL    HW126399   2.985   0.566   6.227
 8500SOL    HW226400   3.009   0.404   6.227
 8501SOL     OW26401   1.858   3.744   6.486
 8501SOL    HW126402   1.778   3.805   6.486
 8501SOL    HW226403   1.916   3.767   6.408
 8502SOL     OW26404   6.285   0.458   1.825
 8502SOL    HW126405   6.204   0.457   1.883
 8502SOL    HW226406   6.272   0.395   1.749
 8503SOL     OW26407   2.866   5.357   3.533
 8503SOL    HW126408   2.902   5.362   3.626
 8503SOL    HW226409   2.930   5.309   3.474
 8504SOL     OW26410   1.435   5.240   3.318
 8504SOL    HW126411   1.488   5.176   3.263
 8504SOL    HW226412   1.488   5.324   3.332
 8505SOL     OW26413   4.949   3.365   3.145
 8505SOL    HW126414   4.950   3.433   3.219
 8505SOL    HW226415   4.942   3.411   3.057
 8506SOL     OW26416   1.261   6.415   0.500
 8506SOL    HW126417   1.223   6.442   0.588
 8506SOL    HW226418   1.192   6.363   0.449
 8507SOL     OW26419   1.222   1.186   5.433
 8507SOL    HW126420   1.243   1.099   5.478
 8507SOL    HW226421   1.297   1.210   5.370
 8508SOL     OW26422   0.614   1.854   6.149
 8508SOL    HW126423   0.572   1.920   6.211
 8508SOL    HW226424   0.707   1.833   6.181
 8509SOL     OW26425   6.499   1.702   4.957
 8509SOL    HW126426   6.557   1.635   5.002
 8509SOL    HW226427   6.412   1.709   5.006
 8510SOL     OW26428   5.844   6.368   2.579
 8510SOL    HW126429   5.866   6.297   2.513
 8510SOL    HW226430   5.745   6.381   2.583
 8511SOL     OW26431   6.644   4.544   2.008
 8511SOL    HW126432   6.734   4.559   2.049
 8511SOL    HW226433   6.641   4.587   1.918
 8512SOL     OW26434   5.128   2.803   6.972
 8512SOL    HW126435   5.101   2.760   0.031
 8512SOL    HW226436   5.193   2.743   6.924
 8513SOL     OW26437   6.804   4.658   1.247
 8513SOL    HW126438   6.808   4.723   1.323
 8513SOL    HW226439   6.755   4.576   1.276
 8514SOL     OW26440   2.796   1.980   5.370
 8514SOL    HW126441   2.796   1.955   5.273
 8514SOL    HW226442   2.741   2.063   5.382
 8515SOL     OW26443   1.079   0.599   1.639
 8515SOL    HW126444   1.062   0.647   1.726
 8515SOL    HW226445   1.027   0.514   1.638
 8516SOL     OW26446   5.994   2.389   2.756
 8516SOL    HW126447   5.964   2.296   2.736
 8516SOL    HW226448   5.949   2.452   2.693
 8517SOL     OW26449   1.789   2.665   4.821
 8517SOL    HW126450   1.841   2.616   4.890
 8517SOL    HW226451   1.851   2.703   4.753
 8518SOL     OW26452   5.184   4.712   7.005
 8518SOL    HW126453   5.208   4.764   6.922
 8518SOL    HW226454   5.218   4.619   6.997
 8519SOL     OW26455   1.485   3.862   0.636
 8519SOL    HW126456   1.542   3.798   0.688
 8519SOL    HW226457   1.493   3.953   0.676
 8520SOL     OW26458   4.140   3.593   5.042
 8520SOL    HW126459   4.045   3.562   5.054
 8520SOL    HW226460   4.191   3.526   4.988
 8521SOL     OW26461   1.802   6.153   5.737
 8521SOL    HW126462   1.836   6.111   5.821
 8521SOL    HW226463   1.707   6.124   5.721
 8522SOL     OW26464   1.320   5.898   0.589
 8522SOL    HW126465   1.245   5.833   0.592
 8522SOL    HW226466   1.367   5.890   0.501
 8523SOL     OW26467   2.754   0.619   0.110
 8523SOL    HW126468   2.731   0.694   0.172
 8523SOL    HW226469   2.676   0.556   0.104
 8524SOL     OW26470   1.725   5.687   5.009
 8524SOL    HW126471   1.801   5.721   5.065
 8524SOL    HW226472   1.674   5.618   5.060
 8525SOL     OW26473   0.190   5.107   1.092
 8525SOL    HW126474   0.205   5.185   1.153
 8525SOL    HW226475   0.179   5.023   1.147
 8526SOL     OW26476   2.532   6.174   0.604
 8526SOL    HW126477   2.520   6.234   0.525
 8526SOL    HW226478   2.614   6.200   0.654
 8527SOL     OW26479   3.309   0.482   6.068
 8527SOL    HW126480   3.211   0.493   6.083
 8527SOL    HW226481   3.334   0.521   5.979
 8528SOL     OW26482   4.970   2.416   0.013
 8528SOL    HW126483   4.920   2.408   6.953
 8528SOL    HW226484   5.061   2.454   7.023
 8529SOL     OW26485   1.709   6.379   6.383
 8529SOL    HW126486   1.722   6.451   6.314
 8529SOL    HW226487   1.612   6.371   6.405
 8530SOL     OW26488   3.513   3.961   4.638
 8530SOL    HW126489   3.586   3.976   4.571
 8530SOL    HW226490   3.438   4.024   4.619
 8531SOL     OW26491   6.825   5.798   3.809
 8531SOL    HW126492   6.870   5.757   3.888
 8531SOL    HW226493   6.836   5.898   3.814
 8532SOL     OW26494   2.767   5.691   4.924
 8532SOL    HW126495   2.691   5.629   4.904
 8532SOL    HW226496   2.732   5.783   4.941
 8533SOL     OW26497   1.524   6.330   5.631
 8533SOL    HW126498   1.572   6.411   5.665
 8533SOL    HW226499   1.431   6.330   5.667
 8534SOL     OW26500   3.880   2.110   3.927
 8534SOL    HW126501   3.873   2.063   3.840
 8534SOL    HW226502   3.970   2.152   3.935
 8535SOL     OW26503   6.002   1.211   2.924
 8535SOL    HW126504   5.956   1.141   2.869
 8535SOL    HW226505   6.072   1.168   2.981
 8536SOL     OW26506   0.427   0.970   4.494
 8536SOL    HW126507   0.506   0.909   4.497
 8536SOL    HW226508   0.458   1.064   4.478
 8537SOL     OW26509   6.860   1.161   2.904
 8537SOL    HW126510   6.913   1.083   2.939
 8537SOL    HW226511   6.895   1.245   2.945
 8538SOL     OW26512   1.079   2.645   6.901
 8538SOL    HW126513   1.091   2.679   6.994
 8538SOL    HW226514   1.147   2.686   6.841
 8539SOL     OW26515   6.622   2.326   2.999
 8539SOL    HW126516   6.628   2.424   3.020
 8539SOL    HW226517   6.529   2.304   2.970
 8540SOL     OW26518   4.318   6.845   0.306
 8540SOL    HW126519   4.291   6.748   0.307
 8540SOL    HW226520   4.286   6.889   0.390
 8541SOL     OW26521   2.186   2.403   3.388
 8541SOL    HW126522   2.234   2.404   3.301
 8541SOL    HW226523   2.237   2.347   3.454
 8542SOL     OW26524   4.332   3.975   6.495
 8542SOL    HW126525   4.417   3.970   6.547
 8542SOL    HW226526   4.269   4.039   6.539
 8543SOL     OW26527   2.028   2.803   6.439
 8543SOL    HW126528   2.097   2.769   6.503
 8543SOL    HW226529   1.942   2.819   6.487
 8544SOL     OW26530   5.793   2.744   4.211
 8544SOL    HW126531   5.732   2.668   4.235
 8544SOL    HW226532   5.856   2.761   4.287
 8545SOL     OW26533   5.436   6.530   4.580
 8545SOL    HW126534   5.505   6.470   4.538
 8545SOL    HW226535   5.367   6.553   4.512
 8546SOL     OW26536   4.744   1.757   4.825
 8546SOL    HW126537   4.777   1.796   4.911
 8546SOL    HW226538   4.818   1.708   4.780
 8547SOL     OW26539   0.854   4.260   3.321
 8547SOL    HW126540   0.809   4.182   3.364
 8547SOL    HW226541   0.927   4.293   3.381
 8548SOL     OW26542   6.172   1.592   5.705
 8548SOL    HW126543   6.253   1.635   5.747
 8548SOL    HW226544   6.202   1.531   5.631
 8549SOL     OW26545   6.380   3.172   4.555
 8549SOL    HW126546   6.422   3.088   4.588
 8549SOL    HW226547   6.360   3.233   4.632
 8550SOL     OW26548   1.074   4.519   6.736
 8550SOL    HW126549   1.083   4.441   6.673
 8550SOL    HW226550   1.163   4.563   6.748
 8551SOL     OW26551   3.402   4.119   0.054
 8551SOL    HW126552   3.350   4.111   6.996
 8551SOL    HW226553   3.403   4.214   0.085
 8552SOL     OW26554   2.164   6.597   4.237
 8552SOL    HW126555   2.193   6.656   4.161
 8552SOL    HW226556   2.165   6.502   4.208
 8553SOL     OW26557   5.795   6.858   0.320
 8553SOL    HW126558   5.774   6.871   0.223
 8553SOL    HW226559   5.735   6.915   0.376
 8554SOL     OW26560   6.389   3.945   6.735
 8554SOL    HW126561   6.350   4.018   6.681
 8554SOL    HW226562   6.452   3.983   6.803
 8555SOL     OW26563   1.291   6.849   3.681
 8555SOL    HW126564   1.346   6.908   3.622
 8555SOL    HW226565   1.211   6.900   3.713
 8556SOL     OW26566   6.031   0.554   3.542
 8556SOL    HW126567   5.964   0.503   3.597
 8556SOL    HW226568   6.084   0.614   3.602
 8557SOL     OW26569   0.181   0.366   1.312
 8557SOL    HW126570   0.264   0.415   1.285
 8557SOL    HW226571   0.205   0.274   1.344
 8558SOL     OW26572   1.183   5.149   2.030
 8558SOL    HW126573   1.235   5.075   1.986
 8558SOL    HW226574   1.245   5.224   2.052
 8559SOL     OW26575   1.283   0.260   0.724
 8559SOL    HW126576   1.204   0.219   0.679
 8559SOL    HW226577   1.364   0.249   0.667
 8560SOL     OW26578   6.282   1.868   0.199
 8560SOL    HW126579   6.311   1.942   0.138
 8560SOL    HW226580   6.197   1.827   0.164
 8561SOL     OW26581   4.629   6.394   3.345
 8561SOL    HW126582   4.702   6.356   3.401
 8561SOL    HW226583   4.543   6.391   3.395
 8562SOL     OW26584   3.258   6.398   3.981
 8562SOL    HW126585   3.311   6.425   4.061
 8562SOL    HW226586   3.284   6.456   3.903
 8563SOL     OW26587   2.740   2.908   6.276
 8563SOL    HW126588   2.804   2.899   6.199
 8563SOL    HW226589   2.647   2.897   6.243
 8564SOL     OW26590   1.401   0.218   3.592
 8564SOL    HW126591   1.410   0.208   3.691
 8564SOL    HW226592   1.314   0.263   3.571
 8565SOL     OW26593   3.728   6.867   2.005
 8565SOL    HW126594   3.635   6.866   2.042
 8565SOL    HW226595   3.744   6.782   1.955
 8566SOL     OW26596   1.916   2.451   3.453
 8566SOL    HW126597   2.011   2.418   3.451
 8566SOL    HW226598   1.873   2.433   3.364
 8567SOL     OW26599   5.139   0.697   1.451
 8567SOL    HW126600   5.072   0.673   1.380
 8567SOL    HW226601   5.175   0.788   1.433
 8568SOL     OW26602   5.290   1.215   0.356
 8568SOL    HW126603   5.334   1.292   0.401
 8568SOL    HW226604   5.297   1.134   0.414
 8569SOL     OW26605   3.950   1.697   4.545
 8569SOL    HW126606   3.941   1.796   4.555
 8569SOL    HW226607   3.943   1.672   4.449
 8570SOL     OW26608   6.842   4.168   0.145
 8570SOL    HW126609   6.799   4.183   0.056
 8570SOL    HW226610   6.941   4.176   0.136
 8571SOL     OW26611   6.715   4.185   5.549
 8571SOL    HW126612   6.733   4.217   5.642
 8571SOL    HW226613   6.669   4.257   5.497
 8572SOL     OW26614   2.637   4.922   5.066
 8572SOL    HW126615   2.710   4.904   5.000
 8572SOL    HW226616   2.668   4.897   5.158
 8573SOL     OW26617   3.195   6.190   5.427
 8573SOL    HW126618   3.254   6.140   5.363
 8573SOL    HW226619   3.164   6.128   5.499
 8574SOL     OW26620   0.635   4.061   5.247
 8574SOL    HW126621   0.660   3.964   5.244
 8574SOL    HW226622   0.712   4.116   5.216
 8575SOL     OW26623   3.569   3.026   0.178
 8575SOL    HW126624   3.597   2.946   0.230
 8575SOL    HW226625   3.647   3.089   0.169
 8576SOL     OW26626   1.490   6.919   1.355
 8576SOL    HW126627   1.465   6.986   1.285
 8576SOL    HW226628   1.581   6.884   1.335
 8577SOL     OW26629   6.563   5.993   3.237
 8577SOL    HW126630   6.550   6.088   3.262
 8577SOL    HW226631   6.614   5.988   3.151
 8578SOL     OW26632   4.230   6.779   3.559
 8578SOL    HW126633   4.224   6.873   3.525
 8578SOL    HW226634   4.278   6.723   3.492
 8579SOL     OW26635   1.146   4.713   2.996
 8579SOL    HW126636   1.097   4.679   3.076
 8579SOL    HW226637   1.233   4.753   3.024
 8580SOL     OW26638   2.291   4.903   6.899
 8580SOL    HW126639   2.279   4.889   6.997
 8580SOL    HW226640   2.204   4.891   6.852
 8581SOL     OW26641   3.324   1.901   1.483
 8581SOL    HW126642   3.422   1.907   1.467
 8581SOL    HW226643   3.297   1.805   1.492
 8582SOL     OW26644   4.257   4.140   1.758
 8582SOL    HW126645   4.326   4.186   1.814
 8582SOL    HW226646   4.215   4.207   1.696
 8583SOL     OW26647   6.236   0.147   6.122
 8583SOL    HW126648   6.303   0.116   6.190
 8583SOL    HW226649   6.180   0.070   6.092
 8584SOL     OW26650   6.847   5.784   0.507
 8584SOL    HW126651   6.926   5.841   0.529
 8584SOL    HW226652   6.868   5.688   0.526
 8585SOL     OW26653   0.622   1.215   0.426
 8585SOL    HW126654   0.672   1.141   0.380
 8585SOL    HW226655   0.581   1.180   0.510
 8586SOL     OW26656   3.873   5.188   3.390
 8586SOL    HW126657   3.877   5.137   3.476
 8586SOL    HW226658   3.779   5.191   3.357
 8587SOL     OW26659   0.422   1.768   1.211
 8587SOL    HW126660   0.406   1.768   1.310
 8587SOL    HW226661   0.388   1.683   1.171
 8588SOL     OW26662   4.627   2.668   6.898
 8588SOL    HW126663   4.582   2.638   6.982
 8588SOL    HW226664   4.698   2.602   6.873
 8589SOL     OW26665   3.280   2.146   4.557
 8589SOL    HW126666   3.287   2.113   4.651
 8589SOL    HW226667   3.187   2.179   4.539
 8590SOL     OW26668   6.111   4.893   5.444
 8590SOL    HW126669   6.030   4.844   5.413
 8590SOL    HW226670   6.083   4.980   5.485
 8591SOL     OW26671   0.915   3.435   6.684
 8591SOL    HW126672   0.934   3.474   6.594
 8591SOL    HW226673   0.979   3.472   6.751
 8592SOL     OW26674   5.953   4.750   0.197
 8592SOL    HW126675   5.860   4.781   0.174
 8592SOL    HW226676   5.996   4.818   0.257
 8593SOL     OW26677   1.142   0.504   2.756
 8593SOL    HW126678   1.135   0.409   2.786
 8593SOL    HW226679   1.130   0.509   2.657
 8594SOL     OW26680   3.735   3.698   4.274
 8594SOL    HW126681   3.756   3.710   4.371
 8594SOL    HW226682   3.820   3.702   4.221
 8595SOL     OW26683   1.920   1.706   2.290
 8595SOL    HW126684   1.882   1.759   2.214
 8595SOL    HW226685   1.972   1.628   2.254
 8596SOL     OW26686   6.252   5.332   1.834
 8596SOL    HW126687   6.243   5.235   1.811
 8596SOL    HW226688   6.289   5.341   1.926
 8597SOL     OW26689   2.274   1.567   1.029
 8597SOL    HW126690   2.287   1.665   1.047
 8597SOL    HW226691   2.212   1.529   1.097
 8598SOL     OW26692   5.603   5.191   0.925
 8598SOL    HW126693   5.517   5.242   0.928
 8598SOL    HW226694   5.584   5.093   0.924
 8599SOL     OW26695   1.753   2.831   2.344
 8599SOL    HW126696   1.713   2.841   2.253
 8599SOL    HW226697   1.724   2.744   2.383
 8600SOL     OW26698   6.817   4.213   6.878
 8600SOL    HW126699   6.721   4.186   6.888
 8600SOL    HW226700   6.871   4.133   6.851
 8601SOL     OW26701   0.400   0.048   4.317
 8601SOL    HW126702   0.419   0.121   4.383
 8601SOL    HW226703   0.476   0.040   4.253
 8602SOL     OW26704   2.992   5.746   2.156
 8602SOL    HW126705   3.078   5.765   2.203
 8602SOL    HW226706   2.950   5.664   2.193
 8603SOL     OW26707   3.927   3.379   0.874
 8603SOL    HW126708   3.880   3.427   0.949
 8603SOL    HW226709   3.975   3.299   0.911
 8604SOL     OW26710   5.072   2.903   3.105
 8604SOL    HW126711   5.003   2.834   3.084
 8604SOL    HW226712   5.156   2.859   3.134
 8605SOL     OW26713   2.290   6.141   2.174
 8605SOL    HW126714   2.273   6.177   2.082
 8605SOL    HW226715   2.359   6.197   2.219
 8606SOL     OW26716   3.843   4.596   5.596
 8606SOL    HW126717   3.874   4.531   5.665
 8606SOL    HW226718   3.811   4.547   5.515
 8607SOL     OW26719   4.456   5.658   1.418
 8607SOL    HW126720   4.546   5.625   1.391
 8607SOL    HW226721   4.464   5.712   1.502
 8608SOL     OW26722   4.866   5.772   1.914
 8608SOL    HW126723   4.959   5.803   1.893
 8608SOL    HW226724   4.805   5.793   1.838
 8609SOL     OW26725   3.508   0.933   5.195
 8609SOL    HW126726   3.436   0.935   5.125
 8609SOL    HW226727   3.552   0.843   5.194
 8610SOL     OW26728   0.550   6.387   4.194
 8610SOL    HW126729   0.515   6.418   4.106
 8610SOL    HW226730   0.489   6.318   4.232
 8611SOL     OW26731   1.911   1.656   3.716
 8611SOL    HW126732   1.817   1.683   3.732
 8611SOL    HW226733   1.914   1.563   3.678
 8612SOL     OW26734   4.374   2.920   5.426
 8612SOL    HW126735   4.471   2.944   5.436
 8612SOL    HW226736   4.328   2.991   5.373
 8613SOL     OW26737   1.617   1.328   1.108
 8613SOL    HW126738   1.671   1.405   1.142
 8613SOL    HW226739   1.520   1.354   1.106
 8614SOL     OW26740   0.902   1.829   3.100
 8614SOL    HW126741   0.864   1.886   3.173
 8614SOL    HW226742   0.915   1.885   3.018
 8615SOL     OW26743   4.491   2.615   5.065
 8615SOL    HW126744   4.552   2.556   5.118
 8615SOL    HW226745   4.410   2.563   5.038
 8616SOL     OW26746   1.178   4.347   0.233
 8616SOL    HW126747   1.253   4.383   0.288
 8616SOL    HW226748   1.096   4.402   0.246
 8617SOL     OW26749   6.005   2.837   1.252
 8617SOL    HW126750   5.912   2.864   1.227
 8617SOL    HW226751   6.040   2.771   1.185
 8618SOL     OW26752   4.881   0.324   3.533
 8618SOL    HW126753   4.879   0.226   3.515
 8618SOL    HW226754   4.970   0.362   3.508
 8619SOL     OW26755   4.615   5.309   0.036
 8619SOL    HW126756   4.595   5.217   0.070
 8619SOL    HW226757   4.644   5.303   6.967
 8620SOL     OW26758   6.640   6.318   3.095
 8620SOL    HW126759   6.657   6.248   3.025
 8620SOL    HW226760   6.681   6.404   3.067
 8621SOL     OW26761   5.595   0.747   3.399
 8621SOL    HW126762   5.540   0.738   3.482
 8621SOL    HW226763   5.688   0.715   3.418
 8622SOL     OW26764   4.939   5.154   0.492
 8622SOL    HW126765   4.959   5.146   0.589
 8622SOL    HW226766   4.980   5.077   0.443
 8623SOL     OW26767   6.444   3.400   2.514
 8623SOL    HW126768   6.420   3.316   2.563
 8623SOL    HW226769   6.513   3.380   2.444
 8624SOL     OW26770   0.345   4.263   2.934
 8624SOL    HW126771   0.318   4.167   2.945
 8624SOL    HW226772   0.425   4.269   2.875
 8625SOL     OW26773   3.589   0.197   4.500
 8625SOL    HW126774   3.549   0.233   4.415
 8625SOL    HW226775   3.614   0.273   4.559
 8626SOL     OW26776   2.917   3.667   3.264
 8626SOL    HW126777   2.938   3.708   3.175
 8626SOL    HW226778   2.930   3.568   3.258
 8627SOL     OW26779   1.710   6.918   0.057
 8627SOL    HW126780   1.790   6.861   0.038
 8627SOL    HW226781   1.645   6.868   0.114
 8628SOL     OW26782   5.430   1.101   6.717
 8628SOL    HW126783   5.462   1.100   6.812
 8628SOL    HW226784   5.507   1.084   6.656
 8629SOL     OW26785   1.602   4.126   4.132
 8629SOL    HW126786   1.502   4.123   4.135
 8629SOL    HW226787   1.635   4.077   4.052
 8630SOL     OW26788   5.640   4.695   3.917
 8630SOL    HW126789   5.732   4.678   3.881
 8630SOL    HW226790   5.612   4.788   3.894
 8631SOL     OW26791   3.571   5.607   5.185
 8631SOL    HW126792   3.542   5.656   5.268
 8631SOL    HW226793   3.497   5.609   5.118
 8632SOL     OW26794   4.021   0.286   3.640
 8632SOL    HW126795   4.114   0.319   3.657
 8632SOL    HW226796   3.991   0.316   3.550
 8633SOL     OW26797   6.382   1.119   3.654
 8633SOL    HW126798   6.330   1.153   3.576
 8633SOL    HW226799   6.322   1.063   3.711
 8634SOL     OW26800   6.565   5.271   2.022
 8634SOL    HW126801   6.484   5.321   2.054
 8634SOL    HW226802   6.584   5.296   1.927
 8635SOL     OW26803   5.996   3.826   5.434
 8635SOL    HW126804   5.977   3.894   5.363
 8635SOL    HW226805   5.916   3.766   5.444
 8636SOL     OW26806   6.478   5.826   0.915
 8636SOL    HW126807   6.408   5.896   0.922
 8636SOL    HW226808   6.453   5.761   0.843
 8637SOL     OW26809   2.221   0.852   1.207
 8637SOL    HW126810   2.191   0.834   1.113
 8637SOL    HW226811   2.269   0.940   1.210
 8638SOL     OW26812   3.576   4.475   0.363
 8638SOL    HW126813   3.517   4.548   0.397
 8638SOL    HW226814   3.569   4.471   0.263
 8639SOL     OW26815   6.754   3.159   2.378
 8639SOL    HW126816   6.853   3.148   2.364
 8639SOL    HW226817   6.716   3.073   2.412
 8640SOL     OW26818   5.107   5.864   0.768
 8640SOL    HW126819   5.159   5.863   0.683
 8640SOL    HW226820   5.119   5.953   0.812
 8641SOL     OW26821   6.181   4.548   3.588
 8641SOL    HW126822   6.086   4.518   3.589
 8641SOL    HW226823   6.241   4.469   3.575
 8642SOL     OW26824   4.064   1.500   1.191
 8642SOL    HW126825   3.965   1.483   1.188
 8642SOL    HW226826   4.080   1.595   1.219
 8643SOL     OW26827   4.940   0.472   6.115
 8643SOL    HW126828   4.943   0.453   6.017
 8643SOL    HW226829   4.946   0.571   6.130
 8644SOL     OW26830   6.358   3.358   4.781
 8644SOL    HW126831   6.420   3.418   4.832
 8644SOL    HW226832   6.263   3.387   4.797
 8645SOL     OW26833   6.273   4.618   1.493
 8645SOL    HW126834   6.271   4.698   1.433
 8645SOL    HW226835   6.184   4.573   1.492
 8646SOL     OW26836   5.376   0.843   0.356
 8646SOL    HW126837   5.391   0.909   0.429
 8646SOL    HW226838   5.278   0.826   0.346
 8647SOL     OW26839   4.640   5.176   0.515
 8647SOL    HW126840   4.585   5.244   0.466
 8647SOL    HW226841   4.736   5.202   0.511
 8648SOL     OW26842   5.334   1.474   4.140
 8648SOL    HW126843   5.261   1.530   4.180
 8648SOL    HW226844   5.313   1.456   4.043
 8649SOL     OW26845   6.373   4.303   5.501
 8649SOL    HW126846   6.307   4.350   5.560
 8649SOL    HW226847   6.379   4.207   5.527
 8650SOL     OW26848   2.130   5.092   3.025
 8650SOL    HW126849   2.193   5.061   3.096
 8650SOL    HW226850   2.080   5.014   2.988
 8651SOL     OW26851   3.475   1.523   0.449
 8651SOL    HW126852   3.572   1.542   0.463
 8651SOL    HW226853   3.430   1.512   0.538
 8652SOL     OW26854   1.594   3.471   3.830
 8652SOL    HW126855   1.650   3.467   3.913
 8652SOL    HW226856   1.544   3.557   3.829
 8653SOL     OW26857   0.061   3.379   6.898
 8653SOL    HW126858   7.019   3.426   6.953
 8653SOL    HW226859   0.097   3.441   6.828
 8654SOL     OW26860   0.767   0.354   3.509
 8654SOL    HW126861   0.791   0.359   3.412
 8654SOL    HW226862   0.715   0.435   3.536
 8655SOL     OW26863   6.395   6.094   4.592
 8655SOL    HW126864   6.305   6.062   4.564
 8655SOL    HW226865   6.456   6.015   4.606
 8656SOL     OW26866   6.040   1.789   0.940
 8656SOL    HW126867   6.068   1.695   0.922
 8656SOL    HW226868   6.111   1.851   0.908
 8657SOL     OW26869   3.862   4.025   6.438
 8657SOL    HW126870   3.893   4.026   6.343
 8657SOL    HW226871   3.886   4.111   6.482
 8658SOL     OW26872   6.578   5.205   6.987
 8658SOL    HW126873   6.544   5.231   6.897
 8658SOL    HW226874   6.634   5.123   6.978
 8659SOL     OW26875   5.364   0.768   4.404
 8659SOL    HW126876   5.289   0.717   4.447
 8659SOL    HW226877   5.433   0.705   4.371
 8660SOL     OW26878   5.747   3.863   1.179
 8660SOL    HW126879   5.823   3.857   1.115
 8660SOL    HW226880   5.687   3.939   1.154
 8661SOL     OW26881   0.034   3.845   1.671
 8661SOL    HW126882   0.038   3.864   1.770
 8661SOL    HW226883   6.973   3.877   1.635
 8662SOL     OW26884   0.122   0.071   0.626
 8662SOL    HW126885   0.155   0.053   0.718
 8662SOL    HW226886   0.182   0.027   0.559
 8663SOL     OW26887   2.400   5.424   0.418
 8663SOL    HW126888   2.430   5.461   0.330
 8663SOL    HW226889   2.360   5.497   0.472
 8664SOL     OW26890   4.467   5.916   6.796
 8664SOL    HW126891   4.417   5.983   6.851
 8664SOL    HW226892   4.564   5.938   6.796
 8665SOL     OW26893   5.403   5.145   5.517
 8665SOL    HW126894   5.341   5.143   5.596
 8665SOL    HW226895   5.369   5.211   5.450
 8666SOL     OW26896   4.972   2.758   4.227
 8666SOL    HW126897   5.008   2.772   4.320
 8666SOL    HW226898   4.877   2.789   4.223
 8667SOL     OW26899   4.746   1.391   4.216
 8667SOL    HW126900   4.775   1.485   4.233
 8667SOL    HW226901   4.660   1.374   4.265
 8668SOL     OW26902   3.835   1.778   3.930
 8668SOL    HW126903   3.737   1.793   3.945
 8668SOL    HW226904   3.887   1.842   3.988
 8669SOL     OW26905   4.093   0.550   5.474
 8669SOL    HW126906   4.020   0.611   5.445
 8669SOL    HW226907   4.181   0.591   5.451
 8670SOL     OW26908   3.980   5.409   3.979
 8670SOL    HW126909   3.899   5.469   3.980
 8670SOL    HW226910   4.019   5.404   4.070
 8671SOL     OW26911   5.769   6.982   3.549
 8671SOL    HW126912   5.753   6.905   3.611
 8671SOL    HW226913   5.853   6.966   3.497
 8672SOL     OW26914   3.809   5.007   4.834
 8672SOL    HW126915   3.886   4.947   4.857
 8672SOL    HW226916   3.830   5.058   4.751
 8673SOL     OW26917   5.720   2.018   0.245
 8673SOL    HW126918   5.781   1.985   0.173
 8673SOL    HW226919   5.705   1.944   0.312
 8674SOL     OW26920   0.172   6.970   3.241
 8674SOL    HW126921   0.134   0.017   3.297
 8674SOL    HW226922   0.205   7.008   3.154
 8675SOL     OW26923   2.154   0.824   2.319
 8675SOL    HW126924   2.247   0.815   2.354
 8675SOL    HW226925   2.157   0.854   2.224
 8676SOL     OW26926   4.624   6.992   2.985
 8676SOL    HW126927   4.536   6.952   2.959
 8676SOL    HW226928   4.611   0.030   3.060
 8677SOL     OW26929   2.584   4.485   5.565
 8677SOL    HW126930   2.504   4.435   5.599
 8677SOL    HW226931   2.590   4.574   5.610
 8678SOL     OW26932   1.132   6.618   6.037
 8678SOL    HW126933   1.133   6.631   5.938
 8678SOL    HW226934   1.041   6.588   6.066
 8679SOL     OW26935   6.621   2.588   5.151
 8679SOL    HW126936   6.715   2.606   5.119
 8679SOL    HW226937   6.587   2.667   5.202
 8680SOL     OW26938   1.586   3.467   6.859
 8680SOL    HW126939   1.676   3.496   6.827
 8680SOL    HW226940   1.518   3.482   6.787
 8681SOL     OW26941   3.484   4.204   0.661
 8681SOL    HW126942   3.476   4.136   0.733
 8681SOL    HW226943   3.532   4.165   0.583
 8682SOL     OW26944   2.393   6.423   2.952
 8682SOL    HW126945   2.382   6.348   3.017
 8682SOL    HW226946   2.315   6.425   2.890
 8683SOL     OW26947   0.004   3.176   0.547
 8683SOL    HW126948   0.093   3.189   0.503
 8683SOL    HW226949   6.976   3.260   0.538
 8684SOL     OW26950   6.225   3.619   4.329
 8684SOL    HW126951   6.164   3.612   4.408
 8684SOL    HW226952   6.202   3.701   4.276
 8685SOL     OW26953   0.786   2.223   6.048
 8685SOL    HW126954   0.705   2.250   5.996
 8685SOL    HW226955   0.868   2.252   5.998
 8686SOL     OW26956   6.747   2.244   3.366
 8686SOL    HW126957   6.653   2.240   3.332
 8686SOL    HW226958   6.798   2.164   3.334
 8687SOL     OW26959   3.470   0.115   2.879
 8687SOL    HW126960   3.480   0.145   2.784
 8687SOL    HW226961   3.383   0.067   2.890
 8688SOL     OW26962   2.474   0.476   1.533
 8688SOL    HW126963   2.423   0.495   1.617
 8688SOL    HW226964   2.422   0.511   1.454
 8689SOL     OW26965   4.712   5.776   0.017
 8689SOL    HW126966   4.749   5.683   0.011
 8689SOL    HW226967   4.787   5.842   0.008
 8690SOL     OW26968   0.276   1.317   3.018
 8690SOL    HW126969   0.296   1.415   3.006
 8690SOL    HW226970   0.327   1.264   2.950
 8691SOL     OW26971   5.321   2.010   0.276
 8691SOL    HW126972   5.256   2.086   0.274
 8691SOL    HW226973   5.272   1.924   0.289
 8692SOL     OW26974   2.270   1.546   4.177
 8692SOL    HW126975   2.361   1.549   4.136
 8692SOL    HW226976   2.201   1.539   4.105
 8693SOL     OW26977   5.441   1.988   0.751
 8693SOL    HW126978   5.406   1.991   0.845
 8693SOL    HW226979   5.503   2.065   0.736
 8694SOL     OW26980   4.861   7.005   6.073
 8694SOL    HW126981   4.850   0.074   6.101
 8694SOL    HW226982   4.805   6.947   6.131
 8695SOL     OW26983   4.685   4.717   5.556
 8695SOL    HW126984   4.671   4.663   5.474
 8695SOL    HW226985   4.779   4.752   5.558
 8696SOL     OW26986   2.437   5.691   1.611
 8696SOL    HW126987   2.500   5.695   1.534
 8696SOL    HW226988   2.473   5.746   1.686
 8697SOL     OW26989   6.292   4.341   0.540
 8697SOL    HW126990   6.304   4.264   0.477
 8697SOL    HW226991   6.381   4.377   0.567
 8698SOL     OW26992   5.494   6.118   4.635
 8698SOL    HW126993   5.434   6.039   4.646
 8698SOL    HW226994   5.564   6.117   4.707
 8699SOL     OW26995   1.103   1.877   5.449
 8699SOL    HW126996   1.018   1.864   5.398
 8699SOL    HW226997   1.177   1.898   5.385
 8700SOL     OW26998   3.325   1.333   5.616
 8700SOL    HW126999   3.241   1.380   5.590
 8700SOL    HW227000   3.315   1.235   5.598
 8701SOL     OW27001   0.497   1.460   4.931
 8701SOL    HW127002   0.500   1.560   4.940
 8701SOL    HW227003   0.436   1.435   4.856
 8702SOL     OW27004   5.132   5.525   0.261
 8702SOL    HW127005   5.133   5.427   0.282
 8702SOL    HW227006   5.088   5.574   0.337
 8703SOL     OW27007   2.397   5.563   0.976
 8703SOL    HW127008   2.488   5.522   0.968
 8703SOL    HW227009   2.376   5.579   1.072
 8704SOL     OW27010   0.242   4.779   1.932
 8704SOL    HW127011   0.271   4.853   1.991
 8704SOL    HW227012   0.225   4.697   1.987
 8705SOL     OW27013   4.752   0.171   6.240
 8705SOL    HW127014   4.653   0.170   6.231
 8705SOL    HW227015   4.788   0.256   6.202
 8706SOL     OW27016   5.137   1.823   0.244
 8706SOL    HW127017   5.054   1.877   0.259
 8706SOL    HW227018   5.124   1.731   0.281
 8707SOL     OW27019   5.240   2.823   5.857
 8707SOL    HW127020   5.177   2.791   5.927
 8707SOL    HW227021   5.261   2.920   5.873
 8708SOL     OW27022   4.034   1.215   1.055
 8708SOL    HW127023   4.054   1.312   1.072
 8708SOL    HW227024   4.037   1.165   1.141
 8709SOL     OW27025   6.629   4.137   1.165
 8709SOL    HW127026   6.685   4.058   1.193
 8709SOL    HW227027   6.532   4.115   1.177
 8710SOL     OW27028   1.997   3.008   3.402
 8710SOL    HW127029   1.988   2.912   3.430
 8710SOL    HW227030   2.049   3.013   3.317
 8711SOL     OW27031   6.941   0.968   3.349
 8711SOL    HW127032   6.972   0.931   3.437
 8711SOL    HW227033   6.844   0.991   3.356
 8712SOL     OW27034   3.009   1.830   4.895
 8712SOL    HW127035   3.068   1.749   4.897
 8712SOL    HW227036   3.044   1.898   4.959
 8713SOL     OW27037   0.088   4.466   3.907
 8713SOL    HW127038   0.013   4.532   3.911
 8713SOL    HW227039   0.120   4.446   4.000
 8714SOL     OW27040   1.656   1.041   5.527
 8714SOL    HW127041   1.644   0.956   5.477
 8714SOL    HW227042   1.617   1.117   5.474
 8715SOL     OW27043   6.164   2.076   1.544
 8715SOL    HW127044   6.212   2.044   1.626
 8715SOL    HW227045   6.085   2.017   1.526
 8716SOL     OW27046   1.322   1.406   1.045
 8716SOL    HW127047   1.343   1.495   1.005
 8716SOL    HW227048   1.229   1.379   1.021
 8717SOL     OW27049   4.032   3.571   1.475
 8717SOL    HW127050   4.080   3.637   1.418
 8717SOL    HW227051   4.056   3.586   1.571
 8718SOL     OW27052   6.131   3.230   5.583
 8718SOL    HW127053   6.095   3.237   5.490
 8718SOL    HW227054   6.079   3.162   5.634
 8719SOL     OW27055   0.496   0.200   5.534
 8719SOL    HW127056   0.506   0.157   5.444
 8719SOL    HW227057   0.560   0.159   5.598
 8720SOL     OW27058   5.448   4.234   5.520
 8720SOL    HW127059   5.474   4.149   5.475
 8720SOL    HW227060   5.353   4.228   5.550
 8721SOL     OW27061   6.894   2.392   4.642
 8721SOL    HW127062   6.912   2.476   4.693
 8721SOL    HW227063   6.886   2.316   4.706
 8722SOL     OW27064   3.806   2.596   0.398
 8722SOL    HW127065   3.711   2.592   0.366
 8722SOL    HW227066   3.808   2.618   0.495
 8723SOL     OW27067   6.591   5.364   1.493
 8723SOL    HW127068   6.568   5.457   1.464
 8723SOL    HW227069   6.682   5.341   1.459
 8724SOL     OW27070   5.623   0.405   5.678
 8724SOL    HW127071   5.563   0.363   5.610
 8724SOL    HW227072   5.572   0.474   5.730
 8725SOL     OW27073   2.489   6.389   0.410
 8725SOL    HW127074   2.437   6.319   0.361
 8725SOL    HW227075   2.547   6.439   0.345
 8726SOL     OW27076   6.208   0.240   1.667
 8726SOL    HW127077   6.112   0.255   1.692
 8726SOL    HW227078   6.231   0.299   1.589
 8727SOL     OW27079   6.392   6.332   1.167
 8727SOL    HW127080   6.432   6.254   1.216
 8727SOL    HW227081   6.396   6.413   1.225
 8728SOL     OW27082   2.873   6.510   4.906
 8728SOL    HW127083   2.905   6.590   4.856
 8728SOL    HW227084   2.864   6.532   5.003
 8729SOL     OW27085   4.483   5.983   3.669
 8729SOL    HW127086   4.572   5.977   3.714
 8729SOL    HW227087   4.493   5.958   3.572
 8730SOL     OW27088   0.239   6.071   2.457
 8730SOL    HW127089   0.249   6.028   2.367
 8730SOL    HW227090   0.248   6.170   2.447
 8731SOL     OW27091   1.258   1.481   2.448
 8731SOL    HW127092   1.182   1.546   2.437
 8731SOL    HW227093   1.309   1.476   2.362
 8732SOL     OW27094   5.753   3.542   1.746
 8732SOL    HW127095   5.802   3.549   1.658
 8732SOL    HW227096   5.694   3.621   1.758
 8733SOL     OW27097   1.123   6.281   1.448
 8733SOL    HW127098   1.083   6.229   1.373
 8733SOL    HW227099   1.098   6.378   1.439
 8734SOL     OW27100   6.851   5.776   1.231
 8734SOL    HW127101   6.875   5.738   1.320
 8734SOL    HW227102   6.776   5.841   1.242
 8735SOL     OW27103   0.080   2.044   6.588
 8735SOL    HW127104   0.009   2.046   6.517
 8735SOL    HW227105   0.037   2.049   6.678
 8736SOL     OW27106   0.539   4.808   6.645
 8736SOL    HW127107   0.599   4.736   6.677
 8736SOL    HW227108   0.579   4.852   6.565
 8737SOL     OW27109   3.913   5.480   6.266
 8737SOL    HW127110   3.818   5.447   6.264
 8737SOL    HW227111   3.935   5.520   6.177
 8738SOL     OW27112   1.274   3.547   3.957
 8738SOL    HW127113   1.314   3.480   4.020
 8738SOL    HW227114   1.191   3.585   3.997
 8739SOL     OW27115   0.184   3.478   5.625
 8739SOL    HW127116   0.120   3.522   5.689
 8739SOL    HW227117   0.183   3.379   5.640
 8740SOL     OW27118   2.626   6.726   0.796
 8740SOL    HW127119   2.554   6.733   0.866
 8740SOL    HW227120   2.636   6.631   0.769
 8741SOL     OW27121   1.556   3.287   2.623
 8741SOL    HW127122   1.554   3.336   2.536
 8741SOL    HW227123   1.616   3.335   2.687
 8742SOL     OW27124   4.458   0.149   1.642
 8742SOL    HW127125   4.366   0.181   1.620
 8742SOL    HW227126   4.462   0.050   1.632
 8743SOL     OW27127   2.530   5.159   2.685
 8743SOL    HW127128   2.481   5.233   2.640
 8743SOL    HW227129   2.465   5.105   2.740
 8744SOL     OW27130   4.322   2.168   6.314
 8744SOL    HW127131   4.370   2.252   6.341
 8744SOL    HW227132   4.368   2.089   6.355
 8745SOL     OW27133   6.201   2.442   6.079
 8745SOL    HW127134   6.300   2.451   6.064
 8745SOL    HW227135   6.157   2.528   6.054
 8746SOL     OW27136   5.521   4.925   5.849
 8746SOL    HW127137   5.494   4.889   5.760
 8746SOL    HW227138   5.550   4.849   5.908
 8747SOL     OW27139   1.957   2.019   3.935
 8747SOL    HW127140   2.044   1.971   3.940
 8747SOL    HW227141   1.883   1.954   3.916
 8748SOL     OW27142   1.588   0.010   6.690
 8748SOL    HW127143   1.518   6.972   6.660
 8748SOL    HW227144   1.580   0.094   6.636
 8749SOL     OW27145   4.026   0.606   3.716
 8749SOL    HW127146   4.056   0.604   3.620
 8749SOL    HW227147   3.964   0.529   3.732
 8750SOL     OW27148   1.874   1.295   5.310
 8750SOL    HW127149   1.962   1.291   5.358
 8750SOL    HW227150   1.879   1.240   5.226
 8751SOL     OW27151   1.091   0.027   2.484
 8751SOL    HW127152   1.183   0.023   2.446
 8751SOL    HW227153   1.071   6.970   2.534
 8752SOL     OW27154   1.588   2.280   6.294
 8752SOL    HW127155   1.546   2.209   6.238
 8752SOL    HW227156   1.517   2.325   6.350
 8753SOL     OW27157   5.107   1.493   4.434
 8753SOL    HW127158   5.198   1.493   4.476
 8753SOL    HW227159   5.083   1.401   4.405
 8754SOL     OW27160   1.694   1.687   5.835
 8754SOL    HW127161   1.711   1.727   5.925
 8754SOL    HW227162   1.595   1.687   5.817
 8755SOL     OW27163   1.973   1.814   0.661
 8755SOL    HW127164   1.881   1.841   0.689
 8755SOL    HW227165   2.039   1.846   0.729
 8756SOL     OW27166   2.193   3.147   4.151
 8756SOL    HW127167   2.255   3.069   4.154
 8756SOL    HW227168   2.172   3.170   4.056
 8757SOL     OW27169   4.742   6.387   5.059
 8757SOL    HW127170   4.666   6.351   5.113
 8757SOL    HW227171   4.736   6.354   4.965
 8758SOL     OW27172   6.113   6.888   1.172
 8758SOL    HW127173   6.062   6.874   1.256
 8758SOL    HW227174   6.109   6.805   1.116
 8759SOL     OW27175   5.082   0.675   5.783
 8759SOL    HW127176   5.173   0.682   5.741
 8759SOL    HW227177   5.014   0.717   5.723
 8760SOL     OW27178   1.657   1.764   3.669
 8760SOL    HW127179   1.593   1.753   3.593
 8760SOL    HW227180   1.719   1.840   3.648
 8761SOL     OW27181   4.266   6.930   0.057
 8761SOL    HW127182   4.168   6.920   0.044
 8761SOL    HW227183   4.290   6.911   0.152
 8762SOL     OW27184   1.060   4.433   0.957
 8762SOL    HW127185   1.046   4.519   0.909
 8762SOL    HW227186   1.107   4.368   0.897
 8763SOL     OW27187   0.480   6.503   6.347
 8763SOL    HW127188   0.386   6.533   6.334
 8763SOL    HW227189   0.530   6.573   6.398
 8764SOL     OW27190   4.278   1.932   4.806
 8764SOL    HW127191   4.256   2.019   4.761
 8764SOL    HW227192   4.201   1.869   4.794
 8765SOL     OW27193   5.778   0.271   4.313
 8765SOL    HW127194   5.857   0.224   4.352
 8765SOL    HW227195   5.797   0.291   4.216
 8766SOL     OW27196   2.066   4.617   2.584
 8766SOL    HW127197   2.095   4.648   2.674
 8766SOL    HW227198   2.070   4.517   2.580
 8767SOL     OW27199   4.183   1.044   3.845
 8767SOL    HW127200   4.224   1.032   3.936
 8767SOL    HW227201   4.197   1.137   3.814
 8768SOL     OW27202   1.832   3.187   6.507
 8768SOL    HW127203   1.930   3.176   6.518
 8768SOL    HW227204   1.784   3.122   6.567
 8769SOL     OW27205   1.875   0.188   5.720
 8769SOL    HW127206   1.900   0.207   5.815
 8769SOL    HW227207   1.939   0.236   5.659
 8770SOL     OW27208   5.207   3.017   1.711
 8770SOL    HW127209   5.281   3.067   1.667
 8770SOL    HW227210   5.135   3.080   1.738
 8771SOL     OW27211   0.940   1.574   6.373
 8771SOL    HW127212   0.858   1.556   6.426
 8771SOL    HW227213   0.956   1.499   6.309
 8772SOL     OW27214   5.848   1.345   6.508
 8772SOL    HW127215   5.866   1.249   6.529
 8772SOL    HW227216   5.932   1.389   6.476
 8773SOL     OW27217   2.343   2.785   2.674
 8773SOL    HW127218   2.339   2.688   2.699
 8773SOL    HW227219   2.356   2.793   2.575
 8774SOL     OW27220   1.433   0.997   1.150
 8774SOL    HW127221   1.362   1.063   1.174
 8774SOL    HW227222   1.453   0.939   1.229
 8775SOL     OW27223   6.369   6.951   3.571
 8775SOL    HW127224   6.369   6.975   3.474
 8775SOL    HW227225   6.275   6.931   3.599
 8776SOL     OW27226   3.403   2.857   4.891
 8776SOL    HW127227   3.370   2.766   4.865
 8776SOL    HW227228   3.343   2.926   4.851
 8777SOL     OW27229   6.410   6.077   1.928
 8777SOL    HW127230   6.443   6.034   1.844
 8777SOL    HW227231   6.441   6.024   2.007
 8778SOL     OW27232   0.412   2.341   3.720
 8778SOL    HW127233   0.333   2.339   3.659
 8778SOL    HW227234   0.381   2.344   3.815
 8779SOL     OW27235   0.915   5.096   0.626
 8779SOL    HW127236   0.955   5.010   0.596
 8779SOL    HW227237   0.824   5.079   0.664
 8780SOL     OW27238   1.436   5.582   4.362
 8780SOL    HW127239   1.503   5.524   4.407
 8780SOL    HW227240   1.406   5.539   4.277
 8781SOL     OW27241   0.586   1.869   2.244
 8781SOL    HW127242   0.653   1.860   2.318
 8781SOL    HW227243   0.494   1.857   2.282
 8782SOL     OW27244   4.613   1.168   3.149
 8782SOL    HW127245   4.585   1.256   3.185
 8782SOL    HW227246   4.670   1.181   3.068
 8783SOL     OW27247   5.755   3.572   4.795
 8783SOL    HW127248   5.783   3.504   4.726
 8783SOL    HW227249   5.662   3.551   4.826
 8784SOL     OW27250   5.253   4.920   5.438
 8784SOL    HW127251   5.205   4.929   5.350
 8784SOL    HW227252   5.315   4.998   5.449
 8785SOL     OW27253   6.405   4.723   6.361
 8785SOL    HW127254   6.503   4.725   6.379
 8785SOL    HW227255   6.388   4.673   6.276
 8786SOL     OW27256   1.849   6.584   0.288
 8786SOL    HW127257   1.842   6.485   0.303
 8786SOL    HW227258   1.770   6.615   0.236
 8787SOL     OW27259   1.513   3.978   0.988
 8787SOL    HW127260   1.602   3.982   0.943
 8787SOL    HW227261   1.526   3.962   1.086
 8788SOL     OW27262   1.133   1.433   5.503
 8788SOL    HW127263   1.170   1.341   5.489
 8788SOL    HW227264   1.064   1.451   5.433
 8789SOL     OW27265   6.861   0.421   6.354
 8789SOL    HW127266   6.915   0.410   6.270
 8789SOL    HW227267   6.835   0.331   6.389
 8790SOL     OW27268   5.737   1.643   0.074
 8790SOL    HW127269   5.805   1.714   0.093
 8790SOL    HW227270   5.651   1.665   0.119
 8791SOL     OW27271   4.861   6.593   5.552
 8791SOL    HW127272   4.814   6.646   5.482
 8791SOL    HW227273   4.806   6.592   5.636
 8792SOL     OW27274   5.181   0.069   2.916
 8792SOL    HW127275   5.213   0.159   2.885
 8792SOL    HW227276   5.088   0.077   2.950
 8793SOL     OW27277   1.249   5.945   4.062
 8793SOL    HW127278   1.219   6.028   4.016
 8793SOL    HW227279   1.324   5.967   4.125
 8794SOL     OW27280   2.106   6.828   2.504
 8794SOL    HW127281   2.183   6.768   2.482
 8794SOL    HW227282   2.048   6.783   2.573
 8795SOL     OW27283   2.050   6.277   5.839
 8795SOL    HW127284   1.983   6.225   5.785
 8795SOL    HW227285   2.052   6.372   5.807
 8796SOL     OW27286   5.100   2.645   5.436
 8796SOL    HW127287   5.097   2.671   5.339
 8796SOL    HW227288   5.014   2.602   5.462
 8797SOL     OW27289   0.203   7.020   6.846
 8797SOL    HW127290   0.281   6.963   6.873
 8797SOL    HW227291   0.177   0.053   6.922
 8798SOL     OW27292   4.701   3.640   5.561
 8798SOL    HW127293   4.631   3.696   5.517
 8798SOL    HW227294   4.746   3.582   5.493
 8799SOL     OW27295   3.035   5.212   2.909
 8799SOL    HW127296   2.986   5.219   2.822
 8799SOL    HW227297   3.035   5.301   2.954
 8800SOL     OW27298   4.481   4.995   6.830
 8800SOL    HW127299   4.435   4.916   6.789
 8800SOL    HW227300   4.417   5.044   6.889
 8801SOL     OW27301   2.521   1.119   4.738
 8801SOL    HW127302   2.620   1.130   4.733
 8801SOL    HW227303   2.479   1.203   4.773
 8802SOL     OW27304   3.141   6.221   2.470
 8802SOL    HW127305   3.192   6.232   2.555
 8802SOL    HW227306   3.153   6.128   2.435
 8803SOL     OW27307   3.721   5.874   0.434
 8803SOL    HW127308   3.731   5.817   0.352
 8803SOL    HW227309   3.767   5.829   0.511
 8804SOL     OW27310   4.843   0.511   0.866
 8804SOL    HW127311   4.746   0.537   0.863
 8804SOL    HW227312   4.884   0.524   0.776
 8805SOL     OW27313   0.443   0.395   2.969
 8805SOL    HW127314   0.493   0.323   3.018
 8805SOL    HW227315   0.436   0.476   3.028
 8806SOL     OW27316   1.818   4.732   6.778
 8806SOL    HW127317   1.917   4.742   6.771
 8806SOL    HW227318   1.787   4.657   6.719
 8807SOL     OW27319   1.302   6.011   6.103
 8807SOL    HW127320   1.322   6.054   6.015
 8807SOL    HW227321   1.208   5.979   6.104
 8808SOL     OW27322   5.389   1.550   1.034
 8808SOL    HW127323   5.298   1.545   1.075
 8808SOL    HW227324   5.450   1.486   1.082
 8809SOL     OW27325   6.119   4.117   1.530
 8809SOL    HW127326   6.042   4.053   1.539
 8809SOL    HW227327   6.111   4.188   1.600
 8810SOL     OW27328   3.827   1.455   4.319
 8810SOL    HW127329   3.739   1.430   4.279
 8810SOL    HW227330   3.856   1.543   4.283
 8811SOL     OW27331   1.291   1.180   2.777
 8811SOL    HW127332   1.387   1.205   2.785
 8811SOL    HW227333   1.246   1.192   2.865
 8812SOL     OW27334   2.087   0.761   0.986
 8812SOL    HW127335   2.084   0.744   0.888
 8812SOL    HW227336   2.008   0.817   1.013
 8813SOL     OW27337   2.159   6.227   1.503
 8813SOL    HW127338   2.200   6.143   1.468
 8813SOL    HW227339   2.090   6.204   1.573
 8814SOL     OW27340   6.268   0.983   6.097
 8814SOL    HW127341   6.240   0.887   6.088
 8814SOL    HW227342   6.309   0.997   6.188
 8815SOL     OW27343   0.244   6.269   2.694
 8815SOL    HW127344   0.258   6.367   2.680
 8815SOL    HW227345   0.266   6.220   2.610
 8816SOL     OW27346   1.328   5.728   1.677
 8816SOL    HW127347   1.233   5.758   1.671
 8816SOL    HW227348   1.389   5.807   1.670
 8817SOL     OW27349   1.357   4.940   5.338
 8817SOL    HW127350   1.308   4.915   5.255
 8817SOL    HW227351   1.401   5.029   5.326
 8818SOL     OW27352   0.355   5.595   4.071
 8818SOL    HW127353   0.274   5.610   4.127
 8818SOL    HW227354   0.347   5.508   4.023
 8819SOL     OW27355   4.573   6.362   4.399
 8819SOL    HW127356   4.545   6.366   4.303
 8819SOL    HW227357   4.670   6.335   4.404
 8820SOL     OW27358   1.497   2.236   3.694
 8820SOL    HW127359   1.498   2.325   3.740
 8820SOL    HW227360   1.487   2.164   3.762
 8821SOL     OW27361   2.196   0.945   6.399
 8821SOL    HW127362   2.273   0.999   6.433
 8821SOL    HW227363   2.224   0.891   6.320
 8822SOL     OW27364   0.577   2.261   3.338
 8822SOL    HW127365   0.652   2.292   3.280
 8822SOL    HW227366   0.527   2.340   3.373
 8823SOL     OW27367   1.917   5.831   1.695
 8823SOL    HW127368   1.938   5.835   1.792
 8823SOL    HW227369   1.835   5.776   1.681
 8824SOL     OW27370   3.531   4.046   0.882
 8824SOL    HW127371   3.457   3.981   0.902
 8824SOL    HW227372   3.611   3.997   0.849
 8825SOL     OW27373   0.883   1.634   2.173
 8825SOL    HW127374   0.889   1.565   2.101
 8825SOL    HW227375   0.789   1.643   2.204
 8826SOL     OW27376   5.062   1.899   6.568
 8826SOL    HW127377   5.064   1.999   6.560
 8826SOL    HW227378   5.082   1.873   6.663
 8827SOL     OW27379   1.388   1.815   3.202
 8827SOL    HW127380   1.298   1.773   3.190
 8827SOL    HW227381   1.452   1.775   3.136
 8828SOL     OW27382   2.894   6.942   2.754
 8828SOL    HW127383   2.856   0.006   2.771
 8828SOL    HW227384   2.896   6.925   2.656
 8829SOL     OW27385   0.162   2.173   0.412
 8829SOL    HW127386   0.222   2.104   0.371
 8829SOL    HW227387   0.067   2.142   0.406
 8830SOL     OW27388   0.524   2.137   0.904
 8830SOL    HW127389   0.429   2.161   0.924
 8830SOL    HW227390   0.550   2.175   0.815
 8831SOL     OW27391   6.700   0.687   2.906
 8831SOL    HW127392   6.797   0.710   2.903
 8831SOL    HW227393   6.656   0.740   2.978
 8832SOL     OW27394   6.396   1.042   2.404
 8832SOL    HW127395   6.395   0.944   2.387
 8832SOL    HW227396   6.475   1.065   2.462
 8833SOL     OW27397   2.235   4.591   3.635
 8833SOL    HW127398   2.167   4.550   3.695
 8833SOL    HW227399   2.190   4.653   3.570
 8834SOL     OW27400   5.821   3.976   5.243
 8834SOL    HW127401   5.742   3.948   5.189
 8834SOL    HW227402   5.873   4.044   5.193
 8835SOL     OW27403   0.092   0.006   6.347
 8835SOL    HW127404   0.132   7.000   6.433
 8835SOL    HW227405   7.019   7.026   6.351
 8836SOL     OW27406   4.635   1.269   0.364
 8836SOL    HW127407   4.547   1.263   0.316
 8836SOL    HW227408   4.621   1.259   0.462
 8837SOL     OW27409   6.955   1.268   2.126
 8837SOL    HW127410   0.005   1.331   2.139
 8837SOL    HW227411   6.976   1.205   2.051
 8838SOL     OW27412   2.221   5.412   3.864
 8838SOL    HW127413   2.158   5.388   3.938
 8838SOL    HW227414   2.309   5.370   3.881
 8839SOL     OW27415   6.515   6.890   3.871
 8839SOL    HW127416   6.535   6.814   3.809
 8839SOL    HW227417   6.600   6.939   3.893
 8840SOL     OW27418   5.315   2.593   2.364
 8840SOL    HW127419   5.220   2.611   2.339
 8840SOL    HW227420   5.326   2.495   2.384
 8841SOL     OW27421   1.609   1.694   5.059
 8841SOL    HW127422   1.596   1.790   5.035
 8841SOL    HW227423   1.543   1.668   5.130
 8842SOL     OW27424   2.220   3.155   1.463
 8842SOL    HW127425   2.148   3.140   1.530
 8842SOL    HW227426   2.309   3.136   1.504
 8843SOL     OW27427   0.827   3.188   5.200
 8843SOL    HW127428   0.853   3.146   5.287
 8843SOL    HW227429   0.851   3.126   5.125
 8844SOL     OW27430   6.835   1.452   6.657
 8844SOL    HW127431   6.779   1.384   6.704
 8844SOL    HW227432   6.930   1.445   6.690
 8845SOL     OW27433   5.592   4.536   0.010
 8845SOL    HW127434   5.581   4.516   6.939
 8845SOL    HW227435   5.514   4.499   0.060
 8846SOL     OW27436   1.683   4.673   3.822
 8846SOL    HW127437   1.645   4.765   3.828
 8846SOL    HW227438   1.733   4.651   3.906
 8847SOL     OW27439   3.167   0.630   2.630
 8847SOL    HW127440   3.208   0.637   2.721
 8847SOL    HW227441   3.131   0.720   2.603
 8848SOL     OW27442   1.467   0.359   3.097
 8848SOL    HW127443   1.485   0.432   3.031
 8848SOL    HW227444   1.471   0.396   3.190
 8849SOL     OW27445   3.222   6.993   1.278
 8849SOL    HW127446   3.155   0.012   1.337
 8849SOL    HW227447   3.212   6.894   1.288
 8850SOL     OW27448   3.470   2.821   6.593
 8850SOL    HW127449   3.481   2.728   6.628
 8850SOL    HW227450   3.485   2.886   6.668
 8851SOL     OW27451   1.195   3.229   3.140
 8851SOL    HW127452   1.151   3.177   3.214
 8851SOL    HW227453   1.223   3.319   3.175
 8852SOL     OW27454   0.893   1.767   6.156
 8852SOL    HW127455   0.926   1.728   6.071
 8852SOL    HW227456   0.907   1.702   6.230
 8853SOL     OW27457   4.584   0.592   0.673
 8853SOL    HW127458   4.600   0.576   0.576
 8853SOL    HW227459   4.563   0.689   0.688
 8854SOL     OW27460   1.089   3.055   4.992
 8854SOL    HW127461   1.132   3.020   5.075
 8854SOL    HW227462   1.141   3.134   4.958
 8855SOL     OW27463   5.609   5.533   1.109
 8855SOL    HW127464   5.619   5.435   1.089
 8855SOL    HW227465   5.698   5.571   1.133
 8856SOL     OW27466   0.269   6.220   5.349
 8856SOL    HW127467   0.205   6.296   5.365
 8856SOL    HW227468   0.222   6.133   5.364
 8857SOL     OW27469   6.490   1.679   5.739
 8857SOL    HW127470   6.479   1.730   5.825
 8857SOL    HW227471   6.529   1.588   5.760
 8858SOL     OW27472   6.794   5.355   4.207
 8858SOL    HW127473   6.864   5.323   4.142
 8858SOL    HW227474   6.838   5.409   4.279
 8859SOL     OW27475   1.053   7.000   3.962
 8859SOL    HW127476   1.022   7.019   3.869
 8859SOL    HW227477   1.005   0.034   4.026
 8860SOL     OW27478   0.454   3.332   2.206
 8860SOL    HW127479   0.496   3.420   2.180
 8860SOL    HW227480   0.410   3.292   2.126
 8861SOL     OW27481   4.534   2.680   1.383
 8861SOL    HW127482   4.611   2.727   1.427
 8861SOL    HW227483   4.454   2.683   1.444
 8862SOL     OW27484   4.590   4.871   4.725
 8862SOL    HW127485   4.683   4.880   4.760
 8862SOL    HW227486   4.566   4.774   4.720
 8863SOL     OW27487   2.255   4.080   3.397
 8863SOL    HW127488   2.313   4.137   3.456
 8863SOL    HW227489   2.224   4.000   3.448
 8864SOL     OW27490   6.131   1.673   4.994
 8864SOL    HW127491   6.192   1.596   5.015
 8864SOL    HW227492   6.171   1.757   5.029
 8865SOL     OW27493   2.285   1.480   6.664
 8865SOL    HW127494   2.189   1.504   6.680
 8865SOL    HW227495   2.332   1.472   6.752
 8866SOL     OW27496   5.903   6.366   1.901
 8866SOL    HW127497   5.809   6.399   1.908
 8866SOL    HW227498   5.922   6.336   1.808
 8867SOL     OW27499   6.170   4.316   2.946
 8867SOL    HW127500   6.257   4.285   2.984
 8867SOL    HW227501   6.178   4.411   2.917
 8868SOL     OW27502   0.126   3.185   3.674
 8868SOL    HW127503   0.177   3.108   3.636
 8868SOL    HW227504   0.039   3.153   3.712
 8869SOL     OW27505   3.652   6.836   3.011
 8869SOL    HW127506   3.715   6.913   3.027
 8869SOL    HW227507   3.591   6.826   3.090
 8870SOL     OW27508   1.289   0.985   3.605
 8870SOL    HW127509   1.231   1.062   3.578
 8870SOL    HW227510   1.332   1.005   3.693
 8871SOL     OW27511   0.090   0.971   2.868
 8871SOL    HW127512   0.125   1.055   2.826
 8871SOL    HW227513   0.158   0.898   2.858
 8872SOL     OW27514   0.008   5.038   4.613
 8872SOL    HW127515   0.074   5.113   4.614
 8872SOL    HW227516   0.048   4.957   4.656
 8873SOL     OW27517   2.171   1.112   2.738
 8873SOL    HW127518   2.111   1.144   2.812
 8873SOL    HW227519   2.150   1.162   2.654
 8874SOL     OW27520   3.390   6.536   0.644
 8874SOL    HW127521   3.333   6.601   0.594
 8874SOL    HW227522   3.486   6.562   0.634
 8875SOL     OW27523   6.819   3.158   3.978
 8875SOL    HW127524   6.858   3.129   3.891
 8875SOL    HW227525   6.811   3.258   3.980
 8876SOL     OW27526   3.779   0.451   6.352
 8876SOL    HW127527   3.820   0.528   6.302
 8876SOL    HW227528   3.699   0.417   6.303
 8877SOL     OW27529   1.494   4.323   1.311
 8877SOL    HW127530   1.395   4.333   1.319
 8877SOL    HW227531   1.539   4.407   1.339
 8878SOL     OW27532   5.124   3.856   0.855
 8878SOL    HW127533   5.039   3.843   0.804
 8878SOL    HW227534   5.197   3.803   0.812
 8879SOL     OW27535   5.784   4.926   3.072
 8879SOL    HW127536   5.742   5.008   3.034
 8879SOL    HW227537   5.836   4.879   3.000
 8880SOL     OW27538   4.061   1.100   4.334
 8880SOL    HW127539   4.052   1.034   4.409
 8880SOL    HW227540   4.081   1.191   4.373
 8881SOL     OW27541   4.121   5.124   4.457
 8881SOL    HW127542   4.029   5.125   4.495
 8881SOL    HW227543   4.178   5.189   4.507
 8882SOL     OW27544   4.447   0.072   0.637
 8882SOL    HW127545   4.412   0.096   0.728
 8882SOL    HW227546   4.539   0.033   0.646
 8883SOL     OW27547   6.671   6.158   4.773
 8883SOL    HW127548   6.628   6.069   4.759
 8883SOL    HW227549   6.656   6.215   4.692
 8884SOL     OW27550   5.213   3.486   5.240
 8884SOL    HW127551   5.136   3.519   5.185
 8884SOL    HW227552   5.247   3.400   5.202
 8885SOL     OW27553   6.386   6.001   0.612
 8885SOL    HW127554   6.415   6.060   0.537
 8885SOL    HW227555   6.458   5.934   0.632
 8886SOL     OW27556   4.272   5.913   6.213
 8886SOL    HW127557   4.323   5.957   6.286
 8886SOL    HW227558   4.252   5.981   6.141
 8887SOL     OW27559   4.732   0.916   1.606
 8887SOL    HW127560   4.648   0.874   1.640
 8887SOL    HW227561   4.805   0.902   1.672
 8888SOL     OW27562   2.497   1.930   2.842
 8888SOL    HW127563   2.494   2.028   2.821
 8888SOL    HW227564   2.538   1.881   2.766
 8889SOL     OW27565   1.023   6.055   6.525
 8889SOL    HW127566   1.053   6.146   6.498
 8889SOL    HW227567   0.964   6.016   6.454
 8890SOL     OW27568   0.297   6.578   0.262
 8890SOL    HW127569   0.390   6.549   0.242
 8890SOL    HW227570   0.262   6.528   0.341
 8891SOL     OW27571   6.197   3.768   6.859
 8891SOL    HW127572   6.273   3.812   6.812
 8891SOL    HW227573   6.170   3.823   6.939
 8892SOL     OW27574   3.550   4.920   4.100
 8892SOL    HW127575   3.565   4.994   4.035
 8892SOL    HW227576   3.599   4.940   4.185
 8893SOL     OW27577   1.158   5.107   4.359
 8893SOL    HW127578   1.212   5.141   4.437
 8893SOL    HW227579   1.215   5.049   4.301
 8894SOL     OW27580   4.779   1.811   0.542
 8894SOL    HW127581   4.846   1.739   0.524
 8894SOL    HW227582   4.690   1.782   0.507
 8895SOL     OW27583   0.026   3.775   0.722
 8895SOL    HW127584   0.113   3.727   0.729
 8895SOL    HW227585   0.029   3.838   0.644
 8896SOL     OW27586   0.212   2.705   4.964
 8896SOL    HW127587   0.118   2.738   4.950
 8896SOL    HW227588   0.241   2.654   4.883
 8897SOL     OW27589   2.019   3.908   3.804
 8897SOL    HW127590   1.954   3.982   3.789
 8897SOL    HW227591   1.980   3.822   3.770
 8898SOL     OW27592   4.589   4.410   2.754
 8898SOL    HW127593   4.655   4.364   2.814
 8898SOL    HW227594   4.519   4.454   2.809
 8899SOL     OW27595   0.904   3.600   4.637
 8899SOL    HW127596   0.908   3.524   4.701
 8899SOL    HW227597   0.843   3.576   4.561
 8900SOL     OW27598   4.750   2.686   3.721
 8900SOL    HW127599   4.815   2.723   3.654
 8900SOL    HW227600   4.688   2.623   3.675
 8901SOL     OW27601   1.482   3.462   4.701
 8901SOL    HW127602   1.387   3.432   4.693
 8901SOL    HW227603   1.487   3.547   4.753
 8902SOL     OW27604   0.497   4.799   0.437
 8902SOL    HW127605   0.466   4.886   0.474
 8902SOL    HW227606   0.519   4.737   0.513
 8903SOL     OW27607   1.318   6.749   5.413
 8903SOL    HW127608   1.274   6.666   5.447
 8903SOL    HW227609   1.389   6.724   5.347
 8904SOL     OW27610   0.337   0.608   3.110
 8904SOL    HW127611   0.296   0.638   3.197
 8904SOL    HW227612   0.292   0.655   3.034
 8905SOL     OW27613   1.337   3.674   2.410
 8905SOL    HW127614   1.336   3.648   2.313
 8905SOL    HW227615   1.340   3.592   2.467
 8906SOL     OW27616   6.326   0.199   0.591
 8906SOL    HW127617   6.304   0.252   0.509
 8906SOL    HW227618   6.425   0.192   0.601
 8907SOL     OW27619   2.900   3.245   5.123
 8907SOL    HW127620   2.932   3.181   5.193
 8907SOL    HW227621   2.801   3.236   5.112
 8908SOL     OW27622   1.359   5.260   0.070
 8908SOL    HW127623   1.400   5.303   7.016
 8908SOL    HW227624   1.292   5.322   0.110
 8909SOL     OW27625   2.565   6.768   0.427
 8909SOL    HW127626   2.473   6.728   0.427
 8909SOL    HW227627   2.558   6.865   0.402
 8910SOL     OW27628   2.472   0.822   3.758
 8910SOL    HW127629   2.447   0.824   3.662
 8910SOL    HW227630   2.438   0.905   3.804
 8911SOL     OW27631   4.408   2.136   3.858
 8911SOL    HW127632   4.500   2.174   3.844
 8911SOL    HW227633   4.384   2.078   3.780
 8912SOL     OW27634   3.775   3.703   4.587
 8912SOL    HW127635   3.681   3.670   4.592
 8912SOL    HW227636   3.801   3.744   4.674
 8913SOL     OW27637   5.326   6.767   6.524
 8913SOL    HW127638   5.339   6.668   6.526
 8913SOL    HW227639   5.323   6.802   6.618
 8914SOL     OW27640   4.353   5.447   6.470
 8914SOL    HW127641   4.449   5.447   6.443
 8914SOL    HW227642   4.318   5.541   6.466
 8915SOL     OW27643   1.295   1.705   3.641
 8915SOL    HW127644   1.347   1.646   3.703
 8915SOL    HW227645   1.351   1.724   3.560
 8916SOL     OW27646   4.252   1.395   0.348
 8916SOL    HW127647   4.292   1.374   0.259
 8916SOL    HW227648   4.171   1.340   0.363
 8917SOL     OW27649   5.652   1.836   0.435
 8917SOL    HW127650   5.719   1.762   0.435
 8917SOL    HW227651   5.601   1.835   0.521
 8918SOL     OW27652   1.059   3.640   2.875
 8918SOL    HW127653   1.066   3.719   2.936
 8918SOL    HW227654   1.151   3.604   2.857
 8919SOL     OW27655   6.316   3.722   1.394
 8919SOL    HW127656   6.318   3.627   1.362
 8919SOL    HW227657   6.393   3.737   1.456
 8920SOL     OW27658   6.477   1.854   6.930
 8920SOL    HW127659   6.542   1.911   6.880
 8920SOL    HW227660   6.528   1.786   6.984
 8921SOL     OW27661   2.047   2.866   2.144
 8921SOL    HW127662   2.058   2.932   2.219
 8921SOL    HW227663   2.114   2.886   2.073
 8922SOL     OW27664   3.549   6.630   3.390
 8922SOL    HW127665   3.571   6.675   3.477
 8922SOL    HW227666   3.630   6.581   3.357
 8923SOL     OW27667   1.858   2.283   4.710
 8923SOL    HW127668   1.886   2.336   4.630
 8923SOL    HW227669   1.815   2.344   4.777
 8924SOL     OW27670   5.447   5.633   5.001
 8924SOL    HW127671   5.384   5.583   5.060
 8924SOL    HW227672   5.541   5.618   5.032
 8925SOL     OW27673   1.402   6.702   3.066
 8925SOL    HW127674   1.393   6.630   2.997
 8925SOL    HW227675   1.321   6.703   3.124
 8926SOL     OW27676   5.675   2.545   6.427
 8926SOL    HW127677   5.724   2.554   6.341
 8926SOL    HW227678   5.618   2.625   6.442
 8927SOL     OW27679   1.075   1.175   5.878
 8927SOL    HW127680   1.048   1.132   5.792
 8927SOL    HW227681   1.021   1.257   5.893
 8928SOL     OW27682   1.517   6.707   5.207
 8928SOL    HW127683   1.537   6.715   5.110
 8928SOL    HW227684   1.601   6.686   5.257
 8929SOL     OW27685   6.912   3.117   4.614
 8929SOL    HW127686   6.846   3.042   4.619
 8929SOL    HW227687   6.865   3.201   4.590
 8930SOL     OW27688   2.031   4.449   3.466
 8930SOL    HW127689   2.115   4.456   3.519
 8930SOL    HW227690   2.051   4.462   3.369
 8931SOL     OW27691   4.047   2.225   1.469
 8931SOL    HW127692   3.994   2.242   1.552
 8931SOL    HW227693   4.134   2.273   1.475
 8932SOL     OW27694   0.225   2.935   3.483
 8932SOL    HW127695   0.249   3.005   3.416
 8932SOL    HW227696   0.306   2.911   3.536
 8933SOL     OW27697   3.557   1.871   5.557
 8933SOL    HW127698   3.478   1.811   5.542
 8933SOL    HW227699   3.637   1.815   5.579
 8934SOL     OW27700   3.381   5.718   3.176
 8934SOL    HW127701   3.429   5.730   3.089
 8934SOL    HW227702   3.338   5.805   3.202
 8935SOL     OW27703   0.317   4.533   1.365
 8935SOL    HW127704   0.398   4.479   1.387
 8935SOL    HW227705   0.342   4.630   1.357
 8936SOL     OW27706   2.007   2.525   0.624
 8936SOL    HW127707   2.087   2.531   0.682
 8936SOL    HW227708   1.959   2.613   0.623
 8937SOL     OW27709   0.841   5.820   5.287
 8937SOL    HW127710   0.913   5.860   5.344
 8937SOL    HW227711   0.752   5.850   5.320
 8938SOL     OW27712   5.939   5.525   1.311
 8938SOL    HW127713   6.001   5.564   1.379
 8938SOL    HW227714   5.865   5.477   1.358
 8939SOL     OW27715   5.122   1.989   4.493
 8939SOL    HW127716   5.116   2.057   4.419
 8939SOL    HW227717   5.044   1.999   4.554
 8940SOL     OW27718   5.701   0.577   3.045
 8940SOL    HW127719   5.775   0.644   3.050
 8940SOL    HW227720   5.734   0.493   3.002
 8941SOL     OW27721   5.373   2.402   5.960
 8941SOL    HW127722   5.449   2.422   5.899
 8941SOL    HW227723   5.403   2.342   6.035
 8942SOL     OW27724   0.585   2.306   5.534
 8942SOL    HW127725   0.570   2.359   5.451
 8942SOL    HW227726   0.670   2.334   5.578
 8943SOL     OW27727   5.396   4.113   1.218
 8943SOL    HW127728   5.443   4.101   1.130
 8943SOL    HW227729   5.297   4.113   1.203
 8944SOL     OW27730   4.506   5.709   0.606
 8944SOL    HW127731   4.439   5.700   0.679
 8944SOL    HW227732   4.461   5.737   0.521
 8945SOL     OW27733   2.324   1.234   4.330
 8945SOL    HW127734   2.374   1.242   4.244
 8945SOL    HW227735   2.301   1.325   4.365
 8946SOL     OW27736   3.309   1.790   4.248
 8946SOL    HW127737   3.336   1.701   4.212
 8946SOL    HW227738   3.228   1.823   4.199
 8947SOL     OW27739   4.617   4.184   5.397
 8947SOL    HW127740   4.627   4.207   5.494
 8947SOL    HW227741   4.536   4.228   5.360
 8948SOL     OW27742   6.218   5.370   3.117
 8948SOL    HW127743   6.237   5.384   3.215
 8948SOL    HW227744   6.120   5.377   3.101
 8949SOL     OW27745   2.168   6.074   6.934
 8949SOL    HW127746   2.224   6.002   6.974
 8949SOL    HW227747   2.222   6.127   6.868
 8950SOL     OW27748   4.689   2.605   4.407
 8950SOL    HW127749   4.674   2.685   4.349
 8950SOL    HW227750   4.603   2.554   4.415
 8951SOL     OW27751   1.795   2.326   5.460
 8951SOL    HW127752   1.798   2.258   5.387
 8951SOL    HW227753   1.799   2.280   5.549
 8952SOL     OW27754   0.166   1.057   2.330
 8952SOL    HW127755   0.073   1.041   2.362
 8952SOL    HW227756   0.167   1.063   2.230
 8953SOL     OW27757   1.219   3.222   7.009
 8953SOL    HW127758   1.240   3.216   0.080
 8953SOL    HW227759   1.145   3.160   6.986
 8954SOL     OW27760   1.965   6.095   6.259
 8954SOL    HW127761   1.867   6.093   6.279
 8954SOL    HW227762   2.003   6.002   6.266
 8955SOL     OW27763   6.637   3.943   3.525
 8955SOL    HW127764   6.542   3.920   3.547
 8955SOL    HW227765   6.640   4.028   3.474
 8956SOL     OW27766   1.334   0.856   5.908
 8956SOL    HW127767   1.418   0.811   5.878
 8956SOL    HW227768   1.317   0.936   5.849
 8957SOL     OW27769   3.031   5.031   2.365
 8957SOL    HW127770   2.965   5.082   2.419
 8957SOL    HW227771   3.000   4.936   2.357
 8958SOL     OW27772   1.886   6.655   4.527
 8958SOL    HW127773   1.855   6.605   4.608
 8958SOL    HW227774   1.984   6.639   4.514
 8959SOL     OW27775   1.707   4.669   0.423
 8959SOL    HW127776   1.742   4.723   0.500
 8959SOL    HW227777   1.715   4.571   0.445
 8960SOL     OW27778   3.606   5.710   1.000
 8960SOL    HW127779   3.586   5.690   0.904
 8960SOL    HW227780   3.627   5.625   1.049
 8961SOL     OW27781   0.888   1.840   3.533
 8961SOL    HW127782   0.859   1.905   3.462
 8961SOL    HW227783   0.949   1.772   3.494
 8962SOL     OW27784   5.785   0.418   3.425
 8962SOL    HW127785   5.771   0.335   3.480
 8962SOL    HW227786   5.873   0.459   3.448
 8963SOL     OW27787   6.196   1.115   4.100
 8963SOL    HW127788   6.201   1.048   4.025
 8963SOL    HW227789   6.286   1.125   4.141
 8964SOL     OW27790   5.511   5.120   2.704
 8964SOL    HW127791   5.470   5.190   2.645
 8964SOL    HW227792   5.499   5.030   2.661
 8965SOL     OW27793   1.466   5.179   1.923
 8965SOL    HW127794   1.482   5.203   2.019
 8965SOL    HW227795   1.534   5.224   1.866
 8966SOL     OW27796   2.423   2.798   5.785
 8966SOL    HW127797   2.328   2.799   5.819
 8966SOL    HW227798   2.478   2.739   5.844
 8967SOL     OW27799   4.451   0.204   0.088
 8967SOL    HW127800   4.523   0.152   0.134
 8967SOL    HW227801   4.364   0.191   0.135
 8968SOL     OW27802   4.729   5.575   1.678
 8968SOL    HW127803   4.725   5.673   1.700
 8968SOL    HW227804   4.657   5.527   1.728
 8969SOL     OW27805   6.454   0.922   4.151
 8969SOL    HW127806   6.538   0.960   4.112
 8969SOL    HW227807   6.443   0.952   4.245
 8970SOL     OW27808   3.495   1.780   1.870
 8970SOL    HW127809   3.564   1.850   1.849
 8970SOL    HW227810   3.485   1.771   1.969
 8971SOL     OW27811   4.188   5.475   2.253
 8971SOL    HW127812   4.160   5.394   2.306
 8971SOL    HW227813   4.128   5.485   2.173
 8972SOL     OW27814   5.443   0.517   4.964
 8972SOL    HW127815   5.379   0.453   5.006
 8972SOL    HW227816   5.428   0.609   5.000
 8973SOL     OW27817   1.541   5.112   0.217
 8973SOL    HW127818   1.614   5.062   0.172
 8973SOL    HW227819   1.471   5.137   0.150
 8974SOL     OW27820   0.576   3.545   4.915
 8974SOL    HW127821   0.555   3.614   4.846
 8974SOL    HW227822   0.663   3.502   4.893
 8975SOL     OW27823   2.811   6.825   0.595
 8975SOL    HW127824   2.767   6.805   0.508
 8975SOL    HW227825   2.751   6.795   0.670
 8976SOL     OW27826   1.378   5.455   4.102
 8976SOL    HW127827   1.375   5.379   4.037
 8976SOL    HW227828   1.315   5.527   4.071
 8977SOL     OW27829   6.430   1.350   6.212
 8977SOL    HW127830   6.480   1.406   6.279
 8977SOL    HW227831   6.363   1.406   6.164
 8978SOL     OW27832   5.984   6.780   0.503
 8978SOL    HW127833   5.909   6.812   0.445
 8978SOL    HW227834   5.948   6.745   0.589
 8979SOL     OW27835   1.933   3.998   4.813
 8979SOL    HW127836   1.940   4.079   4.871
 8979SOL    HW227837   1.843   3.996   4.770
 8980SOL     OW27838   3.760   2.923   4.268
 8980SOL    HW127839   3.749   2.900   4.365
 8980SOL    HW227840   3.853   2.955   4.252
 8981SOL     OW27841   3.874   1.810   5.213
 8981SOL    HW127842   3.912   1.721   5.188
 8981SOL    HW227843   3.934   1.854   5.280
 8982SOL     OW27844   2.682   4.588   0.630
 8982SOL    HW127845   2.632   4.659   0.680
 8982SOL    HW227846   2.735   4.532   0.695
 8983SOL     OW27847   4.559   5.406   0.269
 8983SOL    HW127848   4.567   5.332   0.203
 8983SOL    HW227849   4.644   5.459   0.270
 8984SOL     OW27850   1.795   5.731   3.311
 8984SOL    HW127851   1.851   5.813   3.299
 8984SOL    HW227852   1.700   5.759   3.328
 8985SOL     OW27853   3.969   3.094   6.541
 8985SOL    HW127854   4.050   3.141   6.505
 8985SOL    HW227855   3.938   3.026   6.475
 8986SOL     OW27856   3.834   5.170   2.805
 8986SOL    HW127857   3.848   5.244   2.739
 8986SOL    HW227858   3.736   5.148   2.810
 8987SOL     OW27859   5.656   6.413   1.933
 8987SOL    HW127860   5.626   6.370   2.019
 8987SOL    HW227861   5.583   6.405   1.865
 8988SOL     OW27862   0.628   5.371   4.588
 8988SOL    HW127863   0.663   5.308   4.657
 8988SOL    HW227864   0.531   5.387   4.604
 8989SOL     OW27865   3.946   2.914   6.359
 8989SOL    HW127866   3.977   2.908   6.264
 8989SOL    HW227867   3.954   2.824   6.402
 8990SOL     OW27868   6.827   5.400   3.501
 8990SOL    HW127869   6.750   5.337   3.508
 8990SOL    HW227870   6.793   5.494   3.508
 8991SOL     OW27871   1.373   2.381   5.131
 8991SOL    HW127872   1.458   2.329   5.133
 8991SOL    HW227873   1.373   2.448   5.206
 8992SOL     OW27874   5.964   2.027   6.824
 8992SOL    HW127875   5.933   2.114   6.785
 8992SOL    HW227876   5.885   1.966   6.834
 8993SOL     OW27877   4.952   2.458   6.526
 8993SOL    HW127878   4.957   2.435   6.429
 8993SOL    HW227879   5.040   2.439   6.569
 8994SOL     OW27880   1.682   5.078   4.319
 8994SOL    HW127881   1.724   5.069   4.410
 8994SOL    HW227882   1.594   5.030   4.319
 8995SOL     OW27883   6.989   1.800   1.195
 8995SOL    HW127884   0.002   1.708   1.203
 8995SOL    HW227885   6.946   1.824   1.282
 8996SOL     OW27886   4.937   4.789   6.060
 8996SOL    HW127887   4.896   4.875   6.027
 8996SOL    HW227888   4.864   4.724   6.082
 8997SOL     OW27889   4.886   1.388   4.710
 8997SOL    HW127890   4.941   1.317   4.666
 8997SOL    HW227891   4.793   1.385   4.673
 8998SOL     OW27892   6.204   4.000   4.434
 8998SOL    HW127893   6.243   4.053   4.359
 8998SOL    HW227894   6.138   3.935   4.398
 8999SOL     OW27895   4.726   6.651   5.821
 8999SOL    HW127896   4.740   6.633   5.919
 8999SOL    HW227897   4.756   6.744   5.800
 9000SOL     OW27898   1.791   4.125   1.596
 9000SOL    HW127899   1.851   4.141   1.674
 9000SOL    HW227900   1.807   4.194   1.526
 9001SOL     OW27901   0.732   4.806   2.101
 9001SOL    HW127902   0.747   4.838   2.195
 9001SOL    HW227903   0.714   4.708   2.102
 9002SOL     OW27904   1.200   4.587   6.317
 9002SOL    HW127905   1.114   4.540   6.299
 9002SOL    HW227906   1.182   4.678   6.356
 9003SOL     OW27907   5.843   1.354   1.498
 9003SOL    HW127908   5.837   1.279   1.564
 9003SOL    HW227909   5.778   1.337   1.423
 9004SOL     OW27910   4.123   4.534   0.608
 9004SOL    HW127911   4.144   4.562   0.514
 9004SOL    HW227912   4.124   4.613   0.668
 9005SOL     OW27913   5.707   1.011   5.645
 9005SOL    HW127914   5.762   1.013   5.561
 9005SOL    HW227915   5.709   1.100   5.689
 9006SOL     OW27916   3.583   6.864   0.689
 9006SOL    HW127917   3.498   6.894   0.732
 9006SOL    HW227918   3.568   6.775   0.646
 9007SOL     OW27919   2.624   1.322   2.762
 9007SOL    HW127920   2.692   1.252   2.783
 9007SOL    HW227921   2.596   1.367   2.847
 9008SOL     OW27922   0.536   5.883   3.070
 9008SOL    HW127923   0.621   5.830   3.077
 9008SOL    HW227924   0.475   5.856   3.145
 9009SOL     OW27925   4.249   5.614   0.235
 9009SOL    HW127926   4.315   5.650   0.300
 9009SOL    HW227927   4.285   5.624   0.142
 9010SOL     OW27928   1.789   6.697   4.265
 9010SOL    HW127929   1.814   6.612   4.219
 9010SOL    HW227930   1.828   6.698   4.358
 9011SOL     OW27931   4.289   0.926   2.963
 9011SOL    HW127932   4.209   0.983   2.982
 9011SOL    HW227933   4.355   0.935   3.038
 9012SOL     OW27934   1.927   5.973   6.982
 9012SOL    HW127935   1.875   6.058   6.974
 9012SOL    HW227936   2.025   5.993   6.978
 9013SOL     OW27937   1.813   6.405   4.167
 9013SOL    HW127938   1.888   6.353   4.208
 9013SOL    HW227939   1.726   6.364   4.194
 9014SOL     OW27940   5.849   2.216   2.382
 9014SOL    HW127941   5.947   2.232   2.395
 9014SOL    HW227942   5.823   2.130   2.426
 9015SOL     OW27943   5.583   1.750   0.692
 9015SOL    HW127944   5.677   1.718   0.708
 9015SOL    HW227945   5.564   1.828   0.751
 9016SOL     OW27946   5.513   5.294   5.896
 9016SOL    HW127947   5.523   5.239   5.979
 9016SOL    HW227948   5.439   5.360   5.909
 9017SOL     OW27949   3.436   0.474   5.021
 9017SOL    HW127950   3.430   0.377   5.044
 9017SOL    HW227951   3.362   0.524   5.065
 9018SOL     OW27952   4.163   3.251   6.414
 9018SOL    HW127953   4.201   3.162   6.390
 9018SOL    HW227954   4.225   3.299   6.477
 9019SOL     OW27955   0.537   2.756   3.370
 9019SOL    HW127956   0.440   2.737   3.351
 9019SOL    HW227957   0.544   2.816   3.450
 9020SOL     OW27958   6.034   6.237   2.108
 9020SOL    HW127959   5.994   6.294   2.037
 9020SOL    HW227960   5.995   6.145   2.103
 9021SOL     OW27961   6.827   0.754   3.838
 9021SOL    HW127962   6.926   0.750   3.831
 9021SOL    HW227963   6.801   0.767   3.934
 9022SOL     OW27964   4.278   2.761   6.506
 9022SOL    HW127965   4.224   2.679   6.523
 9022SOL    HW227966   4.263   2.826   6.580
 9023SOL     OW27967   4.812   3.407   0.829
 9023SOL    HW127968   4.783   3.316   0.798
 9023SOL    HW227969   4.744   3.475   0.801
 9024SOL     OW27970   1.623   5.062   6.322
 9024SOL    HW127971   1.566   4.998   6.271
 9024SOL    HW227972   1.688   5.105   6.259
 9025SOL     OW27973   0.574   5.772   1.065
 9025SOL    HW127974   0.572   5.675   1.090
 9025SOL    HW227975   0.493   5.794   1.010
 9026SOL     OW27976   3.800   1.762   0.306
 9026SOL    HW127977   3.753   1.714   0.380
 9026SOL    HW227978   3.891   1.723   0.294
 9027SOL     OW27979   0.317   3.721   3.810
 9027SOL    HW127980   0.228   3.767   3.809
 9027SOL    HW227981   0.372   3.753   3.733
 9028SOL     OW27982   3.482   4.084   5.536
 9028SOL    HW127983   3.386   4.111   5.535
 9028SOL    HW227984   3.540   4.164   5.519
 9029SOL     OW27985   3.992   6.718   4.869
 9029SOL    HW127986   3.955   6.802   4.830
 9029SOL    HW227987   4.047   6.740   4.949
 9030SOL     OW27988   2.511   1.847   3.615
 9030SOL    HW127989   2.537   1.889   3.527
 9030SOL    HW227990   2.565   1.888   3.688
 9031SOL     OW27991   4.519   0.304   4.416
 9031SOL    HW127992   4.421   0.285   4.417
 9031SOL    HW227993   4.558   0.276   4.328
 9032SOL     OW27994   4.421   3.645   1.627
 9032SOL    HW127995   4.378   3.718   1.680
 9032SOL    HW227996   4.484   3.594   1.686
 9033SOL     OW27997   1.506   5.739   3.372
 9033SOL    HW127998   1.409   5.721   3.356
 9033SOL    HW227999   1.548   5.661   3.418
 9034SOL     OW28000   3.253   6.270   4.577
 9034SOL    HW128001   3.328   6.297   4.517
 9034SOL    HW228002   3.198   6.198   4.534
 9035SOL     OW28003   1.273   5.047   0.795
 9035SOL    HW128004   1.215   5.016   0.870
 9035SOL    HW228005   1.293   5.144   0.807
 9036SOL     OW28006   1.294   3.592   5.823
 9036SOL    HW128007   1.350   3.595   5.906
 9036SOL    HW228008   1.242   3.507   5.821
 9037SOL     OW28009   0.527   2.119   2.648
 9037SOL    HW128010   0.605   2.167   2.689
 9037SOL    HW228011   0.485   2.176   2.578
 9038SOL     OW28012   4.161   2.645   6.265
 9038SOL    HW128013   4.208   2.628   6.179
 9038SOL    HW228014   4.217   2.705   6.322
 9039SOL     OW28015   3.550   5.435   6.985
 9039SOL    HW128016   3.498   5.414   6.902
 9039SOL    HW228017   3.503   5.397   0.038
 9040SOL     OW28018   1.792   2.077   1.172
 9040SOL    HW128019   1.859   2.150   1.170
 9040SOL    HW228020   1.704   2.113   1.203
 9041SOL     OW28021   0.033   2.408   0.856
 9041SOL    HW128022   6.965   2.377   0.861
 9041SOL    HW228023   0.041   2.499   0.898
 9042SOL     OW28024   3.860   5.824   6.129
 9042SOL    HW128025   3.876   5.725   6.125
 9042SOL    HW228026   3.933   5.868   6.181
 9043SOL     OW28027   2.924   1.496   0.383
 9043SOL    HW128028   2.848   1.446   0.342
 9043SOL    HW228029   2.943   1.577   0.328
 9044SOL     OW28030   0.737   0.469   6.422
 9044SOL    HW128031   0.638   0.453   6.419
 9044SOL    HW228032   0.766   0.516   6.339
 9045SOL     OW28033   4.452   0.159   3.124
 9045SOL    HW128034   4.428   0.103   3.045
 9045SOL    HW228035   4.417   0.252   3.111
 9046SOL     OW28036   2.972   3.860   2.778
 9046SOL    HW128037   2.881   3.849   2.738
 9046SOL    HW228038   3.025   3.926   2.724
 9047SOL     OW28039   1.185   4.350   6.026
 9047SOL    HW128040   1.236   4.289   5.966
 9047SOL    HW228041   1.152   4.299   6.106
 9048SOL     OW28042   6.366   1.773   5.976
 9048SOL    HW128043   6.344   1.739   6.068
 9048SOL    HW228044   6.304   1.848   5.953
 9049SOL     OW28045   3.238   6.609   6.204
 9049SOL    HW128046   3.316   6.575   6.151
 9049SOL    HW228047   3.191   6.681   6.151
 9050SOL     OW28048   0.511   4.843   1.560
 9050SOL    HW128049   0.573   4.892   1.621
 9050SOL    HW228050   0.450   4.784   1.613
 9051SOL     OW28051   2.343   2.088   0.682
 9051SOL    HW128052   2.251   2.077   0.643
 9051SOL    HW228053   2.371   2.002   0.725
 9052SOL     OW28054   1.471   3.185   4.980
 9052SOL    HW128055   1.386   3.237   4.976
 9052SOL    HW228056   1.541   3.238   5.026
 9053SOL     OW28057   1.469   1.653   1.105
 9053SOL    HW128058   1.552   1.608   1.074
 9053SOL    HW228059   1.412   1.678   1.026
 9054SOL     OW28060   2.337   5.844   3.524
 9054SOL    HW128061   2.310   5.823   3.430
 9054SOL    HW228062   2.257   5.873   3.576
 9055SOL     OW28063   0.398   4.023   4.613
 9055SOL    HW128064   0.382   4.113   4.655
 9055SOL    HW228065   0.387   3.952   4.682
 9056SOL     OW28066   6.580   1.817   2.584
 9056SOL    HW128067   6.548   1.731   2.624
 9056SOL    HW228068   6.629   1.870   2.654
 9057SOL     OW28069   4.515   1.601   4.081
 9057SOL    HW128070   4.588   1.551   4.127
 9057SOL    HW228071   4.435   1.606   4.140
 9058SOL     OW28072   2.054   0.727   6.538
 9058SOL    HW128073   2.147   0.712   6.572
 9058SOL    HW228074   2.053   0.806   6.477
 9059SOL     OW28075   1.544   1.758   2.200
 9059SOL    HW128076   1.559   1.797   2.290
 9059SOL    HW228077   1.629   1.764   2.147
 9060SOL     OW28078   5.544   2.811   4.859
 9060SOL    HW128079   5.461   2.776   4.903
 9060SOL    HW228080   5.566   2.754   4.780
 9061SOL     OW28081   5.251   5.801   2.517
 9061SOL    HW128082   5.302   5.766   2.595
 9061SOL    HW228083   5.227   5.725   2.456
 9062SOL     OW28084   1.452   5.359   1.293
 9062SOL    HW128085   1.550   5.376   1.280
 9062SOL    HW228086   1.413   5.433   1.348
 9063SOL     OW28087   3.384   2.135   2.534
 9063SOL    HW128088   3.374   2.124   2.435
 9063SOL    HW228089   3.339   2.220   2.563
 9064SOL     OW28090   6.422   3.293   0.029
 9064SOL    HW128091   6.496   3.360   0.024
 9064SOL    HW228092   6.441   3.216   6.995
 9065SOL     OW28093   2.203   1.169   0.794
 9065SOL    HW128094   2.223   1.252   0.741
 9065SOL    HW228095   2.225   1.088   0.739
 9066SOL     OW28096   4.422   6.744   6.971
 9066SOL    HW128097   4.475   6.706   0.020
 9066SOL    HW228098   4.369   6.823   7.002
 9067SOL     OW28099   1.767   0.005   3.623
 9067SOL    HW128100   1.673   6.998   3.629
 9067SOL    HW228101   1.803   0.018   3.716
 9068SOL     OW28102   2.012   5.785   6.777
 9068SOL    HW128103   1.959   5.823   6.701
 9068SOL    HW228104   1.984   5.829   6.862
 9069SOL     OW28105   1.754   2.284   6.559
 9069SOL    HW128106   1.750   2.383   6.575
 9069SOL    HW228107   1.780   2.267   6.463
 9070SOL     OW28108   1.396   4.506   3.866
 9070SOL    HW128109   1.446   4.486   3.781
 9070SOL    HW228110   1.345   4.591   3.855
 9071SOL     OW28111   6.073   6.768   6.756
 9071SOL    HW128112   6.002   6.828   6.792
 9071SOL    HW228113   6.050   6.743   6.662
 9072SOL     OW28114   5.827   4.328   6.526
 9072SOL    HW128115   5.818   4.287   6.617
 9072SOL    HW228116   5.747   4.305   6.471
 9073SOL     OW28117   2.088   0.504   1.617
 9073SOL    HW128118   2.019   0.453   1.564
 9073SOL    HW228119   2.042   0.566   1.680
 9074SOL     OW28120   1.331   7.011   3.044
 9074SOL    HW128121   1.352   6.919   3.079
 9074SOL    HW228122   1.409   0.020   2.994
 9075SOL     OW28123   6.862   1.138   2.592
 9075SOL    HW128124   6.858   1.038   2.603
 9075SOL    HW228125   6.944   1.173   2.636
 9076SOL     OW28126   6.664   1.464   5.825
 9076SOL    HW128127   6.731   1.433   5.892
 9076SOL    HW228128   6.690   1.432   5.734
 9077SOL     OW28129   6.144   6.637   2.252
 9077SOL    HW128130   6.108   6.622   2.159
 9077SOL    HW228131   6.221   6.575   2.269
 9078SOL     OW28132   3.847   3.042   5.120
 9078SOL    HW128133   3.867   3.019   5.025
 9078SOL    HW228134   3.896   3.126   5.145
 9079SOL     OW28135   3.824   0.721   5.844
 9079SOL    HW128136   3.886   0.646   5.862
 9079SOL    HW228137   3.761   0.732   5.921
 9080SOL     OW28138   5.091   1.884   0.696
 9080SOL    HW128139   5.170   1.924   0.649
 9080SOL    HW228140   5.011   1.887   0.636
 9081SOL     OW28141   5.560   6.921   2.055
 9081SOL    HW128142   5.639   6.944   2.112
 9081SOL    HW228143   5.588   6.857   1.983
 9082SOL     OW28144   3.526   1.491   3.459
 9082SOL    HW128145   3.593   1.536   3.517
 9082SOL    HW228146   3.537   1.522   3.364
 9083SOL     OW28147   4.340   4.952   4.728
 9083SOL    HW128148   4.434   4.918   4.718
 9083SOL    HW228149   4.306   4.931   4.820
 9084SOL     OW28150   3.012   3.419   3.297
 9084SOL    HW128151   3.023   3.320   3.310
 9084SOL    HW228152   3.102   3.462   3.293
 9085SOL     OW28153   0.856   2.157   0.567
 9085SOL    HW128154   0.833   2.105   0.485
 9085SOL    HW228155   0.871   2.094   0.643
 9086SOL     OW28156   0.451   4.200   0.864
 9086SOL    HW128157   0.439   4.108   0.827
 9086SOL    HW228158   0.363   4.248   0.866
 9087SOL     OW28159   4.777   3.715   1.664
 9087SOL    HW128160   4.869   3.732   1.626
 9087SOL    HW228161   4.769   3.619   1.690
 9088SOL     OW28162   5.164   6.828   0.222
 9088SOL    HW128163   5.192   6.924   0.216
 9088SOL    HW228164   5.241   6.770   0.197
 9089SOL     OW28165   4.707   0.129   5.760
 9089SOL    HW128166   4.686   0.149   5.664
 9089SOL    HW228167   4.690   0.210   5.816
 9090SOL     OW28168   6.510   1.452   4.535
 9090SOL    HW128169   6.467   1.370   4.573
 9090SOL    HW228170   6.563   1.498   4.606
 9091SOL     OW28171   2.846   3.228   6.769
 9091SOL    HW128172   2.821   3.170   6.692
 9091SOL    HW228173   2.901   3.175   6.835
 9092SOL     OW28174   0.075   2.629   0.096
 9092SOL    HW128175   7.024   2.590   0.146
 9092SOL    HW228176   0.147   2.560   0.086
 9093SOL     OW28177   1.349   6.142   5.869
 9093SOL    HW128178   1.292   6.123   5.790
 9093SOL    HW228179   1.353   6.240   5.885
 9094SOL     OW28180   0.810   3.373   1.952
 9094SOL    HW128181   0.896   3.395   1.997
 9094SOL    HW228182   0.779   3.283   1.982
 9095SOL     OW28183   6.257   6.239   4.904
 9095SOL    HW128184   6.332   6.269   4.845
 9095SOL    HW228185   6.276   6.147   4.939
 9096SOL     OW28186   6.461   5.741   3.223
 9096SOL    HW128187   6.449   5.730   3.124
 9096SOL    HW228188   6.480   5.837   3.243
 9097SOL     OW28189   1.568   2.386   5.863
 9097SOL    HW128190   1.662   2.415   5.880
 9097SOL    HW228191   1.528   2.445   5.793
 9098SOL     OW28192   1.820   3.695   4.327
 9098SOL    HW128193   1.759   3.644   4.387
 9098SOL    HW228194   1.765   3.749   4.262
 9099SOL     OW28195   2.747   2.588   6.646
 9099SOL    HW128196   2.811   2.640   6.588
 9099SOL    HW228197   2.735   2.637   6.733
 9100SOL     OW28198   0.805   4.805   3.156
 9100SOL    HW128199   0.829   4.837   3.064
 9100SOL    HW228200   0.835   4.710   3.167
 9101SOL     OW28201   0.981   2.650   1.841
 9101SOL    HW128202   0.940   2.738   1.818
 9101SOL    HW228203   0.996   2.597   1.757
 9102SOL     OW28204   4.360   6.572   3.126
 9102SOL    HW128205   4.310   6.499   3.079
 9102SOL    HW228206   4.296   6.645   3.151
 9103SOL     OW28207   6.507   1.261   0.376
 9103SOL    HW128208   6.600   1.252   0.340
 9103SOL    HW228209   6.455   1.326   0.320
 9104SOL     OW28210   5.979   1.490   6.745
 9104SOL    HW128211   5.919   1.413   6.720
 9104SOL    HW228212   5.973   1.561   6.674
 9105SOL     OW28213   2.262   0.547   6.101
 9105SOL    HW128214   2.248   0.510   6.193
 9105SOL    HW228215   2.217   0.636   6.094
 9106SOL     OW28216   1.467   4.457   1.063
 9106SOL    HW128217   1.485   4.418   1.153
 9106SOL    HW228218   1.424   4.546   1.073
 9107SOL     OW28219   2.391   1.474   6.915
 9107SOL    HW128220   2.365   1.561   6.957
 9107SOL    HW228221   2.341   1.400   6.959
 9108SOL     OW28222   5.831   5.427   6.435
 9108SOL    HW128223   5.884   5.512   6.432
 9108SOL    HW228224   5.807   5.400   6.341
 9109SOL     OW28225   5.094   3.580   2.487
 9109SOL    HW128226   5.164   3.537   2.429
 9109SOL    HW228227   5.018   3.610   2.430
 9110SOL     OW28228   1.175   6.366   4.547
 9110SOL    HW128229   1.206   6.296   4.612
 9110SOL    HW228230   1.184   6.330   4.454
 9111SOL     OW28231   4.467   2.388   6.362
 9111SOL    HW128232   4.468   2.396   6.461
 9111SOL    HW228233   4.472   2.479   6.321
 9112SOL     OW28234   0.848   5.470   1.839
 9112SOL    HW128235   0.945   5.448   1.828
 9112SOL    HW228236   0.800   5.390   1.876
 9113SOL     OW28237   5.683   1.398   4.093
 9113SOL    HW128238   5.780   1.416   4.104
 9113SOL    HW228239   5.630   1.474   4.131
 9114SOL     OW28240   1.216   6.309   5.606
 9114SOL    HW128241   1.238   6.214   5.583
 9114SOL    HW228242   1.197   6.359   5.522
 9115SOL     OW28243   5.103   4.320   3.656
 9115SOL    HW128244   5.125   4.406   3.702
 9115SOL    HW228245   5.188   4.276   3.625
 9116SOL     OW28246   1.481   6.974   3.519
 9116SOL    HW128247   1.527   6.937   3.438
 9116SOL    HW228248   1.451   0.041   3.500
 9117SOL     OW28249   3.013   6.706   0.231
 9117SOL    HW128250   3.067   6.763   0.169
 9117SOL    HW228251   3.066   6.687   0.314
 9118SOL     OW28252   6.126   4.317   1.743
 9118SOL    HW128253   6.223   4.309   1.767
 9118SOL    HW228254   6.106   4.409   1.712
 9119SOL     OW28255   3.514   0.386   0.430
 9119SOL    HW128256   3.528   0.343   0.341
 9119SOL    HW228257   3.601   0.391   0.479
 9120SOL     OW28258   6.010   4.025   4.988
 9120SOL    HW128259   6.052   4.104   5.033
 9120SOL    HW228260   5.984   4.050   4.895
 9121SOL     OW28261   3.273   0.696   5.081
 9121SOL    HW128262   3.342   0.698   5.009
 9121SOL    HW228263   3.193   0.748   5.052
 9122SOL     OW28264   1.388   3.654   2.153
 9122SOL    HW128265   1.337   3.738   2.132
 9122SOL    HW228266   1.477   3.657   2.108
 9123SOL     OW28267   0.112   0.329   4.187
 9123SOL    HW128268   0.126   0.386   4.268
 9123SOL    HW228269   0.047   0.256   4.208
 9124SOL     OW28270   2.600   5.326   0.982
 9124SOL    HW128271   2.519   5.274   1.007
 9124SOL    HW228272   2.682   5.270   0.997
 9125SOL     OW28273   4.963   6.145   1.160
 9125SOL    HW128274   4.876   6.184   1.191
 9125SOL    HW228275   5.023   6.219   1.129
 9126SOL     OW28276   3.849   4.484   0.433
 9126SOL    HW128277   3.853   4.421   0.511
 9126SOL    HW228278   3.753   4.505   0.412
 9127SOL     OW28279   6.997   4.648   4.130
 9127SOL    HW128280   6.983   4.589   4.210
 9127SOL    HW228281   6.911   4.654   4.078
 9128SOL     OW28282   5.579   4.194   5.935
 9128SOL    HW128283   5.668   4.170   5.896
 9128SOL    HW228284   5.530   4.110   5.960
 9129SOL     OW28285   0.993   3.247   0.939
 9129SOL    HW128286   1.058   3.181   0.903
 9129SOL    HW228287   0.922   3.199   0.991
 9130SOL     OW28288   2.868   3.790   5.057
 9130SOL    HW128289   2.858   3.879   5.102
 9130SOL    HW228290   2.841   3.798   4.961
 9131SOL     OW28291   4.713   2.794   0.263
 9131SOL    HW128292   4.685   2.700   0.281
 9131SOL    HW228293   4.800   2.813   0.311
 9132SOL     OW28294   0.073   3.807   3.711
 9132SOL    HW128295   0.020   3.825   3.794
 9132SOL    HW228296   0.012   3.803   3.632
 9133SOL     OW28297   4.987   0.794   0.900
 9133SOL    HW128298   4.943   0.827   0.984
 9133SOL    HW228299   4.984   0.694   0.898
 9134SOL     OW28300   4.762   4.860   0.820
 9134SOL    HW128301   4.719   4.810   0.896
 9134SOL    HW228302   4.809   4.940   0.855
 9135SOL     OW28303   6.566   6.670   2.358
 9135SOL    HW128304   6.532   6.628   2.442
 9135SOL    HW228305   6.638   6.736   2.380
 9136SOL     OW28306   6.451   4.795   0.056
 9136SOL    HW128307   6.373   4.767   0.000
 9136SOL    HW228308   6.426   4.792   0.153
 9137SOL     OW28309   5.374   6.256   5.804
 9137SOL    HW128310   5.349   6.224   5.712
 9137SOL    HW228311   5.310   6.218   5.871
 9138SOL     OW28312   2.748   3.395   0.347
 9138SOL    HW128313   2.711   3.397   0.255
 9138SOL    HW228314   2.717   3.476   0.398
 9139SOL     OW28315   6.596   7.009   0.847
 9139SOL    HW128316   6.498   7.016   0.861
 9139SOL    HW228317   6.638   0.072   0.865
 9140SOL     OW28318   1.482   3.636   3.522
 9140SOL    HW128319   1.501   3.539   3.535
 9140SOL    HW228320   1.457   3.677   3.610
 9141SOL     OW28321   6.750   5.580   4.680
 9141SOL    HW128322   6.803   5.556   4.761
 9141SOL    HW228323   6.660   5.537   4.685
 9142SOL     OW28324   1.462   4.219   4.539
 9142SOL    HW128325   1.491   4.294   4.479
 9142SOL    HW228326   1.465   4.133   4.487
 9143SOL     OW28327   6.753   4.237   2.605
 9143SOL    HW128328   6.723   4.282   2.689
 9143SOL    HW228329   6.795   4.149   2.628
 9144SOL     OW28330   2.736   4.810   5.322
 9144SOL    HW128331   2.761   4.807   5.419
 9144SOL    HW228332   2.715   4.717   5.290
 9145SOL     OW28333   1.589   5.985   5.893
 9145SOL    HW128334   1.507   6.029   5.856
 9145SOL    HW228335   1.573   5.962   5.989
 9146SOL     OW28336   5.383   2.641   3.186
 9146SOL    HW128337   5.340   2.657   3.097
 9146SOL    HW228338   5.381   2.725   3.240
 9147SOL     OW28339   4.008   6.960   5.225
 9147SOL    HW128340   4.028   0.026   5.256
 9147SOL    HW228341   3.928   6.960   5.165
 9148SOL     OW28342   5.668   5.833   1.577
 9148SOL    HW128343   5.594   5.863   1.637
 9148SOL    HW228344   5.754   5.830   1.629
 9149SOL     OW28345   0.379   4.118   1.301
 9149SOL    HW128346   0.348   4.206   1.267
 9149SOL    HW228347   0.335   4.098   1.389
 9150SOL     OW28348   2.601   3.310   0.128
 9150SOL    HW128349   2.531   3.340   0.063
 9150SOL    HW228350   2.624   3.214   0.111
 9151SOL     OW28351   1.373   3.355   3.689
 9151SOL    HW128352   1.413   3.264   3.676
 9151SOL    HW228353   1.417   3.400   3.767
 9152SOL     OW28354   1.694   4.000   2.380
 9152SOL    HW128355   1.734   3.911   2.361
 9152SOL    HW228356   1.761   4.072   2.360
 9153SOL     OW28357   0.506   3.024   6.112
 9153SOL    HW128358   0.455   3.045   6.195
 9153SOL    HW228359   0.459   3.062   6.032
 9154SOL     OW28360   5.660   5.371   3.158
 9154SOL    HW128361   5.628   5.330   3.073
 9154SOL    HW228362   5.715   5.305   3.209
 9155SOL     OW28363   1.355   6.540   2.850
 9155SOL    HW128364   1.354   6.440   2.855
 9155SOL    HW228365   1.413   6.569   2.774
 9156SOL     OW28366   6.696   3.942   6.264
 9156SOL    HW128367   6.624   3.966   6.329
 9156SOL    HW228368   6.785   3.952   6.308
 9157SOL     OW28369   1.597   4.600   6.523
 9157SOL    HW128370   1.554   4.542   6.453
 9157SOL    HW228371   1.553   4.690   6.523
 9158SOL     OW28372   6.808   4.120   4.855
 9158SOL    HW128373   6.765   4.037   4.822
 9158SOL    HW228374   6.905   4.120   4.829
 9159SOL     OW28375   2.796   1.441   4.065
 9159SOL    HW128376   2.754   1.385   3.993
 9159SOL    HW228377   2.834   1.382   4.136
 9160SOL     OW28378   1.123   4.201   1.429
 9160SOL    HW128379   1.056   4.220   1.501
 9160SOL    HW228380   1.157   4.108   1.439
 9161SOL     OW28381   6.691   3.904   2.271
 9161SOL    HW128382   6.701   3.978   2.338
 9161SOL    HW228383   6.655   3.942   2.186
 9162SOL     OW28384   4.186   2.159   1.861
 9162SOL    HW128385   4.097   2.199   1.882
 9162SOL    HW228386   4.177   2.093   1.786
 9163SOL     OW28387   2.138   2.161   3.102
 9163SOL    HW128388   2.079   2.242   3.112
 9163SOL    HW228389   2.172   2.156   3.008
 9164SOL     OW28390   2.692   6.231   6.591
 9164SOL    HW128391   2.765   6.202   6.530
 9164SOL    HW228392   2.696   6.179   6.676
 9165SOL     OW28393   5.895   1.836   5.820
 9165SOL    HW128394   5.805   1.880   5.829
 9165SOL    HW228395   5.901   1.790   5.731
 9166SOL     OW28396   4.946   6.435   1.702
 9166SOL    HW128397   4.970   6.394   1.614
 9166SOL    HW228398   4.866   6.493   1.691
 9167SOL     OW28399   1.864   1.449   5.059
 9167SOL    HW128400   1.800   1.392   5.008
 9167SOL    HW228401   1.815   1.499   5.130
 9168SOL     OW28402   6.277   5.952   4.896
 9168SOL    HW128403   6.373   5.934   4.915
 9168SOL    HW228404   6.226   5.866   4.898
 9169SOL     OW28405   6.557   6.350   1.816
 9169SOL    HW128406   6.501   6.285   1.867
 9169SOL    HW228407   6.644   6.364   1.865
 9170SOL     OW28408   1.643   0.697   6.277
 9170SOL    HW128409   1.722   0.652   6.236
 9170SOL    HW228410   1.655   0.796   6.271
 9171SOL     OW28411   3.762   5.289   6.449
 9171SOL    HW128412   3.737   5.384   6.466
 9171SOL    HW228413   3.796   5.247   6.533
 9172SOL     OW28414   4.557   1.968   4.866
 9172SOL    HW128415   4.459   1.953   4.876
 9172SOL    HW228416   4.598   1.890   4.818
 9173SOL     OW28417   5.623   3.857   5.112
 9173SOL    HW128418   5.570   3.797   5.172
 9173SOL    HW228419   5.574   3.868   5.025
 9174SOL     OW28420   6.678   5.105   1.317
 9174SOL    HW128421   6.595   5.096   1.373
 9174SOL    HW228422   6.753   5.057   1.363
 9175SOL     OW28423   2.086   6.622   0.139
 9175SOL    HW128424   2.034   6.619   0.224
 9175SOL    HW228425   2.173   6.670   0.155
 9176SOL     OW28426   1.757   1.924   2.084
 9176SOL    HW128427   1.790   1.985   2.012
 9176SOL    HW228428   1.682   1.969   2.134
 9177SOL     OW28429   0.327   5.328   3.787
 9177SOL    HW128430   0.288   5.350   3.697
 9177SOL    HW228431   0.254   5.299   3.849
 9178SOL     OW28432   1.423   4.748   1.405
 9178SOL    HW128433   1.418   4.723   1.501
 9178SOL    HW228434   1.450   4.844   1.396
 9179SOL     OW28435   3.273   5.206   4.074
 9179SOL    HW128436   3.341   5.133   4.081
 9179SOL    HW228437   3.206   5.183   4.004
 9180SOL     OW28438   0.189   1.573   5.397
 9180SOL    HW128439   0.255   1.625   5.342
 9180SOL    HW228440   0.125   1.525   5.336
 9181SOL     OW28441   2.328   2.314   3.591
 9181SOL    HW128442   2.260   2.243   3.607
 9181SOL    HW228443   2.412   2.273   3.557
 9182SOL     OW28444   0.785   1.803   2.501
 9182SOL    HW128445   0.710   1.810   2.568
 9182SOL    HW228446   0.835   1.718   2.515
 9183SOL     OW28447   1.851   1.770   6.320
 9183SOL    HW128448   1.860   1.737   6.413
 9183SOL    HW228449   1.813   1.699   6.262
 9184SOL     OW28450   3.931   3.701   0.733
 9184SOL    HW128451   3.970   3.716   0.642
 9184SOL    HW228452   4.005   3.696   0.801
 9185SOL     OW28453   1.893   0.608   6.145
 9185SOL    HW128454   1.942   0.632   6.061
 9185SOL    HW228455   1.955   0.560   6.207
 9186SOL     OW28456   5.085   1.186   6.188
 9186SOL    HW128457   5.126   1.273   6.216
 9186SOL    HW228458   4.997   1.203   6.144
 9187SOL     OW28459   5.390   2.365   0.644
 9187SOL    HW128460   5.302   2.413   0.643
 9187SOL    HW228461   5.425   2.358   0.550
 9188SOL     OW28462   1.533   0.257   1.940
 9188SOL    HW128463   1.532   0.314   2.023
 9188SOL    HW228464   1.578   0.307   1.866
 9189SOL     OW28465   4.413   1.066   5.839
 9189SOL    HW128466   4.386   1.082   5.744
 9189SOL    HW228467   4.484   0.995   5.842
 9190SOL     OW28468   5.486   1.669   5.424
 9190SOL    HW128469   5.543   1.741   5.466
 9190SOL    HW228470   5.468   1.692   5.329
 9191SOL     OW28471   5.768   0.236   0.754
 9191SOL    HW128472   5.791   0.278   0.666
 9191SOL    HW228473   5.810   0.289   0.828
 9192SOL     OW28474   4.833   3.829   3.992
 9192SOL    HW128475   4.760   3.761   3.998
 9192SOL    HW228476   4.881   3.818   3.904
 9193SOL     OW28477   3.508   2.842   3.311
 9193SOL    HW128478   3.557   2.910   3.257
 9193SOL    HW228479   3.564   2.760   3.322
 9194SOL     OW28480   4.203   5.775   2.748
 9194SOL    HW128481   4.112   5.743   2.773
 9194SOL    HW228482   4.265   5.697   2.740
 9195SOL     OW28483   7.021   2.746   2.631
 9195SOL    HW128484   7.010   2.661   2.682
 9195SOL    HW228485   6.937   2.800   2.636
 9196SOL     OW28486   5.010   6.734   3.813
 9196SOL    HW128487   5.100   6.776   3.804
 9196SOL    HW228488   5.007   6.678   3.896
 9197SOL     OW28489   4.226   2.504   5.781
 9197SOL    HW128490   4.195   2.540   5.693
 9197SOL    HW228491   4.150   2.505   5.846
 9198SOL     OW28492   6.060   2.158   5.490
 9198SOL    HW128493   6.063   2.249   5.532
 9198SOL    HW228494   5.985   2.105   5.530
 9199SOL     OW28495   2.164   2.964   6.255
 9199SOL    HW128496   2.126   2.908   6.330
 9199SOL    HW228497   2.105   2.955   6.175
 9200SOL     OW28498   5.541   6.299   0.998
 9200SOL    HW128499   5.584   6.299   1.089
 9200SOL    HW228500   5.603   6.257   0.932
 9201SOL     OW28501   1.244   3.911   2.890
 9201SOL    HW128502   1.208   3.949   2.804
 9201SOL    HW228503   1.189   3.944   2.967
 9202SOL     OW28504   3.219   5.523   3.801
 9202SOL    HW128505   3.242   5.584   3.876
 9202SOL    HW228506   3.303   5.486   3.761
 9203SOL     OW28507   4.356   0.685   6.220
 9203SOL    HW128508   4.368   0.771   6.270
 9203SOL    HW228509   4.444   0.638   6.212
 9204SOL     OW28510   5.320   4.717   2.347
 9204SOL    HW128511   5.248   4.736   2.280
 9204SOL    HW228512   5.283   4.726   2.439
 9205SOL     OW28513   4.878   3.283   1.988
 9205SOL    HW128514   4.847   3.351   2.055
 9205SOL    HW228515   4.810   3.210   1.982
 9206SOL     OW28516   0.896   6.116   3.425
 9206SOL    HW128517   0.927   6.196   3.374
 9206SOL    HW228518   0.888   6.139   3.522
 9207SOL     OW28519   4.279   6.172   6.644
 9207SOL    HW128520   4.313   6.259   6.677
 9207SOL    HW228521   4.219   6.187   6.565
 9208SOL     OW28522   4.792   4.070   1.892
 9208SOL    HW128523   4.803   4.069   1.992
 9208SOL    HW228524   4.761   4.161   1.863
 9209SOL     OW28525   3.862   7.002   2.949
 9209SOL    HW128526   3.942   7.006   3.009
 9209SOL    HW228527   3.891   6.991   2.854
 9210SOL     OW28528   1.000   6.650   0.492
 9210SOL    HW128529   1.019   6.563   0.538
 9210SOL    HW228530   1.071   6.669   0.425
 9211SOL     OW28531   4.809   1.230   6.052
 9211SOL    HW128532   4.754   1.171   6.111
 9211SOL    HW228533   4.813   1.322   6.091
 9212SOL     OW28534   5.477   3.676   5.278
 9212SOL    HW128535   5.402   3.614   5.259
 9212SOL    HW228536   5.468   3.711   5.372
 9213SOL     OW28537   6.514   6.784   2.694
 9213SOL    HW128538   6.488   6.809   2.787
 9213SOL    HW228539   6.437   6.798   2.632
 9214SOL     OW28540   2.272   2.322   5.248
 9214SOL    HW128541   2.259   2.403   5.190
 9214SOL    HW228542   2.318   2.349   5.333
 9215SOL     OW28543   0.106   2.867   2.875
 9215SOL    HW128544   0.073   2.896   2.786
 9215SOL    HW228545   0.061   2.782   2.901
 9216SOL     OW28546   2.791   5.960   3.859
 9216SOL    HW128547   2.717   5.958   3.792
 9216SOL    HW228548   2.847   5.878   3.850
 9217SOL     OW28549   3.561   1.456   6.630
 9217SOL    HW128550   3.661   1.466   6.621
 9217SOL    HW228551   3.524   1.421   6.544
 9218SOL     OW28552   5.248   5.506   6.249
 9218SOL    HW128553   5.199   5.516   6.162
 9218SOL    HW228554   5.337   5.551   6.242
 9219SOL     OW28555   3.270   2.240   5.695
 9219SOL    HW128556   3.250   2.256   5.791
 9219SOL    HW228557   3.210   2.299   5.639
 9220SOL     OW28558   0.602   6.693   3.610
 9220SOL    HW128559   0.658   6.722   3.532
 9220SOL    HW228560   0.512   6.737   3.604
 9221SOL     OW28561   2.162   1.544   0.229
 9221SOL    HW128562   2.102   1.583   0.299
 9221SOL    HW228563   2.137   1.581   0.140
 9222SOL     OW28564   1.545   3.088   4.332
 9222SOL    HW128565   1.637   3.076   4.297
 9222SOL    HW228566   1.484   3.115   4.257
 9223SOL     OW28567   0.475   3.195   5.000
 9223SOL    HW128568   0.439   3.103   5.015
 9223SOL    HW228569   0.461   3.250   5.083
 9224SOL     OW28570   2.497   4.771   3.288
 9224SOL    HW128571   2.534   4.691   3.335
 9224SOL    HW228572   2.571   4.833   3.263
 9225SOL     OW28573   5.764   5.645   6.087
 9225SOL    HW128574   5.853   5.672   6.124
 9225SOL    HW228575   5.777   5.584   6.009
 9226SOL     OW28576   1.160   0.695   0.423
 9226SOL    HW128577   1.133   0.599   0.411
 9226SOL    HW228578   1.120   0.749   0.349
 9227SOL     OW28579   2.958   3.806   0.500
 9227SOL    HW128580   2.983   3.746   0.424
 9227SOL    HW228581   2.879   3.861   0.474
 9228SOL     OW28582   3.476   3.390   5.313
 9228SOL    HW128583   3.506   3.486   5.308
 9228SOL    HW228584   3.547   3.331   5.276
 9229SOL     OW28585   6.842   5.152   0.258
 9229SOL    HW128586   6.757   5.099   0.251
 9229SOL    HW228587   6.848   5.194   0.349
 9230SOL     OW28588   4.117   1.365   5.032
 9230SOL    HW128589   4.175   1.287   5.009
 9230SOL    HW228590   4.044   1.374   4.964
 9231SOL     OW28591   7.003   6.011   2.545
 9231SOL    HW128592   6.976   6.050   2.633
 9231SOL    HW228593   0.076   6.001   2.543
 9232SOL     OW28594   1.003   4.899   2.548
 9232SOL    HW128595   1.083   4.887   2.489
 9232SOL    HW228596   1.019   4.975   2.611
 9233SOL     OW28597   1.222   6.311   6.055
 9233SOL    HW128598   1.283   6.234   6.074
 9233SOL    HW228599   1.278   6.391   6.030
 9234SOL     OW28600   2.397   3.490   6.645
 9234SOL    HW128601   2.458   3.570   6.651
 9234SOL    HW228602   2.311   3.518   6.603
 9235SOL     OW28603   1.922   1.875   3.153
 9235SOL    HW128604   1.853   1.884   3.224
 9235SOL    HW228605   2.011   1.902   3.189
 9236SOL     OW28606   1.656   2.968   6.144
 9236SOL    HW128607   1.658   3.053   6.197
 9236SOL    HW228608   1.669   2.891   6.205
 9237SOL     OW28609   5.946   5.310   3.053
 9237SOL    HW128610   5.862   5.355   3.025
 9237SOL    HW228611   5.995   5.276   2.972
 9238SOL     OW28612   1.667   3.101   4.614
 9238SOL    HW128613   1.616   3.112   4.529
 9238SOL    HW228614   1.668   3.005   4.641
 9239SOL     OW28615   1.267   4.608   6.983
 9239SOL    HW128616   1.172   4.589   7.005
 9239SOL    HW228617   1.307   4.665   0.028
 9240SOL     OW28618   4.622   1.622   3.454
 9240SOL    HW128619   4.574   1.697   3.498
 9240SOL    HW228620   4.720   1.628   3.474
 9241SOL     OW28621   5.549   0.126   0.808
 9241SOL    HW128622   5.490   0.203   0.834
 9241SOL    HW228623   5.624   0.160   0.753
 9242SOL     OW28624   1.788   2.426   0.381
 9242SOL    HW128625   1.820   2.346   0.431
 9242SOL    HW228626   1.866   2.473   0.340
 9243SOL     OW28627   1.547   0.088   6.955
 9243SOL    HW128628   1.597   0.044   0.003
 9243SOL    HW228629   1.563   0.038   6.870
 9244SOL     OW28630   3.841   6.734   6.104
 9244SOL    HW128631   3.883   6.665   6.164
 9244SOL    HW228632   3.761   6.772   6.150
 9245SOL     OW28633   1.279   4.500   2.884
 9245SOL    HW128634   1.230   4.546   2.810
 9245SOL    HW228635   1.224   4.502   2.967
 9246SOL     OW28636   4.988   0.135   6.871
 9246SOL    HW128637   4.919   0.124   6.943
 9246SOL    HW228638   4.946   0.175   6.790
 9247SOL     OW28639   4.203   5.461   2.941
 9247SOL    HW128640   4.153   5.431   2.860
 9247SOL    HW228641   4.218   5.383   3.002
 9248SOL     OW28642   2.467   0.672   6.863
 9248SOL    HW128643   2.505   0.745   6.920
 9248SOL    HW228644   2.514   0.586   6.884
 9249SOL     OW28645   2.322   6.602   0.479
 9249SOL    HW128646   2.228   6.572   0.492
 9249SOL    HW228647   2.377   6.526   0.444
 9250SOL     OW28648   0.321   2.660   4.068
 9250SOL    HW128649   0.355   2.601   4.142
 9250SOL    HW228650   0.264   2.733   4.106
 9251SOL     OW28651   2.853   2.081   0.729
 9251SOL    HW128652   2.875   2.143   0.805
 9251SOL    HW228653   2.935   2.029   0.705
 9252SOL     OW28654   5.888   1.071   5.453
 9252SOL    HW128655   5.859   1.131   5.379
 9252SOL    HW228656   5.949   1.120   5.515
 9253SOL     OW28657   1.451   5.966   5.099
 9253SOL    HW128658   1.369   5.936   5.148
 9253SOL    HW228659   1.481   6.054   5.136
 9254SOL     OW28660   0.538   4.973   2.459
 9254SOL    HW128661   0.440   4.956   2.458
 9254SOL    HW228662   0.557   5.064   2.423
 9255SOL     OW28663   6.797   4.615   0.878
 9255SOL    HW128664   6.739   4.610   0.797
 9255SOL    HW228665   6.817   4.711   0.899
 9256SOL     OW28666   2.935   6.689   1.073
 9256SOL    HW128667   3.034   6.675   1.062
 9256SOL    HW228668   2.891   6.601   1.090
 9257SOL     OW28669   5.822   5.955   4.485
 9257SOL    HW128670   5.767   5.872   4.486
 9257SOL    HW228671   5.849   5.979   4.579
 9258SOL     OW28672   3.542   5.275   0.943
 9258SOL    HW128673   3.500   5.287   0.853
 9258SOL    HW228674   3.489   5.209   0.996
 9259SOL     OW28675   1.363   2.084   0.104
 9259SOL    HW128676   1.450   2.068   0.058
 9259SOL    HW228677   1.292   2.028   0.061
 9260SOL     OW28678   5.240   4.019   4.736
 9260SOL    HW128679   5.214   3.925   4.711
 9260SOL    HW228680   5.339   4.030   4.727
 9261SOL     OW28681   3.064   2.199   1.516
 9261SOL    HW128682   3.063   2.121   1.579
 9261SOL    HW228683   2.988   2.260   1.537
 9262SOL     OW28684   6.828   6.178   5.827
 9262SOL    HW128685   6.871   6.252   5.879
 9262SOL    HW228686   6.839   6.092   5.876
 9263SOL     OW28687   1.956   4.653   3.248
 9263SOL    HW128688   1.923   4.562   3.272
 9263SOL    HW228689   2.055   4.658   3.265
 9264SOL     OW28690   5.370   4.234   6.305
 9264SOL    HW128691   5.333   4.271   6.390
 9264SOL    HW228692   5.347   4.295   6.229
 9265SOL     OW28693   5.871   1.533   1.724
 9265SOL    HW128694   5.845   1.480   1.643
 9265SOL    HW228695   5.850   1.480   1.806
 9266SOL     OW28696   1.215   4.394   1.263
 9266SOL    HW128697   1.151   4.332   1.308
 9266SOL    HW228698   1.168   4.440   1.187
 9267SOL     OW28699   6.657   0.422   4.111
 9267SOL    HW128700   6.605   0.504   4.089
 9267SOL    HW228701   6.703   0.388   4.028
 9268SOL     OW28702   0.326   6.931   1.227
 9268SOL    HW128703   0.372   6.938   1.139
 9268SOL    HW228704   0.228   6.919   1.213
 9269SOL     OW28705   3.266   0.945   0.379
 9269SOL    HW128706   3.276   0.876   0.451
 9269SOL    HW228707   3.295   0.906   0.291
 9270SOL     OW28708   2.615   0.445   6.854
 9270SOL    HW128709   2.605   0.438   6.755
 9270SOL    HW228710   2.712   0.446   6.878
 9271SOL     OW28711   1.355   5.686   5.069
 9271SOL    HW128712   1.262   5.721   5.081
 9271SOL    HW228713   1.420   5.761   5.076
 9272SOL     OW28714   0.165   6.470   5.989
 9272SOL    HW128715   0.143   6.493   6.084
 9272SOL    HW228716   0.254   6.424   5.986
 9273SOL     OW28717   5.255   4.127   3.508
 9273SOL    HW128718   5.224   4.056   3.445
 9273SOL    HW228719   5.340   4.098   3.551
 9274SOL     OW28720   0.611   3.184   0.409
 9274SOL    HW128721   0.634   3.132   0.491
 9274SOL    HW228722   0.689   3.239   0.381
 9275SOL     OW28723   5.748   0.947   0.560
 9275SOL    HW128724   5.761   1.044   0.583
 9275SOL    HW228725   5.837   0.901   0.556
 9276SOL     OW28726   2.620   5.148   0.185
 9276SOL    HW128727   2.628   5.235   0.136
 9276SOL    HW228728   2.534   5.147   0.237
 9277SOL     OW28729   5.083   5.119   2.312
 9277SOL    HW128730   5.067   5.200   2.369
 9277SOL    HW228731   5.180   5.111   2.292
 9278SOL     OW28732   0.989   0.054   5.165
 9278SOL    HW128733   0.928   7.008   5.196
 9278SOL    HW228734   0.957   0.089   5.077
 9279SOL     OW28735   3.409   5.414   1.690
 9279SOL    HW128736   3.470   5.492   1.681
 9279SOL    HW228737   3.438   5.342   1.627
 9280SOL     OW28738   1.954   6.505   2.886
 9280SOL    HW128739   1.968   6.550   2.974
 9280SOL    HW228740   1.942   6.407   2.900
 9281SOL     OW28741   2.191   5.944   0.894
 9281SOL    HW128742   2.181   5.844   0.898
 9281SOL    HW228743   2.164   5.983   0.982
 9282SOL     OW28744   3.260   6.687   4.868
 9282SOL    HW128745   3.327   6.739   4.815
 9282SOL    HW228746   3.306   6.613   4.917
 9283SOL     OW28747   4.310   6.302   1.403
 9283SOL    HW128748   4.315   6.401   1.420
 9283SOL    HW228749   4.387   6.257   1.446
 9284SOL     OW28750   4.577   4.313   5.631
 9284SOL    HW128751   4.525   4.392   5.599
 9284SOL    HW228752   4.529   4.270   5.708
 9285SOL     OW28753   0.445   5.111   2.983
 9285SOL    HW128754   0.480   5.184   3.042
 9285SOL    HW228755   0.428   5.029   3.038
 9286SOL     OW28756   4.174   0.180   1.620
 9286SOL    HW128757   4.087   0.182   1.670
 9286SOL    HW228758   4.163   0.225   1.532
 9287SOL     OW28759   3.945   4.095   5.808
 9287SOL    HW128760   3.969   4.004   5.842
 9287SOL    HW228761   3.918   4.089   5.712
 9288SOL     OW28762   3.387   1.364   2.144
 9288SOL    HW128763   3.328   1.442   2.162
 9288SOL    HW228764   3.379   1.337   2.048
 9289SOL     OW28765   5.030   6.816   0.448
 9289SOL    HW128766   4.974   6.733   0.447
 9289SOL    HW228767   5.078   6.825   0.361
 9290SOL     OW28768   5.446   1.241   4.243
 9290SOL    HW128769   5.536   1.269   4.209
 9290SOL    HW228770   5.379   1.314   4.223
 9291SOL     OW28771   1.059   3.923   6.192
 9291SOL    HW128772   0.979   3.933   6.134
 9291SOL    HW228773   1.112   3.842   6.164
 9292SOL     OW28774   1.002   0.834   6.940
 9292SOL    HW128775   0.931   0.774   6.904
 9292SOL    HW228776   0.988   0.927   6.906
 9293SOL     OW28777   4.905   2.406   4.129
 9293SOL    HW128778   4.812   2.401   4.093
 9293SOL    HW228779   4.903   2.398   4.228
 9294SOL     OW28780   4.322   7.002   6.171
 9294SOL    HW128781   4.354   0.046   6.235
 9294SOL    HW228782   4.227   6.979   6.192
 9295SOL     OW28783   6.963   1.133   4.946
 9295SOL    HW128784   0.030   1.164   4.963
 9295SOL    HW228785   6.934   1.164   4.855
 9296SOL     OW28786   2.225   5.281   6.300
 9296SOL    HW128787   2.299   5.327   6.252
 9296SOL    HW228788   2.263   5.215   6.365
 9297SOL     OW28789   6.016   5.899   2.455
 9297SOL    HW128790   6.076   5.901   2.375
 9297SOL    HW228791   6.067   5.864   2.534
 9298SOL     OW28792   1.171   4.187   6.256
 9298SOL    HW128793   1.126   4.098   6.246
 9298SOL    HW228794   1.104   4.254   6.290
 9299SOL     OW28795   2.422   2.693   4.426
 9299SOL    HW128796   2.357   2.754   4.472
 9299SOL    HW228797   2.472   2.640   4.494
 9300SOL     OW28798   1.838   5.935   5.125
 9300SOL    HW128799   1.826   6.012   5.187
 9300SOL    HW228800   1.881   5.859   5.174
 9301SOL     OW28801   0.223   3.862   4.219
 9301SOL    HW128802   0.272   3.874   4.132
 9301SOL    HW228803   0.262   3.922   4.288
 9302SOL     OW28804   2.112   3.596   4.547
 9302SOL    HW128805   2.079   3.642   4.464
 9302SOL    HW228806   2.110   3.660   4.624
 9303SOL     OW28807   2.610   4.536   0.188
 9303SOL    HW128808   2.547   4.478   0.238
 9303SOL    HW228809   2.590   4.632   0.207
 9304SOL     OW28810   5.095   5.537   6.633
 9304SOL    HW128811   5.034   5.533   6.553
 9304SOL    HW228812   5.148   5.453   6.638
 9305SOL     OW28813   1.524   2.296   0.877
 9305SOL    HW128814   1.507   2.328   0.970
 9305SOL    HW228815   1.495   2.200   0.869
 9306SOL     OW28816   0.155   6.328   4.894
 9306SOL    HW128817   0.201   6.331   4.806
 9306SOL    HW228818   0.075   6.268   4.887
 9307SOL     OW28819   1.846   3.709   1.370
 9307SOL    HW128820   1.927   3.739   1.318
 9307SOL    HW228821   1.837   3.610   1.362
 9308SOL     OW28822   2.023   3.119   1.626
 9308SOL    HW128823   1.929   3.149   1.608
 9308SOL    HW228824   2.046   3.138   1.721
 9309SOL     OW28825   5.229   5.293   6.609
 9309SOL    HW128826   5.325   5.265   6.617
 9309SOL    HW228827   5.200   5.289   6.513
 9310SOL     OW28828   6.022   5.626   6.589
 9310SOL    HW128829   5.997   5.720   6.568
 9310SOL    HW228830   6.080   5.624   6.670
 9311SOL     OW28831   5.136   3.873   0.474
 9311SOL    HW128832   5.163   3.778   0.459
 9311SOL    HW228833   5.206   3.919   0.529
 9312SOL     OW28834   0.296   2.815   3.084
 9312SOL    HW128835   0.203   2.827   3.051
 9312SOL    HW228836   0.294   2.772   3.174
 9313SOL     OW28837   0.264   0.558   2.246
 9313SOL    HW128838   0.337   0.505   2.290
 9313SOL    HW228839   0.178   0.508   2.254
 9314SOL     OW28840   5.153   4.387   0.943
 9314SOL    HW128841   5.143   4.435   0.855
 9314SOL    HW228842   5.227   4.320   0.935
 9315SOL     OW28843   5.177   6.456   6.237
 9315SOL    HW128844   5.179   6.381   6.303
 9315SOL    HW228845   5.111   6.525   6.267
 9316SOL     OW28846   5.306   0.974   6.012
 9316SOL    HW128847   5.261   0.952   6.099
 9316SOL    HW228848   5.364   0.897   5.984
 9317SOL     OW28849   3.394   6.330   2.911
 9317SOL    HW128850   3.382   6.277   2.994
 9317SOL    HW228851   3.410   6.426   2.935
 9318SOL     OW28852   3.884   0.045   2.058
 9318SOL    HW128853   3.829   6.989   2.043
 9318SOL    HW228854   3.825   0.121   2.082
 9319SOL     OW28855   3.924   2.217   6.732
 9319SOL    HW128856   3.831   2.180   6.738
 9319SOL    HW228857   3.947   2.263   6.818
 9320SOL     OW28858   6.522   6.731   6.736
 9320SOL    HW128859   6.463   6.694   6.664
 9320SOL    HW228860   6.468   6.746   6.819
 9321SOL     OW28861   0.332   2.955   5.029
 9321SOL    HW128862   0.305   2.862   5.004
 9321SOL    HW228863   0.262   3.020   4.999
 9322SOL     OW28864   5.914   3.134   6.889
 9322SOL    HW128865   5.875   3.056   6.841
 9322SOL    HW228866   5.899   3.123   6.988
 9323SOL     OW28867   0.935   1.734   5.890
 9323SOL    HW128868   0.839   1.743   5.863
 9323SOL    HW228869   0.991   1.717   5.809
 9324SOL     OW28870   0.622   4.132   1.851
 9324SOL    HW128871   0.610   4.181   1.937
 9324SOL    HW228872   0.568   4.048   1.852
 9325SOL     OW28873   0.869   4.065   3.548
 9325SOL    HW128874   0.910   3.988   3.596
 9325SOL    HW228875   0.890   4.150   3.597
 9326SOL     OW28876   4.766   4.181   1.544
 9326SOL    HW128877   4.778   4.228   1.632
 9326SOL    HW228878   4.772   4.083   1.558
 9327SOL     OW28879   2.731   0.634   3.153
 9327SOL    HW128880   2.802   0.685   3.104
 9327SOL    HW228881   2.642   0.674   3.135
 9328SOL     OW28882   2.417   0.603   3.935
 9328SOL    HW128883   2.326   0.584   3.899
 9328SOL    HW228884   2.456   0.682   3.887
 9329SOL     OW28885   0.023   5.674   6.957
 9329SOL    HW128886   0.104   5.660   6.900
 9329SOL    HW228887   6.974   5.618   6.922
 9330SOL     OW28888   6.581   6.280   6.972
 9330SOL    HW128889   6.674   6.254   6.944
 9330SOL    HW228890   6.529   6.197   6.993
 9331SOL     OW28891   1.992   3.406   3.816
 9331SOL    HW128892   1.970   3.313   3.843
 9331SOL    HW228893   2.029   3.456   3.895
 9332SOL     OW28894   5.754   5.949   1.098
 9332SOL    HW128895   5.744   5.919   1.192
 9332SOL    HW228896   5.824   5.895   1.052
 9333SOL     OW28897   3.515   3.749   1.122
 9333SOL    HW128898   3.457   3.668   1.135
 9333SOL    HW228899   3.557   3.746   1.032
 9334SOL     OW28900   6.059   6.002   5.927
 9334SOL    HW128901   6.101   6.053   6.002
 9334SOL    HW228902   5.967   5.973   5.953
 9335SOL     OW28903   0.941   3.046   2.085
 9335SOL    HW128904   0.889   3.053   2.170
 9335SOL    HW228905   1.031   3.089   2.098
 9336SOL     OW28906   5.378   0.475   5.816
 9336SOL    HW128907   5.382   0.564   5.771
 9336SOL    HW228908   5.310   0.417   5.770
 9337SOL     OW28909   2.333   0.720   5.692
 9337SOL    HW128910   2.237   0.738   5.672
 9337SOL    HW228911   2.340   0.657   5.769
 9338SOL     OW28912   5.542   6.407   0.209
 9338SOL    HW128913   5.465   6.441   0.156
 9338SOL    HW228914   5.596   6.485   0.242
 9339SOL     OW28915   6.949   4.060   5.788
 9339SOL    HW128916   6.905   3.979   5.749
 9339SOL    HW228917   6.891   4.098   5.860
 9340SOL     OW28918   3.173   4.979   1.240
 9340SOL    HW128919   3.213   4.906   1.184
 9340SOL    HW228920   3.172   4.950   1.336
 9341SOL     OW28921   5.159   4.902   6.409
 9341SOL    HW128922   5.064   4.895   6.377
 9341SOL    HW228923   5.219   4.924   6.332
 9342SOL     OW28924   3.384   0.061   4.292
 9342SOL    HW128925   3.363   0.049   4.389
 9342SOL    HW228926   3.466   0.118   4.282
 9343SOL     OW28927   4.477   3.745   0.911
 9343SOL    HW128928   4.413   3.821   0.917
 9343SOL    HW228929   4.428   3.659   0.913
 9344SOL     OW28930   5.858   0.111   5.380
 9344SOL    HW128931   5.776   0.063   5.412
 9344SOL    HW228932   5.832   0.188   5.323
 9345SOL     OW28933   0.356   5.122   0.123
 9345SOL    HW128934   0.417   5.199   0.140
 9345SOL    HW228935   0.406   5.050   0.075
 9346SOL     OW28936   6.081   6.441   1.356
 9346SOL    HW128937   6.087   6.376   1.280
 9346SOL    HW228938   6.134   6.406   1.434
 9347SOL     OW28939   3.782   5.450   0.939
 9347SOL    HW128940   3.707   5.391   0.971
 9347SOL    HW228941   3.870   5.410   0.965
 9348SOL     OW28942   2.314   5.567   2.334
 9348SOL    HW128943   2.293   5.497   2.265
 9348SOL    HW228944   2.233   5.580   2.392
 9349SOL     OW28945   6.919   6.018   2.300
 9349SOL    HW128946   6.934   6.026   2.399
 9349SOL    HW228947   6.916   6.109   2.260
 9350SOL     OW28948   6.758   0.707   6.349
 9350SOL    HW128949   6.818   0.629   6.363
 9350SOL    HW228950   6.663   0.676   6.343
 9351SOL     OW28951   4.148   3.134   6.055
 9351SOL    HW128952   4.211   3.118   5.979
 9351SOL    HW228953   4.160   3.063   6.124
 9352SOL     OW28954   3.685   2.726   6.407
 9352SOL    HW128955   3.654   2.817   6.437
 9352SOL    HW228956   3.731   2.680   6.483
 9353SOL     OW28957   0.427   3.906   0.865
 9353SOL    HW128958   0.517   3.869   0.844
 9353SOL    HW228959   0.412   3.902   0.964
 9354SOL     OW28960   4.713   1.539   2.048
 9354SOL    HW128961   4.811   1.556   2.039
 9354SOL    HW228962   4.668   1.556   1.960
 9355SOL     OW28963   6.467   1.121   3.169
 9355SOL    HW128964   6.405   1.166   3.233
 9355SOL    HW228965   6.424   1.118   3.078
 9356SOL     OW28966   4.294   4.685   2.622
 9356SOL    HW128967   4.391   4.663   2.635
 9356SOL    HW228968   4.278   4.711   2.527
 9357SOL     OW28969   3.422   2.922   0.796
 9357SOL    HW128970   3.462   2.873   0.718
 9357SOL    HW228971   3.414   3.019   0.773
 9358SOL     OW28972   5.442   4.334   2.124
 9358SOL    HW128973   5.531   4.292   2.141
 9358SOL    HW228974   5.453   4.413   2.064
 9359SOL     OW28975   5.315   4.383   6.102
 9359SOL    HW128976   5.258   4.466   6.105
 9359SOL    HW228977   5.260   4.306   6.071
 9360SOL     OW28978   2.118   0.512   5.668
 9360SOL    HW128979   2.122   0.433   5.729
 9360SOL    HW228980   2.201   0.517   5.614
 9361SOL     OW28981   2.762   0.755   2.399
 9361SOL    HW128982   2.804   0.787   2.314
 9361SOL    HW228983   2.730   0.834   2.451
 9362SOL     OW28984   2.277   1.770   2.895
 9362SOL    HW128985   2.282   1.700   2.966
 9362SOL    HW228986   2.361   1.823   2.893
 9363SOL     OW28987   2.261   6.243   1.904
 9363SOL    HW128988   2.317   6.228   1.823
 9363SOL    HW228989   2.202   6.323   1.889
 9364SOL     OW28990   5.698   5.343   0.422
 9364SOL    HW128991   5.690   5.346   0.522
 9364SOL    HW228992   5.771   5.279   0.397
 9365SOL     OW28993   2.406   1.318   5.288
 9365SOL    HW128994   2.467   1.249   5.327
 9365SOL    HW228995   2.460   1.387   5.241
 9366SOL     OW28996   3.058   1.909   0.757
 9366SOL    HW128997   3.013   1.855   0.686
 9366SOL    HW228998   3.069   1.854   0.840
 9367SOL     OW28999   6.798   5.977   3.014
 9367SOL    HW129000   6.808   5.879   2.998
 9367SOL    HW229001   6.874   6.009   3.071
 9368SOL     OW29002   3.690   2.898   1.138
 9368SOL    HW129003   3.718   2.949   1.218
 9368SOL    HW229004   3.592   2.911   1.122
 9369SOL     OW29005   0.233   2.419   5.100
 9369SOL    HW129006   0.225   2.393   5.196
 9369SOL    HW229007   0.297   2.495   5.091
 9370SOL     OW29008   6.068   1.115   3.188
 9370SOL    HW129009   6.164   1.130   3.167
 9370SOL    HW229010   6.048   1.151   3.280
 9371SOL     OW29011   0.625   6.647   0.545
 9371SOL    HW129012   0.703   6.680   0.599
 9371SOL    HW229013   0.645   6.656   0.448
 9372SOL     OW29014   6.720   6.323   6.144
 9372SOL    HW129015   6.645   6.361   6.090
 9372SOL    HW229016   6.805   6.370   6.122
 9373SOL     OW29017   4.412   1.456   3.589
 9373SOL    HW129018   4.458   1.433   3.674
 9373SOL    HW229019   4.450   1.541   3.552
 9374SOL     OW29020   5.345   3.719   0.725
 9374SOL    HW129021   5.424   3.754   0.776
 9374SOL    HW229022   5.374   3.641   0.669
 9375SOL     OW29023   0.744   1.211   4.102
 9375SOL    HW129024   0.839   1.222   4.074
 9375SOL    HW229025   0.740   1.181   4.197
 9376SOL     OW29026   1.919   3.137   2.052
 9376SOL    HW129027   1.901   3.066   2.120
 9376SOL    HW229028   1.836   3.156   2.001
 9377SOL     OW29029   5.956   5.640   4.142
 9377SOL    HW129030   5.908   5.594   4.067
 9377SOL    HW229031   6.035   5.584   4.170
 9378SOL     OW29032   2.996   6.467   0.732
 9378SOL    HW129033   2.954   6.472   0.823
 9378SOL    HW229034   2.936   6.416   0.670
 9379SOL     OW29035   5.498   4.810   4.868
 9379SOL    HW129036   5.547   4.724   4.882
 9379SOL    HW229037   5.432   4.823   4.942
 9380SOL     OW29038   5.916   6.418   6.412
 9380SOL    HW129039   5.898   6.322   6.432
 9380SOL    HW229040   5.980   6.424   6.335
 9381SOL     OW29041   2.380   1.206   6.767
 9381SOL    HW129042   2.320   1.178   6.842
 9381SOL    HW229043   2.330   1.263   6.703
 9382SOL     OW29044   4.709   2.311   2.472
 9382SOL    HW129045   4.795   2.300   2.422
 9382SOL    HW229046   4.716   2.265   2.561
 9383SOL     OW29047   4.791   5.750   5.450
 9383SOL    HW129048   4.794   5.651   5.433
 9383SOL    HW229049   4.842   5.798   5.379
 9384SOL     OW29050   5.234   5.813   1.365
 9384SOL    HW129051   5.214   5.730   1.418
 9384SOL    HW229052   5.333   5.819   1.348
 9385SOL     OW29053   3.835   1.328   3.257
 9385SOL    HW129054   3.813   1.278   3.173
 9385SOL    HW229055   3.826   1.426   3.241
 9386SOL     OW29056   3.382   6.741   4.199
 9386SOL    HW129057   3.402   6.771   4.292
 9386SOL    HW229058   3.378   6.641   4.196
 9387SOL     OW29059   4.151   0.025   6.882
 9387SOL    HW129060   4.169   0.115   6.842
 9387SOL    HW229061   4.210   0.011   6.962
 9388SOL     OW29062   6.803   0.458   2.987
 9388SOL    HW129063   6.746   0.523   2.937
 9388SOL    HW229064   6.771   0.365   2.971
 9389SOL     OW29065   2.802   0.685   6.504
 9389SOL    HW129066   2.878   0.748   6.492
 9389SOL    HW229067   2.722   0.734   6.539
 9390SOL     OW29068   3.263   5.765   2.215
 9390SOL    HW129069   3.252   5.683   2.159
 9390SOL    HW229070   3.352   5.763   2.260
 9391SOL     OW29071   0.243   1.229   5.396
 9391SOL    HW129072   0.288   1.286   5.327
 9391SOL    HW229073   0.271   1.134   5.384
 9392SOL     OW29074   1.254   6.193   4.744
 9392SOL    HW129075   1.298   6.105   4.728
 9392SOL    HW229076   1.265   6.219   4.839
 9393SOL     OW29077   3.884   2.227   5.271
 9393SOL    HW129078   3.959   2.245   5.206
 9393SOL    HW229079   3.816   2.168   5.228
 9394SOL     OW29080   5.605   2.285   2.497
 9394SOL    HW129081   5.692   2.290   2.446
 9394SOL    HW229082   5.593   2.193   2.533
 9395SOL     OW29083   2.097   3.162   6.748
 9395SOL    HW129084   2.043   3.231   6.796
 9395SOL    HW229085   2.100   3.184   6.650
 9396SOL     OW29086   6.595   0.194   6.279
 9396SOL    HW129087   6.580   0.244   6.364
 9396SOL    HW229088   6.602   0.258   6.203
 9397SOL     OW29089   2.914   0.624   0.910
 9397SOL    HW129090   2.870   0.713   0.922
 9397SOL    HW229091   2.844   0.553   0.903
 9398SOL     OW29092   2.748   1.829   6.296
 9398SOL    HW129093   2.764   1.927   6.282
 9398SOL    HW229094   2.782   1.803   6.387
 9399SOL     OW29095   6.662   0.611   5.439
 9399SOL    HW129096   6.714   0.578   5.361
 9399SOL    HW229097   6.666   0.544   5.513
 9400SOL     OW29098   5.372   2.420   2.679
 9400SOL    HW129099   5.308   2.496   2.665
 9400SOL    HW229100   5.400   2.383   2.590
 9401SOL     OW29101   3.221   0.368   2.940
 9401SOL    HW129102   3.250   0.355   3.035
 9401SOL    HW229103   3.122   0.373   2.936
 9402SOL     OW29104   2.393   5.117   6.451
 9402SOL    HW129105   2.361   5.024   6.438
 9402SOL    HW229106   2.474   5.133   6.395
 9403SOL     OW29107   5.340   0.965   4.237
 9403SOL    HW129108   5.337   0.887   4.300
 9403SOL    HW229109   5.412   1.028   4.264
 9404SOL     OW29110   0.828   4.013   6.083
 9404SOL    HW129111   0.843   4.103   6.040
 9404SOL    HW229112   0.735   3.982   6.061
 9405SOL     OW29113   5.679   6.942   1.135
 9405SOL    HW129114   5.733   6.947   1.051
 9405SOL    HW229115   5.671   6.847   1.164
 9406SOL     OW29116   7.023   1.282   5.358
 9406SOL    HW129117   0.092   1.262   5.379
 9406SOL    HW229118   6.969   1.197   5.363
 9407SOL     OW29119   3.389   5.933   2.580
 9407SOL    HW129120   3.437   6.009   2.535
 9407SOL    HW229121   3.301   5.918   2.536
 9408SOL     OW29122   4.178   1.799   5.957
 9408SOL    HW129123   4.081   1.782   5.936
 9408SOL    HW229124   4.191   1.894   5.984
 9409SOL     OW29125   5.661   4.322   3.342
 9409SOL    HW129126   5.564   4.299   3.340
 9409SOL    HW229127   5.712   4.245   3.380
 9410SOL     OW29128   4.641   6.394   2.535
 9410SOL    HW129129   4.630   6.456   2.612
 9410SOL    HW229130   4.705   6.321   2.560
 9411SOL     OW29131   5.007   5.408   0.905
 9411SOL    HW129132   4.927   5.463   0.880
 9411SOL    HW229133   5.046   5.443   0.990
 9412SOL     OW29134   6.307   2.625   1.398
 9412SOL    HW129135   6.237   2.557   1.379
 9412SOL    HW229136   6.353   2.650   1.313
 9413SOL     OW29137   4.008   5.772   5.843
 9413SOL    HW129138   3.963   5.706   5.903
 9413SOL    HW229139   4.072   5.828   5.896
 9414SOL     OW29140   2.715   1.889   1.831
 9414SOL    HW129141   2.639   1.871   1.893
 9414SOL    HW229142   2.746   1.983   1.841
 9415SOL     OW29143   2.740   0.006   2.001
 9415SOL    HW129144   2.833   0.009   2.037
 9415SOL    HW229145   2.702   6.941   2.015
 9416SOL     OW29146   0.848   2.871   1.772
 9416SOL    HW129147   0.821   2.938   1.703
 9416SOL    HW229148   0.775   2.804   1.785
 9417SOL     OW29149   2.366   5.927   4.905
 9417SOL    HW129150   2.282   5.895   4.861
 9417SOL    HW229151   2.424   5.973   4.837
 9418SOL     OW29152   3.511   5.204   0.450
 9418SOL    HW129153   3.505   5.259   0.367
 9418SOL    HW229154   3.580   5.133   0.437
 9419SOL     OW29155   3.625   6.669   5.555
 9419SOL    HW129156   3.623   6.647   5.652
 9419SOL    HW229157   3.665   6.760   5.543
 9420SOL     OW29158   0.302   1.434   4.307
 9420SOL    HW129159   0.323   1.385   4.222
 9420SOL    HW229160   0.382   1.487   4.336
 9421SOL     OW29161   1.608   4.305   5.596
 9421SOL    HW129162   1.606   4.323   5.498
 9421SOL    HW229163   1.562   4.380   5.645
 9422SOL     OW29164   4.126   1.023   2.431
 9422SOL    HW129165   4.201   1.072   2.474
 9422SOL    HW229166   4.076   0.971   2.500
 9423SOL     OW29167   4.517   0.924   5.004
 9423SOL    HW129168   4.522   1.007   4.948
 9423SOL    HW229169   4.476   0.947   5.092
 9424SOL     OW29170   2.962   6.530   4.515
 9424SOL    HW129171   2.973   6.552   4.418
 9424SOL    HW229172   3.014   6.594   4.571
 9425SOL     OW29173   1.343   3.165   4.528
 9425SOL    HW129174   1.402   3.158   4.448
 9425SOL    HW229175   1.314   3.260   4.540
 9426SOL     OW29176   3.587   0.222   0.225
 9426SOL    HW129177   3.542   0.249   0.139
 9426SOL    HW229178   3.681   0.195   0.206
 9427SOL     OW29179   2.895   5.198   4.243
 9427SOL    HW129180   2.829   5.217   4.316
 9427SOL    HW229181   2.987   5.195   4.282
 9428SOL     OW29182   5.086   6.539   2.687
 9428SOL    HW129183   5.125   6.622   2.727
 9428SOL    HW229184   5.045   6.560   2.598
 9429SOL     OW29185   0.278   3.913   2.598
 9429SOL    HW129186   0.312   4.007   2.600
 9429SOL    HW229187   0.355   3.850   2.612
 9430SOL     OW29188   6.206   6.734   1.560
 9430SOL    HW129189   6.232   6.688   1.645
 9430SOL    HW229190   6.230   6.831   1.566
 9431SOL     OW29191   6.592   4.082   1.997
 9431SOL    HW129192   6.530   4.150   2.035
 9431SOL    HW229193   6.673   4.128   1.960
 9432SOL     OW29194   6.492   6.670   4.148
 9432SOL    HW129195   6.582   6.677   4.193
 9432SOL    HW229196   6.448   6.760   4.150
 9433SOL     OW29197   3.113   5.000   4.939
 9433SOL    HW129198   3.099   5.094   4.969
 9433SOL    HW229199   3.066   4.938   5.001
 9434SOL     OW29200   4.791   5.016   2.537
 9434SOL    HW129201   4.800   4.999   2.439
 9434SOL    HW229202   4.695   5.022   2.562
 9435SOL     OW29203   1.387   0.941   4.416
 9435SOL    HW129204   1.337   0.925   4.502
 9435SOL    HW229205   1.485   0.934   4.432
 9436SOL     OW29206   2.376   2.780   6.446
 9436SOL    HW129207   2.438   2.859   6.444
 9436SOL    HW229208   2.404   2.717   6.519
 9437SOL     OW29209   1.392   4.975   4.006
 9437SOL    HW129210   1.434   4.933   4.086
 9437SOL    HW229211   1.293   4.960   4.009
 9438SOL     OW29212   1.251   6.251   2.625
 9438SOL    HW129213   1.243   6.272   2.722
 9438SOL    HW229214   1.172   6.289   2.576
 9439SOL     OW29215   0.442   2.531   1.704
 9439SOL    HW129216   0.453   2.551   1.607
 9439SOL    HW229217   0.524   2.485   1.739
 9440SOL     OW29218   4.988   6.515   5.903
 9440SOL    HW129219   5.042   6.549   5.825
 9440SOL    HW229220   5.005   6.573   5.983
 9441SOL     OW29221   1.630   4.477   5.363
 9441SOL    HW129222   1.565   4.553   5.360
 9441SOL    HW229223   1.722   4.510   5.341
 9442SOL     OW29224   0.193   3.778   1.474
 9442SOL    HW129225   0.119   3.774   1.541
 9442SOL    HW229226   0.160   3.741   1.387
 9443SOL     OW29227   1.701   3.845   1.549
 9443SOL    HW129228   1.708   3.942   1.529
 9443SOL    HW229229   1.768   3.795   1.494
 9444SOL     OW29230   0.140   3.631   6.866
 9444SOL    HW129231   0.092   3.717   6.852
 9444SOL    HW229232   0.199   3.612   6.787
 9445SOL     OW29233   5.892   3.517   1.499
 9445SOL    HW129234   5.974   3.570   1.479
 9445SOL    HW229235   5.834   3.511   1.418
 9446SOL     OW29236   6.574   5.982   1.703
 9446SOL    HW129237   6.624   5.915   1.758
 9446SOL    HW229238   6.571   5.951   1.608
 9447SOL     OW29239   5.598   3.089   2.060
 9447SOL    HW129240   5.670   3.103   1.992
 9447SOL    HW229241   5.629   3.121   2.149
 9448SOL     OW29242   6.211   6.585   0.240
 9448SOL    HW129243   6.146   6.637   0.184
 9448SOL    HW229244   6.217   6.491   0.206
 9449SOL     OW29245   6.879   5.089   5.026
 9449SOL    HW129246   6.937   5.014   5.057
 9449SOL    HW229247   6.790   5.084   5.072
 9450SOL     OW29248   3.282   4.885   4.134
 9450SOL    HW129249   3.276   4.934   4.221
 9450SOL    HW229250   3.378   4.873   4.109
 9451SOL     OW29251   4.543   4.920   6.091
 9451SOL    HW129252   4.478   4.919   6.167
 9451SOL    HW229253   4.545   4.830   6.047
 9452SOL     OW29254   2.285   4.431   1.504
 9452SOL    HW129255   2.222   4.360   1.537
 9452SOL    HW229256   2.238   4.519   1.501
 9453SOL     OW29257   3.144   5.231   2.548
 9453SOL    HW129258   3.212   5.163   2.574
 9453SOL    HW229259   3.175   5.278   2.465
 9454SOL     OW29260   2.082   2.957   5.308
 9454SOL    HW129261   1.989   2.926   5.290
 9454SOL    HW229262   2.094   3.049   5.270
 9455SOL     OW29263   3.696   1.706   2.176
 9455SOL    HW129264   3.719   1.635   2.109
 9455SOL    HW229265   3.747   1.790   2.155
 9456SOL     OW29266   1.027   3.236   1.259
 9456SOL    HW129267   0.998   3.172   1.331
 9456SOL    HW229268   0.949   3.256   1.199
 9457SOL     OW29269   0.608   3.602   0.746
 9457SOL    HW129270   0.597   3.619   0.844
 9457SOL    HW229271   0.652   3.513   0.733
 9458SOL     OW29272   6.931   5.759   5.008
 9458SOL    HW129273   6.840   5.717   5.008
 9458SOL    HW229274   6.989   5.711   5.074
 9459SOL     OW29275   5.976   5.473   1.829
 9459SOL    HW129276   5.981   5.379   1.863
 9459SOL    HW229277   6.053   5.491   1.768
 9460SOL     OW29278   1.256   2.367   5.470
 9460SOL    HW129279   1.222   2.366   5.564
 9460SOL    HW229280   1.209   2.296   5.418
 9461SOL     OW29281   1.024   1.254   4.070
 9461SOL    HW129282   1.083   1.174   4.080
 9461SOL    HW229283   1.026   1.308   4.153
 9462SOL     OW29284   0.673   3.411   2.411
 9462SOL    HW129285   0.760   3.361   2.410
 9462SOL    HW229286   0.611   3.370   2.344
 9463SOL     OW29287   5.494   1.524   0.331
 9463SOL    HW129288   5.497   1.596   0.261
 9463SOL    HW229289   5.411   1.534   0.385
 9464SOL     OW29290   5.724   0.626   6.207
 9464SOL    HW129291   5.737   0.715   6.164
 9464SOL    HW229292   5.805   0.601   6.258
 9465SOL     OW29293   6.186   1.429   3.970
 9465SOL    HW129294   6.170   1.418   4.068
 9465SOL    HW229295   6.283   1.443   3.954
 9466SOL     OW29296   3.183   2.502   6.621
 9466SOL    HW129297   3.190   2.405   6.645
 9466SOL    HW229298   3.091   2.522   6.589
 9467SOL     OW29299   2.104   3.225   1.869
 9467SOL    HW129300   2.153   3.304   1.906
 9467SOL    HW229301   2.024   3.206   1.926
 9468SOL     OW29302   6.861   3.031   6.084
 9468SOL    HW129303   6.821   3.123   6.095
 9468SOL    HW229304   6.905   3.024   5.995
 9469SOL     OW29305   6.391   4.853   1.946
 9469SOL    HW129306   6.360   4.794   1.872
 9469SOL    HW229307   6.397   4.800   2.030
 9470SOL     OW29308   5.099   3.381   0.826
 9470SOL    HW129309   5.146   3.452   0.879
 9470SOL    HW229310   5.000   3.395   0.832
 9471SOL     OW29311   0.290   1.963   5.276
 9471SOL    HW129312   0.380   2.007   5.266
 9471SOL    HW229313   0.230   2.021   5.330
 9472SOL     OW29314   6.259   3.866   3.993
 9472SOL    HW129315   6.300   3.786   4.037
 9472SOL    HW229316   6.305   3.949   4.026
 9473SOL     OW29317   2.973   5.100   5.378
 9473SOL    HW129318   3.050   5.160   5.356
 9473SOL    HW229319   3.008   5.010   5.404
 9474SOL     OW29320   4.355   5.088   2.383
 9474SOL    HW129321   4.308   5.008   2.419
 9474SOL    HW229322   4.410   5.062   2.304
 9475SOL     OW29323   2.366   3.576   1.473
 9475SOL    HW129324   2.335   3.631   1.395
 9475SOL    HW229325   2.454   3.534   1.450
 9476SOL     OW29326   3.461   3.469   5.664
 9476SOL    HW129327   3.513   3.535   5.610
 9476SOL    HW229328   3.492   3.472   5.759
 9477SOL     OW29329   1.363   2.639   1.490
 9477SOL    HW129330   1.302   2.681   1.558
 9477SOL    HW229331   1.457   2.668   1.508
 9478SOL     OW29332   5.685   4.685   5.538
 9478SOL    HW129333   5.705   4.633   5.621
 9478SOL    HW229334   5.660   4.622   5.465
 9479SOL     OW29335   6.145   5.873   6.263
 9479SOL    HW129336   6.111   5.795   6.211
 9479SOL    HW229337   6.226   5.911   6.217
 9480SOL     OW29338   5.701   4.871   6.772
 9480SOL    HW129339   5.627   4.934   6.797
 9480SOL    HW229340   5.762   4.916   6.707
 9481SOL     OW29341   0.333   3.828   2.195
 9481SOL    HW129342   0.234   3.839   2.204
 9481SOL    HW229343   0.371   3.905   2.144
 9482SOL     OW29344   4.372   0.996   1.992
 9482SOL    HW129345   4.465   0.961   1.979
 9482SOL    HW229346   4.339   0.969   2.083
 9483SOL     OW29347   1.642   2.006   0.035
 9483SOL    HW129348   1.718   2.065   0.063
 9483SOL    HW229349   1.621   2.023   6.965
 9484SOL     OW29350   6.715   1.608   3.813
 9484SOL    HW129351   6.802   1.656   3.801
 9484SOL    HW229352   6.661   1.654   3.884
 9485SOL     OW29353   0.829   0.545   2.476
 9485SOL    HW129354   0.848   0.637   2.510
 9485SOL    HW229355   0.912   0.489   2.485
 9486SOL     OW29356   3.204   6.110   1.744
 9486SOL    HW129357   3.271   6.047   1.704
 9486SOL    HW229358   3.136   6.057   1.795
 9487SOL     OW29359   2.907   3.579   4.032
 9487SOL    HW129360   2.952   3.538   4.111
 9487SOL    HW229361   2.933   3.675   4.025
 9488SOL     OW29362   1.441   6.507   1.278
 9488SOL    HW129363   1.392   6.566   1.342
 9488SOL    HW229364   1.459   6.558   1.194
 9489SOL     OW29365   3.834   5.237   0.548
 9489SOL    HW129366   3.781   5.312   0.510
 9489SOL    HW229367   3.915   5.221   0.492
 9490SOL     OW29368   4.674   1.353   1.482
 9490SOL    HW129369   4.650   1.287   1.553
 9490SOL    HW229370   4.632   1.325   1.395
 9491SOL     OW29371   5.622   4.977   6.456
 9491SOL    HW129372   5.544   5.026   6.418
 9491SOL    HW229373   5.608   4.878   6.444
 9492SOL     OW29374   3.072   3.948   1.700
 9492SOL    HW129375   3.166   3.962   1.669
 9492SOL    HW229376   3.073   3.926   1.798
 9493SOL     OW29377   4.896   6.479   3.112
 9493SOL    HW129378   4.803   6.507   3.137
 9493SOL    HW229379   4.953   6.474   3.194
 9494SOL     OW29380   4.123   3.423   5.424
 9494SOL    HW129381   4.184   3.384   5.494
 9494SOL    HW229382   4.061   3.489   5.467
 9495SOL     OW29383   6.192   2.267   5.196
 9495SOL    HW129384   6.139   2.210   5.132
 9495SOL    HW229385   6.138   2.284   5.278
 9496SOL     OW29386   5.580   4.169   0.103
 9496SOL    HW129387   5.664   4.212   0.071
 9496SOL    HW229388   5.506   4.237   0.108
 9497SOL     OW29389   5.695   5.913   6.381
 9497SOL    HW129390   5.785   5.898   6.423
 9497SOL    HW229391   5.625   5.911   6.452
 9498SOL     OW29392   3.563   0.572   6.141
 9498SOL    HW129393   3.466   0.552   6.130
 9498SOL    HW229394   3.577   0.671   6.139
 9499SOL     OW29395   3.607   4.146   5.286
 9499SOL    HW129396   3.700   4.164   5.254
 9499SOL    HW229397   3.599   4.049   5.311
 9500SOL     OW29398   5.104   5.877   1.842
 9500SOL    HW129399   5.162   5.809   1.886
 9500SOL    HW229400   5.151   5.914   1.762
 9501SOL     OW29401   3.035   1.496   4.959
 9501SOL    HW129402   3.129   1.529   4.958
 9501SOL    HW229403   3.033   1.398   4.938
 9502SOL     OW29404   6.217   2.780   5.700
 9502SOL    HW129405   6.313   2.799   5.680
 9502SOL    HW229406   6.164   2.863   5.690
 9503SOL     OW29407   1.133   6.730   1.201
 9503SOL    HW129408   1.185   6.762   1.122
 9503SOL    HW229409   1.037   6.757   1.191
 9504SOL     OW29410   0.631   3.097   6.589
 9504SOL    HW129411   0.649   3.085   6.686
 9504SOL    HW229412   0.586   3.185   6.574
 9505SOL     OW29413   5.772   3.089   3.171
 9505SOL    HW129414   5.871   3.102   3.175
 9505SOL    HW229415   5.751   3.009   3.114
 9506SOL     OW29416   6.415   3.830   0.490
 9506SOL    HW129417   6.392   3.755   0.428
 9506SOL    HW229418   6.504   3.813   0.533
 9507SOL     OW29419   1.078   1.647   3.473
 9507SOL    HW129420   1.145   1.657   3.547
 9507SOL    HW229421   1.032   1.559   3.483
 9508SOL     OW29422   5.999   2.137   0.857
 9508SOL    HW129423   5.995   2.109   0.952
 9508SOL    HW229424   6.090   2.118   0.820
 9509SOL     OW29425   2.285   6.183   5.686
 9509SOL    HW129426   2.196   6.222   5.709
 9509SOL    HW229427   2.316   6.124   5.761
 9510SOL     OW29428   6.427   4.722   3.535
 9510SOL    HW129429   6.347   4.684   3.489
 9510SOL    HW229430   6.405   4.813   3.571
 9511SOL     OW29431   0.401   1.672   0.875
 9511SOL    HW129432   0.390   1.771   0.875
 9511SOL    HW229433   0.454   1.644   0.796
 9512SOL     OW29434   1.209   2.413   3.823
 9512SOL    HW129435   1.286   2.424   3.887
 9512SOL    HW229436   1.195   2.316   3.804
 9513SOL     OW29437   2.238   4.234   4.090
 9513SOL    HW129438   2.237   4.233   4.190
 9513SOL    HW229439   2.316   4.181   4.056
 9514SOL     OW29440   2.326   2.557   6.883
 9514SOL    HW129441   2.228   2.569   6.864
 9514SOL    HW229442   2.345   2.586   6.977
 9515SOL     OW29443   1.993   5.452   6.446
 9515SOL    HW129444   2.015   5.399   6.363
 9515SOL    HW229445   2.074   5.502   6.475
 9516SOL     OW29446   4.908   3.806   4.263
 9516SOL    HW129447   5.000   3.767   4.266
 9516SOL    HW229448   4.886   3.831   4.169
 9517SOL     OW29449   0.479   5.659   2.223
 9517SOL    HW129450   0.554   5.724   2.221
 9517SOL    HW229451   0.393   5.706   2.204
 9518SOL     OW29452   0.756   2.561   6.159
 9518SOL    HW129453   0.732   2.493   6.228
 9518SOL    HW229454   0.853   2.552   6.136
 9519SOL     OW29455   3.639   3.735   3.117
 9519SOL    HW129456   3.654   3.653   3.062
 9519SOL    HW229457   3.572   3.714   3.189
 9520SOL     OW29458   6.691   0.085   5.581
 9520SOL    HW129459   6.623   0.108   5.512
 9520SOL    HW229460   6.783   0.092   5.541
 9521SOL     OW29461   3.425   0.692   0.968
 9521SOL    HW129462   3.465   0.608   0.931
 9521SOL    HW229463   3.338   0.671   1.013
 9522SOL     OW29464   3.485   6.247   2.220
 9522SOL    HW129465   3.448   6.214   2.133
 9522SOL    HW229466   3.508   6.344   2.212
 9523SOL     OW29467   2.584   4.853   3.997
 9523SOL    HW129468   2.583   4.914   3.918
 9523SOL    HW229469   2.492   4.848   4.036
 9524SOL     OW29470   1.729   4.415   1.696
 9524SOL    HW129471   1.699   4.349   1.626
 9524SOL    HW229472   1.755   4.366   1.778
 9525SOL     OW29473   2.069   2.993   5.625
 9525SOL    HW129474   2.137   3.066   5.633
 9525SOL    HW229475   2.076   2.950   5.535
 9526SOL     OW29476   5.225   4.491   6.832
 9526SOL    HW129477   5.316   4.455   6.812
 9526SOL    HW229478   5.159   4.454   6.765
 9527SOL     OW29479   4.118   6.770   3.203
 9527SOL    HW129480   4.120   6.673   3.227
 9527SOL    HW229481   4.068   6.821   3.273
 9528SOL     OW29482   5.598   1.822   0.959
 9528SOL    HW129483   5.529   1.750   0.964
 9528SOL    HW229484   5.666   1.808   1.031
 9529SOL     OW29485   6.343   1.410   1.425
 9529SOL    HW129486   6.431   1.364   1.414
 9529SOL    HW229487   6.356   1.497   1.472
 9530SOL     OW29488   0.681   5.628   3.910
 9530SOL    HW129489   0.730   5.633   3.998
 9530SOL    HW229490   0.639   5.717   3.891
 9531SOL     OW29491   3.884   5.352   2.622
 9531SOL    HW129492   3.817   5.326   2.553
 9531SOL    HW229493   3.870   5.447   2.649
 9532SOL     OW29494   5.915   5.078   2.385
 9532SOL    HW129495   5.995   5.059   2.328
 9532SOL    HW229496   5.844   5.120   2.328
 9533SOL     OW29497   2.217   4.680   3.324
 9533SOL    HW129498   2.186   4.740   3.398
 9533SOL    HW229499   2.307   4.709   3.292
 9534SOL     OW29500   5.552   4.560   4.913
 9534SOL    HW129501   5.481   4.494   4.941
 9534SOL    HW229502   5.629   4.510   4.874
 9535SOL     OW29503   0.900   0.849   5.595
 9535SOL    HW129504   0.924   0.946   5.588
 9535SOL    HW229505   0.804   0.837   5.570
 9536SOL     OW29506   4.057   3.640   4.795
 9536SOL    HW129507   4.107   3.640   4.881
 9536SOL    HW229508   4.035   3.546   4.769
 9537SOL     OW29509   1.456   1.267   3.505
 9537SOL    HW129510   1.468   1.205   3.428
 9537SOL    HW229511   1.369   1.246   3.551
 9538SOL     OW29512   3.615   0.937   4.800
 9538SOL    HW129513   3.537   0.887   4.838
 9538SOL    HW229514   3.583   1.019   4.753
 9539SOL     OW29515   3.661   2.911   2.795
 9539SOL    HW129516   3.701   2.825   2.825
 9539SOL    HW229517   3.696   2.935   2.705
 9540SOL     OW29518   4.627   4.806   4.170
 9540SOL    HW129519   4.690   4.731   4.147
 9540SOL    HW229520   4.680   4.889   4.189
 9541SOL     OW29521   1.724   5.661   5.421
 9541SOL    HW129522   1.820   5.664   5.448
 9541SOL    HW229523   1.708   5.582   5.362
 9542SOL     OW29524   6.278   4.113   4.194
 9542SOL    HW129525   6.368   4.156   4.184
 9542SOL    HW229526   6.217   4.149   4.124
 9543SOL     OW29527   2.371   0.463   5.859
 9543SOL    HW129528   2.468   0.442   5.849
 9543SOL    HW229529   2.351   0.482   5.955
 9544SOL     OW29530   5.555   3.809   4.199
 9544SOL    HW129531   5.462   3.821   4.167
 9544SOL    HW229532   5.580   3.885   4.260
 9545SOL     OW29533   1.628   4.591   2.063
 9545SOL    HW129534   1.634   4.677   2.012
 9545SOL    HW229535   1.582   4.523   2.007
 9546SOL     OW29536   3.106   1.858   6.409
 9546SOL    HW129537   3.180   1.880   6.472
 9546SOL    HW229538   3.143   1.845   6.317
 9547SOL     OW29539   3.508   6.168   3.740
 9547SOL    HW129540   3.436   6.226   3.702
 9547SOL    HW229541   3.581   6.157   3.673
 9548SOL     OW29542   1.018   4.598   0.062
 9548SOL    HW129543   0.964   4.523   0.101
 9548SOL    HW229544   0.965   4.645   7.018
 9549SOL     OW29545   4.207   2.450   1.253
 9549SOL    HW129546   4.122   2.503   1.258
 9549SOL    HW229547   4.236   2.426   1.346
 9550SOL     OW29548   5.163   2.742   1.590
 9550SOL    HW129549   5.149   2.832   1.631
 9550SOL    HW229550   5.106   2.734   1.508
 9551SOL     OW29551   6.984   2.291   6.748
 9551SOL    HW129552   6.916   2.277   6.819
 9551SOL    HW229553   6.943   2.341   6.671
 9552SOL     OW29554   3.126   1.566   6.764
 9552SOL    HW129555   3.188   1.639   6.791
 9552SOL    HW229556   3.102   1.575   6.668
 9553SOL     OW29557   5.643   1.790   6.503
 9553SOL    HW129558   5.738   1.819   6.517
 9553SOL    HW229559   5.632   1.695   6.532
 9554SOL     OW29560   2.239   6.865   4.102
 9554SOL    HW129561   2.270   6.836   4.012
 9554SOL    HW229562   2.317   6.868   4.165
 9555SOL     OW29563   6.362   0.575   3.831
 9555SOL    HW129564   6.285   0.511   3.827
 9555SOL    HW229565   6.376   0.603   3.925
 9556SOL     OW29566   1.958   4.322   0.454
 9556SOL    HW129567   1.950   4.322   0.354
 9556SOL    HW229568   2.052   4.300   0.480
 9557SOL     OW29569   4.967   0.438   1.789
 9557SOL    HW129570   4.872   0.465   1.774
 9557SOL    HW229571   4.978   0.407   1.884
 9558SOL     OW29572   5.086   6.678   6.406
 9558SOL    HW129573   5.014   6.732   6.449
 9558SOL    HW229574   5.175   6.714   6.434
 9559SOL     OW29575   1.910   4.097   0.182
 9559SOL    HW129576   1.879   4.014   0.136
 9559SOL    HW229577   1.869   4.102   0.273
 9560SOL     OW29578   3.085   6.547   1.942
 9560SOL    HW129579   3.092   6.553   1.842
 9560SOL    HW229580   3.098   6.452   1.970
 9561SOL     OW29581   0.953   0.875   1.001
 9561SOL    HW129582   0.878   0.940   0.991
 9561SOL    HW229583   0.926   0.786   0.964
 9562SOL     OW29584   2.897   5.220   3.980
 9562SOL    HW129585   2.880   5.126   3.950
 9562SOL    HW229586   2.896   5.224   4.080
 9563SOL     OW29587   1.073   5.834   1.266
 9563SOL    HW129588   1.167   5.838   1.233
 9563SOL    HW229589   1.023   5.762   1.216
 9564SOL     OW29590   1.716   6.662   0.649
 9564SOL    HW129591   1.627   6.621   0.631
 9564SOL    HW229592   1.707   6.761   0.655
 9565SOL     OW29593   3.331   1.248   4.278
 9565SOL    HW129594   3.254   1.311   4.272
 9565SOL    HW229595   3.340   1.197   4.192
 9566SOL     OW29596   2.353   6.990   0.630
 9566SOL    HW129597   2.369   6.978   0.532
 9566SOL    HW229598   2.344   6.900   0.673
 9567SOL     OW29599   6.630   4.799   1.079
 9567SOL    HW129600   6.699   4.775   1.147
 9567SOL    HW229601   6.551   4.840   1.125
 9568SOL     OW29602   4.152   1.463   6.558
 9568SOL    HW129603   4.211   1.392   6.594
 9568SOL    HW229604   4.201   1.516   6.488
 9569SOL     OW29605   5.399   0.643   1.845
 9569SOL    HW129606   5.301   0.633   1.829
 9569SOL    HW229607   5.446   0.558   1.823
 9570SOL     OW29608   0.062   3.081   1.120
 9570SOL    HW129609   0.083   3.085   1.218
 9570SOL    HW229610   0.001   3.156   1.096
 9571SOL     OW29611   3.067   2.295   6.911
 9571SOL    HW129612   3.167   2.305   6.911
 9571SOL    HW229613   3.035   2.286   7.005
 9572SOL     OW29614   2.157   3.873   3.526
 9572SOL    HW129615   2.067   3.850   3.489
 9572SOL    HW229616   2.147   3.930   3.608
 9573SOL     OW29617   6.807   0.748   4.407
 9573SOL    HW129618   6.878   0.786   4.466
 9573SOL    HW229619   6.828   0.652   4.388
 9574SOL     OW29620   3.780   2.992   1.371
 9574SOL    HW129621   3.824   2.953   1.452
 9574SOL    HW229622   3.762   3.089   1.386
 9575SOL     OW29623   6.174   6.466   1.814
 9575SOL    HW129624   6.085   6.504   1.839
 9575SOL    HW229625   6.223   6.439   1.897
 9576SOL     OW29626   1.035   0.206   6.989
 9576SOL    HW129627   1.129   0.184   6.964
 9576SOL    HW229628   1.034   0.292   0.015
 9577SOL     OW29629   6.407   5.160   1.448
 9577SOL    HW129630   6.317   5.204   1.446
 9577SOL    HW229631   6.478   5.230   1.459
 9578SOL     OW29632   1.369   2.581   2.775
 9578SOL    HW129633   1.327   2.619   2.857
 9578SOL    HW229634   1.372   2.481   2.781
 9579SOL     OW29635   5.674   6.548   2.305
 9579SOL    HW129636   5.748   6.616   2.310
 9579SOL    HW229637   5.645   6.525   2.398
 9580SOL     OW29638   4.666   4.837   1.964
 9580SOL    HW129639   4.736   4.864   1.899
 9580SOL    HW229640   4.689   4.749   2.004
 9581SOL     OW29641   6.124   1.286   0.046
 9581SOL    HW129642   6.215   1.286   0.006
 9581SOL    HW229643   6.115   1.207   0.107
 9582SOL     OW29644   4.224   5.731   4.251
 9582SOL    HW129645   4.226   5.830   4.261
 9582SOL    HW229646   4.277   5.689   4.324
 9583SOL     OW29647   3.463   4.623   1.668
 9583SOL    HW129648   3.527   4.653   1.739
 9583SOL    HW229649   3.484   4.528   1.643
 9584SOL     OW29650   1.912   4.147   4.460
 9584SOL    HW129651   1.985   4.082   4.443
 9584SOL    HW229652   1.918   4.223   4.395
 9585SOL     OW29653   5.212   5.969   1.621
 9585SOL    HW129654   5.194   6.067   1.626
 9585SOL    HW229655   5.194   5.937   1.528
 9586SOL     OW29656   4.528   5.366   1.582
 9586SOL    HW129657   4.456   5.383   1.514
 9586SOL    HW229658   4.599   5.307   1.541
 9587SOL     OW29659   2.742   6.459   1.392
 9587SOL    HW129660   2.827   6.431   1.436
 9587SOL    HW229661   2.734   6.558   1.396
 9588SOL     OW29662   6.714   5.907   0.740
 9588SOL    HW129663   6.636   5.888   0.799
 9588SOL    HW229664   6.721   5.836   0.669
 9589SOL     OW29665   1.547   3.836   6.425
 9589SOL    HW129666   1.508   3.874   6.508
 9589SOL    HW229667   1.476   3.829   6.355
 9590SOL     OW29668   4.969   1.569   2.044
 9590SOL    HW129669   5.063   1.557   2.010
 9590SOL    HW229670   4.972   1.603   2.138
 9591SOL     OW29671   3.176   0.083   6.545
 9591SOL    HW129672   3.235   0.095   6.465
 9591SOL    HW229673   3.144   7.015   6.549
 9592SOL     OW29674   2.726   4.738   6.668
 9592SOL    HW129675   2.781   4.660   6.696
 9592SOL    HW229676   2.638   4.707   6.633
 9593SOL     OW29677   1.262   2.007   5.252
 9593SOL    HW129678   1.353   1.987   5.286
 9593SOL    HW229679   1.236   1.939   5.183
 9594SOL     OW29680   1.017   5.764   4.159
 9594SOL    HW129681   1.081   5.831   4.198
 9594SOL    HW229682   1.068   5.696   4.107
 9595SOL     OW29683   0.295   3.044   4.080
 9595SOL    HW129684   0.225   2.993   4.030
 9595SOL    HW229685   0.299   3.009   4.174
 9596SOL     OW29686   0.206   6.073   1.018
 9596SOL    HW129687   0.295   6.092   1.057
 9596SOL    HW229688   0.158   6.005   1.074
 9597SOL     OW29689   1.023   3.868   3.071
 9597SOL    HW129690   0.976   3.812   3.139
 9597SOL    HW229691   1.041   3.959   3.108
 9598SOL     OW29692   1.519   3.726   3.094
 9598SOL    HW129693   1.465   3.659   3.044
 9598SOL    HW229694   1.590   3.764   3.034
 9599SOL     OW29695   3.271   0.273   3.573
 9599SOL    HW129696   3.313   0.220   3.647
 9599SOL    HW229697   3.239   0.211   3.501
 9600SOL     OW29698   3.147   0.705   1.020
 9600SOL    HW129699   3.072   0.649   0.984
 9600SOL    HW229700   3.109   0.787   1.063
 9601SOL     OW29701   6.752   4.400   1.311
 9601SOL    HW129702   6.655   4.423   1.316
 9601SOL    HW229703   6.763   4.301   1.310
 9602SOL     OW29704   5.163   3.748   5.360
 9602SOL    HW129705   5.145   3.670   5.301
 9602SOL    HW229706   5.085   3.810   5.359
 9603SOL     OW29707   5.692   6.848   5.720
 9603SOL    HW129708   5.703   6.923   5.784
 9603SOL    HW229709   5.727   6.875   5.630
 9604SOL     OW29710   5.645   0.019   0.474
 9604SOL    HW129711   5.601   0.109   0.462
 9604SOL    HW229712   5.665   0.005   0.571
 9605SOL     OW29713   6.703   5.636   3.633
 9605SOL    HW129714   6.616   5.658   3.588
 9605SOL    HW229715   6.728   5.709   3.696
 9606SOL     OW29716   1.091   1.155   6.288
 9606SOL    HW129717   1.135   1.184   6.374
 9606SOL    HW229718   1.074   1.057   6.291
 9607SOL     OW29719   3.594   2.363   6.055
 9607SOL    HW129720   3.508   2.341   6.100
 9607SOL    HW229721   3.599   2.461   6.038
 9608SOL     OW29722   6.508   4.192   2.847
 9608SOL    HW129723   6.498   4.101   2.886
 9608SOL    HW229724   6.436   4.208   2.779
 9609SOL     OW29725   4.136   2.478   6.502
 9609SOL    HW129726   4.071   2.403   6.509
 9609SOL    HW229727   4.163   2.491   6.406
 9610SOL     OW29728   1.800   3.676   2.896
 9610SOL    HW129729   1.834   3.764   2.861
 9610SOL    HW229730   1.812   3.672   2.995
 9611SOL     OW29731   1.754   0.127   1.258
 9611SOL    HW129732   1.773   0.142   1.355
 9611SOL    HW229733   1.674   0.180   1.231
 9612SOL     OW29734   0.656   2.810   2.684
 9612SOL    HW129735   0.598   2.830   2.764
 9612SOL    HW229736   0.690   2.716   2.690
 9613SOL     OW29737   6.429   6.209   3.612
 9613SOL    HW129738   6.434   6.306   3.589
 9613SOL    HW229739   6.497   6.159   3.560
 9614SOL     OW29740   4.776   2.144   3.026
 9614SOL    HW129741   4.685   2.115   2.995
 9614SOL    HW229742   4.816   2.073   3.083
 9615SOL     OW29743   2.420   2.650   1.217
 9615SOL    HW129744   2.361   2.639   1.298
 9615SOL    HW229745   2.416   2.745   1.186
 9616SOL     OW29746   3.792   2.905   0.817
 9616SOL    HW129747   3.780   2.870   0.910
 9616SOL    HW229748   3.792   2.828   0.753
 9617SOL     OW29749   2.177   2.944   3.896
 9617SOL    HW129750   2.269   2.915   3.919
 9617SOL    HW229751   2.176   2.983   3.804
 9618SOL     OW29752   3.033   1.078   0.575
 9618SOL    HW129753   3.023   1.098   0.477
 9618SOL    HW229754   2.963   1.011   0.602
 9619SOL     OW29755   1.872   0.700   5.334
 9619SOL    HW129756   1.817   0.725   5.414
 9619SOL    HW229757   1.861   0.769   5.263
 9620SOL     OW29758   4.962   0.084   4.897
 9620SOL    HW129759   4.950   0.010   4.963
 9620SOL    HW229760   4.880   0.094   4.841
 9621SOL     OW29761   1.524   2.775   2.165
 9621SOL    HW129762   1.478   2.797   2.251
 9621SOL    HW229763   1.507   2.679   2.142
 9622SOL     OW29764   5.844   1.013   1.070
 9622SOL    HW129765   5.888   1.089   1.022
 9622SOL    HW229766   5.839   1.033   1.168
 9623SOL     OW29767   3.621   3.205   6.164
 9623SOL    HW129768   3.528   3.170   6.155
 9623SOL    HW229769   3.680   3.164   6.095
 9624SOL     OW29770   5.641   3.310   3.066
 9624SOL    HW129771   5.682   3.225   3.099
 9624SOL    HW229772   5.550   3.321   3.105
 9625SOL     OW29773   5.908   6.277   0.489
 9625SOL    HW129774   6.000   6.309   0.512
 9625SOL    HW229775   5.887   6.301   0.395
 9626SOL     OW29776   3.906   5.340   0.026
 9626SOL    HW129777   3.963   5.397   6.993
 9626SOL    HW229778   3.882   5.391   0.108
 9627SOL     OW29779   1.420   6.071   6.335
 9627SOL    HW129780   1.384   6.041   6.247
 9627SOL    HW229781   1.518   6.091   6.326
 9628SOL     OW29782   4.627   6.093   1.187
 9628SOL    HW129783   4.671   6.015   1.141
 9628SOL    HW229784   4.598   6.160   1.119
 9629SOL     OW29785   2.747   0.283   1.051
 9629SOL    HW129786   2.813   0.252   0.983
 9629SOL    HW229787   2.679   0.211   1.066
 9630SOL     OW29788   6.457   0.231   5.936
 9630SOL    HW129789   6.363   0.232   5.903
 9630SOL    HW229790   6.509   0.161   5.887
 9631SOL     OW29791   6.331   6.977   6.530
 9631SOL    HW129792   6.419   6.985   6.578
 9631SOL    HW229793   6.347   6.946   6.436
 9632SOL     OW29794   1.842   6.405   1.922
 9632SOL    HW129795   1.770   6.446   1.979
 9632SOL    HW229796   1.859   6.311   1.952
 9633SOL     OW29797   6.153   5.371   6.580
 9633SOL    HW129798   6.079   5.430   6.548
 9633SOL    HW229799   6.126   5.325   6.665
 9634SOL     OW29800   1.416   6.504   4.694
 9634SOL    HW129801   1.322   6.537   4.699
 9634SOL    HW229802   1.425   6.419   4.747
 9635SOL     OW29803   2.773   5.308   4.463
 9635SOL    HW129804   2.852   5.325   4.521
 9635SOL    HW229805   2.704   5.256   4.515
 9636SOL     OW29806   4.513   1.317   5.226
 9636SOL    HW129807   4.442   1.382   5.251
 9636SOL    HW229808   4.556   1.346   5.140
 9637SOL     OW29809   1.706   1.795   6.704
 9637SOL    HW129810   1.761   1.739   6.642
 9637SOL    HW229811   1.660   1.867   6.651
 9638SOL     OW29812   6.524   3.176   5.284
 9638SOL    HW129813   6.583   3.239   5.334
 9638SOL    HW229814   6.579   3.116   5.227
 9639SOL     OW29815   4.322   1.180   2.570
 9639SOL    HW129816   4.377   1.232   2.504
 9639SOL    HW229817   4.270   1.243   2.627
 9640SOL     OW29818   2.027   2.857   2.768
 9640SOL    HW129819   1.985   2.819   2.851
 9640SOL    HW229820   2.119   2.889   2.789
 9641SOL     OW29821   5.854   6.360   0.192
 9641SOL    HW129822   5.779   6.426   0.181
 9641SOL    HW229823   5.877   6.320   0.104
 9642SOL     OW29824   2.973   0.748   4.488
 9642SOL    HW129825   2.896   0.737   4.550
 9642SOL    HW229826   3.019   0.835   4.506
 9643SOL     OW29827   4.954   4.967   3.513
 9643SOL    HW129828   4.864   4.972   3.556
 9643SOL    HW229829   5.021   4.932   3.579
 9644SOL     OW29830   1.663   2.551   6.177
 9644SOL    HW129831   1.740   2.556   6.114
 9644SOL    HW229832   1.660   2.461   6.219
 9645SOL     OW29833   2.985   5.274   4.896
 9645SOL    HW129834   3.067   5.253   4.950
 9645SOL    HW229835   2.943   5.357   4.931
 9646SOL     OW29836   4.039   5.011   2.872
 9646SOL    HW129837   4.027   4.933   2.811
 9646SOL    HW229838   3.964   5.076   2.860
 9647SOL     OW29839   6.792   3.526   0.895
 9647SOL    HW129840   6.823   3.537   0.801
 9647SOL    HW229841   6.725   3.597   0.917
 9648SOL     OW29842   4.722   2.959   1.062
 9648SOL    HW129843   4.702   3.030   0.995
 9648SOL    HW229844   4.736   3.000   1.152
 9649SOL     OW29845   2.230   5.811   0.342
 9649SOL    HW129846   2.207   5.893   0.396
 9649SOL    HW229847   2.329   5.795   0.346
 9650SOL     OW29848   6.750   5.593   2.087
 9650SOL    HW129849   6.746   5.541   2.172
 9650SOL    HW229850   6.833   5.568   2.037
 9651SOL     OW29851   0.879   0.940   6.691
 9651SOL    HW129852   0.903   1.034   6.668
 9651SOL    HW229853   0.829   0.898   6.614
 9652SOL     OW29854   0.237   5.220   3.141
 9652SOL    HW129855   0.293   5.162   3.082
 9652SOL    HW229856   0.286   5.305   3.160
 9653SOL     OW29857   5.927   4.956   4.550
 9653SOL    HW129858   5.983   4.960   4.632
 9653SOL    HW229859   5.856   5.026   4.554
 9654SOL     OW29860   2.426   3.061   1.635
 9654SOL    HW129861   2.499   2.993   1.647
 9654SOL    HW229862   2.463   3.153   1.651
 9655SOL     OW29863   6.970   1.805   0.191
 9655SOL    HW129864   6.942   1.809   0.286
 9655SOL    HW229865   0.044   1.811   0.186
 9656SOL     OW29866   3.494   0.470   2.855
 9656SOL    HW129867   3.539   0.454   2.943
 9656SOL    HW229868   3.400   0.439   2.859
 9657SOL     OW29869   6.423   0.748   4.561
 9657SOL    HW129870   6.422   0.664   4.507
 9657SOL    HW229871   6.357   0.740   4.636
 9658SOL     OW29872   6.412   2.661   1.892
 9658SOL    HW129873   6.352   2.730   1.852
 9658SOL    HW229874   6.445   2.693   1.980
 9659SOL     OW29875   0.561   4.492   6.737
 9659SOL    HW129876   0.467   4.523   6.750
 9659SOL    HW229877   0.563   4.392   6.738
 9660SOL     OW29878   0.553   5.296   0.220
 9660SOL    HW129879   0.643   5.264   0.250
 9660SOL    HW229880   0.516   5.361   0.287
 9661SOL     OW29881   4.217   6.352   0.885
 9661SOL    HW129882   4.179   6.442   0.904
 9661SOL    HW229883   4.214   6.297   0.968
 9662SOL     OW29884   6.354   1.320   4.720
 9662SOL    HW129885   6.312   1.410   4.732
 9662SOL    HW229886   6.434   1.312   4.779
 9663SOL     OW29887   2.284   5.501   3.023
 9663SOL    HW129888   2.344   5.560   2.970
 9663SOL    HW229889   2.335   5.460   3.098
 9664SOL     OW29890   3.782   6.204   1.941
 9664SOL    HW129891   3.703   6.245   1.985
 9664SOL    HW229892   3.771   6.207   1.842
 9665SOL     OW29893   5.527   4.262   4.371
 9665SOL    HW129894   5.545   4.358   4.391
 9665SOL    HW229895   5.432   4.240   4.393
 9666SOL     OW29896   5.833   4.492   3.556
 9666SOL    HW129897   5.826   4.592   3.552
 9666SOL    HW229898   5.753   4.451   3.512
 9667SOL     OW29899   3.996   3.610   3.862
 9667SOL    HW129900   3.954   3.690   3.818
 9667SOL    HW229901   4.041   3.554   3.792
 9668SOL     OW29902   0.202   0.832   5.655
 9668SOL    HW129903   0.204   0.768   5.732
 9668SOL    HW229904   0.227   0.784   5.571
 9669SOL     OW29905   1.416   5.651   0.810
 9669SOL    HW129906   1.328   5.634   0.855
 9669SOL    HW229907   1.443   5.746   0.825
 9670SOL     OW29908   5.047   5.006   6.839
 9670SOL    HW129909   5.036   5.096   6.797
 9670SOL    HW229910   5.052   4.936   6.768
 9671SOL     OW29911   0.004   5.857   5.617
 9671SOL    HW129912   6.981   5.843   5.532
 9671SOL    HW229913   6.971   5.833   5.694
 9672SOL     OW29914   0.783   6.341   4.728
 9672SOL    HW129915   0.690   6.321   4.761
 9672SOL    HW229916   0.779   6.373   4.634
 9673SOL     OW29917   3.272   4.355   6.999
 9673SOL    HW129918   3.276   4.319   6.905
 9673SOL    HW229919   3.222   4.441   6.999
 9674SOL     OW29920   3.141   5.927   2.410
 9674SOL    HW129921   3.200   5.879   2.346
 9674SOL    HW229922   3.071   5.864   2.444
 9675SOL     OW29923   6.340   1.965   1.697
 9675SOL    HW129924   6.352   1.866   1.688
 9675SOL    HW229925   6.349   1.990   1.793
 9676SOL     OW29926   0.342   3.804   4.748
 9676SOL    HW129927   0.439   3.783   4.737
 9676SOL    HW229928   0.287   3.727   4.716
 9677SOL     OW29929   1.988   3.273   6.182
 9677SOL    HW129930   2.006   3.263   6.280
 9677SOL    HW229931   1.934   3.195   6.150
 9678SOL     OW29932   3.225   3.470   3.162
 9678SOL    HW129933   3.235   3.371   3.161
 9678SOL    HW229934   3.181   3.500   3.077
 9679SOL     OW29935   1.315   2.836   1.985
 9679SOL    HW129936   1.290   2.909   2.047
 9679SOL    HW229937   1.400   2.793   2.015
 9680SOL     OW29938   5.774   5.823   3.581
 9680SOL    HW129939   5.797   5.918   3.560
 9680SOL    HW229940   5.727   5.782   3.504
 9681SOL     OW29941   2.379   0.726   2.432
 9681SOL    HW129942   2.427   0.643   2.401
 9681SOL    HW229943   2.443   0.785   2.481
 9682SOL     OW29944   5.914   4.628   3.202
 9682SOL    HW129945   5.886   4.655   3.110
 9682SOL    HW229946   5.834   4.594   3.252
 9683SOL     OW29947   4.692   6.205   6.611
 9683SOL    HW129948   4.604   6.219   6.566
 9683SOL    HW229949   4.680   6.142   6.688
 9684SOL     OW29950   0.951   3.652   5.063
 9684SOL    HW129951   0.943   3.552   5.071
 9684SOL    HW229952   1.036   3.675   5.016
 9685SOL     OW29953   0.971   3.136   0.597
 9685SOL    HW129954   0.873   3.121   0.607
 9685SOL    HW229955   0.992   3.162   0.502
 9686SOL     OW29956   6.459   0.681   1.213
 9686SOL    HW129957   6.416   0.752   1.157
 9686SOL    HW229958   6.407   0.669   1.297
 9687SOL     OW29959   3.003   0.201   3.783
 9687SOL    HW129960   3.099   0.226   3.788
 9687SOL    HW229961   2.948   0.283   3.766
 9688SOL     OW29962   6.987   1.389   2.947
 9688SOL    HW129963   0.034   1.389   3.015
 9688SOL    HW229964   6.944   1.479   2.944
 9689SOL     OW29965   2.508   6.378   6.182
 9689SOL    HW129966   2.491   6.312   6.255
 9689SOL    HW229967   2.479   6.339   6.095
 9690SOL     OW29968   6.486   5.117   1.106
 9690SOL    HW129969   6.434   5.033   1.119
 9690SOL    HW229970   6.568   5.115   1.163
 9691SOL     OW29971   2.103   4.877   2.520
 9691SOL    HW129972   2.025   4.929   2.553
 9691SOL    HW229973   2.105   4.787   2.563
 9692SOL     OW29974   2.700   5.336   1.612
 9692SOL    HW129975   2.614   5.292   1.584
 9692SOL    HW229976   2.695   5.434   1.593
 9693SOL     OW29977   6.294   6.332   2.026
 9693SOL    HW129978   6.224   6.298   2.089
 9693SOL    HW229979   6.337   6.254   1.980
 9694SOL     OW29980   1.348   2.716   6.474
 9694SOL    HW129981   1.287   2.792   6.453
 9694SOL    HW229982   1.350   2.700   6.572
 9695SOL     OW29983   6.745   4.357   1.748
 9695SOL    HW129984   6.700   4.443   1.772
 9695SOL    HW229985   6.679   4.295   1.705
 9696SOL     OW29986   4.073   3.188   1.494
 9696SOL    HW129987   4.012   3.213   1.568
 9696SOL    HW229988   4.161   3.234   1.506
 9697SOL     OW29989   0.753   5.692   0.269
 9697SOL    HW129990   0.768   5.748   0.187
 9697SOL    HW229991   0.711   5.748   0.341
 9698SOL     OW29992   5.830   2.096   5.008
 9698SOL    HW129993   5.748   2.055   4.967
 9698SOL    HW229994   5.864   2.036   5.081
 9699SOL     OW29995   1.933   3.385   6.839
 9699SOL    HW129996   1.904   3.479   6.824
 9699SOL    HW229997   1.912   3.359   6.934
 9700SOL     OW29998   3.576   3.792   4.886
 9700SOL    HW129999   3.676   3.788   4.880
 9700SOL    HW230000   3.539   3.838   4.806
 9701SOL     OW30001   4.762   5.563   4.866
 9701SOL    HW130002   4.817   5.480   4.860
 9701SOL    HW230003   4.809   5.638   4.819
 9702SOL     OW30004   4.793   0.951   0.652
 9702SOL    HW130005   4.725   0.899   0.702
 9702SOL    HW230006   4.808   0.909   0.562
 9703SOL     OW30007   2.937   5.764   4.232
 9703SOL    HW130008   2.918   5.688   4.170
 9703SOL    HW230009   2.876   5.758   4.311
 9704SOL     OW30010   3.567   0.209   3.144
 9704SOL    HW130011   3.525   0.151   3.074
 9704SOL    HW230012   3.592   0.297   3.103
 9705SOL     OW30013   3.370   4.468   0.635
 9705SOL    HW130014   3.402   4.374   0.652
 9705SOL    HW230015   3.388   4.493   0.540
 9706SOL     OW30016   5.417   2.752   2.917
 9706SOL    HW130017   5.438   2.847   2.942
 9706SOL    HW230018   5.410   2.745   2.817
 9707SOL     OW30019   2.630   5.319   2.291
 9707SOL    HW130020   2.653   5.408   2.252
 9707SOL    HW230021   2.556   5.278   2.238
 9708SOL     OW30022   2.344   1.348   3.239
 9708SOL    HW130023   2.441   1.343   3.261
 9708SOL    HW230024   2.318   1.270   3.182
 9709SOL     OW30025   1.774   6.022   3.219
 9709SOL    HW130026   1.821   6.080   3.286
 9709SOL    HW230027   1.842   5.975   3.163
 9710SOL     OW30028   0.545   0.708   3.343
 9710SOL    HW130029   0.477   0.778   3.322
 9710SOL    HW230030   0.607   0.743   3.414
 9711SOL     OW30031   1.440   3.701   5.343
 9711SOL    HW130032   1.519   3.724   5.400
 9711SOL    HW230033   1.402   3.784   5.302
 9712SOL     OW30034   5.166   1.951   3.964
 9712SOL    HW130035   5.261   1.923   3.980
 9712SOL    HW230036   5.143   2.026   4.026
 9713SOL     OW30037   0.030   5.125   2.967
 9713SOL    HW130038   0.101   5.161   3.028
 9713SOL    HW230039   6.969   5.123   3.016
 9714SOL     OW30040   2.219   2.613   1.425
 9714SOL    HW130041   2.237   2.558   1.506
 9714SOL    HW230042   2.172   2.697   1.453
 9715SOL     OW30043   5.001   6.176   4.964
 9715SOL    HW130044   5.023   6.107   5.033
 9715SOL    HW230045   5.043   6.263   4.990
 9716SOL     OW30046   4.480   1.900   6.284
 9716SOL    HW130047   4.440   1.837   6.218
 9716SOL    HW230048   4.445   1.879   6.375
 9717SOL     OW30049   5.915   5.375   3.936
 9717SOL    HW130050   5.916   5.335   4.027
 9717SOL    HW230051   5.820   5.389   3.907
 9718SOL     OW30052   4.332   3.421   1.390
 9718SOL    HW130053   4.427   3.450   1.380
 9718SOL    HW230054   4.315   3.395   1.485
 9719SOL     OW30055   0.507   1.852   7.000
 9719SOL    HW130056   0.511   1.887   6.906
 9719SOL    HW230057   0.592   1.874   0.021
 9720SOL     OW30058   6.795   0.396   1.736
 9720SOL    HW130059   6.887   0.369   1.705
 9720SOL    HW230060   6.727   0.361   1.673
 9721SOL     OW30061   6.554   3.723   2.446
 9721SOL    HW130062   6.461   3.720   2.482
 9721SOL    HW230063   6.562   3.797   2.380
 9722SOL     OW30064   0.791   0.775   3.999
 9722SOL    HW130065   0.862   0.846   3.991
 9722SOL    HW230066   0.730   0.798   4.075
 9723SOL     OW30067   0.373   1.272   3.654
 9723SOL    HW130068   0.354   1.205   3.582
 9723SOL    HW230069   0.292   1.283   3.712
 9724SOL     OW30070   3.688   2.467   1.296
 9724SOL    HW130071   3.737   2.449   1.382
 9724SOL    HW230072   3.674   2.381   1.248
 9725SOL     OW30073   4.288   3.377   5.648
 9725SOL    HW130074   4.385   3.359   5.661
 9725SOL    HW230075   4.241   3.377   5.736
 9726SOL     OW30076   4.746   6.336   4.757
 9726SOL    HW130077   4.763   6.264   4.690
 9726SOL    HW230078   4.648   6.338   4.779
 9727SOL     OW30079   1.660   2.967   5.653
 9727SOL    HW130080   1.564   2.992   5.661
 9727SOL    HW230081   1.715   3.049   5.641
 9728SOL     OW30082   2.562   5.971   6.946
 9728SOL    HW130083   2.595   5.968   0.014
 9728SOL    HW230084   2.533   5.880   6.918
 9729SOL     OW30085   2.674   5.082   2.940
 9729SOL    HW130086   2.675   5.102   2.842
 9729SOL    HW230087   2.580   5.066   2.970
 9730SOL     OW30088   6.352   2.857   2.907
 9730SOL    HW130089   6.409   2.932   2.939
 9730SOL    HW230090   6.299   2.887   2.827
 9731SOL     OW30091   3.569   4.795   0.952
 9731SOL    HW130092   3.567   4.724   0.881
 9731SOL    HW230093   3.581   4.885   0.910
 9732SOL     OW30094   6.466   6.241   2.724
 9732SOL    HW130095   6.396   6.303   2.758
 9732SOL    HW230096   6.505   6.189   2.801
 9733SOL     OW30097   4.959   4.631   5.266
 9733SOL    HW130098   4.997   4.544   5.299
 9733SOL    HW230099   4.950   4.628   5.167
 9734SOL     OW30100   5.246   2.646   4.421
 9734SOL    HW130101   5.195   2.580   4.366
 9734SOL    HW230102   5.184   2.714   4.459
 9735SOL     OW30103   1.890   4.734   1.446
 9735SOL    HW130104   1.866   4.721   1.542
 9735SOL    HW230105   1.979   4.692   1.429
 9736SOL     OW30106   4.130   1.111   0.098
 9736SOL    HW130107   4.140   1.015   0.071
 9736SOL    HW230108   4.089   1.162   0.023
 9737SOL     OW30109   4.086   2.176   5.027
 9737SOL    HW130110   4.145   2.257   5.036
 9737SOL    HW230111   4.134   2.097   5.064
 9738SOL     OW30112   1.529   0.871   2.978
 9738SOL    HW130113   1.525   0.868   2.878
 9738SOL    HW230114   1.563   0.785   3.013
 9739SOL     OW30115   5.796   4.716   1.847
 9739SOL    HW130116   5.851   4.789   1.806
 9739SOL    HW230117   5.731   4.756   1.912
 9740SOL     OW30118   6.699   5.036   3.104
 9740SOL    HW130119   6.668   5.087   3.024
 9740SOL    HW230120   6.665   4.942   3.099
 9741SOL     OW30121   4.270   2.288   2.184
 9741SOL    HW130122   4.335   2.297   2.260
 9741SOL    HW230123   4.316   2.310   2.098
 9742SOL     OW30124   5.332   1.228   3.863
 9742SOL    HW130125   5.335   1.328   3.865
 9742SOL    HW230126   5.238   1.198   3.847
 9743SOL     OW30127   1.847   3.151   5.685
 9743SOL    HW130128   1.912   3.081   5.654
 9743SOL    HW230129   1.895   3.239   5.694
 9744SOL     OW30130   2.228   0.891   2.054
 9744SOL    HW130131   2.179   0.945   1.985
 9744SOL    HW230132   2.311   0.852   2.013
 9745SOL     OW30133   6.883   2.637   5.072
 9745SOL    HW130134   6.927   2.715   5.028
 9745SOL    HW230135   6.925   2.620   5.161
 9746SOL     OW30136   6.107   0.925   4.719
 9746SOL    HW130137   6.028   0.958   4.770
 9746SOL    HW230138   6.171   0.881   4.782
 9747SOL     OW30139   0.590   0.230   6.196
 9747SOL    HW130140   0.666   0.187   6.246
 9747SOL    HW230141   0.624   0.308   6.144
 9748SOL     OW30142   0.826   6.281   4.168
 9748SOL    HW130143   0.731   6.311   4.176
 9748SOL    HW230144   0.848   6.270   4.071
 9749SOL     OW30145   0.655   4.096   4.183
 9749SOL    HW130146   0.637   4.092   4.084
 9749SOL    HW230147   0.609   4.176   4.221
 9750SOL     OW30148   4.098   4.748   3.667
 9750SOL    HW130149   4.066   4.742   3.762
 9750SOL    HW230150   4.020   4.771   3.608
 9751SOL     OW30151   1.565   2.572   0.430
 9751SOL    HW130152   1.648   2.528   0.395
 9751SOL    HW230153   1.508   2.503   0.475
 9752SOL     OW30154   4.302   1.031   6.147
 9752SOL    HW130155   4.264   1.119   6.173
 9752SOL    HW230156   4.340   1.037   6.054
 9753SOL     OW30157   6.857   5.370   5.163
 9753SOL    HW130158   6.833   5.286   5.114
 9753SOL    HW230159   6.779   5.399   5.219
 9754SOL     OW30160   1.187   1.216   6.545
 9754SOL    HW130161   1.264   1.278   6.528
 9754SOL    HW230162   1.182   1.194   6.642
 9755SOL     OW30163   3.803   4.877   5.567
 9755SOL    HW130164   3.757   4.880   5.478
 9755SOL    HW230165   3.821   4.782   5.592
 9756SOL     OW30166   6.128   2.194   6.261
 9756SOL    HW130167   6.211   2.142   6.283
 9756SOL    HW230168   6.153   2.284   6.226
 9757SOL     OW30169   5.945   2.452   3.944
 9757SOL    HW130170   5.992   2.473   3.857
 9757SOL    HW230171   6.013   2.427   4.013
 9758SOL     OW30172   2.996   0.459   0.224
 9758SOL    HW130173   2.900   0.451   0.196
 9758SOL    HW230174   3.000   0.482   0.321
 9759SOL     OW30175   2.990   6.222   1.092
 9759SOL    HW130176   2.974   6.133   1.050
 9759SOL    HW230177   3.086   6.248   1.082
 9760SOL     OW30178   6.227   4.624   5.963
 9760SOL    HW130179   6.197   4.610   5.868
 9760SOL    HW230180   6.260   4.718   5.974
 9761SOL     OW30181   5.336   5.414   1.758
 9761SOL    HW130182   5.359   5.334   1.704
 9761SOL    HW230183   5.418   5.452   1.800
 9762SOL     OW30184   2.451   1.335   4.930
 9762SOL    HW130185   2.442   1.428   4.967
 9762SOL    HW230186   2.375   1.279   4.964
 9763SOL     OW30187   2.457   1.806   0.782
 9763SOL    HW130188   2.519   1.819   0.705
 9763SOL    HW230189   2.505   1.828   0.867
 9764SOL     OW30190   0.939   1.949   2.061
 9764SOL    HW130191   0.885   1.865   2.056
 9764SOL    HW230192   1.017   1.935   2.122
 9765SOL     OW30193   0.648   1.889   5.310
 9765SOL    HW130194   0.654   1.913   5.408
 9765SOL    HW230195   0.580   1.949   5.266
 9766SOL     OW30196   2.797   0.482   2.348
 9766SOL    HW130197   2.802   0.468   2.249
 9766SOL    HW230198   2.777   0.578   2.366
 9767SOL     OW30199   5.384   0.224   4.748
 9767SOL    HW130200   5.348   0.282   4.821
 9767SOL    HW230201   5.343   0.251   4.661
 9768SOL     OW30202   4.442   2.375   2.409
 9768SOL    HW130203   4.393   2.400   2.492
 9768SOL    HW230204   4.538   2.357   2.430
 9769SOL     OW30205   0.899   1.824   1.236
 9769SOL    HW130206   0.831   1.806   1.164
 9769SOL    HW230207   0.931   1.738   1.274
 9770SOL     OW30208   5.705   4.950   6.114
 9770SOL    HW130209   5.708   4.857   6.077
 9770SOL    HW230210   5.773   4.960   6.186
 9771SOL     OW30211   3.897   5.565   5.974
 9771SOL    HW130212   3.809   5.562   5.927
 9771SOL    HW230213   3.957   5.493   5.939
 9772SOL     OW30214   6.334   0.681   1.451
 9772SOL    HW130215   6.357   0.778   1.461
 9772SOL    HW230216   6.402   0.626   1.499
 9773SOL     OW30217   6.204   5.741   3.383
 9773SOL    HW130218   6.147   5.663   3.405
 9773SOL    HW230219   6.283   5.711   3.330
 9774SOL     OW30220   6.987   4.703   3.417
 9774SOL    HW130221   7.002   4.788   3.468
 9774SOL    HW230222   6.897   4.667   3.440
 9775SOL     OW30223   2.139   2.592   4.833
 9775SOL    HW130224   2.143   2.692   4.842
 9775SOL    HW230225   2.108   2.569   4.741
 9776SOL     OW30226   0.601   5.987   5.066
 9776SOL    HW130227   0.672   5.932   5.024
 9776SOL    HW230228   0.554   6.041   4.996
 9777SOL     OW30229   5.613   4.426   6.077
 9777SOL    HW130230   5.625   4.341   6.025
 9777SOL    HW230231   5.524   4.426   6.122
 9778SOL     OW30232   4.659   0.059   2.463
 9778SOL    HW130233   4.632   0.062   2.559
 9778SOL    HW230234   4.577   0.045   2.406
 9779SOL     OW30235   2.616   1.668   5.831
 9779SOL    HW130236   2.565   1.749   5.799
 9779SOL    HW230237   2.631   1.676   5.930
 9780SOL     OW30238   3.488   4.489   0.094
 9780SOL    HW130239   3.397   4.456   0.070
 9780SOL    HW230240   3.508   4.572   0.043
 9781SOL     OW30241   1.423   4.950   4.606
 9781SOL    HW130242   1.356   4.917   4.673
 9781SOL    HW230243   1.503   4.986   4.655
 9782SOL     OW30244   6.694   0.458   1.021
 9782SOL    HW130245   6.710   0.513   0.940
 9782SOL    HW230246   6.760   0.481   1.092
 9783SOL     OW30247   5.208   1.068   2.117
 9783SOL    HW130248   5.129   1.093   2.061
 9783SOL    HW230249   5.274   1.143   2.116
 9784SOL     OW30250   4.815   0.849   3.733
 9784SOL    HW130251   4.807   0.751   3.720
 9784SOL    HW230252   4.837   0.892   3.645
 9785SOL     OW30253   0.523   2.921   1.963
 9785SOL    HW130254   0.567   2.831   1.959
 9785SOL    HW230255   0.425   2.909   1.978
 9786SOL     OW30256   2.814   6.115   4.790
 9786SOL    HW130257   2.857   6.089   4.703
 9786SOL    HW230258   2.882   6.159   4.849
 9787SOL     OW30259   4.987   4.193   2.169
 9787SOL    HW130260   4.894   4.218   2.196
 9787SOL    HW230261   5.041   4.275   2.154
 9788SOL     OW30262   0.008   1.364   5.653
 9788SOL    HW130263   0.052   1.286   5.609
 9788SOL    HW230264   6.992   1.334   5.739
 9789SOL     OW30265   2.224   5.878   4.677
 9789SOL    HW130266   2.129   5.846   4.685
 9789SOL    HW230267   2.282   5.802   4.649
 9790SOL     OW30268   6.252   1.876   4.474
 9790SOL    HW130269   6.272   1.872   4.572
 9790SOL    HW230270   6.281   1.965   4.438
 9791SOL     OW30271   0.781   2.466   1.023
 9791SOL    HW130272   0.867   2.439   0.980
 9791SOL    HW230273   0.788   2.452   1.122
 9792SOL     OW30274   4.316   5.413   1.393
 9792SOL    HW130275   4.366   5.499   1.387
 9792SOL    HW230276   4.218   5.430   1.381
 9793SOL     OW30277   4.697   6.310   2.032
 9793SOL    HW130278   4.750   6.253   1.969
 9793SOL    HW230279   4.694   6.267   2.122
 9794SOL     OW30280   3.946   2.713   6.541
 9794SOL    HW130281   4.009   2.637   6.552
 9794SOL    HW230282   3.902   2.734   6.628
 9795SOL     OW30283   1.790   3.070   4.190
 9795SOL    HW130284   1.769   3.168   4.196
 9795SOL    HW230285   1.755   3.034   4.103
 9796SOL     OW30286   3.294   5.209   6.895
 9796SOL    HW130287   3.242   5.136   6.850
 9796SOL    HW230288   3.390   5.182   6.901
 9797SOL     OW30289   4.726   3.106   5.322
 9797SOL    HW130290   4.709   3.053   5.406
 9797SOL    HW230291   4.659   3.180   5.316
 9798SOL     OW30292   1.851   1.878   1.330
 9798SOL    HW130293   1.832   1.950   1.263
 9798SOL    HW230294   1.841   1.915   1.422
 9799SOL     OW30295   3.089   4.051   2.026
 9799SOL    HW130296   3.105   4.139   1.980
 9799SOL    HW230297   3.115   3.976   1.965
 9800SOL     OW30298   4.191   4.923   6.722
 9800SOL    HW130299   4.136   5.006   6.712
 9800SOL    HW230300   4.140   4.855   6.775
 9801SOL     OW30301   4.236   5.169   0.011
 9801SOL    HW130302   4.145   5.191   0.044
 9801SOL    HW230303   4.281   5.253   7.005
 9802SOL     OW30304   6.843   3.617   0.654
 9802SOL    HW130305   6.867   3.562   0.574
 9802SOL    HW230306   6.910   3.690   0.666
 9803SOL     OW30307   6.186   0.930   6.664
 9803SOL    HW130308   6.154   1.024   6.681
 9803SOL    HW230309   6.143   0.868   6.730
 9804SOL     OW30310   5.935   5.609   4.575
 9804SOL    HW130311   5.911   5.564   4.661
 9804SOL    HW230312   5.858   5.602   4.511
 9805SOL     OW30313   2.381   5.325   6.922
 9805SOL    HW130314   2.327   5.381   6.986
 9805SOL    HW230315   2.320   5.283   6.855
 9806SOL     OW30316   6.771   1.617   2.970
 9806SOL    HW130317   6.782   1.609   2.871
 9806SOL    HW230318   6.674   1.608   2.994
 9807SOL     OW30319   3.877   2.549   0.893
 9807SOL    HW130320   3.964   2.505   0.915
 9807SOL    HW230321   3.847   2.606   0.970
 9808SOL     OW30322   1.003   1.513   4.941
 9808SOL    HW130323   1.014   1.497   4.842
 9808SOL    HW230324   0.928   1.578   4.956
 9809SOL     OW30325   0.983   1.072   4.860
 9809SOL    HW130326   0.958   1.071   4.763
 9809SOL    HW230327   0.924   1.137   4.909
 9810SOL     OW30328   3.692   0.730   3.549
 9810SOL    HW130329   3.784   0.766   3.532
 9810SOL    HW230330   3.693   0.674   3.631
 9811SOL     OW30331   0.685   6.742   2.907
 9811SOL    HW130332   0.620   6.721   2.980
 9811SOL    HW230333   0.637   6.747   2.819
 9812SOL     OW30334   4.847   2.522   5.521
 9812SOL    HW130335   4.813   2.525   5.615
 9812SOL    HW230336   4.851   2.427   5.490
 9813SOL     OW30337   6.620   4.764   0.461
 9813SOL    HW130338   6.690   4.789   0.393
 9813SOL    HW230339   6.529   4.779   0.422
 9814SOL     OW30340   0.268   0.210   5.684
 9814SOL    HW130341   0.285   0.264   5.766
 9814SOL    HW230342   0.354   0.194   5.636
 9815SOL     OW30343   6.426   3.851   2.706
 9815SOL    HW130344   6.350   3.830   2.645
 9815SOL    HW230345   6.496   3.902   2.656
 9816SOL     OW30346   0.152   6.799   6.202
 9816SOL    HW130347   0.237   6.829   6.159
 9816SOL    HW230348   0.109   6.877   6.248
 9817SOL     OW30349   2.784   6.666   6.910
 9817SOL    HW130350   2.711   6.603   6.887
 9817SOL    HW230351   2.863   6.649   6.850
 9818SOL     OW30352   0.690   0.080   3.448
 9818SOL    HW130353   0.664   0.177   3.457
 9818SOL    HW230354   0.789   0.073   3.438
 9819SOL     OW30355   7.025   3.545   4.985
 9819SOL    HW130356   6.972   3.501   5.058
 9819SOL    HW230357   0.020   3.479   4.914
 9820SOL     OW30358   4.264   2.026   5.704
 9820SOL    HW130359   4.289   2.080   5.785
 9820SOL    HW230360   4.280   1.929   5.722
 9821SOL     OW30361   4.047   3.090   1.235
 9821SOL    HW130362   4.028   2.993   1.247
 9821SOL    HW230363   4.038   3.137   1.322
 9822SOL     OW30364   3.678   6.393   5.531
 9822SOL    HW130365   3.651   6.490   5.523
 9822SOL    HW230366   3.659   6.346   5.445
 9823SOL     OW30367   2.315   0.234   2.893
 9823SOL    HW130368   2.255   0.267   2.820
 9823SOL    HW230369   2.404   0.279   2.885
 9824SOL     OW30370   1.017   6.288   5.207
 9824SOL    HW130371   0.936   6.252   5.161
 9824SOL    HW230372   1.089   6.303   5.139
 9825SOL     OW30373   5.723   6.326   5.181
 9825SOL    HW130374   5.651   6.392   5.202
 9825SOL    HW230375   5.810   6.359   5.216
 9826SOL     OW30376   1.944   5.491   4.831
 9826SOL    HW130377   2.042   5.485   4.852
 9826SOL    HW230378   1.895   5.527   4.911
 9827SOL     OW30379   1.325   4.964   1.762
 9827SOL    HW130380   1.238   4.982   1.716
 9827SOL    HW230381   1.378   5.049   1.768
 9828SOL     OW30382   4.510   2.420   4.313
 9828SOL    HW130383   4.438   2.404   4.380
 9828SOL    HW230384   4.469   2.443   4.225
 9829SOL     OW30385   4.342   5.759   5.562
 9829SOL    HW130386   4.245   5.738   5.553
 9829SOL    HW230387   4.396   5.688   5.517
 9830SOL     OW30388   6.029   2.306   3.045
 9830SOL    HW130389   5.978   2.300   2.960
 9830SOL    HW230390   5.966   2.329   3.120
 9831SOL     OW30391   0.556   3.923   3.000
 9831SOL    HW130392   0.602   4.010   3.021
 9831SOL    HW230393   0.624   3.857   2.967
 9832SOL     OW30394   4.589   5.304   4.991
 9832SOL    HW130395   4.633   5.308   4.901
 9832SOL    HW230396   4.509   5.245   4.986
 9833SOL     OW30397   3.816   3.671   3.331
 9833SOL    HW130398   3.844   3.758   3.372
 9833SOL    HW230399   3.753   3.688   3.256
 9834SOL     OW30400   2.692   6.460   5.929
 9834SOL    HW130401   2.708   6.538   5.988
 9834SOL    HW230402   2.776   6.407   5.920
 9835SOL     OW30403   3.902   4.003   3.901
 9835SOL    HW130404   3.812   4.008   3.942
 9835SOL    HW230405   3.963   3.950   3.960
 9836SOL     OW30406   0.563   4.013   6.036
 9836SOL    HW130407   0.480   3.966   6.064
 9836SOL    HW230408   0.554   4.042   5.941
 9837SOL     OW30409   5.470   1.930   3.070
 9837SOL    HW130410   5.517   1.895   3.150
 9837SOL    HW230411   5.372   1.908   3.076
 9838SOL     OW30412   1.916   6.915   1.471
 9838SOL    HW130413   1.835   6.952   1.425
 9838SOL    HW230414   1.993   6.916   1.407
 9839SOL     OW30415   5.143   0.246   3.773
 9839SOL    HW130416   5.145   0.346   3.766
 9839SOL    HW230417   5.119   0.208   3.684
 9840SOL     OW30418   6.186   1.883   6.829
 9840SOL    HW130419   6.116   1.952   6.842
 9840SOL    HW230420   6.275   1.921   6.854
 9841SOL     OW30421   0.468   6.684   3.071
 9841SOL    HW130422   0.397   6.726   3.014
 9841SOL    HW230423   0.427   6.649   3.155
 9842SOL     OW30424   3.205   1.003   6.473
 9842SOL    HW130425   3.237   1.001   6.568
 9842SOL    HW230426   3.249   0.930   6.421
 9843SOL     OW30427   0.622   0.303   1.216
 9843SOL    HW130428   0.538   0.356   1.221
 9843SOL    HW230429   0.680   0.323   1.296
 9844SOL     OW30430   4.357   0.067   3.771
 9844SOL    HW130431   4.285   0.050   3.839
 9844SOL    HW230432   4.342   0.157   3.730
 9845SOL     OW30433   1.949   3.542   2.629
 9845SOL    HW130434   1.956   3.627   2.577
 9845SOL    HW230435   1.954   3.464   2.566
 9846SOL     OW30436   5.709   2.593   1.775
 9846SOL    HW130437   5.704   2.681   1.727
 9846SOL    HW230438   5.625   2.578   1.826
 9847SOL     OW30439   4.214   4.078   6.814
 9847SOL    HW130440   4.141   4.053   6.878
 9847SOL    HW230441   4.173   4.113   6.729
 9848SOL     OW30442   3.255   4.177   5.771
 9848SOL    HW130443   3.326   4.130   5.822
 9848SOL    HW230444   3.232   4.124   5.689
 9849SOL     OW30445   0.278   2.365   4.429
 9849SOL    HW130446   0.334   2.291   4.394
 9849SOL    HW230447   0.209   2.329   4.491
 9850SOL     OW30448   1.266   0.616   4.444
 9850SOL    HW130449   1.235   0.522   4.454
 9850SOL    HW230450   1.364   0.617   4.427
 9851SOL     OW30451   3.910   5.362   5.004
 9851SOL    HW130452   3.828   5.307   4.989
 9851SOL    HW230453   3.936   5.358   5.100
 9852SOL     OW30454   2.199   0.475   0.078
 9852SOL    HW130455   2.216   0.572   0.091
 9852SOL    HW230456   2.199   0.454   7.006
 9853SOL     OW30457   6.975   4.437   3.543
 9853SOL    HW130458   0.019   4.475   3.483
 9853SOL    HW230459   7.019   4.385   3.617
 9854SOL     OW30460   0.871   4.199   5.886
 9854SOL    HW130461   0.794   4.196   5.822
 9854SOL    HW230462   0.927   4.280   5.867
 9855SOL     OW30463   1.043   4.919   1.140
 9855SOL    HW130464   1.104   4.987   1.180
 9855SOL    HW230465   1.048   4.834   1.193
 9856SOL     OW30466   5.883   3.977   3.207
 9856SOL    HW130467   5.805   3.927   3.169
 9856SOL    HW230468   5.892   4.065   3.160
 9857SOL     OW30469   4.267   0.251   5.104
 9857SOL    HW130470   4.281   0.206   5.016
 9857SOL    HW230471   4.305   0.343   5.100
 9858SOL     OW30472   6.517   6.311   2.447
 9858SOL    HW130473   6.573   6.250   2.504
 9858SOL    HW230474   6.483   6.386   2.504
 9859SOL     OW30475   0.083   5.190   3.366
 9859SOL    HW130476   0.136   5.242   3.298
 9859SOL    HW230477   0.031   5.119   3.319
 9860SOL     OW30478   1.299   2.740   4.710
 9860SOL    HW130479   1.315   2.838   4.726
 9860SOL    HW230480   1.245   2.728   4.627
 9861SOL     OW30481   3.209   2.213   3.137
 9861SOL    HW130482   3.175   2.307   3.139
 9861SOL    HW230483   3.231   2.183   3.230
 9862SOL     OW30484   1.026   4.124   0.404
 9862SOL    HW130485   1.122   4.103   0.422
 9862SOL    HW230486   1.019   4.217   0.367
 9863SOL     OW30487   4.288   6.014   0.861
 9863SOL    HW130488   4.330   6.089   0.811
 9863SOL    HW230489   4.252   5.947   0.797
 9864SOL     OW30490   2.451   5.607   5.521
 9864SOL    HW130491   2.413   5.524   5.481
 9864SOL    HW230492   2.448   5.681   5.454
 9865SOL     OW30493   0.773   5.481   5.336
 9865SOL    HW130494   0.697   5.460   5.397
 9865SOL    HW230495   0.856   5.434   5.369
 9866SOL     OW30496   6.636   5.088   5.190
 9866SOL    HW130497   6.611   5.030   5.112
 9866SOL    HW230498   6.624   5.037   5.275
 9867SOL     OW30499   3.947   1.850   2.476
 9867SOL    HW130500   3.944   1.944   2.509
 9867SOL    HW230501   3.878   1.796   2.524
 9868SOL     OW30502   2.386   4.455   4.008
 9868SOL    HW130503   2.309   4.406   4.049
 9868SOL    HW230504   2.392   4.431   3.911
 9869SOL     OW30505   6.484   2.883   0.937
 9869SOL    HW130506   6.490   2.951   1.010
 9869SOL    HW230507   6.537   2.914   0.858
 9870SOL     OW30508   2.394   2.145   2.137
 9870SOL    HW130509   2.348   2.098   2.213
 9870SOL    HW230510   2.328   2.202   2.089
 9871SOL     OW30511   6.171   5.097   4.038
 9871SOL    HW130512   6.185   4.999   4.053
 9871SOL    HW230513   6.127   5.111   3.949
 9872SOL     OW30514   0.707   5.006   6.187
 9872SOL    HW130515   0.720   5.104   6.171
 9872SOL    HW230516   0.795   4.959   6.177
 9873SOL     OW30517   1.399   1.504   5.577
 9873SOL    HW130518   1.477   1.456   5.535
 9873SOL    HW230519   1.315   1.479   5.529
 9874SOL     OW30520   0.081   3.091   4.953
 9874SOL    HW130521   0.055   3.112   5.047
 9874SOL    HW230522   0.032   3.152   4.891
 9875SOL     OW30523   6.640   5.972   1.230
 9875SOL    HW130524   6.585   6.029   1.292
 9875SOL    HW230525   6.644   6.016   1.140
 9876SOL     OW30526   1.321   6.540   3.502
 9876SOL    HW130527   1.380   6.572   3.576
 9876SOL    HW230528   1.277   6.455   3.529
 9877SOL     OW30529   0.802   5.075   5.058
 9877SOL    HW130530   0.806   5.175   5.065
 9877SOL    HW230531   0.820   5.035   5.148
 9878SOL     OW30532   3.139   2.828   6.610
 9878SOL    HW130533   3.140   2.927   6.629
 9878SOL    HW230534   3.232   2.798   6.588
 9879SOL     OW30535   6.910   4.825   5.887
 9879SOL    HW130536   6.947   4.752   5.945
 9879SOL    HW230537   6.821   4.797   5.851
 9880SOL     OW30538   2.526   1.484   0.908
 9880SOL    HW130539   2.446   1.507   0.963
 9880SOL    HW230540   2.604   1.537   0.940
 9881SOL     OW30541   6.503   1.487   3.670
 9881SOL    HW130542   6.578   1.542   3.707
 9881SOL    HW230543   6.511   1.393   3.704
 9882SOL     OW30544   3.525   3.054   5.383
 9882SOL    HW130545   3.562   3.082   5.294
 9882SOL    HW230546   3.457   2.982   5.369
 9883SOL     OW30547   2.082   0.103   2.049
 9883SOL    HW130548   1.988   0.129   2.027
 9883SOL    HW230549   2.096   0.110   2.148
 9884SOL     OW30550   3.094   2.419   5.610
 9884SOL    HW130551   3.063   2.446   5.519
 9884SOL    HW230552   3.075   2.493   5.675
 9885SOL     OW30553   5.205   3.158   5.277
 9885SOL    HW130554   5.225   3.204   5.364
 9885SOL    HW230555   5.236   3.063   5.282
 9886SOL     OW30556   3.507   6.088   1.454
 9886SOL    HW130557   3.580   6.033   1.414
 9886SOL    HW230558   3.430   6.029   1.479
 9887SOL     OW30559   2.964   1.226   6.989
 9887SOL    HW130560   2.976   1.127   6.994
 9887SOL    HW230561   2.937   1.251   6.897
 9888SOL     OW30562   6.595   6.449   3.517
 9888SOL    HW130563   6.520   6.506   3.549
 9888SOL    HW230564   6.665   6.443   3.588
 9889SOL     OW30565   0.014   6.060   3.158
 9889SOL    HW130566   7.016   6.119   3.235
 9889SOL    HW230567   0.088   5.999   3.186
 9890SOL     OW30568   0.877   3.756   1.604
 9890SOL    HW130569   0.958   3.709   1.571
 9890SOL    HW230570   0.811   3.690   1.640
 9891SOL     OW30571   5.754   5.393   1.454
 9891SOL    HW130572   5.665   5.360   1.422
 9891SOL    HW230573   5.749   5.413   1.552
 9892SOL     OW30574   1.615   4.922   3.802
 9892SOL    HW130575   1.529   4.927   3.854
 9892SOL    HW230576   1.594   4.906   3.705
 9893SOL     OW30577   5.334   5.098   4.487
 9893SOL    HW130578   5.276   5.116   4.408
 9893SOL    HW230579   5.402   5.028   4.463
 9894SOL     OW30580   4.616   2.998   5.550
 9894SOL    HW130581   4.617   3.036   5.643
 9894SOL    HW230582   4.664   2.910   5.550
 9895SOL     OW30583   5.438   1.939   6.639
 9895SOL    HW130584   5.370   1.872   6.668
 9895SOL    HW230585   5.516   1.892   6.597
 9896SOL     OW30586   4.403   3.279   0.277
 9896SOL    HW130587   4.310   3.241   0.283
 9896SOL    HW230588   4.403   3.357   0.215
 9897SOL     OW30589   6.864   1.864   4.039
 9897SOL    HW130590   6.876   1.962   4.023
 9897SOL    HW230591   6.776   1.847   4.082
 9898SOL     OW30592   1.031   5.387   5.415
 9898SOL    HW130593   1.079   5.433   5.340
 9898SOL    HW230594   1.031   5.288   5.399
 9899SOL     OW30595   4.948   5.138   2.071
 9899SOL    HW130596   4.999   5.137   2.157
 9899SOL    HW230597   4.994   5.081   2.004
 9900SOL     OW30598   0.816   3.473   3.193
 9900SOL    HW130599   0.729   3.490   3.239
 9900SOL    HW230600   0.799   3.450   3.097
 9901SOL     OW30601   2.568   1.788   5.410
 9901SOL    HW130602   2.662   1.816   5.425
 9901SOL    HW230603   2.512   1.869   5.391
 9902SOL     OW30604   4.643   3.788   0.116
 9902SOL    HW130605   4.714   3.743   0.061
 9902SOL    HW230606   4.566   3.813   0.058
 9903SOL     OW30607   3.876   0.952   1.290
 9903SOL    HW130608   3.909   0.999   1.371
 9903SOL    HW230609   3.777   0.938   1.298
 9904SOL     OW30610   6.846   6.936   2.060
 9904SOL    HW130611   6.897   6.852   2.042
 9904SOL    HW230612   6.858   6.962   2.156
 9905SOL     OW30613   1.710   6.088   6.358
 9905SOL    HW130614   1.699   6.187   6.355
 9905SOL    HW230615   1.762   6.062   6.439
 9906SOL     OW30616   3.552   3.706   5.890
 9906SOL    HW130617   3.553   3.638   5.963
 9906SOL    HW230618   3.645   3.726   5.861
 9907SOL     OW30619   1.601   6.356   2.894
 9907SOL    HW130620   1.689   6.318   2.866
 9907SOL    HW230621   1.608   6.456   2.901
 9908SOL     OW30622   0.986   3.371   5.076
 9908SOL    HW130623   0.950   3.311   5.147
 9908SOL    HW230624   1.082   3.393   5.095
 9909SOL     OW30625   3.487   6.893   2.512
 9909SOL    HW130626   3.570   6.857   2.469
 9909SOL    HW230627   3.424   6.923   2.441
 9910SOL     OW30628   0.516   4.345   1.703
 9910SOL    HW130629   0.554   4.272   1.759
 9910SOL    HW230630   0.439   4.387   1.751
 9911SOL     OW30631   3.465   4.922   3.037
 9911SOL    HW130632   3.406   4.920   2.956
 9911SOL    HW230633   3.560   4.915   3.008
 9912SOL     OW30634   4.328   0.142   1.243
 9912SOL    HW130635   4.414   0.176   1.282
 9912SOL    HW230636   4.344   0.051   1.204
 9913SOL     OW30637   4.374   1.873   2.852
 9913SOL    HW130638   4.467   1.839   2.860
 9913SOL    HW230639   4.361   1.914   2.761
 9914SOL     OW30640   1.766   5.404   5.874
 9914SOL    HW130641   1.846   5.442   5.826
 9914SOL    HW230642   1.785   5.310   5.902
 9915SOL     OW30643   5.497   3.693   4.570
 9915SOL    HW130644   5.566   3.748   4.522
 9915SOL    HW230645   5.418   3.680   4.510
 9916SOL     OW30646   2.452   3.235   0.841
 9916SOL    HW130647   2.491   3.194   0.924
 9916SOL    HW230648   2.379   3.176   0.807
 9917SOL     OW30649   2.323   3.367   5.291
 9917SOL    HW130650   2.279   3.284   5.255
 9917SOL    HW230651   2.351   3.351   5.385
 9918SOL     OW30652   2.138   1.049   4.820
 9918SOL    HW130653   2.044   1.024   4.797
 9918SOL    HW230654   2.138   1.117   4.893
 9919SOL     OW30655   0.016   5.298   2.761
 9919SOL    HW130656   0.098   5.349   2.734
 9919SOL    HW230657   0.041   5.234   2.834
 9920SOL     OW30658   4.173   6.799   1.967
 9920SOL    HW130659   4.208   6.713   2.004
 9920SOL    HW230660   4.244   6.844   1.914
 9921SOL     OW30661   4.734   0.079   3.586
 9921SOL    HW130662   4.789   0.096   3.667
 9921SOL    HW230663   4.679   7.023   3.599
 9922SOL     OW30664   4.548   3.481   1.184
 9922SOL    HW130665   4.600   3.418   1.241
 9922SOL    HW230666   4.544   3.570   1.229
 9923SOL     OW30667   6.573   1.126   5.973
 9923SOL    HW130668   6.509   1.201   5.957
 9923SOL    HW230669   6.623   1.141   6.058
 9924SOL     OW30670   5.334   1.069   2.864
 9924SOL    HW130671   5.366   1.030   2.779
 9924SOL    HW230672   5.376   1.022   2.941
 9925SOL     OW30673   2.980   2.197   4.550
 9925SOL    HW130674   2.919   2.130   4.593
 9925SOL    HW230675   2.939   2.288   4.557
 9926SOL     OW30676   1.528   1.298   0.373
 9926SOL    HW130677   1.616   1.297   0.324
 9926SOL    HW230678   1.525   1.376   0.435
 9927SOL     OW30679   0.750   2.255   2.476
 9927SOL    HW130680   0.815   2.181   2.494
 9927SOL    HW230681   0.664   2.215   2.443
 9928SOL     OW30682   6.595   2.942   2.462
 9928SOL    HW130683   6.499   2.965   2.474
 9928SOL    HW230684   6.604   2.864   2.399
 9929SOL     OW30685   1.461   4.214   5.877
 9929SOL    HW130686   1.558   4.192   5.863
 9929SOL    HW230687   1.447   4.313   5.867
 9930SOL     OW30688   0.788   5.925   0.128
 9930SOL    HW130689   0.797   5.963   0.220
 9930SOL    HW230690   0.691   5.907   0.108
 9931SOL     OW30691   3.124   5.709   6.963
 9931SOL    HW130692   3.100   5.617   6.991
 9931SOL    HW230693   3.041   5.764   6.955
 9932SOL     OW30694   1.868   2.709   0.373
 9932SOL    HW130695   1.817   2.770   0.313
 9932SOL    HW230696   1.875   2.749   0.464
 9933SOL     OW30697   0.750   1.301   2.298
 9933SOL    HW130698   0.774   1.315   2.394
 9933SOL    HW230699   0.713   1.209   2.286
 9934SOL     OW30700   4.536   1.455   6.714
 9934SOL    HW130701   4.482   1.538   6.724
 9934SOL    HW230702   4.630   1.479   6.690
 9935SOL     OW30703   2.531   2.206   1.029
 9935SOL    HW130704   2.576   2.278   1.082
 9935SOL    HW230705   2.552   2.219   0.932
 9936SOL     OW30706   6.017   6.162   6.181
 9936SOL    HW130707   5.930   6.112   6.179
 9936SOL    HW230708   6.077   6.123   6.250
 9937SOL     OW30709   0.976   0.107   3.428
 9937SOL    HW130710   1.024   0.026   3.462
 9937SOL    HW230711   1.004   0.187   3.481
 9938SOL     OW30712   6.917   1.731   3.395
 9938SOL    HW130713   6.931   1.667   3.320
 9938SOL    HW230714   6.832   1.710   3.442
 9939SOL     OW30715   3.212   4.219   1.419
 9939SOL    HW130716   3.156   4.302   1.416
 9939SOL    HW230717   3.298   4.235   1.370
 9940SOL     OW30718   0.084   0.911   3.578
 9940SOL    HW130719   0.032   0.850   3.637
 9940SOL    HW230720   0.054   1.005   3.593
 9941SOL     OW30721   5.434   4.761   0.375
 9941SOL    HW130722   5.487   4.680   0.403
 9941SOL    HW230723   5.399   4.807   0.457
 9942SOL     OW30724   5.530   5.271   2.948
 9942SOL    HW130725   5.455   5.333   2.969
 9942SOL    HW230726   5.523   5.241   2.853
 9943SOL     OW30727   1.387   3.965   5.989
 9943SOL    HW130728   1.472   3.912   5.986
 9943SOL    HW230729   1.402   4.054   5.946
 9944SOL     OW30730   0.784   5.270   6.181
 9944SOL    HW130731   0.710   5.287   6.116
 9944SOL    HW230732   0.771   5.326   6.263
 9945SOL     OW30733   6.530   4.129   6.477
 9945SOL    HW130734   6.435   4.115   6.505
 9945SOL    HW230735   6.557   4.223   6.498
 9946SOL     OW30736   5.118   2.009   1.436
 9946SOL    HW130737   5.055   1.944   1.395
 9946SOL    HW230738   5.116   2.000   1.536
 9947SOL     OW30739   0.556   1.956   3.605
 9947SOL    HW130740   0.609   2.038   3.625
 9947SOL    HW230741   0.593   1.879   3.657
 9948SOL     OW30742   5.643   0.312   4.639
 9948SOL    HW130743   5.553   0.284   4.670
 9948SOL    HW230744   5.648   0.304   4.539
 9949SOL     OW30745   6.503   4.834   3.086
 9949SOL    HW130746   6.521   4.784   3.171
 9949SOL    HW230747   6.436   4.906   3.103
 9950SOL     OW30748   5.040   4.283   5.351
 9950SOL    HW130749   5.105   4.213   5.320
 9950SOL    HW230750   4.955   4.239   5.378
 9951SOL     OW30751   0.264   2.060   3.237
 9951SOL    HW130752   0.332   1.995   3.270
 9951SOL    HW230753   0.304   2.152   3.238
 9952SOL     OW30754   1.214   4.811   2.343
 9952SOL    HW130755   1.146   4.809   2.270
 9952SOL    HW230756   1.266   4.726   2.341
 9953SOL     OW30757   5.814   3.336   3.751
 9953SOL    HW130758   5.833   3.297   3.841
 9953SOL    HW230759   5.739   3.402   3.759
 9954SOL     OW30760   3.759   1.111   0.262
 9954SOL    HW130761   3.742   1.045   0.336
 9954SOL    HW230762   3.697   1.092   0.186
 9955SOL     OW30763   5.661   4.205   1.425
 9955SOL    HW130764   5.721   4.182   1.348
 9955SOL    HW230765   5.610   4.124   1.453
 9956SOL     OW30766   2.370   2.797   3.593
 9956SOL    HW130767   2.399   2.822   3.686
 9956SOL    HW230768   2.448   2.758   3.544
 9957SOL     OW30769   5.732   0.379   0.239
 9957SOL    HW130770   5.781   0.413   0.158
 9957SOL    HW230771   5.650   0.433   0.254
 9958SOL     OW30772   5.668   5.771   0.244
 9958SOL    HW130773   5.632   5.710   0.174
 9958SOL    HW230774   5.667   5.866   0.210
 9959SOL     OW30775   5.056   5.195   0.745
 9959SOL    HW130776   5.139   5.227   0.698
 9959SOL    HW230777   5.021   5.266   0.805
 9960SOL     OW30778   0.105   0.228   0.304
 9960SOL    HW130779   0.189   0.263   0.346
 9960SOL    HW230780   0.044   0.192   0.375
 9961SOL     OW30781   3.249   5.615   1.009
 9961SOL    HW130782   3.236   5.713   1.019
 9961SOL    HW230783   3.179   5.566   1.062
 9962SOL     OW30784   2.887   0.262   1.626
 9962SOL    HW130785   2.873   0.297   1.719
 9962SOL    HW230786   2.805   0.281   1.571
 9963SOL     OW30787   1.126   0.687   5.912
 9963SOL    HW130788   1.207   0.745   5.904
 9963SOL    HW230789   1.065   0.726   5.982
 9964SOL     OW30790   4.543   4.732   5.824
 9964SOL    HW130791   4.612   4.683   5.770
 9964SOL    HW230792   4.530   4.823   5.786
 9965SOL     OW30793   2.642   5.122   4.119
 9965SOL    HW130794   2.653   5.025   4.095
 9965SOL    HW230795   2.710   5.146   4.188
 9966SOL     OW30796   3.681   4.884   2.553
 9966SOL    HW130797   3.709   4.911   2.461
 9966SOL    HW230798   3.653   4.788   2.553
 9967SOL     OW30799   6.412   7.013   3.315
 9967SOL    HW130800   6.497   0.026   3.350
 9967SOL    HW230801   6.364   0.054   3.259
 9968SOL     OW30802   3.923   6.626   0.024
 9968SOL    HW130803   3.964   6.538   7.026
 9968SOL    HW230804   3.828   6.629   7.019
 9969SOL     OW30805   0.829   5.904   3.995
 9969SOL    HW130806   0.883   5.828   4.029
 9969SOL    HW230807   0.817   5.972   4.068
 9970SOL     OW30808   6.855   3.609   1.625
 9970SOL    HW130809   6.952   3.624   1.648
 9970SOL    HW230810   6.812   3.553   1.696
 9971SOL     OW30811   0.592   4.978   3.750
 9971SOL    HW130812   0.629   5.053   3.695
 9971SOL    HW230813   0.539   5.016   3.826
 9972SOL     OW30814   2.880   4.103   6.390
 9972SOL    HW130815   2.945   4.147   6.452
 9972SOL    HW230816   2.834   4.172   6.334
 9973SOL     OW30817   2.326   2.376   2.974
 9973SOL    HW130818   2.232   2.353   2.999
 9973SOL    HW230819   2.325   2.458   2.915
 9974SOL     OW30820   1.126   2.305   2.773
 9974SOL    HW130821   1.126   2.349   2.863
 9974SOL    HW230822   1.107   2.372   2.702
 9975SOL     OW30823   2.538   4.787   0.172
 9975SOL    HW130824   2.560   4.813   0.266
 9975SOL    HW230825   2.579   4.853   0.109
 9976SOL     OW30826   4.004   4.995   6.070
 9976SOL    HW130827   3.918   4.983   6.021
 9976SOL    HW230828   3.990   5.056   6.148
 9977SOL     OW30829   4.516   6.895   5.484
 9977SOL    HW130830   4.443   6.928   5.425
 9977SOL    HW230831   4.479   6.833   5.553
 9978SOL     OW30832   1.162   3.445   6.859
 9978SOL    HW130833   1.203   3.379   6.921
 9978SOL    HW230834   1.226   3.520   6.841
 9979SOL     OW30835   3.205   3.278   5.283
 9979SOL    HW130836   3.296   3.318   5.295
 9979SOL    HW230837   3.146   3.344   5.236
 9980SOL     OW30838   2.186   1.867   0.843
 9980SOL    HW130839   2.276   1.823   0.833
 9980SOL    HW230840   2.180   1.910   0.933
 9981SOL     OW30841   6.123   1.898   0.530
 9981SOL    HW130842   6.068   1.943   0.600
 9981SOL    HW230843   6.065   1.838   0.475
 9982SOL     OW30844   2.289   1.983   4.241
 9982SOL    HW130845   2.321   2.045   4.169
 9982SOL    HW230846   2.251   2.037   4.316
 9983SOL     OW30847   0.720   3.097   2.680
 9983SOL    HW130848   0.653   3.149   2.627
 9983SOL    HW230849   0.688   3.003   2.693
 9984SOL     OW30850   0.249   5.326   1.246
 9984SOL    HW130851   0.192   5.406   1.267
 9984SOL    HW230852   0.306   5.345   1.167
 9985SOL     OW30853   5.026   4.628   0.179
 9985SOL    HW130854   5.087   4.671   0.112
 9985SOL    HW230855   4.958   4.572   0.131
 9986SOL     OW30856   5.452   5.354   0.250
 9986SOL    HW130857   5.538   5.372   0.299
 9986SOL    HW230858   5.411   5.441   0.221
 9987SOL     OW30859   5.579   2.494   1.487
 9987SOL    HW130860   5.536   2.532   1.405
 9987SOL    HW230861   5.550   2.548   1.567
 9988SOL     OW30862   5.856   6.403   3.896
 9988SOL    HW130863   5.760   6.385   3.876
 9988SOL    HW230864   5.868   6.412   3.995
 9989SOL     OW30865   0.154   5.329   2.309
 9989SOL    HW130866   0.176   5.265   2.383
 9989SOL    HW230867   0.054   5.339   2.303
 9990SOL     OW30868   0.074   6.808   3.967
 9990SOL    HW130869   0.077   6.801   3.867
 9990SOL    HW230870   0.156   6.856   3.998
 9991SOL     OW30871   1.604   4.986   3.373
 9991SOL    HW130872   1.646   5.061   3.424
 9991SOL    HW230873   1.602   4.904   3.430
 9992SOL     OW30874   2.693   4.688   1.046
 9992SOL    HW130875   2.765   4.742   1.002
 9992SOL    HW230876   2.627   4.749   1.089
 9993SOL     OW30877   3.482   6.290   4.405
 9993SOL    HW130878   3.578   6.277   4.429
 9993SOL    HW230879   3.458   6.228   4.330
 9994SOL     OW30880   5.867   5.061   4.954
 9994SOL    HW130881   5.788   5.120   4.938
 9994SOL    HW230882   5.854   5.009   5.039
 9995SOL     OW30883   3.029   0.829   5.453
 9995SOL    HW130884   2.987   0.919   5.463
 9995SOL    HW230885   2.992   0.783   5.372
 9996SOL     OW30886   3.049   3.685   1.048
 9996SOL    HW130887   3.027   3.730   0.961
 9996SOL    HW230888   3.003   3.732   1.123
 9997SOL     OW30889   6.262   2.593   3.514
 9997SOL    HW130890   6.260   2.526   3.439
 9997SOL    HW230891   6.213   2.675   3.486
 9998SOL     OW30892   4.871   4.460   2.388
 9998SOL    HW130893   4.835   4.540   2.340
 9998SOL    HW230894   4.959   4.483   2.430
 9999SOL     OW30895   0.752   6.989   3.745
 9999SOL    HW130896   0.722   0.010   3.662
 9999SOL    HW230897   0.675   6.981   3.808
10000SOL     OW30898   4.832   2.307   1.086
10000SOL    HW130899   4.865   2.253   1.163
10000SOL    HW230900   4.902   2.309   1.014
10001SOL     OW30901   4.038   5.971   1.709
10001SOL    HW130902   4.057   6.023   1.626
10001SOL    HW230903   4.028   6.033   1.787
10002SOL     OW30904   3.122   1.172   1.887
10002SOL    HW130905   3.210   1.218   1.897
10002SOL    HW230906   3.069   1.182   1.971
10003SOL     OW30907   1.288   1.342   3.787
10003SOL    HW130908   1.366   1.280   3.796
10003SOL    HW230909   1.320   1.436   3.791
10004SOL     OW30910   6.258   4.248   4.829
10004SOL    HW130911   6.195   4.296   4.767
10004SOL    HW230912   6.321   4.192   4.775
10005SOL     OW30913   2.375   5.418   3.263
10005SOL    HW130914   2.385   5.485   3.337
10005SOL    HW230915   2.433   5.339   3.282
10006SOL     OW30916   5.865   0.389   5.232
10006SOL    HW130917   5.961   0.391   5.204
10006SOL    HW230918   5.845   0.470   5.288
10007SOL     OW30919   1.445   4.954   4.323
10007SOL    HW130920   1.420   4.952   4.420
10007SOL    HW230921   1.419   4.866   4.281
10008SOL     OW30922   4.091   1.235   5.864
10008SOL    HW130923   4.186   1.204   5.864
10008SOL    HW230924   4.052   1.225   5.773
10009SOL     OW30925   1.197   3.299   2.326
10009SOL    HW130926   1.205   3.207   2.289
10009SOL    HW230927   1.288   3.342   2.327
10010SOL     OW30928   2.665   3.828   0.346
10010SOL    HW130929   2.722   3.834   0.264
10010SOL    HW230930   2.680   3.739   0.390
10011SOL     OW30931   1.919   3.469   0.106
10011SOL    HW130932   1.837   3.467   0.163
10011SOL    HW230933   1.983   3.399   0.137
10012SOL     OW30934   5.784   2.358   3.176
10012SOL    HW130935   5.703   2.303   3.156
10012SOL    HW230936   5.762   2.455   3.164
10013SOL     OW30937   0.215   5.905   5.108
10013SOL    HW130938   0.122   5.939   5.122
10013SOL    HW230939   0.276   5.946   5.175
10014SOL     OW30940   1.108   0.407   3.292
10014SOL    HW130941   1.032   0.458   3.252
10014SOL    HW230942   1.157   0.358   3.219
10015SOL     OW30943   4.151   5.089   5.850
10015SOL    HW130944   4.115   5.054   5.937
10015SOL    HW230945   4.081   5.083   5.780
10016SOL     OW30946   2.132   0.479   3.491
10016SOL    HW130947   2.061   0.549   3.488
10016SOL    HW230948   2.190   0.486   3.410
10017SOL     OW30949   2.446   2.589   2.268
10017SOL    HW130950   2.526   2.616   2.322
10017SOL    HW230951   2.460   2.496   2.232
10018SOL     OW30952   6.743   3.305   6.120
10018SOL    HW130953   6.828   3.347   6.152
10018SOL    HW230954   6.677   3.301   6.195
10019SOL     OW30955   0.664   2.158   2.114
10019SOL    HW130956   0.597   2.162   2.188
10019SOL    HW230957   0.744   2.106   2.145
10020SOL     OW30958   6.337   0.741   2.343
10020SOL    HW130959   6.316   0.722   2.247
10020SOL    HW230960   6.307   0.664   2.399
10021SOL     OW30961   0.938   3.295   2.410
10021SOL    HW130962   0.921   3.200   2.383
10021SOL    HW230963   1.032   3.304   2.445
10022SOL     OW30964   2.835   5.648   6.990
10022SOL    HW130965   2.797   5.556   6.994
10022SOL    HW230966   2.785   5.701   6.921
10023SOL     OW30967   1.327   0.335   6.308
10023SOL    HW130968   1.354   0.240   6.295
10023SOL    HW230969   1.346   0.387   6.225
10024SOL     OW30970   1.530   4.654   2.318
10024SOL    HW130971   1.565   4.596   2.245
10024SOL    HW230972   1.540   4.750   2.291
10025SOL     OW30973   0.932   4.646   1.836
10025SOL    HW130974   0.837   4.640   1.869
10025SOL    HW230975   0.994   4.626   1.911
10026SOL     OW30976   5.277   1.830   4.295
10026SOL    HW130977   5.199   1.870   4.344
10026SOL    HW230978   5.360   1.841   4.349
10027SOL     OW30979   2.919   1.691   5.422
10027SOL    HW130980   2.963   1.779   5.403
10027SOL    HW230981   2.907   1.640   5.337
10028SOL     OW30982   4.426   0.560   1.109
10028SOL    HW130983   4.389   0.568   1.017
10028SOL    HW230984   4.352   0.570   1.176
10029SOL     OW30985   0.540   3.564   5.196
10029SOL    HW130986   0.545   3.562   5.096
10029SOL    HW230987   0.469   3.627   5.225
10030SOL     OW30988   2.418   0.038   4.671
10030SOL    HW130989   2.399   0.064   4.577
10030SOL    HW230990   2.513   0.058   4.693
10031SOL     OW30991   2.814   4.727   3.780
10031SOL    HW130992   2.862   4.680   3.854
10031SOL    HW230993   2.716   4.723   3.796
10032SOL     OW30994   2.962   6.257   5.002
10032SOL    HW130995   2.925   6.347   4.981
10032SOL    HW230996   3.055   6.250   4.964
10033SOL     OW30997   3.172   1.338   3.480
10033SOL    HW130998   3.140   1.397   3.406
10033SOL    HW230999   3.252   1.286   3.450
10034SOL     OW31000   2.717   0.768   3.861
10034SOL    HW131001   2.767   0.843   3.816
10034SOL    HW231002   2.623   0.766   3.829
10035SOL     OW31003   5.764   2.842   2.363
10035SOL    HW131004   5.687   2.779   2.360
10035SOL    HW231005   5.833   2.813   2.297
10036SOL     OW31006   0.218   1.017   6.808
10036SOL    HW131007   0.272   1.014   6.892
10036SOL    HW231008   0.219   0.927   6.764
10037SOL     OW31009   6.244   0.185   6.698
10037SOL    HW131010   6.289   0.108   6.652
10037SOL    HW231011   6.160   0.209   6.650
10038SOL     OW31012   4.543   6.649   6.356
10038SOL    HW131013   4.582   6.685   6.271
10038SOL    HW231014   4.550   6.718   6.428
10039SOL     OW31015   6.421   5.370   2.883
10039SOL    HW131016   6.494   5.404   2.944
10039SOL    HW231017   6.334   5.371   2.932
10040SOL     OW31018   3.556   6.646   0.900
10040SOL    HW131019   3.485   6.710   0.872
10040SOL    HW231020   3.636   6.697   0.933
10041SOL     OW31021   0.027   5.231   4.861
10041SOL    HW131022   6.986   5.303   4.847
10041SOL    HW231023   7.009   5.152   4.904
10042SOL     OW31024   0.466   0.580   4.920
10042SOL    HW131025   0.431   0.492   4.888
10042SOL    HW231026   0.563   0.571   4.943
10043SOL     OW31027   0.716   0.769   3.536
10043SOL    HW131028   0.720   0.727   3.627
10043SOL    HW231029   0.809   0.793   3.506
10044SOL     OW31030   2.848   1.584   6.186
10044SOL    HW131031   2.778   1.650   6.214
10044SOL    HW231032   2.921   1.632   6.138
10045SOL     OW31033   3.754   6.855   5.140
10045SOL    HW131034   3.680   6.794   5.114
10045SOL    HW231035   3.783   6.835   5.234
10046SOL     OW31036   6.990   2.596   1.484
10046SOL    HW131037   6.892   2.606   1.466
10046SOL    HW231038   0.004   2.687   1.495
10047SOL     OW31039   6.920   2.178   4.813
10047SOL    HW131040   6.955   2.231   4.890
10047SOL    HW231041   6.993   2.119   4.777
10048SOL     OW31042   3.844   1.773   1.651
10048SOL    HW131043   3.892   1.857   1.624
10048SOL    HW231044   3.822   1.719   1.570
10049SOL     OW31045   1.708   6.926   5.296
10049SOL    HW131046   1.796   6.965   5.271
10049SOL    HW231047   1.636   6.965   5.238
10050SOL     OW31048   5.022   2.912   3.834
10050SOL    HW131049   5.120   2.906   3.851
10050SOL    HW231050   5.000   2.870   3.746
10051SOL     OW31051   6.006   3.013   4.990
10051SOL    HW131052   6.072   3.073   4.946
10051SOL    HW231053   5.914   3.048   4.975
10052SOL     OW31054   0.765   3.505   1.722
10052SOL    HW131055   0.846   3.481   1.668
10052SOL    HW231056   0.763   3.449   1.805
10053SOL     OW31057   3.105   5.919   3.537
10053SOL    HW131058   3.189   5.941   3.586
10053SOL    HW231059   3.079   5.825   3.557
10054SOL     OW31060   3.824   5.625   5.087
10054SOL    HW131061   3.726   5.618   5.108
10054SOL    HW231062   3.850   5.551   5.024
10055SOL     OW31063   6.227   2.742   5.351
10055SOL    HW131064   6.151   2.806   5.367
10055SOL    HW231065   6.216   2.662   5.409
10056SOL     OW31066   6.358   4.625   1.742
10056SOL    HW131067   6.298   4.578   1.807
10056SOL    HW231068   6.322   4.613   1.649
10057SOL     OW31069   3.586   2.056   4.105
10057SOL    HW131070   3.678   2.073   4.140
10057SOL    HW231071   3.519   2.077   4.176
10058SOL     OW31072   0.824   5.392   3.876
10058SOL    HW131073   0.785   5.483   3.867
10058SOL    HW231074   0.769   5.338   3.940
10059SOL     OW31075   5.804   0.723   1.054
10059SOL    HW131076   5.726   0.739   1.114
10059SOL    HW231077   5.840   0.810   1.021
10060SOL     OW31078   2.622   2.866   1.696
10060SOL    HW131079   2.716   2.854   1.727
10060SOL    HW231080   2.566   2.790   1.729
10061SOL     OW31081   6.255   1.487   4.250
10061SOL    HW131082   6.219   1.576   4.279
10061SOL    HW231083   6.346   1.501   4.209
10062SOL     OW31084   6.567   6.080   2.929
10062SOL    HW131085   6.657   6.052   2.961
10062SOL    HW231086   6.500   6.008   2.949
10063SOL     OW31087   0.931   3.273   3.381
10063SOL    HW131088   0.945   3.181   3.344
10063SOL    HW231089   0.908   3.335   3.306
10064SOL     OW31090   5.709   6.524   4.266
10064SOL    HW131091   5.693   6.505   4.363
10064SOL    HW231092   5.666   6.452   4.211
10065SOL     OW31093   1.877   6.260   2.953
10065SOL    HW131094   1.851   6.166   2.931
10065SOL    HW231095   1.874   6.273   3.052
10066SOL     OW31096   0.705   6.758   4.004
10066SOL    HW131097   0.635   6.689   3.986
10066SOL    HW231098   0.676   6.846   3.965
10067SOL     OW31099   4.269   4.899   4.326
10067SOL    HW131100   4.340   4.888   4.396
10067SOL    HW231101   4.210   4.976   4.351
10068SOL     OW31102   5.017   3.634   5.113
10068SOL    HW131103   4.941   3.586   5.070
10068SOL    HW231104   4.989   3.728   5.136
10069SOL     OW31105   2.586   1.652   3.360
10069SOL    HW131106   2.514   1.590   3.392
10069SOL    HW231107   2.590   1.731   3.420
10070SOL     OW31108   1.173   7.019   4.703
10070SOL    HW131109   1.210   6.956   4.771
10070SOL    HW231110   1.208   6.995   4.613
10071SOL     OW31111   5.281   5.909   4.923
10071SOL    HW131112   5.378   5.891   4.942
10071SOL    HW231113   5.225   5.838   4.967
10072SOL     OW31114   0.950   6.672   3.054
10072SOL    HW131115   0.861   6.712   3.030
10072SOL    HW231116   0.970   6.693   3.150
10073SOL     OW31117   7.021   4.604   6.040
10073SOL    HW131118   0.068   4.537   6.030
10073SOL    HW231119   0.008   4.656   6.125
10074SOL     OW31120   2.391   0.465   6.488
10074SOL    HW131121   2.385   0.538   6.420
10074SOL    HW231122   2.486   0.433   6.495
10075SOL     OW31123   0.934   2.542   3.770
10075SOL    HW131124   0.991   2.624   3.761
10075SOL    HW231125   0.979   2.476   3.830
10076SOL     OW31126   4.918   6.759   4.897
10076SOL    HW131127   5.011   6.761   4.933
10076SOL    HW231128   4.907   6.681   4.836
10077SOL     OW31129   4.588   1.679   5.930
10077SOL    HW131130   4.652   1.608   5.957
10077SOL    HW231131   4.637   1.754   5.886
10078SOL     OW31132   5.923   0.105   5.659
10078SOL    HW131133   5.899   0.125   5.565
10078SOL    HW231134   5.862   0.156   5.721
10079SOL     OW31135   0.782   3.346   1.436
10079SOL    HW131136   0.857   3.395   1.479
10079SOL    HW231137   0.779   3.252   1.470
10080SOL     OW31138   2.172   2.966   0.035
10080SOL    HW131139   2.218   2.966   6.973
10080SOL    HW231140   2.139   2.873   0.055
10081SOL     OW31141   0.929   0.527   6.601
10081SOL    HW131142   0.844   0.507   6.553
10081SOL    HW231143   1.004   0.479   6.556
10082SOL     OW31144   5.819   2.344   1.726
10082SOL    HW131145   5.755   2.418   1.707
10082SOL    HW231146   5.789   2.294   1.807
10083SOL     OW31147   4.470   0.452   3.881
10083SOL    HW131148   4.465   0.549   3.859
10083SOL    HW231149   4.541   0.437   3.950
10084SOL     OW31150   2.627   1.291   5.812
10084SOL    HW131151   2.620   1.193   5.796
10084SOL    HW231152   2.706   1.310   5.870
10085SOL     OW31153   0.763   6.095   2.710
10085SOL    HW131154   0.850   6.062   2.746
10085SOL    HW231155   0.688   6.061   2.767
10086SOL     OW31156   5.966   4.154   1.892
10086SOL    HW131157   5.985   4.143   1.990
10086SOL    HW231158   6.031   4.219   1.853
10087SOL     OW31159   1.312   0.322   3.997
10087SOL    HW131160   1.384   0.346   4.063
10087SOL    HW231161   1.349   0.259   3.929
10088SOL     OW31162   0.907   6.964   4.785
10088SOL    HW131163   1.002   6.979   4.757
10088SOL    HW231164   0.872   6.881   4.741
10089SOL     OW31165   1.767   2.418   2.001
10089SOL    HW131166   1.849   2.471   2.021
10089SOL    HW231167   1.696   2.440   2.067
10090SOL     OW31168   0.970   4.042   0.798
10090SOL    HW131169   1.033   4.102   0.750
10090SOL    HW231170   1.002   4.029   0.892
10091SOL     OW31171   0.936   2.666   4.685
10091SOL    HW131172   0.960   2.742   4.745
10091SOL    HW231173   0.902   2.701   4.598
10092SOL     OW31174   1.845   3.732   4.891
10092SOL    HW131175   1.893   3.653   4.853
10092SOL    HW231176   1.846   3.807   4.824
10093SOL     OW31177   6.101   5.553   5.863
10093SOL    HW131178   6.109   5.477   5.928
10093SOL    HW231179   6.038   5.527   5.790
10094SOL     OW31180   1.921   1.486   2.597
10094SOL    HW131181   2.015   1.505   2.624
10094SOL    HW231182   1.907   1.387   2.593
10095SOL     OW31183   0.169   0.928   6.106
10095SOL    HW131184   0.078   0.887   6.113
10095SOL    HW231185   0.234   0.860   6.072
10096SOL     OW31186   0.634   5.608   2.719
10096SOL    HW131187   0.674   5.672   2.654
10096SOL    HW231188   0.636   5.648   2.811
10097SOL     OW31189   1.311   0.593   1.046
10097SOL    HW131190   1.266   0.509   1.016
10097SOL    HW231191   1.252   0.671   1.026
10098SOL     OW31192   2.261   5.257   6.672
10098SOL    HW131193   2.298   5.195   6.603
10098SOL    HW231194   2.161   5.255   6.668
10099SOL     OW31195   6.496   4.645   5.345
10099SOL    HW131196   6.574   4.704   5.364
10099SOL    HW231197   6.415   4.701   5.326
10100SOL     OW31198   5.085   0.775   4.843
10100SOL    HW131199   5.042   0.863   4.824
10100SOL    HW231200   5.042   0.704   4.788
10101SOL     OW31201   6.990   4.660   2.401
10101SOL    HW131202   6.970   4.567   2.434
10101SOL    HW231203   0.007   4.712   2.474
10102SOL     OW31204   3.169   1.624   2.046
10102SOL    HW131205   3.261   1.639   2.083
10102SOL    HW231206   3.177   1.587   1.953
10103SOL     OW31207   2.821   1.340   5.995
10103SOL    HW131208   2.878   1.402   6.049
10103SOL    HW231209   2.860   1.248   5.997
10104SOL     OW31210   0.940   5.646   4.882
10104SOL    HW131211   0.929   5.551   4.854
10104SOL    HW231212   0.966   5.649   4.979
10105SOL     OW31213   2.241   0.417   6.862
10105SOL    HW131214   2.280   0.465   6.784
10105SOL    HW231215   2.221   0.322   6.837
10106SOL     OW31216   5.457   6.007   0.675
10106SOL    HW131217   5.554   6.007   0.701
10106SOL    HW231218   5.403   6.048   0.749
10107SOL     OW31219   6.039   1.592   5.952
10107SOL    HW131220   6.126   1.581   5.904
10107SOL    HW231221   5.978   1.651   5.898
10108SOL     OW31222   6.757   0.135   0.242
10108SOL    HW131223   6.812   0.155   0.323
10108SOL    HW231224   6.756   0.036   0.226
10109SOL     OW31225   4.284   5.334   3.880
10109SOL    HW131226   4.214   5.370   3.819
10109SOL    HW231227   4.267   5.237   3.896
10110SOL     OW31228   3.934   0.433   5.823
10110SOL    HW131229   3.995   0.382   5.883
10110SOL    HW231230   3.956   0.414   5.728
10111SOL     OW31231   7.009   3.083   2.668
10111SOL    HW131232   0.080   3.099   2.650
10111SOL    HW231233   6.957   3.099   2.584
10112SOL     OW31234   4.753   4.103   5.825
10112SOL    HW131235   4.784   4.162   5.899
10112SOL    HW231236   4.654   4.112   5.813
10113SOL     OW31237   3.915   6.971   6.808
10113SOL    HW131238   4.008   7.007   6.820
10113SOL    HW231239   3.898   6.954   6.710
10114SOL     OW31240   5.329   1.116   0.967
10114SOL    HW131241   5.292   1.165   0.887
10114SOL    HW231242   5.428   1.112   0.961
10115SOL     OW31243   1.890   2.268   3.831
10115SOL    HW131244   1.850   2.250   3.741
10115SOL    HW231245   1.946   2.190   3.859
10116SOL     OW31246   0.804   1.309   1.470
10116SOL    HW131247   0.877   1.243   1.451
10116SOL    HW231248   0.715   1.267   1.454
10117SOL     OW31249   5.805   0.261   5.839
10117SOL    HW131250   5.747   0.317   5.779
10117SOL    HW231251   5.777   0.275   5.934
10118SOL     OW31252   6.906   5.392   2.262
10118SOL    HW131253   6.892   5.339   2.179
10118SOL    HW231254   6.819   5.398   2.312
10119SOL     OW31255   2.599   0.795   5.607
10119SOL    HW131256   2.503   0.784   5.631
10119SOL    HW231257   2.656   0.767   5.684
10120SOL     OW31258   0.070   2.844   4.110
10120SOL    HW131259   0.036   2.849   4.016
10120SOL    HW231260   0.018   2.908   4.166
10121SOL     OW31261   6.058   4.544   4.794
10121SOL    HW131262   6.144   4.562   4.746
10121SOL    HW231263   6.008   4.471   4.748
10122SOL     OW31264   5.649   3.492   0.223
10122SOL    HW131265   5.651   3.445   0.134
10122SOL    HW231266   5.680   3.430   0.294
10123SOL     OW31267   6.885   6.510   0.746
10123SOL    HW131268   6.957   6.453   0.785
10123SOL    HW231269   6.796   6.469   0.765
10124SOL     OW31270   3.128   3.935   6.960
10124SOL    HW131271   3.061   3.981   7.018
10124SOL    HW231272   3.084   3.859   6.912
10125SOL     OW31273   1.474   0.391   2.489
10125SOL    HW131274   1.494   0.305   2.536
10125SOL    HW231275   1.389   0.382   2.437
10126SOL     OW31276   6.106   5.278   0.669
10126SOL    HW131277   6.024   5.304   0.617
10126SOL    HW231278   6.183   5.269   0.606
10127SOL     OW31279   3.286   5.712   5.357
10127SOL    HW131280   3.369   5.705   5.413
10127SOL    HW231281   3.235   5.626   5.361
10128SOL     OW31282   6.926   2.140   0.568
10128SOL    HW131283   6.986   2.127   0.646
10128SOL    HW231284   6.831   2.148   0.600
10129SOL     OW31285   5.765   2.276   3.552
10129SOL    HW131286   5.788   2.372   3.563
10129SOL    HW231287   5.840   2.229   3.505
10130SOL     OW31288   6.821   5.572   2.683
10130SOL    HW131289   6.757   5.496   2.683
10130SOL    HW231290   6.892   5.556   2.614
10131SOL     OW31291   0.745   1.299   1.941
10131SOL    HW131292   0.671   1.278   2.005
10131SOL    HW231293   0.721   1.379   1.887
10132SOL     OW31294   2.848   6.561   2.935
10132SOL    HW131295   2.777   6.522   2.876
10132SOL    HW231296   2.807   6.632   2.993
10133SOL     OW31297   4.778   6.064   3.400
10133SOL    HW131298   4.686   6.029   3.420
10133SOL    HW231299   4.799   6.140   3.461
10134SOL     OW31300   0.016   1.196   3.602
10134SOL    HW131301   6.984   1.237   3.671
10134SOL    HW231302   0.065   1.268   3.552
10135SOL     OW31303   4.315   5.138   2.808
10135SOL    HW131304   4.226   5.129   2.852
10135SOL    HW231305   4.385   5.150   2.878
10136SOL     OW31306   6.101   0.227   3.456
10136SOL    HW131307   6.146   0.280   3.529
10136SOL    HW231308   6.093   0.283   3.374
10137SOL     OW31309   6.420   5.611   4.652
10137SOL    HW131310   6.398   5.549   4.577
10137SOL    HW231311   6.357   5.689   4.652
10138SOL     OW31312   5.976   2.107   0.109
10138SOL    HW131313   6.041   2.152   0.048
10138SOL    HW231314   5.886   2.102   0.064
10139SOL     OW31315   3.051   3.135   3.326
10139SOL    HW131316   3.044   3.136   3.227
10139SOL    HW231317   3.058   3.041   3.358
10140SOL     OW31318   6.915   5.441   6.907
10140SOL    HW131319   6.935   5.363   6.847
10140SOL    HW231320   6.868   5.409   6.989
10141SOL     OW31321   1.987   1.354   4.476
10141SOL    HW131322   2.067   1.413   4.460
10141SOL    HW231323   2.016   1.272   4.524
10142SOL     OW31324   3.890   5.881   4.512
10142SOL    HW131325   3.966   5.869   4.577
10142SOL    HW231326   3.905   5.963   4.458
10143SOL     OW31327   4.854   0.274   1.303
10143SOL    HW131328   4.889   0.326   1.226
10143SOL    HW231329   4.890   0.311   1.389
10144SOL     OW31330   3.176   5.679   4.523
10144SOL    HW131331   3.165   5.623   4.605
10144SOL    HW231332   3.090   5.726   4.503
10145SOL     OW31333   2.945   5.886   5.784
10145SOL    HW131334   2.965   5.877   5.882
10145SOL    HW231335   2.857   5.844   5.764
10146SOL     OW31336   4.102   5.270   4.237
10146SOL    HW131337   4.091   5.205   4.313
10146SOL    HW231338   4.128   5.221   4.154
10147SOL     OW31339   4.879   4.089   4.009
10147SOL    HW131340   4.859   3.991   4.001
10147SOL    HW231341   4.830   4.127   4.087
10148SOL     OW31342   6.437   5.666   0.663
10148SOL    HW131343   6.482   5.706   0.583
10148SOL    HW231344   6.342   5.645   0.641
10149SOL     OW31345   4.365   1.813   1.498
10149SOL    HW131346   4.286   1.757   1.472
10149SOL    HW231347   4.377   1.887   1.432
10150SOL     OW31348   4.766   4.443   0.695
10150SOL    HW131349   4.694   4.463   0.629
10150SOL    HW231350   4.775   4.344   0.706
10151SOL     OW31351   1.294   6.720   6.476
10151SOL    HW131352   1.289   6.721   6.376
10151SOL    HW231353   1.218   6.666   6.513
10152SOL     OW31354   0.905   4.701   3.654
10152SOL    HW131355   0.949   4.759   3.586
10152SOL    HW231356   0.881   4.756   3.734
10153SOL     OW31357   4.719   6.011   3.768
10153SOL    HW131358   4.785   5.965   3.828
10153SOL    HW231359   4.748   6.105   3.753
10154SOL     OW31360   6.436   6.000   5.835
10154SOL    HW131361   6.513   5.992   5.772
10154SOL    HW231362   6.351   6.009   5.783
10155SOL     OW31363   4.065   0.832   6.094
10155SOL    HW131364   4.080   0.774   6.013
10155SOL    HW231365   4.149   0.879   6.117
10156SOL     OW31366   5.304   0.277   2.255
10156SOL    HW131367   5.333   0.212   2.184
10156SOL    HW231368   5.370   0.274   2.331
10157SOL     OW31369   6.076   1.138   6.364
10157SOL    HW131370   6.175   1.141   6.368
10157SOL    HW231371   6.046   1.047   6.335
10158SOL     OW31372   4.376   3.490   0.123
10158SOL    HW131373   4.378   3.468   0.025
10158SOL    HW231374   4.290   3.536   0.145
10159SOL     OW31375   2.511   2.387   6.178
10159SOL    HW131376   2.588   2.444   6.206
10159SOL    HW231377   2.427   2.424   6.218
10160SOL     OW31378   0.227   4.583   3.698
10160SOL    HW131379   0.323   4.598   3.722
10160SOL    HW231380   0.185   4.521   3.765
10161SOL     OW31381   3.292   5.355   6.492
10161SOL    HW131382   3.224   5.293   6.530
10161SOL    HW231383   3.247   5.430   6.445
10162SOL     OW31384   2.487   2.966   6.085
10162SOL    HW131385   2.423   3.032   6.048
10162SOL    HW231386   2.572   2.968   6.032
10163SOL     OW31387   6.518   4.062   5.973
10163SOL    HW131388   6.531   3.967   5.945
10163SOL    HW231389   6.459   4.065   6.053
10164SOL     OW31390   6.482   3.130   4.890
10164SOL    HW131391   6.439   3.202   4.838
10164SOL    HW231392   6.562   3.166   4.939
10165SOL     OW31393   0.793   2.295   4.340
10165SOL    HW131394   0.861   2.245   4.394
10165SOL    HW231395   0.836   2.329   4.256
10166SOL     OW31396   2.761   1.900   1.561
10166SOL    HW131397   2.731   1.894   1.656
10166SOL    HW231398   2.861   1.910   1.558
10167SOL     OW31399   5.357   1.220   6.476
10167SOL    HW131400   5.364   1.172   6.563
10167SOL    HW231401   5.373   1.317   6.490
10168SOL     OW31402   6.636   4.372   4.412
10168SOL    HW131403   6.619   4.465   4.445
10168SOL    HW231404   6.673   4.317   4.487
10169SOL     OW31405   6.584   5.085   2.844
10169SOL    HW131406   6.486   5.066   2.841
10169SOL    HW231407   6.602   5.175   2.804
10170SOL     OW31408   1.083   4.111   5.390
10170SOL    HW131409   1.144   4.190   5.382
10170SOL    HW231410   1.130   4.038   5.439
10171SOL     OW31411   6.317   4.046   5.585
10171SOL    HW131412   6.363   3.968   5.543
10171SOL    HW231413   6.223   4.020   5.610
10172SOL     OW31414   5.219   0.356   2.837
10172SOL    HW131415   5.160   0.406   2.900
10172SOL    HW231416   5.206   0.392   2.745
10173SOL     OW31417   1.794   1.552   1.118
10173SOL    HW131418   1.850   1.544   1.200
10173SOL    HW231419   1.847   1.597   1.046
10174SOL     OW31420   6.122   4.446   3.253
10174SOL    HW131421   6.055   4.487   3.191
10174SOL    HW231422   6.214   4.477   3.229
10175SOL     OW31423   6.070   2.420   4.851
10175SOL    HW131424   6.103   2.389   4.762
10175SOL    HW231425   6.148   2.444   4.909
10176SOL     OW31426   1.916   3.460   6.434
10176SOL    HW131427   1.858   3.378   6.439
10176SOL    HW231428   1.859   3.542   6.446
10177SOL     OW31429   2.774   6.791   0.132
10177SOL    HW131430   2.803   6.757   0.043
10177SOL    HW231431   2.843   6.767   0.201
10178SOL     OW31432   5.614   3.007   4.544
10178SOL    HW131433   5.689   2.977   4.603
10178SOL    HW231434   5.646   3.012   4.450
10179SOL     OW31435   1.370   2.423   6.383
10179SOL    HW131436   1.351   2.520   6.395
10179SOL    HW231437   1.296   2.369   6.425
10180SOL     OW31438   2.462   5.508   5.884
10180SOL    HW131439   2.406   5.439   5.838
10180SOL    HW231440   2.432   5.599   5.855
10181SOL     OW31441   6.159   3.328   1.534
10181SOL    HW131442   6.095   3.377   1.593
10181SOL    HW231443   6.109   3.259   1.481
10182SOL     OW31444   5.771   1.061   1.337
10182SOL    HW131445   5.708   1.138   1.347
10182SOL    HW231446   5.837   1.062   1.412
10183SOL     OW31447   1.112   1.862   6.659
10183SOL    HW131448   1.067   1.938   6.706
10183SOL    HW231449   1.084   1.861   6.563
10184SOL     OW31450   4.976   1.804   6.099
10184SOL    HW131451   5.014   1.736   6.037
10184SOL    HW231452   4.925   1.873   6.046
10185SOL     OW31453   5.077   6.852   0.834
10185SOL    HW131454   5.177   6.855   0.835
10185SOL    HW231455   5.043   6.871   0.926
10186SOL     OW31456   4.917   2.615   3.134
10186SOL    HW131457   4.845   2.626   3.066
10186SOL    HW231458   4.941   2.518   3.143
10187SOL     OW31459   0.635   2.101   1.842
10187SOL    HW131460   0.627   2.112   1.941
10187SOL    HW231461   0.731   2.081   1.819
10188SOL     OW31462   4.073   6.388   0.394
10188SOL    HW131463   4.019   6.378   0.478
10188SOL    HW231464   4.011   6.396   0.316
10189SOL     OW31465   2.390   6.442   4.977
10189SOL    HW131466   2.342   6.526   4.952
10189SOL    HW231467   2.334   6.363   4.951
10190SOL     OW31468   4.523   2.376   0.548
10190SOL    HW131469   4.496   2.356   0.642
10190SOL    HW231470   4.460   2.442   0.508
10191SOL     OW31471   4.783   4.715   6.470
10191SOL    HW131472   4.801   4.623   6.436
10191SOL    HW231473   4.831   4.782   6.413
10192SOL     OW31474   3.604   0.692   5.081
10192SOL    HW131475   3.550   0.608   5.085
10192SOL    HW231476   3.573   0.748   5.004
10193SOL     OW31477   4.317   4.257   0.999
10193SOL    HW131478   4.289   4.280   1.092
10193SOL    HW231479   4.413   4.284   0.985
10194SOL     OW31480   6.184   4.306   5.105
10194SOL    HW131481   6.129   4.389   5.116
10194SOL    HW231482   6.200   4.288   5.008
10195SOL     OW31483   6.642   4.667   1.767
10195SOL    HW131484   6.708   4.731   1.727
10195SOL    HW231485   6.549   4.694   1.740
10196SOL     OW31486   6.777   1.263   5.143
10196SOL    HW131487   6.813   1.235   5.054
10196SOL    HW231488   6.809   1.199   5.213
10197SOL     OW31489   6.406   0.691   5.573
10197SOL    HW131490   6.501   0.680   5.544
10197SOL    HW231491   6.346   0.694   5.493
10198SOL     OW31492   3.747   0.322   2.615
10198SOL    HW131493   3.768   0.262   2.691
10198SOL    HW231494   3.658   0.365   2.630
10199SOL     OW31495   1.114   2.814   5.504
10199SOL    HW131496   1.099   2.896   5.560
10199SOL    HW231497   1.057   2.739   5.537
10200SOL     OW31498   5.722   2.905   1.208
10200SOL    HW131499   5.703   2.978   1.143
10200SOL    HW231500   5.661   2.913   1.287
10201SOL     OW31501   0.992   4.235   1.144
10201SOL    HW131502   1.020   4.149   1.102
10201SOL    HW231503   1.013   4.311   1.082
10202SOL     OW31504   4.022   1.494   5.490
10202SOL    HW131505   3.938   1.545   5.508
10202SOL    HW231506   4.098   1.538   5.538
10203SOL     OW31507   5.830   2.535   5.182
10203SOL    HW131508   5.881   2.620   5.168
10203SOL    HW231509   5.814   2.491   5.093
10204SOL     OW31510   5.262   0.012   6.452
10204SOL    HW131511   5.168   0.040   6.472
10204SOL    HW231512   5.287   6.960   6.509
10205SOL     OW31513   1.085   0.762   6.643
10205SOL    HW131514   1.034   0.677   6.636
10205SOL    HW231515   1.029   0.832   6.687
10206SOL     OW31516   1.314   0.925   5.558
10206SOL    HW131517   1.334   0.974   5.642
10206SOL    HW231518   1.310   0.827   5.576
10207SOL     OW31519   1.375   1.681   5.779
10207SOL    HW131520   1.305   1.748   5.756
10207SOL    HW231521   1.379   1.611   5.707
10208SOL     OW31522   6.063   5.003   4.772
10208SOL    HW131523   6.134   4.939   4.799
10208SOL    HW231524   6.004   5.024   4.850
10209SOL     OW31525   6.419   6.929   6.260
10209SOL    HW131526   6.512   6.963   6.273
10209SOL    HW231527   6.417   6.864   6.184
10210SOL     OW31528   3.823   5.799   1.663
10210SOL    HW131529   3.901   5.859   1.681
10210SOL    HW231530   3.774   5.781   1.749
10211SOL     OW31531   4.197   6.292   5.632
10211SOL    HW131532   4.110   6.281   5.584
10211SOL    HW231533   4.190   6.367   5.697
10212SOL     OW31534   1.033   0.342   5.991
10212SOL    HW131535   1.097   0.275   6.029
10212SOL    HW231536   1.037   0.426   6.046
10213SOL     OW31537   4.876   1.905   0.259
10213SOL    HW131538   4.824   1.880   0.341
10213SOL    HW231539   4.817   1.957   0.197
10214SOL     OW31540   0.745   3.132   1.681
10214SOL    HW131541   0.744   3.149   1.780
10214SOL    HW231542   0.651   3.127   1.647
10215SOL     OW31543   3.667   3.504   2.323
10215SOL    HW131544   3.694   3.415   2.287
10215SOL    HW231545   3.659   3.498   2.423
10216SOL     OW31546   6.634   0.275   1.565
10216SOL    HW131547   6.598   0.307   1.477
10216SOL    HW231548   6.718   0.223   1.550
10217SOL     OW31549   2.916   1.029   3.458
10217SOL    HW131550   3.015   1.034   3.446
10217SOL    HW231551   2.884   0.939   3.427
10218SOL     OW31552   1.373   2.906   2.963
10218SOL    HW131553   1.274   2.910   2.978
10218SOL    HW231554   1.398   2.973   2.892
10219SOL     OW31555   0.563   1.137   2.141
10219SOL    HW131556   0.524   1.083   2.067
10219SOL    HW231557   0.493   1.195   2.182
10220SOL     OW31558   3.660   2.601   1.749
10220SOL    HW131559   3.744   2.612   1.696
10220SOL    HW231560   3.655   2.507   1.784
10221SOL     OW31561   1.099   6.068   2.893
10221SOL    HW131562   1.010   6.079   2.937
10221SOL    HW231563   1.098   5.986   2.835
10222SOL     OW31564   3.626   3.517   4.915
10222SOL    HW131565   3.615   3.615   4.901
10222SOL    HW231566   3.537   3.472   4.907
10223SOL     OW31567   0.814   5.572   1.582
10223SOL    HW131568   0.772   5.662   1.571
10223SOL    HW231569   0.817   5.548   1.678
10224SOL     OW31570   6.233   4.047   3.373
10224SOL    HW131571   6.162   4.116   3.363
10224SOL    HW231572   6.275   4.054   3.464
10225SOL     OW31573   2.332   3.750   6.186
10225SOL    HW131574   2.404   3.717   6.245
10225SOL    HW231575   2.306   3.679   6.121
10226SOL     OW31576   4.347   2.572   0.505
10226SOL    HW131577   4.256   2.605   0.530
10226SOL    HW231578   4.391   2.637   0.443
10227SOL     OW31579   5.600   4.029   1.007
10227SOL    HW131580   5.611   4.105   0.942
10227SOL    HW231581   5.564   3.950   0.959
10228SOL     OW31582   5.493   0.466   0.811
10228SOL    HW131583   5.431   0.527   0.861
10228SOL    HW231584   5.587   0.497   0.825
10229SOL     OW31585   0.647   3.344   4.383
10229SOL    HW131586   0.733   3.322   4.430
10229SOL    HW231587   0.587   3.393   4.446
10230SOL     OW31588   6.876   6.490   2.325
10230SOL    HW131589   6.865   6.394   2.298
10230SOL    HW231590   6.933   6.494   2.408
10231SOL     OW31591   1.331   5.509   3.054
10231SOL    HW131592   1.413   5.452   3.055
10231SOL    HW231593   1.317   5.550   3.144
10232SOL     OW31594   5.037   6.412   3.317
10232SOL    HW131595   5.114   6.356   3.287
10232SOL    HW231596   5.070   6.487   3.374
10233SOL     OW31597   4.174   4.436   6.331
10233SOL    HW131598   4.093   4.482   6.366
10233SOL    HW231599   4.147   4.358   6.275
10234SOL     OW31600   6.954   0.795   1.445
10234SOL    HW131601   0.004   0.838   1.397
10234SOL    HW231602   6.870   0.806   1.391
10235SOL     OW31603   1.374   1.088   3.302
10235SOL    HW131604   1.285   1.114   3.339
10235SOL    HW231605   1.396   0.994   3.329
10236SOL     OW31606   2.738   6.797   1.681
10236SOL    HW131607   2.734   6.719   1.745
10236SOL    HW231608   2.677   6.869   1.713
10237SOL     OW31609   0.279   3.415   6.579
10237SOL    HW131610   0.182   3.395   6.569
10237SOL    HW231611   0.330   3.370   6.506
10238SOL     OW31612   3.623   5.939   1.131
10238SOL    HW131613   3.603   5.853   1.085
10238SOL    HW231614   3.721   5.944   1.152
10239SOL     OW31615   1.814   2.452   4.483
10239SOL    HW131616   1.718   2.438   4.459
10239SOL    HW231617   1.828   2.547   4.509
10240SOL     OW31618   2.835   6.417   1.047
10240SOL    HW131619   2.748   6.380   1.013
10240SOL    HW231620   2.894   6.342   1.075
10241SOL     OW31621   3.881   2.331   1.663
10241SOL    HW131622   3.903   2.423   1.631
10241SOL    HW231623   3.800   2.334   1.721
10242SOL     OW31624   6.769   2.683   0.035
10242SOL    HW131625   6.713   2.712   0.113
10242SOL    HW231626   6.834   2.755   0.012
10243SOL     OW31627   2.378   5.194   1.051
10243SOL    HW131628   2.315   5.120   1.026
10243SOL    HW231629   2.329   5.263   1.104
10244SOL     OW31630   2.687   4.094   1.687
10244SOL    HW131631   2.623   4.159   1.645
10244SOL    HW231632   2.781   4.129   1.677
10245SOL     OW31633   3.860   4.350   0.735
10245SOL    HW131634   3.947   4.393   0.761
10245SOL    HW231635   3.821   4.304   0.815
10246SOL     OW31636   3.192   3.039   4.568
10246SOL    HW131637   3.282   3.004   4.543
10246SOL    HW231638   3.157   3.095   4.493
10247SOL     OW31639   0.935   2.902   4.844
10247SOL    HW131640   1.014   2.953   4.879
10247SOL    HW231641   0.874   2.879   4.920
10248SOL     OW31642   0.840   0.253   3.246
10248SOL    HW131643   0.888   0.200   3.316
10248SOL    HW231644   0.869   0.221   3.155
10249SOL     OW31645   2.686   4.928   6.266
10249SOL    HW131646   2.709   4.980   6.183
10249SOL    HW231647   2.619   4.857   6.244
10250SOL     OW31648   4.689   2.372   0.080
10250SOL    HW131649   4.632   2.454   0.080
10250SOL    HW231650   4.785   2.398   0.094
10251SOL     OW31651   2.099   0.337   4.436
10251SOL    HW131652   2.142   0.246   4.443
10251SOL    HW231653   2.146   0.390   4.365
10252SOL     OW31654   5.174   4.187   5.975
10252SOL    HW131655   5.111   4.121   6.017
10252SOL    HW231656   5.203   4.152   5.886
10253SOL     OW31657   4.044   6.642   6.719
10253SOL    HW131658   3.986   6.648   6.801
10253SOL    HW231659   4.076   6.734   6.695
10254SOL     OW31660   5.359   1.518   4.515
10254SOL    HW131661   5.443   1.564   4.487
10254SOL    HW231662   5.376   1.469   4.601
10255SOL     OW31663   3.457   5.347   1.961
10255SOL    HW131664   3.442   5.365   1.864
10255SOL    HW231665   3.486   5.253   1.974
10256SOL     OW31666   4.355   0.399   3.094
10256SOL    HW131667   4.301   0.414   3.012
10256SOL    HW231668   4.301   0.422   3.175
10257SOL     OW31669   3.086   4.944   2.862
10257SOL    HW131670   3.010   4.910   2.807
10257SOL    HW231671   3.082   5.043   2.867
10258SOL     OW31672   1.927   1.490   1.796
10258SOL    HW131673   2.005   1.542   1.762
10258SOL    HW231674   1.874   1.455   1.718
10259SOL     OW31675   0.644   3.588   3.715
10259SOL    HW131676   0.732   3.587   3.667
10259SOL    HW231677   0.570   3.593   3.648
10260SOL     OW31678   1.006   1.343   3.808
10260SOL    HW131679   1.104   1.348   3.790
10260SOL    HW231680   0.990   1.288   3.890
10261SOL     OW31681   6.399   3.719   0.938
10261SOL    HW131682   6.424   3.737   0.842
10261SOL    HW231683   6.326   3.650   0.941
10262SOL     OW31684   3.272   1.115   0.154
10262SOL    HW131685   3.223   1.047   0.099
10262SOL    HW231686   3.343   1.158   0.099
10263SOL     OW31687   5.858   0.850   1.685
10263SOL    HW131688   5.888   0.857   1.780
10263SOL    HW231689   5.760   0.868   1.680
10264SOL     OW31690   6.728   5.632   6.801
10264SOL    HW131691   6.771   5.559   6.854
10264SOL    HW231692   6.774   5.641   6.712
10265SOL     OW31693   1.902   1.847   0.298
10265SOL    HW131694   1.852   1.931   0.316
10265SOL    HW231695   1.944   1.852   0.207
10266SOL     OW31696   2.869   3.503   2.122
10266SOL    HW131697   2.874   3.470   2.216
10266SOL    HW231698   2.811   3.442   2.068
10267SOL     OW31699   5.984   1.175   0.699
10267SOL    HW131700   6.002   1.208   0.792
10267SOL    HW231701   5.905   1.223   0.662
10268SOL     OW31702   4.638   0.360   1.098
10268SOL    HW131703   4.721   0.413   1.115
10268SOL    HW231704   4.558   0.418   1.112
10269SOL     OW31705   2.394   1.997   6.240
10269SOL    HW131706   2.317   1.981   6.302
10269SOL    HW231707   2.455   2.065   6.279
10270SOL     OW31708   3.298   6.358   1.854
10270SOL    HW131709   3.244   6.277   1.834
10270SOL    HW231710   3.262   6.436   1.803
10271SOL     OW31711   1.563   2.429   0.064
10271SOL    HW131712   1.476   2.381   0.054
10271SOL    HW231713   1.547   2.518   0.109
10272SOL     OW31714   6.563   0.466   4.794
10272SOL    HW131715   6.546   0.374   4.828
10272SOL    HW231716   6.559   0.531   4.871
10273SOL     OW31717   2.478   5.188   3.373
10273SOL    HW131718   2.405   5.204   3.440
10273SOL    HW231719   2.563   5.165   3.421
10274SOL     OW31720   0.320   4.964   4.929
10274SOL    HW131721   0.296   4.875   4.966
10274SOL    HW231722   0.419   4.969   4.915
10275SOL     OW31723   0.096   0.507   2.875
10275SOL    HW131724   0.176   0.490   2.817
10275SOL    HW231725   0.093   0.439   2.948
10276SOL     OW31726   3.958   6.226   6.156
10276SOL    HW131727   4.032   6.186   6.101
10276SOL    HW231728   3.875   6.232   6.100
10277SOL     OW31729   0.734   6.813   4.590
10277SOL    HW131730   0.703   6.899   4.551
10277SOL    HW231731   0.733   6.742   4.520
10278SOL     OW31732   0.123   0.512   5.378
10278SOL    HW131733   0.157   0.474   5.464
10278SOL    HW231734   0.123   0.440   5.308
10279SOL     OW31735   1.812   5.898   4.103
10279SOL    HW131736   1.862   5.923   4.186
10279SOL    HW231737   1.871   5.844   4.043
10280SOL     OW31738   5.342   4.037   0.605
10280SOL    HW131739   5.425   3.991   0.637
10280SOL    HW231740   5.353   4.062   0.509
10281SOL     OW31741   6.599   2.391   3.749
10281SOL    HW131742   6.590   2.478   3.699
10281SOL    HW231743   6.599   2.315   3.684
10282SOL     OW31744   4.908   3.884   3.325
10282SOL    HW131745   4.873   3.936   3.403
10282SOL    HW231746   5.008   3.877   3.332
10283SOL     OW31747   0.649   4.337   1.027
10283SOL    HW131748   0.574   4.291   0.979
10283SOL    HW231749   0.661   4.295   1.117
10284SOL     OW31750   0.388   2.678   3.808
10284SOL    HW131751   0.483   2.649   3.798
10284SOL    HW231752   0.362   2.674   3.904
10285SOL     OW31753   5.099   6.152   4.551
10285SOL    HW131754   5.140   6.237   4.585
10285SOL    HW231755   5.169   6.081   4.548
10286SOL     OW31756   2.837   1.556   4.419
10286SOL    HW131757   2.787   1.643   4.418
10286SOL    HW231758   2.777   1.483   4.452
10287SOL     OW31759   2.264   5.867   2.934
10287SOL    HW131760   2.206   5.815   2.873
10287SOL    HW231761   2.339   5.809   2.967
10288SOL     OW31762   3.649   0.192   5.387
10288SOL    HW131763   3.710   0.199   5.308
10288SOL    HW231764   3.686   0.245   5.463
10289SOL     OW31765   2.330   5.962   6.308
10289SOL    HW131766   2.378   5.904   6.242
10289SOL    HW231767   2.238   5.925   6.325
10290SOL     OW31768   3.193   2.916   2.409
10290SOL    HW131769   3.178   3.013   2.387
10290SOL    HW231770   3.133   2.859   2.353
10291SOL     OW31771   2.748   1.200   2.508
10291SOL    HW131772   2.678   1.271   2.503
10291SOL    HW231773   2.722   1.123   2.448
10292SOL     OW31774   6.415   6.439   6.373
10292SOL    HW131775   6.401   6.500   6.451
10292SOL    HW231776   6.501   6.390   6.383
10293SOL     OW31777   1.047   3.675   4.090
10293SOL    HW131778   1.071   3.669   4.187
10293SOL    HW231779   1.026   3.770   4.067
10294SOL     OW31780   3.373   1.717   2.504
10294SOL    HW131781   3.339   1.786   2.567
10294SOL    HW231782   3.469   1.735   2.484
10295SOL     OW31783   1.070   2.492   0.143
10295SOL    HW131784   1.104   2.586   0.145
10295SOL    HW231785   0.991   2.484   0.203
10296SOL     OW31786   5.743   1.196   5.826
10296SOL    HW131787   5.658   1.199   5.879
10296SOL    HW231788   5.820   1.182   5.889
10297SOL     OW31789   3.051   1.935   6.860
10297SOL    HW131790   2.972   1.880   6.831
10297SOL    HW231791   3.043   2.027   6.823
10298SOL     OW31792   0.554   2.588   2.836
10298SOL    HW131793   0.516   2.534   2.911
10298SOL    HW231794   0.523   2.683   2.844
10299SOL     OW31795   4.159   6.131   1.932
10299SOL    HW131796   4.121   6.174   2.014
10299SOL    HW231797   4.208   6.048   1.958
10300SOL     OW31798   0.497   3.390   1.653
10300SOL    HW131799   0.449   3.476   1.634
10300SOL    HW231800   0.579   3.409   1.707
10301SOL     OW31801   4.082   0.960   6.551
10301SOL    HW131802   4.052   1.011   6.631
10301SOL    HW231803   4.053   0.865   6.560
10302SOL     OW31804   2.750   5.790   4.442
10302SOL    HW131805   2.692   5.712   4.463
10302SOL    HW231806   2.694   5.864   4.405
10303SOL     OW31807   1.036   6.453   4.955
10303SOL    HW131808   0.958   6.476   5.013
10303SOL    HW231809   1.004   6.408   4.872
10304SOL     OW31810   6.437   6.744   0.001
10304SOL    HW131811   6.488   6.760   0.085
10304SOL    HW231812   6.389   6.828   7.001
10305SOL     OW31813   2.096   4.106   5.877
10305SOL    HW131814   2.125   4.036   5.811
10305SOL    HW231815   2.120   4.077   5.969
10306SOL     OW31816   5.206   6.971   1.272
10306SOL    HW131817   5.173   6.969   1.177
10306SOL    HW231818   5.143   7.026   1.327
10307SOL     OW31819   2.548   0.178   4.953
10307SOL    HW131820   2.499   0.107   5.004
10307SOL    HW231821   2.504   0.266   4.967
10308SOL     OW31822   2.508   4.586   2.730
10308SOL    HW131823   2.465   4.532   2.658
10308SOL    HW231824   2.496   4.683   2.711
10309SOL     OW31825   6.560   1.177   5.689
10309SOL    HW131826   6.600   1.169   5.781
10309SOL    HW231827   6.523   1.089   5.661
10310SOL     OW31828   3.125   2.662   6.314
10310SOL    HW131829   3.089   2.698   6.400
10310SOL    HW231830   3.223   2.680   6.308
10311SOL     OW31831   5.605   6.311   6.793
10311SOL    HW131832   5.585   6.216   6.772
10311SOL    HW231833   5.542   6.344   6.863
10312SOL     OW31834   4.352   0.409   2.134
10312SOL    HW131835   4.375   0.343   2.205
10312SOL    HW231836   4.269   0.379   2.085
10313SOL     OW31837   4.843   6.437   2.852
10313SOL    HW131838   4.875   6.443   2.946
10313SOL    HW231839   4.922   6.436   2.790
10314SOL     OW31840   0.746   6.814   0.763
10314SOL    HW131841   0.751   6.782   0.858
10314SOL    HW231842   0.836   6.849   0.735
10315SOL     OW31843   5.324   6.445   3.713
10315SOL    HW131844   5.244   6.460   3.770
10315SOL    HW231845   5.352   6.349   3.720
10316SOL     OW31846   0.409   2.548   6.578
10316SOL    HW131847   0.428   2.554   6.480
10316SOL    HW231848   0.494   2.530   6.628
10317SOL     OW31849   3.329   5.981   5.829
10317SOL    HW131850   3.311   5.902   5.888
10317SOL    HW231851   3.381   6.050   5.879
10318SOL     OW31852   5.892   7.009   0.098
10318SOL    HW131853   5.925   6.923   0.138
10318SOL    HW231854   5.970   0.037   0.069
10319SOL     OW31855   0.259   4.432   4.398
10319SOL    HW131856   0.204   4.366   4.449
10319SOL    HW231857   0.235   4.427   4.301
10320SOL     OW31858   0.543   0.472   3.744
10320SOL    HW131859   0.526   0.445   3.650
10320SOL    HW231860   0.636   0.508   3.753
10321SOL     OW31861   5.411   2.130   1.756
10321SOL    HW131862   5.403   2.188   1.837
10321SOL    HW231863   5.472   2.053   1.776
10322SOL     OW31864   4.541   4.573   4.756
10322SOL    HW131865   4.483   4.570   4.838
10322SOL    HW231866   4.577   4.482   4.737
10323SOL     OW31867   0.091   4.408   5.224
10323SOL    HW131868   0.182   4.404   5.265
10323SOL    HW231869   0.039   4.328   5.252
10324SOL     OW31870   3.204   3.579   2.310
10324SOL    HW131871   3.273   3.551   2.243
10324SOL    HW231872   3.136   3.638   2.265
10325SOL     OW31873   0.409   6.071   2.901
10325SOL    HW131874   0.318   6.086   2.939
10325SOL    HW231875   0.450   5.991   2.945
10326SOL     OW31876   5.402   3.623   6.965
10326SOL    HW131877   5.359   3.657   0.021
10326SOL    HW231878   5.332   3.593   6.900
10327SOL     OW31879   2.854   3.837   1.194
10327SOL    HW131880   2.926   3.896   1.232
10327SOL    HW231881   2.786   3.818   1.265
10328SOL     OW31882   6.375   3.003   1.850
10328SOL    HW131883   6.377   3.101   1.829
10328SOL    HW231884   6.282   2.969   1.840
10329SOL     OW31885   3.522   1.714   3.234
10329SOL    HW131886   3.477   1.720   3.145
10329SOL    HW231887   3.620   1.697   3.221
10330SOL     OW31888   4.596   0.089   1.099
10330SOL    HW131889   4.590   0.038   1.185
10330SOL    HW231890   4.604   0.187   1.118
10331SOL     OW31891   6.499   5.723   0.161
10331SOL    HW131892   6.497   5.656   0.087
10331SOL    HW231893   6.413   5.774   0.162
10332SOL     OW31894   1.386   0.848   0.695
10332SOL    HW131895   1.452   0.923   0.703
10332SOL    HW231896   1.335   0.839   0.780
10333SOL     OW31897   1.140   5.953   4.409
10333SOL    HW131898   1.237   5.939   4.429
10333SOL    HW231899   1.088   5.873   4.439
10334SOL     OW31900   3.353   0.181   3.831
10334SOL    HW131901   3.328   0.109   3.897
10334SOL    HW231902   3.318   0.269   3.864
10335SOL     OW31903   0.387   3.792   5.965
10335SOL    HW131904   0.350   3.860   5.901
10335SOL    HW231905   0.405   3.707   5.915
10336SOL     OW31906   5.664   6.932   2.783
10336SOL    HW131907   5.735   6.992   2.747
10336SOL    HW231908   5.696   6.888   2.866
10337SOL     OW31909   6.231   5.392   0.078
10337SOL    HW131910   6.273   5.402   0.168
10337SOL    HW231911   6.185   5.303   0.072
10338SOL     OW31912   1.836   6.166   2.102
10338SOL    HW131913   1.761   6.100   2.097
10338SOL    HW231914   1.871   6.169   2.196
10339SOL     OW31915   6.961   2.595   5.824
10339SOL    HW131916   0.007   2.590   5.892
10339SOL    HW231917   6.915   2.506   5.819
10340SOL     OW31918   1.705   3.441   6.160
10340SOL    HW131919   1.622   3.454   6.106
10340SOL    HW231920   1.770   3.513   6.138
10341SOL     OW31921   2.258   3.033   2.727
10341SOL    HW131922   2.235   3.087   2.646
10341SOL    HW231923   2.296   2.945   2.699
10342SOL     OW31924   1.516   0.770   3.882
10342SOL    HW131925   1.575   0.802   3.808
10342SOL    HW231926   1.563   0.699   3.934
10343SOL     OW31927   2.138   5.749   1.134
10343SOL    HW131928   2.234   5.777   1.126
10343SOL    HW231929   2.128   5.692   1.216
10344SOL     OW31930   3.736   4.383   6.376
10344SOL    HW131931   3.807   4.356   6.312
10344SOL    HW231932   3.761   4.470   6.419
10345SOL     OW31933   1.165   2.943   5.243
10345SOL    HW131934   1.263   2.921   5.240
10345SOL    HW231935   1.121   2.887   5.312
10346SOL     OW31936   0.611   6.085   1.971
10346SOL    HW131937   0.607   6.003   2.027
10346SOL    HW231938   0.619   6.166   2.030
10347SOL     OW31939   4.586   1.453   3.809
10347SOL    HW131940   4.551   1.421   3.897
10347SOL    HW231941   4.652   1.526   3.824
10348SOL     OW31942   6.000   4.075   0.672
10348SOL    HW131943   5.938   4.000   0.649
10348SOL    HW231944   6.092   4.053   0.639
10349SOL     OW31945   0.161   6.579   6.354
10349SOL    HW131946   0.161   6.656   6.289
10349SOL    HW231947   0.124   6.609   6.442
10350SOL     OW31948   2.949   6.650   5.385
10350SOL    HW131949   2.904   6.611   5.304
10350SOL    HW231950   2.906   6.614   5.468
10351SOL     OW31951   4.311   5.129   5.559
10351SOL    HW131952   4.329   5.169   5.649
10351SOL    HW231953   4.374   5.052   5.544
10352SOL     OW31954   3.842   2.241   6.034
10352SOL    HW131955   3.826   2.144   6.052
10352SOL    HW231956   3.759   2.293   6.058
10353SOL     OW31957   6.747   2.677   4.792
10353SOL    HW131958   6.680   2.734   4.841
10353SOL    HW231959   6.744   2.584   4.828
10354SOL     OW31960   5.320   1.309   2.191
10354SOL    HW131961   5.313   1.409   2.184
10354SOL    HW231962   5.290   1.280   2.281
10355SOL     OW31963   2.492   5.805   2.372
10355SOL    HW131964   2.439   5.721   2.387
10355SOL    HW231965   2.455   5.878   2.429
10356SOL     OW31966   6.958   4.212   5.348
10356SOL    HW131967   7.005   4.132   5.311
10356SOL    HW231968   6.884   4.182   5.409
10357SOL     OW31969   2.514   1.841   6.572
10357SOL    HW131970   2.529   1.753   6.618
10357SOL    HW231971   2.473   1.826   6.482
10358SOL     OW31972   0.215   1.999   1.729
10358SOL    HW131973   0.267   2.075   1.768
10358SOL    HW231974   0.229   1.997   1.630
10359SOL     OW31975   6.966   1.173   1.871
10359SOL    HW131976   6.935   1.096   1.815
10359SOL    HW231977   6.920   1.256   1.840
10360SOL     OW31978   5.519   6.010   3.549
10360SOL    HW131979   5.483   5.985   3.459
10360SOL    HW231980   5.603   6.062   3.538
10361SOL     OW31981   2.622   5.275   1.997
10361SOL    HW131982   2.690   5.236   1.935
10361SOL    HW231983   2.614   5.373   1.980
10362SOL     OW31984   1.723   4.019   4.627
10362SOL    HW131985   1.801   4.040   4.569
10362SOL    HW231986   1.688   4.103   4.668
10363SOL     OW31987   5.043   0.691   3.430
10363SOL    HW131988   4.944   0.704   3.439
10363SOL    HW231989   5.091   0.765   3.478
10364SOL     OW31990   2.035   4.449   1.232
10364SOL    HW131991   2.099   4.417   1.161
10364SOL    HW231992   2.067   4.536   1.269
10365SOL     OW31993   5.179   5.310   6.956
10365SOL    HW131994   5.091   5.295   7.001
10365SOL    HW231995   5.173   5.278   6.861
10366SOL     OW31996   3.086   6.865   2.914
10366SOL    HW131997   3.183   6.867   2.890
10366SOL    HW231998   3.032   6.868   2.830
10367SOL     OW31999   6.139   2.501   3.734
10367SOL    HW132000   6.202   2.453   3.795
10367SOL    HW232001   6.188   2.528   3.651
10368SOL     OW32002   1.741   0.898   1.808
10368SOL    HW132003   1.794   0.816   1.830
10368SOL    HW232004   1.733   0.955   1.889
10369SOL     OW32005   3.644   2.693   0.094
10369SOL    HW132006   3.595   2.644   0.022
10369SOL    HW232007   3.593   2.687   0.180
10370SOL     OW32008   3.976   0.847   5.156
10370SOL    HW132009   3.946   0.911   5.084
10370SOL    HW232010   4.062   0.879   5.194
10371SOL     OW32011   4.480   6.542   5.247
10371SOL    HW132012   4.385   6.556   5.274
10371SOL    HW232013   4.484   6.472   5.175
10372SOL     OW32014   2.130   0.820   4.018
10372SOL    HW132015   2.227   0.843   4.031
10372SOL    HW232016   2.120   0.721   4.016
10373SOL     OW32017   0.927   6.534   4.249
10373SOL    HW132018   1.014   6.518   4.204
10373SOL    HW232019   0.862   6.463   4.222
10374SOL     OW32020   2.573   2.312   3.089
10374SOL    HW132021   2.527   2.224   3.103
10374SOL    HW232022   2.507   2.379   3.055
10375SOL     OW32023   5.865   2.074   0.629
10375SOL    HW132024   5.774   2.115   0.623
10375SOL    HW232025   5.903   2.089   0.720
10376SOL     OW32026   0.768   1.127   3.838
10376SOL    HW132027   0.769   1.211   3.784
10376SOL    HW232028   0.748   1.149   3.933
10377SOL     OW32029   0.907   0.580   4.197
10377SOL    HW132030   0.900   0.487   4.233
10377SOL    HW232031   0.858   0.587   4.110
10378SOL     OW32032   0.164   0.265   6.340
10378SOL    HW132033   0.175   0.310   6.252
10378SOL    HW232034   0.134   0.171   6.327
10379SOL     OW32035   5.271   1.184   4.458
10379SOL    HW132036   5.341   1.201   4.389
10379SOL    HW232037   5.186   1.231   4.432
10380SOL     OW32038   5.144   0.482   2.166
10380SOL    HW132039   5.061   0.443   2.126
10380SOL    HW232040   5.203   0.408   2.197
10381SOL     OW32041   4.591   5.005   5.724
10381SOL    HW132042   4.686   4.972   5.728
10381SOL    HW232043   4.578   5.076   5.793
10382SOL     OW32044   2.353   5.161   0.292
10382SOL    HW132045   2.361   5.259   0.309
10382SOL    HW232046   2.382   5.110   0.373
10383SOL     OW32047   0.470   2.483   0.567
10383SOL    HW132048   0.381   2.518   0.598
10383SOL    HW232049   0.483   2.505   0.470
10384SOL     OW32050   6.328   0.205   0.239
10384SOL    HW132051   6.375   0.291   0.220
10384SOL    HW232052   6.389   0.145   0.292
10385SOL     OW32053   6.339   1.703   6.559
10385SOL    HW132054   6.417   1.727   6.616
10385SOL    HW232055   6.288   1.628   6.602
10386SOL     OW32056   6.102   2.709   5.957
10386SOL    HW132057   6.142   2.730   5.868
10386SOL    HW232058   6.128   2.779   6.024
10387SOL     OW32059   1.989   2.641   3.193
10387SOL    HW132060   1.947   2.659   3.283
10387SOL    HW232061   2.088   2.638   3.203
10388SOL     OW32062   1.653   4.866   2.869
10388SOL    HW132063   1.571   4.906   2.911
10388SOL    HW232064   1.712   4.939   2.835
10389SOL     OW32065   0.852   4.894   2.897
10389SOL    HW132066   0.769   4.949   2.896
10389SOL    HW232067   0.842   4.817   2.834
10390SOL     OW32068   1.499   3.116   3.690
10390SOL    HW132069   1.485   3.101   3.592
10390SOL    HW232070   1.498   3.028   3.737
10391SOL     OW32071   2.504   6.252   5.935
10391SOL    HW132072   2.580   6.317   5.939
10391SOL    HW232073   2.530   6.174   5.879
10392SOL     OW32074   6.315   5.250   0.477
10392SOL    HW132075   6.339   5.331   0.424
10392SOL    HW232076   6.391   5.223   0.535
10393SOL     OW32077   1.521   1.304   4.246
10393SOL    HW132078   1.438   1.303   4.301
10393SOL    HW232079   1.597   1.341   4.301
10394SOL     OW32080   2.104   6.423   6.980
10394SOL    HW132081   2.068   6.485   0.023
10394SOL    HW232082   2.028   6.383   6.928
10395SOL     OW32083   0.191   1.263   4.887
10395SOL    HW132084   0.245   1.301   4.812
10395SOL    HW232085   0.252   1.223   4.955
10396SOL     OW32086   0.557   0.060   5.290
10396SOL    HW132087   0.649   0.044   5.326
10396SOL    HW232088   0.543   0.004   5.209
10397SOL     OW32089   4.360   1.434   2.864
10397SOL    HW132090   4.338   1.348   2.910
10397SOL    HW232091   4.442   1.474   2.905
10398SOL     OW32092   6.495   2.430   2.562
10398SOL    HW132093   6.577   2.461   2.610
10398SOL    HW232094   6.422   2.413   2.628
10399SOL     OW32095   5.646   1.943   5.280
10399SOL    HW132096   5.636   2.041   5.266
10399SOL    HW232097   5.640   1.922   5.378
10400SOL     OW32098   2.415   4.972   1.772
10400SOL    HW132099   2.482   4.919   1.824
10400SOL    HW232100   2.373   4.914   1.702
10401SOL     OW32101   0.323   6.339   1.308
10401SOL    HW132102   0.296   6.434   1.324
10401SOL    HW232103   0.281   6.281   1.377
10402SOL     OW32104   0.359   3.075   4.376
10402SOL    HW132105   0.340   3.115   4.465
10402SOL    HW232106   0.452   3.036   4.375
10403SOL     OW32107   5.340   0.846   2.212
10403SOL    HW132108   5.284   0.794   2.275
10403SOL    HW232109   5.295   0.934   2.192
10404SOL     OW32110   0.626   6.418   3.753
10404SOL    HW132111   0.647   6.495   3.692
10404SOL    HW232112   0.691   6.344   3.738
10405SOL     OW32113   1.676   6.540   5.697
10405SOL    HW132114   1.775   6.553   5.709
10405SOL    HW232115   1.639   6.618   5.647
10406SOL     OW32116   2.495   4.795   6.150
10406SOL    HW132117   2.440   4.792   6.233
10406SOL    HW232118   2.528   4.703   6.128
10407SOL     OW32119   0.982   1.497   0.030
10407SOL    HW132120   1.027   1.537   6.977
10407SOL    HW232121   1.050   1.474   0.099
10408SOL     OW32122   4.427   5.499   3.110
10408SOL    HW132123   4.343   5.538   3.072
10408SOL    HW232124   4.409   5.404   3.138
10409SOL     OW32125   5.817   4.845   2.517
10409SOL    HW132126   5.803   4.763   2.461
10409SOL    HW232127   5.867   4.913   2.464
10410SOL     OW32128   5.679   6.911   0.851
10410SOL    HW132129   5.660   6.850   0.774
10410SOL    HW232130   5.615   6.988   0.848
10411SOL     OW32131   2.231   4.379   2.852
10411SOL    HW132132   2.196   4.469   2.880
10411SOL    HW232133   2.277   4.388   2.764
10412SOL     OW32134   0.539   2.305   0.298
10412SOL    HW132135   0.629   2.345   0.312
10412SOL    HW232136   0.533   2.271   0.204
10413SOL     OW32137   0.467   1.982   6.748
10413SOL    HW132138   0.401   2.047   6.711
10413SOL    HW232139   0.453   1.892   6.707
10414SOL     OW32140   5.562   6.565   5.168
10414SOL    HW132141   5.502   6.551   5.247
10414SOL    HW232142   5.530   6.509   5.091
10415SOL     OW32143   0.612   5.585   3.485
10415SOL    HW132144   0.602   5.532   3.569
10415SOL    HW232145   0.688   5.650   3.496
10416SOL     OW32146   5.192   0.956   6.272
10416SOL    HW132147   5.251   0.983   6.349
10416SOL    HW232148   5.136   1.035   6.244
10417SOL     OW32149   3.654   5.070   4.306
10417SOL    HW132150   3.691   5.163   4.300
10417SOL    HW232151   3.576   5.069   4.368
10418SOL     OW32152   6.240   4.026   6.234
10418SOL    HW132153   6.154   4.065   6.266
10418SOL    HW232154   6.268   3.953   6.296
10419SOL     OW32155   2.656   1.400   4.549
10419SOL    HW132156   2.658   1.341   4.630
10419SOL    HW232157   2.605   1.483   4.569
10420SOL     OW32158   5.845   3.446   3.214
10420SOL    HW132159   5.779   3.402   3.153
10420SOL    HW232160   5.812   3.441   3.308
10421SOL     OW32161   0.671   4.579   4.360
10421SOL    HW132162   0.654   4.661   4.306
10421SOL    HW232163   0.764   4.583   4.397
10422SOL     OW32164   6.452   4.019   5.123
10422SOL    HW132165   6.445   4.116   5.148
10422SOL    HW232166   6.548   3.997   5.103
10423SOL     OW32167   2.471   4.934   4.349
10423SOL    HW132168   2.556   4.883   4.342
10423SOL    HW232169   2.415   4.919   4.268
10424SOL     OW32170   3.427   1.140   0.518
10424SOL    HW132171   3.506   1.159   0.576
10424SOL    HW232172   3.411   1.041   0.516
10425SOL     OW32173   1.469   2.507   1.113
10425SOL    HW132174   1.429   2.532   1.024
10425SOL    HW232175   1.531   2.580   1.142
10426SOL     OW32176   6.624   2.294   6.358
10426SOL    HW132177   6.605   2.232   6.282
10426SOL    HW232178   6.563   2.273   6.434
10427SOL     OW32179   5.094   0.273   4.272
10427SOL    HW132180   5.078   0.180   4.305
10427SOL    HW232181   5.039   0.290   4.190
10428SOL     OW32182   2.498   0.336   3.906
10428SOL    HW132183   2.416   0.300   3.861
10428SOL    HW232184   2.479   0.427   3.943
10429SOL     OW32185   1.530   3.029   1.589
10429SOL    HW132186   1.489   3.091   1.523
10429SOL    HW232187   1.513   2.935   1.561
10430SOL     OW32188   3.171   0.081   3.394
10430SOL    HW132189   3.074   0.104   3.400
10430SOL    HW232190   3.180   7.008   3.382
10431SOL     OW32191   4.086   0.229   3.216
10431SOL    HW132192   4.017   0.241   3.146
10431SOL    HW232193   4.119   0.135   3.215
10432SOL     OW32194   0.749   5.383   6.429
10432SOL    HW132195   0.808   5.454   6.466
10432SOL    HW232196   0.656   5.417   6.421
10433SOL     OW32197   2.336   0.046   2.614
10433SOL    HW132198   2.283   0.001   2.687
10433SOL    HW232199   2.275   0.105   2.561
10434SOL     OW32200   5.360   0.712   5.686
10434SOL    HW132201   5.373   0.777   5.761
10434SOL    HW232202   5.430   0.727   5.617
10435SOL     OW32203   2.022   1.882   0.058
10435SOL    HW132204   2.054   1.801   0.010
10435SOL    HW232205   2.077   1.961   0.031
10436SOL     OW32206   6.504   3.554   5.206
10436SOL    HW132207   6.544   3.487   5.268
10436SOL    HW232208   6.409   3.530   5.188
10437SOL     OW32209   5.684   6.450   4.793
10437SOL    HW132210   5.763   6.483   4.844
10437SOL    HW232211   5.605   6.442   4.854
10438SOL     OW32212   6.748   5.941   6.808
10438SOL    HW132213   6.716   5.849   6.829
10438SOL    HW232214   6.843   5.938   6.777
10439SOL     OW32215   6.606   5.879   4.733
10439SOL    HW132216   6.616   5.782   4.711
10439SOL    HW232217   6.562   5.889   4.822
10440SOL     OW32218   6.571   2.622   1.123
10440SOL    HW132219   6.622   2.588   1.044
10440SOL    HW232220   6.474   2.627   1.100
10441SOL     OW32221   4.387   1.671   6.823
10441SOL    HW132222   4.304   1.726   6.826
10441SOL    HW232223   4.425   1.661   6.915
10442SOL     OW32224   1.915   1.891   5.341
10442SOL    HW132225   1.847   1.818   5.330
10442SOL    HW232226   2.004   1.858   5.310
10443SOL     OW32227   0.388   1.546   1.654
10443SOL    HW132228   0.402   1.624   1.593
10443SOL    HW232229   0.476   1.519   1.695
10444SOL     OW32230   3.886   4.931   4.389
10444SOL    HW132231   3.870   4.971   4.480
10444SOL    HW232232   3.823   4.971   4.323
10445SOL     OW32233   0.445   3.060   3.128
10445SOL    HW132234   0.405   2.974   3.097
10445SOL    HW232235   0.525   3.040   3.186
10446SOL     OW32236   2.344   4.440   5.703
10446SOL    HW132237   2.306   4.410   5.616
10446SOL    HW232238   2.317   4.377   5.775
10447SOL     OW32239   0.392   2.154   2.890
10447SOL    HW132240   0.428   2.220   2.955
10447SOL    HW232241   0.453   2.149   2.810
10448SOL     OW32242   2.130   6.537   1.855
10448SOL    HW132243   2.178   6.552   1.768
10448SOL    HW232244   2.032   6.548   1.841
10449SOL     OW32245   3.664   5.006   5.101
10449SOL    HW132246   3.703   5.024   5.011
10449SOL    HW232247   3.566   4.988   5.092
10450SOL     OW32248   6.677   0.434   5.662
10450SOL    HW132249   6.739   0.369   5.707
10450SOL    HW232250   6.591   0.439   5.713
10451SOL     OW32251   3.420   1.284   3.360
10451SOL    HW132252   3.490   1.213   3.355
10451SOL    HW232253   3.457   1.365   3.405
10452SOL     OW32254   6.143   3.177   4.416
10452SOL    HW132255   6.231   3.179   4.463
10452SOL    HW232256   6.070   3.159   4.482
10453SOL     OW32257   4.426   6.273   3.483
10453SOL    HW132258   4.457   6.192   3.432
10453SOL    HW232259   4.453   6.265   3.579
10454SOL     OW32260   6.760   1.666   6.508
10454SOL    HW132261   6.839   1.710   6.464
10454SOL    HW232262   6.789   1.578   6.547
10455SOL     OW32263   6.932   5.322   3.825
10455SOL    HW132264   6.845   5.369   3.837
10455SOL    HW232265   7.007   5.388   3.834
10456SOL     OW32266   1.122   5.118   6.467
10456SOL    HW132267   1.046   5.128   6.531
10456SOL    HW232268   1.113   5.184   6.393
10457SOL     OW32269   3.955   2.337   6.980
10457SOL    HW132270   3.973   2.312   0.048
10457SOL    HW232271   3.992   2.428   6.961
10458SOL     OW32272   0.366   6.088   6.874
10458SOL    HW132273   0.270   6.100   6.847
10458SOL    HW232274   0.426   6.105   6.796
10459SOL     OW32275   6.796   5.253   1.102
10459SOL    HW132276   6.772   5.194   1.179
10459SOL    HW232277   6.838   5.198   1.030
10460SOL     OW32278   0.167   0.826   0.888
10460SOL    HW132279   0.117   0.765   0.827
10460SOL    HW232280   0.120   0.914   0.893
10461SOL     OW32281   6.930   5.200   6.075
10461SOL    HW132282   6.924   5.154   5.987
10461SOL    HW232283   7.018   5.180   6.118
10462SOL     OW32284   4.268   2.177   0.121
10462SOL    HW132285   4.227   2.166   0.031
10462SOL    HW232286   4.196   2.185   0.190
10463SOL     OW32287   4.943   2.196   6.738
10463SOL    HW132288   4.987   2.118   6.783
10463SOL    HW232289   4.892   2.163   6.658
10464SOL     OW32290   6.409   4.948   2.306
10464SOL    HW132291   6.397   4.860   2.260
10464SOL    HW232292   6.504   4.957   2.336
10465SOL     OW32293   5.785   4.400   1.586
10465SOL    HW132294   5.746   4.338   1.518
10465SOL    HW232295   5.780   4.359   1.677
10466SOL     OW32296   6.378   4.402   5.947
10466SOL    HW132297   6.343   4.496   5.954
10466SOL    HW232298   6.321   4.350   5.884
10467SOL     OW32299   0.931   3.568   0.209
10467SOL    HW132300   0.887   3.517   0.282
10467SOL    HW232301   0.913   3.666   0.220
10468SOL     OW32302   1.654   4.313   3.426
10468SOL    HW132303   1.631   4.215   3.426
10468SOL    HW232304   1.733   4.327   3.366
10469SOL     OW32305   0.210   1.834   4.203
10469SOL    HW132306   0.140   1.780   4.157
10469SOL    HW232307   0.216   1.925   4.161
10470SOL     OW32308   2.149   3.278   2.852
10470SOL    HW132309   2.203   3.196   2.837
10470SOL    HW232310   2.058   3.266   2.813
10471SOL     OW32311   3.002   6.361   6.733
10471SOL    HW132312   3.000   6.322   6.825
10471SOL    HW232313   3.038   6.294   6.668
10472SOL     OW32314   3.831   4.802   6.690
10472SOL    HW132315   3.905   4.791   6.755
10472SOL    HW232316   3.860   4.771   6.600
10473SOL     OW32317   5.615   4.576   0.464
10473SOL    HW132318   5.616   4.476   0.462
10473SOL    HW232319   5.708   4.610   0.454
10474SOL     OW32320   5.830   1.258   4.689
10474SOL    HW132321   5.847   1.171   4.644
10474SOL    HW232322   5.863   1.333   4.630
10475SOL     OW32323   1.694   5.664   1.758
10475SOL    HW132324   1.664   5.706   1.843
10475SOL    HW232325   1.653   5.573   1.749
10476SOL     OW32326   4.845   6.116   0.465
10476SOL    HW132327   4.761   6.063   0.456
10476SOL    HW232328   4.895   6.086   0.546
10477SOL     OW32329   6.701   5.490   3.863
10477SOL    HW132330   6.704   5.531   3.772
10477SOL    HW232331   6.728   5.558   3.931
10478SOL     OW32332   6.758   1.253   0.243
10478SOL    HW132333   6.838   1.269   0.302
10478SOL    HW232334   6.731   1.339   0.199
10479SOL     OW32335   0.802   2.482   1.990
10479SOL    HW132336   0.811   2.490   2.089
10479SOL    HW232337   0.881   2.524   1.946
10480SOL     OW32338   2.642   6.919   2.327
10480SOL    HW132339   2.704   6.898   2.403
10480SOL    HW232340   2.571   6.849   2.321
10481SOL     OW32341   6.780   0.592   2.073
10481SOL    HW132342   6.694   0.635   2.045
10481SOL    HW232343   6.837   0.659   2.121
10482SOL     OW32344   4.919   3.338   4.134
10482SOL    HW132345   4.948   3.243   4.143
10482SOL    HW232346   4.819   3.343   4.136
10483SOL     OW32347   6.069   6.778   0.090
10483SOL    HW132348   5.997   6.729   0.040
10483SOL    HW232349   6.139   6.808   0.026
10484SOL     OW32350   6.342   1.205   2.722
10484SOL    HW132351   6.413   1.150   2.679
10484SOL    HW232352   6.350   1.300   2.691
10485SOL     OW32353   5.577   3.889   5.675
10485SOL    HW132354   5.508   3.831   5.633
10485SOL    HW232355   5.597   3.966   5.615
10486SOL     OW32356   5.157   3.349   2.070
10486SOL    HW132357   5.233   3.309   2.018
10486SOL    HW232358   5.070   3.324   2.027
10487SOL     OW32359   5.877   6.285   1.645
10487SOL    HW132360   5.882   6.243   1.554
10487SOL    HW232361   5.853   6.381   1.637
10488SOL     OW32362   2.481   2.559   6.651
10488SOL    HW132363   2.580   2.567   6.643
10488SOL    HW232364   2.456   2.553   6.747
10489SOL     OW32365   0.811   5.688   5.953
10489SOL    HW132366   0.885   5.737   5.908
10489SOL    HW232367   0.740   5.752   5.980
10490SOL     OW32368   0.149   0.585   4.038
10490SOL    HW132369   0.122   0.492   4.063
10490SOL    HW232370   0.102   0.650   4.097
10491SOL     OW32371   1.239   4.180   5.715
10491SOL    HW132372   1.241   4.096   5.661
10491SOL    HW232373   1.331   4.203   5.745
10492SOL     OW32374   4.053   3.704   5.680
10492SOL    HW132375   4.023   3.616   5.643
10492SOL    HW232376   4.153   3.709   5.677
10493SOL     OW32377   2.821   0.943   1.425
10493SOL    HW132378   2.759   0.997   1.482
10493SOL    HW232379   2.907   0.928   1.474
10494SOL     OW32380   5.602   2.610   4.622
10494SOL    HW132381   5.555   2.521   4.627
10494SOL    HW232382   5.700   2.595   4.614
10495SOL     OW32383   1.326   6.431   0.036
10495SOL    HW132384   1.355   6.505   7.002
10495SOL    HW232385   1.405   6.392   0.081
10496SOL     OW32386   0.022   0.111   5.784
10496SOL    HW132387   0.100   0.165   5.753
10496SOL    HW232388   0.024   0.021   5.740
10497SOL     OW32389   1.320   1.131   1.455
10497SOL    HW132390   1.399   1.106   1.511
10497SOL    HW232391   1.242   1.076   1.482
10498SOL     OW32392   2.897   5.579   6.070
10498SOL    HW132393   2.928   5.659   6.019
10498SOL    HW232394   2.935   5.581   6.163
10499SOL     OW32395   3.537   5.366   3.191
10499SOL    HW132396   3.604   5.439   3.175
10499SOL    HW232397   3.566   5.284   3.142
10500SOL     OW32398   1.490   2.084   6.150
10500SOL    HW132399   1.392   2.084   6.171
10500SOL    HW232400   1.503   2.104   6.053
10501SOL     OW32401   1.841   3.266   3.051
10501SOL    HW132402   1.884   3.176   3.049
10501SOL    HW232403   1.910   3.335   3.072
10502SOL     OW32404   3.238   6.074   6.258
10502SOL    HW132405   3.167   6.106   6.321
10502SOL    HW232406   3.328   6.098   6.294
10503SOL     OW32407   2.709   3.463   6.050
10503SOL    HW132408   2.708   3.387   6.115
10503SOL    HW232409   2.780   3.448   5.982
10504SOL     OW32410   2.873   3.262   0.896
10504SOL    HW132411   2.854   3.254   0.994
10504SOL    HW232412   2.956   3.316   0.882
10505SOL     OW32413   6.513   6.191   1.421
10505SOL    HW132414   6.580   6.233   1.482
10505SOL    HW232415   6.423   6.192   1.465
10506SOL     OW32416   0.672   4.407   5.535
10506SOL    HW132417   0.753   4.373   5.489
10506SOL    HW232418   0.623   4.471   5.476
10507SOL     OW32419   1.150   0.660   5.512
10507SOL    HW132420   1.068   0.708   5.545
10507SOL    HW232421   1.125   0.596   5.440
10508SOL     OW32422   5.141   4.316   2.749
10508SOL    HW132423   5.054   4.266   2.747
10508SOL    HW232424   5.176   4.317   2.843
10509SOL     OW32425   1.999   0.250   5.966
10509SOL    HW132426   2.087   0.292   5.988
10509SOL    HW232427   2.007   0.150   5.973
10510SOL     OW32428   6.739   5.935   0.240
10510SOL    HW132429   6.827   5.899   0.210
10510SOL    HW232430   6.668   5.865   0.226
10511SOL     OW32431   4.991   3.206   0.505
10511SOL    HW132432   4.900   3.232   0.538
10511SOL    HW232433   4.982   3.151   0.422
10512SOL     OW32434   3.347   6.596   6.443
10512SOL    HW132435   3.295   6.655   6.505
10512SOL    HW232436   3.312   6.606   6.351
10513SOL     OW32437   6.477   2.295   0.467
10513SOL    HW132438   6.382   2.276   0.444
10513SOL    HW232439   6.532   2.297   0.384
10514SOL     OW32440   0.157   4.856   1.220
10514SOL    HW132441   0.100   4.777   1.195
10514SOL    HW232442   0.239   4.824   1.266
10515SOL     OW32443   6.743   2.338   3.980
10515SOL    HW132444   6.694   2.350   3.894
10515SOL    HW232445   6.681   2.298   4.048
10516SOL     OW32446   4.054   0.488   6.434
10516SOL    HW132447   3.959   0.464   6.451
10516SOL    HW232448   4.090   0.432   6.360
10517SOL     OW32449   0.170   1.774   3.109
10517SOL    HW132450   0.131   1.691   3.070
10517SOL    HW232451   0.154   1.775   3.208
10518SOL     OW32452   0.871   6.788   1.120
10518SOL    HW132453   0.799   6.720   1.126
10518SOL    HW232454   0.846   6.869   1.173
10519SOL     OW32455   2.724   3.597   5.293
10519SOL    HW132456   2.778   3.618   5.211
10519SOL    HW232457   2.649   3.662   5.301
10520SOL     OW32458   4.172   2.920   6.679
10520SOL    HW132459   4.113   2.948   6.604
10520SOL    HW232460   4.203   3.001   6.729
10521SOL     OW32461   6.476   5.782   1.496
10521SOL    HW132462   6.490   5.715   1.423
10521SOL    HW232463   6.420   5.741   1.568
10522SOL     OW32464   6.266   0.743   2.092
10522SOL    HW132465   6.269   0.732   1.993
10522SOL    HW232466   6.186   0.796   2.118
10523SOL     OW32467   0.397   5.874   6.654
10523SOL    HW132468   0.326   5.907   6.591
10523SOL    HW232469   0.372   5.783   6.688
10524SOL     OW32470   3.320   0.970   4.118
10524SOL    HW132471   3.224   0.975   4.089
10524SOL    HW232472   3.343   0.875   4.140
10525SOL     OW32473   2.860   6.049   4.534
10525SOL    HW132474   2.834   6.130   4.482
10525SOL    HW232475   2.835   5.967   4.482
10526SOL     OW32476   6.184   0.034   2.488
10526SOL    HW132477   6.228   6.971   2.484
10526SOL    HW232478   6.088   0.023   2.513
10527SOL     OW32479   1.467   2.489   4.692
10527SOL    HW132480   1.477   2.452   4.600
10527SOL    HW232481   1.391   2.554   4.694
10528SOL     OW32482   6.842   4.771   4.678
10528SOL    HW132483   6.819   4.746   4.772
10528SOL    HW232484   6.930   4.818   4.677
10529SOL     OW32485   6.844   6.446   3.983
10529SOL    HW132486   6.861   6.350   3.963
10529SOL    HW232487   6.749   6.469   3.963
10530SOL     OW32488   2.111   1.345   6.473
10530SOL    HW132489   2.145   1.435   6.447
10530SOL    HW232490   2.044   1.314   6.406
10531SOL     OW32491   2.076   2.685   5.314
10531SOL    HW132492   2.082   2.785   5.310
10531SOL    HW232493   2.150   2.645   5.260
10532SOL     OW32494   3.620   2.414   5.805
10532SOL    HW132495   3.597   2.385   5.898
10532SOL    HW232496   3.536   2.439   5.756
10533SOL     OW32497   2.464   1.165   6.087
10533SOL    HW132498   2.476   1.174   6.186
10533SOL    HW232499   2.434   1.253   6.049
10534SOL     OW32500   6.518   5.576   1.316
10534SOL    HW132501   6.578   5.601   1.240
10534SOL    HW232502   6.463   5.497   1.290
10535SOL     OW32503   0.040   0.735   2.192
10535SOL    HW132504   0.128   0.696   2.218
10535SOL    HW232505   7.022   0.774   2.272
10536SOL     OW32506   4.362   0.189   3.391
10536SOL    HW132507   4.389   0.168   3.298
10536SOL    HW232508   4.432   0.246   3.435
10537SOL     OW32509   0.827   4.481   1.588
10537SOL    HW132510   0.862   4.473   1.681
10537SOL    HW232511   0.731   4.453   1.585
10538SOL     OW32512   4.830   3.492   0.416
10538SOL    HW132513   4.791   3.477   0.507
10538SOL    HW232514   4.756   3.517   0.353
10539SOL     OW32515   0.434   3.321   6.042
10539SOL    HW132516   0.360   3.369   6.089
10539SOL    HW232517   0.397   3.241   5.995
10540SOL     OW32518   2.900   0.658   6.913
10540SOL    HW132519   2.826   0.643   6.978
10540SOL    HW232520   2.898   0.753   6.882
10541SOL     OW32521   3.517   2.633   0.340
10541SOL    HW132522   3.511   2.535   0.360
10541SOL    HW232523   3.448   2.682   0.394
10542SOL     OW32524   0.580   2.659   0.116
10542SOL    HW132525   0.621   2.748   0.095
10542SOL    HW232526   0.609   2.591   0.049
10543SOL     OW32527   1.962   1.121   5.682
10543SOL    HW132528   1.892   1.145   5.616
10543SOL    HW232529   2.027   1.057   5.641
10544SOL     OW32530   1.055   2.341   1.841
10544SOL    HW132531   1.015   2.384   1.761
10544SOL    HW232532   1.146   2.307   1.818
10545SOL     OW32533   6.194   0.544   2.541
10545SOL    HW132534   6.202   0.543   2.640
10545SOL    HW232535   6.099   0.559   2.515
10546SOL     OW32536   2.990   0.608   3.978
10546SOL    HW132537   2.978   0.679   3.909
10546SOL    HW232538   2.974   0.518   3.938
10547SOL     OW32539   4.116   1.758   1.173
10547SOL    HW132540   4.152   1.749   1.080
10547SOL    HW232541   4.193   1.766   1.237
10548SOL     OW32542   5.134   4.072   5.220
10548SOL    HW132543   5.192   4.003   5.176
10548SOL    HW232544   5.040   4.061   5.189
10549SOL     OW32545   1.004   1.065   2.007
10549SOL    HW132546   1.080   1.042   1.945
10549SOL    HW232547   0.923   1.088   1.953
10550SOL     OW32548   5.075   6.861   4.162
10550SOL    HW132549   5.008   6.907   4.219
10550SOL    HW232550   5.095   6.917   4.082
10551SOL     OW32551   1.104   2.785   5.926
10551SOL    HW132552   1.171   2.768   5.998
10551SOL    HW232553   1.017   2.813   5.967
10552SOL     OW32554   3.546   2.259   5.364
10552SOL    HW132555   3.605   2.226   5.290
10552SOL    HW232556   3.452   2.232   5.346
10553SOL     OW32557   2.628   5.367   7.015
10553SOL    HW132558   2.541   5.333   6.979
10553SOL    HW232559   2.703   5.322   6.966
10554SOL     OW32560   6.649   4.550   6.372
10554SOL    HW132561   6.654   4.523   6.276
10554SOL    HW232562   6.588   4.488   6.421
10555SOL     OW32563   3.196   1.991   1.223
10555SOL    HW132564   3.231   1.989   1.317
10555SOL    HW232565   3.122   1.924   1.214
10556SOL     OW32566   2.207   3.178   4.785
10556SOL    HW132567   2.127   3.222   4.826
10556SOL    HW232568   2.267   3.144   4.857
10557SOL     OW32569   6.892   2.691   3.785
10557SOL    HW132570   6.916   2.595   3.769
10557SOL    HW232571   6.840   2.699   3.869
10558SOL     OW32572   4.987   6.167   5.250
10558SOL    HW132573   5.084   6.183   5.235
10558SOL    HW232574   4.934   6.234   5.198
10559SOL     OW32575   4.163   2.189   0.429
10559SOL    HW132576   4.146   2.277   0.474
10559SOL    HW232577   4.261   2.171   0.428
10560SOL     OW32578   1.084   2.889   4.177
10560SOL    HW132579   0.986   2.870   4.175
10560SOL    HW232580   1.103   2.957   4.248
10561SOL     OW32581   2.304   4.476   6.957
10561SOL    HW132582   2.206   4.480   6.938
10561SOL    HW232583   2.325   4.391   7.006
10562SOL     OW32584   3.662   0.962   0.460
10562SOL    HW132585   3.675   1.056   0.493
10562SOL    HW232586   3.615   0.909   0.530
10563SOL     OW32587   1.752   1.708   4.809
10563SOL    HW132588   1.699   1.789   4.783
10563SOL    HW232589   1.712   1.668   4.892
10564SOL     OW32590   5.928   1.915   1.887
10564SOL    HW132591   6.018   1.945   1.919
10564SOL    HW232592   5.867   1.993   1.880
10565SOL     OW32593   5.463   1.755   4.882
10565SOL    HW132594   5.531   1.820   4.850
10565SOL    HW232595   5.372   1.785   4.855
10566SOL     OW32596   3.914   4.423   6.087
10566SOL    HW132597   3.961   4.509   6.070
10566SOL    HW232598   3.948   4.353   6.023
10567SOL     OW32599   1.983   4.325   4.240
10567SOL    HW132600   2.062   4.386   4.234
10567SOL    HW232601   1.979   4.268   4.158
10568SOL     OW32602   4.803   1.298   3.331
10568SOL    HW132603   4.789   1.294   3.430
10568SOL    HW232604   4.731   1.354   3.290
10569SOL     OW32605   5.857   3.281   4.009
10569SOL    HW132606   5.781   3.333   4.046
10569SOL    HW232607   5.891   3.217   4.077
10570SOL     OW32608   1.845   4.619   2.399
10570SOL    HW132609   1.831   4.581   2.308
10570SOL    HW232610   1.941   4.608   2.426
10571SOL     OW32611   6.212   6.602   3.902
10571SOL    HW132612   6.183   6.685   3.854
10571SOL    HW232613   6.218   6.621   4.000
10572SOL     OW32614   6.309   3.276   2.170
10572SOL    HW132615   6.247   3.278   2.247
10572SOL    HW232616   6.399   3.312   2.198
10573SOL     OW32617   5.937   5.121   5.546
10573SOL    HW132618   5.943   5.159   5.639
10573SOL    HW232619   5.845   5.088   5.529
10574SOL     OW32620   0.609   1.610   2.876
10574SOL    HW132621   0.609   1.706   2.847
10574SOL    HW232622   0.678   1.596   2.947
10575SOL     OW32623   1.168   0.128   5.358
10575SOL    HW132624   1.254   0.077   5.361
10575SOL    HW232625   1.112   0.094   5.283
10576SOL     OW32626   1.577   4.767   3.520
10576SOL    HW132627   1.496   4.710   3.508
10576SOL    HW232628   1.659   4.710   3.517
10577SOL     OW32629   1.490   2.041   5.626
10577SOL    HW132630   1.565   1.975   5.633
10577SOL    HW232631   1.522   2.122   5.577
10578SOL     OW32632   6.282   0.806   5.794
10578SOL    HW132633   6.321   0.734   5.737
10578SOL    HW232634   6.354   0.847   5.850
10579SOL     OW32635   4.074   1.782   0.328
10579SOL    HW132636   4.084   1.748   0.422
10579SOL    HW232637   4.158   1.765   0.277
10580SOL     OW32638   6.146   6.276   6.826
10580SOL    HW132639   6.199   6.360   6.838
10580SOL    HW232640   6.207   6.201   6.798
10581SOL     OW32641   5.206   1.034   3.357
10581SOL    HW132642   5.206   0.956   3.420
10581SOL    HW232643   5.120   1.035   3.306
10582SOL     OW32644   3.567   4.958   6.677
10582SOL    HW132645   3.649   4.901   6.675
10582SOL    HW232646   3.560   5.005   6.765
10583SOL     OW32647   4.354   1.627   0.466
10583SOL    HW132648   4.341   1.539   0.421
10583SOL    HW232649   4.267   1.660   0.503
10584SOL     OW32650   5.926   0.263   1.651
10584SOL    HW132651   5.939   0.362   1.648
10584SOL    HW232652   5.897   0.236   1.743
10585SOL     OW32653   1.379   3.168   6.242
10585SOL    HW132654   1.478   3.162   6.241
10585SOL    HW232655   1.342   3.103   6.309
10586SOL     OW32656   3.557   0.615   6.819
10586SOL    HW132657   3.570   0.570   6.907
10586SOL    HW232658   3.614   0.570   6.750
10587SOL     OW32659   6.120   4.130   0.924
10587SOL    HW132660   6.149   4.223   0.901
10587SOL    HW232661   6.090   4.083   0.841
10588SOL     OW32662   6.986   5.526   3.037
10588SOL    HW132663   7.008   5.478   2.952
10588SOL    HW232664   6.984   5.460   3.113
10589SOL     OW32665   6.068   2.090   4.049
10589SOL    HW132666   6.095   2.177   4.090
10589SOL    HW232667   6.050   2.023   4.122
10590SOL     OW32668   1.142   0.970   4.058
10590SOL    HW132669   1.168   0.888   4.109
10590SOL    HW232670   1.096   0.943   3.973
10591SOL     OW32671   1.260   3.097   0.825
10591SOL    HW132672   1.218   3.018   0.778
10591SOL    HW232673   1.244   3.089   0.923
10592SOL     OW32674   6.479   1.511   6.860
10592SOL    HW132675   6.507   1.552   6.773
10592SOL    HW232676   6.537   1.546   6.933
10593SOL     OW32677   1.743   4.779   1.019
10593SOL    HW132678   1.697   4.832   0.948
10593SOL    HW232679   1.733   4.827   1.107
10594SOL     OW32680   7.007   1.644   4.151
10594SOL    HW132681   6.981   1.553   4.185
10594SOL    HW232682   6.929   1.686   4.106
10595SOL     OW32683   3.609   6.123   6.015
10595SOL    HW132684   3.672   6.187   5.972
10595SOL    HW232685   3.628   6.030   5.982
10596SOL     OW32686   3.844   0.944   1.979
10596SOL    HW132687   3.825   0.913   1.886
10596SOL    HW232688   3.939   0.974   1.986
10597SOL     OW32689   1.786   0.342   4.787
10597SOL    HW132690   1.703   0.363   4.735
10597SOL    HW232691   1.774   0.373   4.881
10598SOL     OW32692   1.596   2.491   6.795
10598SOL    HW132693   1.593   2.403   6.746
10598SOL    HW232694   1.581   2.475   6.892
10599SOL     OW32695   5.584   1.467   6.861
10599SOL    HW132696   5.503   1.472   6.921
10599SOL    HW232697   5.666   1.460   6.917
10600SOL     OW32698   2.338   3.209   5.983
10600SOL    HW132699   2.244   3.220   5.950
10600SOL    HW232700   2.387   3.295   5.973
10601SOL     OW32701   3.412   6.453   6.061
10601SOL    HW132702   3.507   6.422   6.057
10601SOL    HW232703   3.357   6.399   5.998
10602SOL     OW32704   4.711   0.902   2.278
10602SOL    HW132705   4.774   0.889   2.202
10602SOL    HW232706   4.648   0.825   2.283
10603SOL     OW32707   1.558   5.302   4.592
10603SOL    HW132708   1.644   5.352   4.578
10603SOL    HW232709   1.578   5.215   4.637
10604SOL     OW32710   6.640   4.414   5.398
10604SOL    HW132711   6.722   4.466   5.374
10604SOL    HW232712   6.559   4.468   5.374
10605SOL     OW32713   1.624   4.943   6.721
10605SOL    HW132714   1.561   4.875   6.684
10605SOL    HW232715   1.681   4.901   6.792
10606SOL     OW32716   0.727   0.460   2.221
10606SOL    HW132717   0.783   0.501   2.292
10606SOL    HW232718   0.703   0.530   2.153
10607SOL     OW32719   5.462   5.006   6.832
10607SOL    HW132720   5.399   4.950   6.779
10607SOL    HW232721   5.423   5.023   6.923
10608SOL     OW32722   5.939   1.681   3.539
10608SOL    HW132723   5.965   1.629   3.620
10608SOL    HW232724   5.967   1.777   3.550
10609SOL     OW32725   3.916   6.556   1.219
10609SOL    HW132726   3.867   6.612   1.152
10609SOL    HW232727   4.007   6.595   1.233
10610SOL     OW32728   1.682   2.705   5.699
10610SOL    HW132729   1.672   2.804   5.692
10610SOL    HW232730   1.713   2.668   5.612
10611SOL     OW32731   5.701   2.888   5.931
10611SOL    HW132732   5.746   2.863   6.016
10611SOL    HW232733   5.641   2.813   5.902
10612SOL     OW32734   2.034   6.781   0.433
10612SOL    HW132735   2.113   6.720   0.445
10612SOL    HW232736   1.950   6.728   0.435
10613SOL     OW32737   0.583   6.207   5.763
10613SOL    HW132738   0.552   6.136   5.701
10613SOL    HW232739   0.544   6.295   5.735
10614SOL     OW32740   6.847   0.810   4.128
10614SOL    HW132741   6.808   0.774   4.214
10614SOL    HW232742   6.944   0.831   4.142
10615SOL     OW32743   5.608   5.252   5.262
10615SOL    HW132744   5.642   5.237   5.169
10615SOL    HW232745   5.667   5.204   5.327
10616SOL     OW32746   2.926   5.475   0.494
10616SOL    HW132747   2.832   5.441   0.486
10616SOL    HW232748   2.983   5.432   0.425
10617SOL     OW32749   1.238   2.161   6.700
10617SOL    HW132750   1.145   2.148   6.734
10617SOL    HW232751   1.272   2.251   6.729
10618SOL     OW32752   6.117   3.515   0.641
10618SOL    HW132753   6.173   3.493   0.721
10618SOL    HW232754   6.021   3.497   0.660
10619SOL     OW32755   1.271   4.000   3.910
10619SOL    HW132756   1.272   4.097   3.886
10619SOL    HW232757   1.179   3.963   3.896
10620SOL     OW32758   1.542   5.750   4.805
10620SOL    HW132759   1.478   5.682   4.841
10620SOL    HW232760   1.608   5.775   4.876
10621SOL     OW32761   2.535   5.952   1.346
10621SOL    HW132762   2.590   5.994   1.419
10621SOL    HW232763   2.574   5.863   1.323
10622SOL     OW32764   3.905   0.854   1.033
10622SOL    HW132765   3.998   0.824   1.051
10622SOL    HW232766   3.880   0.927   1.098
10623SOL     OW32767   6.495   1.745   3.926
10623SOL    HW132768   6.544   1.827   3.895
10623SOL    HW232769   6.397   1.756   3.910
10624SOL     OW32770   1.883   0.662   3.906
10624SOL    HW132771   1.813   0.733   3.917
10624SOL    HW232772   1.910   0.658   3.809
10625SOL     OW32773   0.280   3.250   6.994
10625SOL    HW132774   0.357   3.252   6.931
10625SOL    HW232775   0.207   3.310   6.961
10626SOL     OW32776   0.502   2.641   1.464
10626SOL    HW132777   0.510   2.656   1.365
10626SOL    HW232778   0.416   2.679   1.496
10627SOL     OW32779   6.248   6.040   3.759
10627SOL    HW132780   6.193   6.099   3.818
10627SOL    HW232781   6.314   6.095   3.709
10628SOL     OW32782   5.804   5.898   5.932
10628SOL    HW132783   5.759   5.818   5.971
10628SOL    HW232784   5.784   5.902   5.834
10629SOL     OW32785   2.675   5.409   6.066
10629SOL    HW132786   2.591   5.439   6.022
10629SOL    HW232787   2.746   5.479   6.054
10630SOL     OW32788   0.164   1.429   3.475
10630SOL    HW132789   0.155   1.528   3.482
10630SOL    HW232790   0.225   1.395   3.547
10631SOL     OW32791   0.944   6.643   3.881
10631SOL    HW132792   0.851   6.670   3.908
10631SOL    HW232793   1.010   6.699   3.932
10632SOL     OW32794   0.502   2.457   5.319
10632SOL    HW132795   0.434   2.384   5.327
10632SOL    HW232796   0.489   2.506   5.233
10633SOL     OW32797   1.111   5.030   1.542
10633SOL    HW132798   1.076   4.945   1.580
10633SOL    HW232799   1.049   5.063   1.471
10634SOL     OW32800   3.135   6.592   1.679
10634SOL    HW132801   3.104   6.527   1.610
10634SOL    HW232802   3.091   6.681   1.663
10635SOL     OW32803   2.762   1.591   1.011
10635SOL    HW132804   2.767   1.664   1.079
10635SOL    HW232805   2.821   1.613   0.934
10636SOL     OW32806   0.586   2.354   1.858
10636SOL    HW132807   0.653   2.398   1.918
10636SOL    HW232808   0.605   2.256   1.853
10637SOL     OW32809   3.693   4.585   5.373
10637SOL    HW132810   3.647   4.674   5.374
10637SOL    HW232811   3.629   4.514   5.341
10638SOL     OW32812   0.137   0.151   5.446
10638SOL    HW132813   0.176   0.214   5.514
10638SOL    HW232814   0.130   0.198   5.358
10639SOL     OW32815   2.502   0.555   4.271
10639SOL    HW132816   2.579   0.561   4.207
10639SOL    HW232817   2.499   0.638   4.327
10640SOL     OW32818   4.206   0.216   0.177
10640SOL    HW132819   4.128   0.222   0.115
10640SOL    HW232820   4.181   0.255   0.266
10641SOL     OW32821   5.205   1.429   6.713
10641SOL    HW132822   5.282   1.439   6.650
10641SOL    HW232823   5.238   1.426   6.807
10642SOL     OW32824   7.017   2.903   1.447
10642SOL    HW132825   0.043   2.988   1.441
10642SOL    HW232826   7.001   2.867   1.355
10643SOL     OW32827   3.228   3.169   5.871
10643SOL    HW132828   3.301   3.104   5.888
10643SOL    HW232829   3.227   3.193   5.773
10644SOL     OW32830   3.893   1.387   4.847
10644SOL    HW132831   3.865   1.444   4.770
10644SOL    HW232832   3.833   1.403   4.924
10645SOL     OW32833   2.683   0.848   4.872
10645SOL    HW132834   2.691   0.936   4.919
10645SOL    HW232835   2.595   0.807   4.894
10646SOL     OW32836   0.590   3.689   6.753
10646SOL    HW132837   0.620   3.644   6.838
10646SOL    HW232838   0.492   3.708   6.760
10647SOL     OW32839   0.042   5.357   0.898
10647SOL    HW132840   0.067   5.260   0.895
10647SOL    HW232841   6.973   5.367   0.870
10648SOL     OW32842   4.593   3.428   6.538
10648SOL    HW132843   4.645   3.367   6.598
10648SOL    HW232844   4.496   3.424   6.563
10649SOL     OW32845   0.268   4.581   6.098
10649SOL    HW132846   0.260   4.675   6.064
10649SOL    HW232847   0.266   4.582   6.198
10650SOL     OW32848   3.280   6.589   3.451
10650SOL    HW132849   3.257   6.589   3.548
10650SOL    HW232850   3.379   6.582   3.440
10651SOL     OW32851   3.952   6.544   6.272
10651SOL    HW132852   4.000   6.481   6.211
10651SOL    HW232853   3.995   6.543   6.362
10652SOL     OW32854   3.099   0.835   6.776
10652SOL    HW132855   3.026   0.847   6.709
10652SOL    HW232856   3.146   0.748   6.760
10653SOL     OW32857   5.203   3.706   4.205
10653SOL    HW132858   5.178   3.627   4.150
10653SOL    HW232859   5.243   3.777   4.146
10654SOL     OW32860   4.399   0.423   0.796
10654SOL    HW132861   4.474   0.476   0.757
10654SOL    HW232862   4.320   0.482   0.812
10655SOL     OW32863   2.829   5.608   1.579
10655SOL    HW132864   2.829   5.614   1.679
10655SOL    HW232865   2.921   5.626   1.544
10656SOL     OW32866   6.915   3.056   6.409
10656SOL    HW132867   6.834   2.999   6.416
10656SOL    HW232868   6.985   3.008   6.355
10657SOL     OW32869   6.029   0.580   1.169
10657SOL    HW132870   6.060   0.513   1.101
10657SOL    HW232871   5.949   0.629   1.135
10658SOL     OW32872   0.528   5.445   5.157
10658SOL    HW132873   0.473   5.521   5.121
10658SOL    HW232874   0.564   5.470   5.247
10659SOL     OW32875   5.483   0.391   0.519
10659SOL    HW132876   5.494   0.402   0.618
10659SOL    HW232877   5.557   0.439   0.471
10660SOL     OW32878   4.884   5.005   5.472
10660SOL    HW132879   4.810   5.066   5.445
10660SOL    HW232880   4.865   4.969   5.563
10661SOL     OW32881   0.324   0.443   2.719
10661SOL    HW132882   0.394   0.485   2.661
10661SOL    HW232883   0.367   0.406   2.802
10662SOL     OW32884   5.861   1.509   0.765
10662SOL    HW132885   5.859   1.600   0.724
10662SOL    HW232886   5.826   1.443   0.699
10663SOL     OW32887   6.894   0.441   0.306
10663SOL    HW132888   6.946   0.451   0.391
10663SOL    HW232889   6.802   0.479   0.318
10664SOL     OW32890   2.074   4.819   6.752
10664SOL    HW132891   2.087   4.725   6.723
10664SOL    HW232892   2.026   4.870   6.680
10665SOL     OW32893   6.342   0.833   0.291
10665SOL    HW132894   6.291   0.759   0.336
10665SOL    HW232895   6.375   0.897   0.361
10666SOL     OW32896   1.188   6.730   0.313
10666SOL    HW132897   1.278   6.686   0.306
10666SOL    HW232898   1.195   6.825   0.285
10667SOL     OW32899   3.450   1.803   5.085
10667SOL    HW132900   3.513   1.752   5.027
10667SOL    HW232901   3.498   1.832   5.168
10668SOL     OW32902   2.151   0.988   5.512
10668SOL    HW132903   2.250   0.992   5.515
10668SOL    HW232904   2.120   0.993   5.417
10669SOL     OW32905   0.937   6.524   6.325
10669SOL    HW132906   0.947   6.618   6.290
10669SOL    HW232907   0.886   6.526   6.410
10670SOL     OW32908   6.812   4.452   5.925
10670SOL    HW132909   6.855   4.452   5.835
10670SOL    HW232910   6.880   4.473   5.995
10671SOL     OW32911   1.866   1.427   3.265
10671SOL    HW132912   1.932   1.477   3.208
10671SOL    HW232913   1.897   1.427   3.360
10672SOL     OW32914   6.795   2.904   0.351
10672SOL    HW132915   6.825   2.974   0.286
10672SOL    HW232916   6.873   2.873   0.405
10673SOL     OW32917   3.023   3.472   5.205
10673SOL    HW132918   2.978   3.384   5.189
10673SOL    HW232919   3.007   3.533   5.127
10674SOL     OW32920   3.833   2.153   2.754
10674SOL    HW132921   3.739   2.134   2.724
10674SOL    HW232922   3.894   2.153   2.675
10675SOL     OW32923   0.741   0.636   6.215
10675SOL    HW132924   0.776   0.706   6.153
10675SOL    HW232925   0.644   0.653   6.232
10676SOL     OW32926   6.856   0.523   6.681
10676SOL    HW132927   6.903   0.469   6.751
10676SOL    HW232928   6.859   0.474   6.593
10677SOL     OW32929   0.285   0.626   0.534
10677SOL    HW132930   0.348   0.644   0.458
10677SOL    HW232931   0.337   0.603   0.616
10678SOL     OW32932   2.642   6.525   3.522
10678SOL    HW132933   2.550   6.534   3.485
10678SOL    HW232934   2.651   6.582   3.604
10679SOL     OW32935   5.996   4.890   3.957
10679SOL    HW132936   5.981   4.962   3.889
10679SOL    HW232937   5.938   4.908   4.037
10680SOL     OW32938   1.727   2.300   3.303
10680SOL    HW132939   1.736   2.250   3.217
10680SOL    HW232940   1.630   2.311   3.326
10681SOL     OW32941   0.387   1.277   5.719
10681SOL    HW132942   0.388   1.367   5.676
10681SOL    HW232943   0.364   1.286   5.816
10682SOL     OW32944   6.585   1.840   3.142
10682SOL    HW132945   6.682   1.862   3.156
10682SOL    HW232946   6.556   1.872   3.052
10683SOL     OW32947   1.767   1.455   4.679
10683SOL    HW132948   1.796   1.545   4.711
10683SOL    HW232949   1.848   1.401   4.655
10684SOL     OW32950   5.711   6.074   0.504
10684SOL    HW132951   5.692   6.050   0.599
10684SOL    HW232952   5.800   6.118   0.498
10685SOL     OW32953   0.320   2.223   1.875
10685SOL    HW132954   0.240   2.280   1.857
10685SOL    HW232955   0.401   2.281   1.885
10686SOL     OW32956   3.569   4.537   0.851
10686SOL    HW132957   3.501   4.499   0.789
10686SOL    HW232958   3.594   4.468   0.919
10687SOL     OW32959   0.526   4.956   1.960
10687SOL    HW132960   0.458   4.960   2.034
10687SOL    HW232961   0.609   4.911   1.994
10688SOL     OW32962   6.993   5.575   2.471
10688SOL    HW132963   6.993   5.500   2.405
10688SOL    HW232964   6.936   5.650   2.438
10689SOL     OW32965   0.264   0.753   1.660
10689SOL    HW132966   0.185   0.697   1.685
10689SOL    HW232967   0.249   0.847   1.691
10690SOL     OW32968   4.423   5.633   1.914
10690SOL    HW132969   4.458   5.541   1.897
10690SOL    HW232970   4.384   5.638   2.006
10691SOL     OW32971   6.590   1.261   1.187
10691SOL    HW132972   6.502   1.291   1.151
10691SOL    HW232973   6.635   1.336   1.236
10692SOL     OW32974   4.674   6.005   4.142
10692SOL    HW132975   4.635   5.926   4.093
10692SOL    HW232976   4.607   6.042   4.206
10693SOL     OW32977   6.082   2.051   2.091
10693SOL    HW132978   6.019   2.020   2.161
10693SOL    HW232979   6.166   2.085   2.135
10694SOL     OW32980   3.991   6.116   0.746
10694SOL    HW132981   3.973   6.041   0.683
10694SOL    HW232982   4.081   6.104   0.787
10695SOL     OW32983   5.973   3.116   4.212
10695SOL    HW132984   6.011   3.054   4.143
10695SOL    HW232985   6.042   3.137   4.281
10696SOL     OW32986   5.958   0.056   1.028
10696SOL    HW132987   6.016   0.006   1.093
10696SOL    HW232988   5.958   0.009   0.940
10697SOL     OW32989   2.039   6.158   3.345
10697SOL    HW132990   2.109   6.192   3.408
10697SOL    HW232991   2.054   6.060   3.328
10698SOL     OW32992   2.941   0.336   2.884
10698SOL    HW132993   2.874   0.262   2.887
10698SOL    HW232994   2.893   0.424   2.885
10699SOL     OW32995   1.701   2.434   2.402
10699SOL    HW132996   1.668   2.510   2.457
10699SOL    HW232997   1.639   2.420   2.324
10700SOL     OW32998   6.416   0.929   1.488
10700SOL    HW132999   6.337   0.984   1.460
10700SOL    HW233000   6.500   0.970   1.452
10701SOL     OW33001   3.566   6.175   0.693
10701SOL    HW133002   3.542   6.232   0.771
10701SOL    HW233003   3.575   6.232   0.611
10702SOL     OW33004   6.053   3.101   1.373
10702SOL    HW133005   6.008   3.017   1.343
10702SOL    HW233006   6.146   3.104   1.336
10703SOL     OW33007   3.987   3.258   3.746
10703SOL    HW133008   4.077   3.281   3.707
10703SOL    HW233009   3.922   3.331   3.725
10704SOL     OW33010   5.722   6.689   1.920
10704SOL    HW133011   5.793   6.720   1.857
10704SOL    HW233012   5.710   6.590   1.911
10705SOL     OW33013   0.957   2.510   6.627
10705SOL    HW133014   0.985   2.603   6.603
10705SOL    HW233015   0.979   2.448   6.552
10706SOL     OW33016   3.627   1.177   1.761
10706SOL    HW133017   3.716   1.222   1.758
10706SOL    HW233018   3.639   1.082   1.792
10707SOL     OW33019   6.411   6.755   6.044
10707SOL    HW133020   6.385   6.690   6.115
10707SOL    HW233021   6.349   6.745   5.965
10708SOL     OW33022   4.330   1.090   1.568
10708SOL    HW133023   4.280   1.112   1.484
10708SOL    HW233024   4.282   1.019   1.619
10709SOL     OW33025   0.813   6.436   5.867
10709SOL    HW133026   0.780   6.417   5.960
10709SOL    HW233027   0.907   6.404   5.858
10710SOL     OW33028   6.191   5.945   3.214
10710SOL    HW133029   6.154   6.034   3.242
10710SOL    HW233030   6.192   5.883   3.292
10711SOL     OW33031   1.969   5.712   5.205
10711SOL    HW133032   1.994   5.672   5.293
10711SOL    HW233033   2.051   5.729   5.151
10712SOL     OW33034   4.637   1.093   5.313
10712SOL    HW133035   4.684   1.102   5.401
10712SOL    HW233036   4.601   1.182   5.284
10713SOL     OW33037   1.671   6.341   1.246
10713SOL    HW133038   1.707   6.267   1.302
10713SOL    HW233039   1.573   6.351   1.263
10714SOL     OW33040   6.912   5.455   5.614
10714SOL    HW133041   6.889   5.358   5.624
10714SOL    HW233042   6.871   5.491   5.530
10715SOL     OW33043   5.730   1.562   3.866
10715SOL    HW133044   5.826   1.551   3.841
10715SOL    HW233045   5.709   1.504   3.945
10716SOL     OW33046   6.577   0.804   3.111
10716SOL    HW133047   6.604   0.772   3.202
10716SOL    HW233048   6.521   0.886   3.120
10717SOL     OW33049   6.444   6.585   1.707
10717SOL    HW133050   6.459   6.497   1.753
10717SOL    HW233051   6.422   6.654   1.775
10718SOL     OW33052   0.705   3.703   5.957
10718SOL    HW133053   0.713   3.734   5.862
10718SOL    HW233054   0.627   3.748   6.001
10719SOL     OW33055   3.703   0.849   2.266
10719SOL    HW133056   3.734   0.803   2.349
10719SOL    HW233057   3.783   0.875   2.211
10720SOL     OW33058   0.563   3.253   0.014
10720SOL    HW133059   0.511   3.329   0.053
10720SOL    HW233060   0.540   3.168   0.062
10721SOL     OW33061   4.543   2.617   3.957
10721SOL    HW133062   4.556   2.694   3.894
10721SOL    HW233063   4.631   2.590   3.995
10722SOL     OW33064   0.203   4.297   0.826
10722SOL    HW133065   0.204   4.387   0.870
10722SOL    HW233066   0.109   4.267   0.814
10723SOL     OW33067   5.878   4.510   0.042
10723SOL    HW133068   5.866   4.587   0.105
10723SOL    HW233069   5.874   4.543   6.974
10724SOL     OW33070   3.871   6.788   5.393
10724SOL    HW133071   3.954   6.824   5.352
10724SOL    HW233072   3.867   6.816   5.489
10725SOL     OW33073   6.801   7.026   4.833
10725SOL    HW133074   6.743   6.945   4.846
10725SOL    HW233075   6.848   0.021   4.918
10726SOL     OW33076   5.370   1.144   5.256
10726SOL    HW133077   5.416   1.210   5.316
10726SOL    HW233078   5.410   1.150   5.165
10727SOL     OW33079   2.284   6.209   6.730
10727SOL    HW133080   2.207   6.165   6.684
10727SOL    HW233081   2.306   6.295   6.683
10728SOL     OW33082   6.237   6.314   3.392
10728SOL    HW133083   6.297   6.316   3.312
10728SOL    HW233084   6.273   6.250   3.460
10729SOL     OW33085   5.730   3.020   4.300
10729SOL    HW133086   5.808   3.082   4.307
10729SOL    HW233087   5.749   2.949   4.233
10730SOL     OW33088   1.806   5.525   3.566
10730SOL    HW133089   1.843   5.615   3.546
10730SOL    HW233090   1.879   5.464   3.597
10731SOL     OW33091   4.658   6.378   6.828
10731SOL    HW133092   4.749   6.408   6.855
10731SOL    HW233093   4.665   6.321   6.746
10732SOL     OW33094   6.125   6.168   2.969
10732SOL    HW133095   6.122   6.213   2.879
10732SOL    HW233096   6.127   6.069   2.956
10733SOL     OW33097   0.522   1.018   6.390
10733SOL    HW133098   0.449   1.079   6.422
10733SOL    HW233099   0.553   1.047   6.300
10734SOL     OW33100   1.562   0.526   4.465
10734SOL    HW133101   1.645   0.557   4.419
10734SOL    HW233102   1.577   0.523   4.564
10735SOL     OW33103   6.831   6.777   2.436
10735SOL    HW133104   6.869   6.708   2.375
10735SOL    HW233105   6.852   6.754   2.531
10736SOL     OW33106   5.242   6.838   3.615
10736SOL    HW133107   5.329   6.808   3.653
10736SOL    HW233108   5.250   6.934   3.586
10737SOL     OW33109   6.085   0.930   2.143
10737SOL    HW133110   6.070   0.942   2.241
10737SOL    HW233111   6.011   0.974   2.092
10738SOL     OW33112   3.500   0.465   0.835
10738SOL    HW133113   3.557   0.440   0.757
10738SOL    HW233114   3.424   0.401   0.842
10739SOL     OW33115   5.597   3.038   3.712
10739SOL    HW133116   5.679   3.005   3.664
10739SOL    HW233117   5.614   3.039   3.810
10740SOL     OW33118   2.791   0.652   6.015
10740SOL    HW133119   2.844   0.716   6.070
10740SOL    HW233120   2.761   0.576   6.072
10741SOL     OW33121   1.827   1.941   3.605
10741SOL    HW133122   1.823   2.041   3.606
10741SOL    HW233123   1.918   1.912   3.573
10742SOL     OW33124   6.300   6.443   2.827
10742SOL    HW133125   6.381   6.480   2.872
10742SOL    HW233126   6.218   6.471   2.877
10743SOL     OW33127   3.063   1.925   5.378
10743SOL    HW133128   3.085   1.938   5.475
10743SOL    HW233129   2.966   1.945   5.363
10744SOL     OW33130   2.024   1.306   0.583
10744SOL    HW133131   2.035   1.260   0.495
10744SOL    HW233132   2.090   1.381   0.589
10745SOL     OW33133   1.856   4.406   1.964
10745SOL    HW133134   1.818   4.498   1.975
10745SOL    HW233135   1.924   4.389   2.036
10746SOL     OW33136   2.086   6.108   6.581
10746SOL    HW133137   2.013   6.175   6.569
10746SOL    HW233138   2.100   6.057   6.496
10747SOL     OW33139   6.543   1.098   4.680
10747SOL    HW133140   6.476   1.170   4.661
10747SOL    HW233141   6.554   1.040   4.599
10748SOL     OW33142   3.213   6.707   1.274
10748SOL    HW133143   3.211   6.663   1.184
10748SOL    HW233144   3.134   6.678   1.328
10749SOL     OW33145   5.726   4.252   1.814
10749SOL    HW133146   5.635   4.211   1.826
10749SOL    HW233147   5.796   4.187   1.843
10750SOL     OW33148   4.217   2.260   4.232
10750SOL    HW133149   4.280   2.182   4.230
10750SOL    HW233150   4.254   2.335   4.179
10751SOL     OW33151   0.421   6.226   4.349
10751SOL    HW133152   0.473   6.149   4.388
10751SOL    HW233153   0.326   6.220   4.379
10752SOL     OW33154   6.548   6.646   0.499
10752SOL    HW133155   6.561   6.547   0.504
10752SOL    HW233156   6.455   6.669   0.525
10753SOL     OW33157   4.956   0.456   4.062
10753SOL    HW133158   5.001   0.507   4.136
10753SOL    HW233159   5.013   0.460   3.980
10754SOL     OW33160   0.802   4.107   2.449
10754SOL    HW133161   0.827   4.027   2.393
10754SOL    HW233162   0.873   4.123   2.517
10755SOL     OW33163   0.458   2.832   0.918
10755SOL    HW133164   0.373   2.861   0.961
10755SOL    HW233165   0.459   2.732   0.911
10756SOL     OW33166   1.412   0.422   0.446
10756SOL    HW133167   1.484   0.413   0.377
10756SOL    HW233168   1.324   0.434   0.401
10757SOL     OW33169   0.481   3.635   1.880
10757SOL    HW133170   0.474   3.635   1.780
10757SOL    HW233171   0.503   3.727   1.912
10758SOL     OW33172   0.857   0.405   0.443
10758SOL    HW133173   0.807   0.427   0.527
10758SOL    HW233174   0.796   0.357   0.380
10759SOL     OW33175   3.007   2.625   5.805
10759SOL    HW133176   2.917   2.617   5.763
10759SOL    HW233177   3.061   2.693   5.755
10760SOL     OW33178   1.187   4.854   6.431
10760SOL    HW133179   1.280   4.837   6.461
10760SOL    HW233180   1.158   4.945   6.460
10761SOL     OW33181   1.060   1.683   5.641
10761SOL    HW133182   1.078   1.590   5.611
10761SOL    HW233183   1.076   1.746   5.564
10762SOL     OW33184   2.996   5.836   6.034
10762SOL    HW133185   2.956   5.875   6.117
10762SOL    HW233186   3.095   5.826   6.046
10763SOL     OW33187   5.120   0.472   3.528
10763SOL    HW133188   5.073   0.551   3.488
10763SOL    HW233189   5.192   0.441   3.466
10764SOL     OW33190   4.940   6.513   4.705
10764SOL    HW133191   4.872   6.449   4.742
10764SOL    HW233192   4.921   6.530   4.609
10765SOL     OW33193   0.286   1.791   1.892
10765SOL    HW133194   0.257   1.835   1.807
10765SOL    HW233195   0.310   1.860   1.960
10766SOL     OW33196   2.125   5.013   0.121
10766SOL    HW133197   2.061   5.072   0.071
10766SOL    HW233198   2.201   5.067   0.155
10767SOL     OW33199   1.323   5.050   6.638
10767SOL    HW133200   1.264   5.093   6.570
10767SOL    HW233201   1.270   4.984   6.692
10768SOL     OW33202   5.366   6.191   6.552
10768SOL    HW133203   5.429   6.210   6.477
10768SOL    HW233204   5.418   6.165   6.633
10769SOL     OW33205   2.973   3.286   4.306
10769SOL    HW133206   3.063   3.330   4.314
10769SOL    HW233207   2.985   3.188   4.296
10770SOL     OW33208   5.697   0.001   3.276
10770SOL    HW133209   5.709   7.015   3.375
10770SOL    HW233210   5.645   0.085   3.259
10771SOL     OW33211   4.536   6.072   5.886
10771SOL    HW133212   4.575   5.989   5.847
10771SOL    HW233213   4.512   6.135   5.813
10772SOL     OW33214   5.874   5.222   2.611
10772SOL    HW133215   5.889   5.155   2.538
10772SOL    HW233216   5.807   5.289   2.582
10773SOL     OW33217   0.196   3.497   1.064
10773SOL    HW133218   0.272   3.498   1.000
10773SOL    HW233219   0.198   3.411   1.116
10774SOL     OW33220   0.482   3.802   0.343
10774SOL    HW133221   0.554   3.744   0.380
10774SOL    HW233222   0.465   3.879   0.405
10775SOL     OW33223   1.478   4.163   0.624
10775SOL    HW133224   1.495   4.225   0.547
10775SOL    HW233225   1.504   4.208   0.709
10776SOL     OW33226   0.632   2.575   3.820
10776SOL    HW133227   0.613   2.477   3.819
10776SOL    HW233228   0.727   2.592   3.795
10777SOL     OW33229   2.132   0.899   1.717
10777SOL    HW133230   2.095   0.936   1.802
10777SOL    HW233231   2.106   0.958   1.640
10778SOL     OW33232   4.887   0.206   2.468
10778SOL    HW133233   4.930   0.144   2.534
10778SOL    HW233234   4.805   0.162   2.430
10779SOL     OW33235   5.570   3.436   5.500
10779SOL    HW133236   5.531   3.371   5.435
10779SOL    HW233237   5.644   3.488   5.456
10780SOL     OW33238   1.816   5.009   4.543
10780SOL    HW133239   1.809   5.000   4.642
10780SOL    HW233240   1.912   5.019   4.517
10781SOL     OW33241   5.332   2.207   4.541
10781SOL    HW133242   5.273   2.288   4.553
10781SOL    HW233243   5.275   2.127   4.523
10782SOL     OW33244   0.701   1.278   5.386
10782SOL    HW133245   0.797   1.251   5.377
10782SOL    HW233246   0.685   1.313   5.478
10783SOL     OW33247   0.845   2.447   3.540
10783SOL    HW133248   0.887   2.479   3.625
10783SOL    HW233249   0.746   2.462   3.543
10784SOL     OW33250   3.859   5.838   3.044
10784SOL    HW133251   3.884   5.748   3.008
10784SOL    HW233252   3.804   5.826   3.127
10785SOL     OW33253   1.039   5.247   1.794
10785SOL    HW133254   1.004   5.171   1.849
10785SOL    HW233255   1.048   5.218   1.699
10786SOL     OW33256   4.320   1.629   2.672
10786SOL    HW133257   4.325   1.544   2.725
10786SOL    HW233258   4.227   1.663   2.673
10787SOL     OW33259   4.303   0.910   3.492
10787SOL    HW133260   4.242   0.900   3.571
10787SOL    HW233261   4.263   0.862   3.413
10788SOL     OW33262   2.167   4.040   0.046
10788SOL    HW133263   2.148   3.974   7.000
10788SOL    HW233264   2.081   4.072   0.085
10789SOL     OW33265   6.585   1.420   1.738
10789SOL    HW133266   6.618   1.472   1.817
10789SOL    HW233267   6.496   1.379   1.759
10790SOL     OW33268   0.465   1.579   5.869
10790SOL    HW133269   0.546   1.638   5.868
10790SOL    HW233270   0.428   1.572   5.777
10791SOL     OW33271   1.527   2.180   3.037
10791SOL    HW133272   1.615   2.133   3.042
10791SOL    HW233273   1.469   2.151   3.113
10792SOL     OW33274   3.707   1.463   2.407
10792SOL    HW133275   3.757   1.520   2.342
10792SOL    HW233276   3.664   1.386   2.359
10793SOL     OW33277   3.889   1.983   4.628
10793SOL    HW133278   3.938   2.032   4.699
10793SOL    HW233279   3.793   2.011   4.629
10794SOL     OW33280   5.275   2.003   0.552
10794SOL    HW133281   5.347   1.990   0.620
10794SOL    HW233282   5.315   2.000   0.460
10795SOL     OW33283   0.002   3.245   3.367
10795SOL    HW133284   0.092   3.202   3.374
10795SOL    HW233285   7.007   3.289   3.454
10796SOL     OW33286   0.140   0.053   6.055
10796SOL    HW133287   0.092   0.059   6.142
10796SOL    HW233288   0.079   0.084   5.982
10797SOL     OW33289   4.425   4.462   7.004
10797SOL    HW133290   4.415   4.557   0.006
10797SOL    HW233291   4.346   4.435   6.948
10798SOL     OW33292   1.921   6.593   6.623
10798SOL    HW133293   1.857   6.663   6.655
10798SOL    HW233294   1.997   6.638   6.575
10799SOL     OW33295   2.946   1.573   2.959
10799SOL    HW133296   2.953   1.523   3.045
10799SOL    HW233297   3.010   1.533   2.893
10800SOL     OW33298   2.483   7.015   5.462
10800SOL    HW133299   2.538   0.046   5.523
10800SOL    HW233300   2.390   0.026   5.456
10801SOL     OW33301   3.111   6.239   6.059
10801SOL    HW133302   3.152   6.166   6.113
10801SOL    HW233303   3.173   6.264   5.984
10802SOL     OW33304   0.710   5.190   4.084
10802SOL    HW133305   0.634   5.155   4.029
10802SOL    HW233306   0.777   5.118   4.099
10803SOL     OW33307   0.091   4.197   4.805
10803SOL    HW133308   0.151   4.203   4.724
10803SOL    HW233309   0.140   4.232   4.885
10804SOL     OW33310   5.176   4.567   1.148
10804SOL    HW133311   5.109   4.640   1.155
10804SOL    HW233312   5.152   4.507   1.072
10805SOL     OW33313   3.992   5.962   0.475
10805SOL    HW133314   4.041   5.900   0.536
10805SOL    HW233315   3.902   5.924   0.454
10806SOL     OW33316   6.006   4.109   6.318
10806SOL    HW133317   5.930   4.043   6.314
10806SOL    HW233318   5.982   4.184   6.379
10807SOL     OW33319   4.481   1.081   4.278
10807SOL    HW133320   4.540   1.057   4.201
10807SOL    HW233321   4.532   1.074   4.364
10808SOL     OW33322   0.288   1.976   0.225
10808SOL    HW133323   0.259   1.917   0.150
10808SOL    HW233324   0.367   2.031   0.196
10809SOL     OW33325   3.250   1.427   3.038
10809SOL    HW133326   3.218   1.434   2.943
10809SOL    HW233327   3.333   1.482   3.049
10810SOL     OW33328   1.601   1.313   6.808
10810SOL    HW133329   1.636   1.264   6.888
10810SOL    HW233330   1.553   1.395   6.837
10811SOL     OW33331   4.703   4.616   6.176
10811SOL    HW133332   4.644   4.664   6.241
10811SOL    HW233333   4.648   4.553   6.121
10812SOL     OW33334   6.887   2.681   2.155
10812SOL    HW133335   6.855   2.638   2.071
10812SOL    HW233336   6.811   2.728   2.200
10813SOL     OW33337   3.375   5.542   2.441
10813SOL    HW133338   3.461   5.498   2.466
10813SOL    HW233339   3.394   5.620   2.381
10814SOL     OW33340   1.978   6.096   4.964
10814SOL    HW133341   1.923   6.176   4.988
10814SOL    HW233342   1.965   6.025   5.033
10815SOL     OW33343   4.661   2.337   3.296
10815SOL    HW133344   4.624   2.425   3.265
10815SOL    HW233345   4.704   2.291   3.219
10816SOL     OW33346   2.120   2.291   1.795
10816SOL    HW133347   2.126   2.314   1.892
10816SOL    HW233348   2.119   2.191   1.785
10817SOL     OW33349   4.100   0.298   2.108
10817SOL    HW133350   4.135   0.243   2.033
10817SOL    HW233351   4.078   0.239   2.186
10818SOL     OW33352   4.477   2.950   6.145
10818SOL    HW133353   4.452   2.951   6.048
10818SOL    HW233354   4.576   2.962   6.154
10819SOL     OW33355   0.361   4.066   5.218
10819SOL    HW133356   0.458   4.078   5.236
10819SOL    HW233357   0.308   4.118   5.286
10820SOL     OW33358   6.844   0.511   4.727
10820SOL    HW133359   6.750   0.479   4.737
10820SOL    HW233360   6.845   0.595   4.672
10821SOL     OW33361   6.735   6.829   1.001
10821SOL    HW133362   6.693   6.887   0.931
10821SOL    HW233363   6.748   6.882   1.085
10822SOL     OW33364   0.664   4.771   0.216
10822SOL    HW133365   0.601   4.784   0.293
10822SOL    HW233366   0.672   4.674   0.195
10823SOL     OW33367   1.370   1.939   1.474
10823SOL    HW133368   1.399   1.847   1.451
10823SOL    HW233369   1.444   1.988   1.520
10824SOL     OW33370   5.870   0.366   3.158
10824SOL    HW133371   5.899   0.272   3.143
10824SOL    HW233372   5.844   0.378   3.254
10825SOL     OW33373   3.874   1.637   1.432
10825SOL    HW133374   3.862   1.569   1.360
10825SOL    HW233375   3.962   1.624   1.477
10826SOL     OW33376   6.648   2.823   1.273
10826SOL    HW133377   6.573   2.865   1.324
10826SOL    HW233378   6.611   2.762   1.203
10827SOL     OW33379   1.523   2.493   3.796
10827SOL    HW133380   1.465   2.575   3.789
10827SOL    HW233381   1.611   2.512   3.754
10828SOL     OW33382   1.134   5.698   0.657
10828SOL    HW133383   1.152   5.600   0.655
10828SOL    HW233384   1.093   5.723   0.745
10829SOL     OW33385   2.182   3.445   1.641
10829SOL    HW133386   2.225   3.429   1.730
10829SOL    HW233387   2.249   3.487   1.580
10830SOL     OW33388   4.787   1.627   3.832
10830SOL    HW133389   4.836   1.564   3.772
10830SOL    HW233390   4.833   1.633   3.920
10831SOL     OW33391   5.118   2.881   2.739
10831SOL    HW133392   5.162   2.867   2.650
10831SOL    HW233393   5.065   2.799   2.763
10832SOL     OW33394   6.835   2.563   2.839
10832SOL    HW133395   6.839   2.521   2.930
10832SOL    HW233396   6.798   2.655   2.846
10833SOL     OW33397   2.711   0.072   4.337
10833SOL    HW133398   2.684   7.011   4.298
10833SOL    HW233399   2.763   0.124   4.269
10834SOL     OW33400   0.127   1.117   5.617
10834SOL    HW133401   0.178   1.188   5.569
10834SOL    HW233402   0.184   1.036   5.626
10835SOL     OW33403   6.767   2.471   1.974
10835SOL    HW133404   6.680   2.425   1.988
10835SOL    HW233405   6.808   2.442   1.887
10836SOL     OW33406   1.713   3.182   1.204
10836SOL    HW133407   1.644   3.239   1.160
10836SOL    HW233408   1.678   3.088   1.213
10837SOL     OW33409   1.476   5.456   1.749
10837SOL    HW133410   1.423   5.393   1.693
10837SOL    HW233411   1.450   5.550   1.728
10838SOL     OW33412   6.670   0.005   0.563
10838SOL    HW133413   6.611   6.977   0.622
10838SOL    HW233414   6.631   0.009   0.471
10839SOL     OW33415   1.754   1.468   0.102
10839SOL    HW133416   1.696   1.504   0.175
10839SOL    HW233417   1.777   1.542   0.038
10840SOL     OW33418   3.707   5.533   2.820
10840SOL    HW133419   3.655   5.609   2.780
10840SOL    HW233420   3.651   5.450   2.818
10841SOL     OW33421   4.759   3.005   6.124
10841SOL    HW133422   4.802   3.071   6.063
10841SOL    HW233423   4.743   3.047   6.214
10842SOL     OW33424   6.429   2.949   1.403
10842SOL    HW133425   6.371   2.909   1.474
10842SOL    HW233426   6.461   3.039   1.433
10843SOL     OW33427   0.404   0.936   2.012
10843SOL    HW133428   0.323   0.981   1.975
10843SOL    HW233429   0.392   0.919   2.110
10844SOL     OW33430   3.455   6.827   3.193
10844SOL    HW133431   3.515   6.798   3.269
10844SOL    HW233432   3.369   6.861   3.230
10845SOL     OW33433   1.756   3.176   0.838
10845SOL    HW133434   1.802   3.091   0.864
10845SOL    HW233435   1.657   3.162   0.840
10846SOL     OW33436   3.680   1.568   1.805
10846SOL    HW133437   3.745   1.633   1.768
10846SOL    HW233438   3.594   1.615   1.825
10847SOL     OW33439   4.024   2.844   6.118
10847SOL    HW133440   4.074   2.776   6.171
10847SOL    HW233441   3.968   2.798   6.049
10848SOL     OW33442   1.118   0.402   0.351
10848SOL    HW133443   1.133   0.311   0.311
10848SOL    HW233444   1.029   0.404   0.397
10849SOL     OW33445   2.191   5.066   4.216
10849SOL    HW133446   2.256   5.120   4.163
10849SOL    HW233447   2.182   5.105   4.308
10850SOL     OW33448   5.888   0.725   2.067
10850SOL    HW133449   5.891   0.807   2.124
10850SOL    HW233450   5.822   0.661   2.105
10851SOL     OW33451   4.406   1.692   6.119
10851SOL    HW133452   4.329   1.729   6.067
10851SOL    HW233453   4.486   1.683   6.060
10852SOL     OW33454   0.258   6.936   5.826
10852SOL    HW133455   0.202   6.976   5.898
10852SOL    HW233456   0.344   6.986   5.817
10853SOL     OW33457   2.444   0.716   4.624
10853SOL    HW133458   2.430   0.777   4.701
10853SOL    HW233459   2.535   0.733   4.584
10854SOL     OW33460   6.985   6.171   1.297
10854SOL    HW133461   6.932   6.224   1.231
10854SOL    HW233462   0.007   6.098   1.249
10855SOL     OW33463   1.378   5.493   2.001
10855SOL    HW133464   1.447   5.441   2.051
10855SOL    HW233465   1.401   5.496   1.904
10856SOL     OW33466   6.518   0.346   6.477
10856SOL    HW133467   6.498   0.440   6.505
10856SOL    HW233468   6.446   0.285   6.512
10857SOL     OW33469   6.171   0.219   5.069
10857SOL    HW133470   6.141   0.311   5.091
10857SOL    HW233471   6.258   0.223   5.021
10858SOL     OW33472   1.800   2.258   0.095
10858SOL    HW133473   1.807   2.240   7.023
10858SOL    HW233474   1.723   2.320   0.112
10859SOL     OW33475   1.315   5.811   2.735
10859SOL    HW133476   1.311   5.712   2.747
10859SOL    HW233477   1.368   5.832   2.653
10860SOL     OW33478   5.769   3.584   1.222
10860SOL    HW133479   5.683   3.536   1.240
10860SOL    HW233480   5.757   3.681   1.242
10861SOL     OW33481   3.119   3.260   1.520
10861SOL    HW133482   3.089   3.354   1.501
10861SOL    HW233483   3.215   3.261   1.547
10862SOL     OW33484   3.650   3.662   5.585
10862SOL    HW133485   3.585   3.715   5.531
10862SOL    HW233486   3.665   3.707   5.673
10863SOL     OW33487   1.890   0.463   3.277
10863SOL    HW133488   1.967   0.400   3.278
10863SOL    HW233489   1.807   0.415   3.248
10864SOL     OW33490   3.241   4.264   1.732
10864SOL    HW133491   3.286   4.231   1.649
10864SOL    HW233492   3.158   4.313   1.707
10865SOL     OW33493   4.073   1.453   2.826
10865SOL    HW133494   4.136   1.384   2.861
10865SOL    HW233495   4.050   1.432   2.731
10866SOL     OW33496   0.305   3.172   3.359
10866SOL    HW133497   0.350   3.132   3.278
10866SOL    HW233498   0.359   3.249   3.392
10867SOL     OW33499   4.447   2.810   0.374
10867SOL    HW133500   4.531   2.864   0.367
10867SOL    HW233501   4.368   2.871   0.383
10868SOL     OW33502   1.699   0.072   4.920
10868SOL    HW133503   1.771   0.005   4.903
10868SOL    HW233504   1.693   0.136   4.843
10869NA      NA33505   0.198   1.155   6.169
10870NA      NA33506   4.553   4.574   5.110
10871NA      NA33507   1.645   4.603   2.561
10872NA      NA33508   6.111   3.864   3.275
10873NA      NA33509   3.907   2.329   5.515
10874NA      NA33510   2.030   4.806   0.205
10875NA      NA33511   1.469   5.504   6.804
10876NA      NA33512   4.019   4.644   1.270
10877NA      NA33513   4.940   4.840   0.220
10878NA      NA33514   3.232   1.204   0.369
10879NA      NA33515   5.489   6.990   1.625
10880NA      NA33516   2.466   6.325   5.544
10881NA      NA33517   4.078   5.103   1.685
10882NA      NA33518   3.835   3.620   6.628
   7.02652   7.02652   7.02652
