Generated by trjconv : CNT in water t=  57.00000
33518
    1C        C    1   2.841   2.771   4.744
    1C        C    2   2.896   2.718   4.863
    1C        C    3   2.843   2.772   4.980
    1C        C    4   2.849   2.777   4.256
    1C        C    5   2.899   2.729   4.379
    1C        C    6   2.848   2.774   4.503
    1C        C    7   3.011   2.638   4.622
    1C        C    8   2.897   2.721   4.625
    1C        C    9   3.072   2.596   4.743
    1C        C   10   3.002   2.625   4.862
    1C        C   11   3.174   2.484   4.977
    1C        C   12   3.052   2.552   4.971
    1C        C   13   2.846   2.766   3.769
    1C        C   14   2.896   2.720   3.893
    1C        C   15   2.841   2.768   4.014
    1C        C   16   3.014   2.642   4.139
    1C        C   17   2.902   2.728   4.135
    1C        C   18   3.077   2.605   4.260
    1C        C   19   3.012   2.644   4.379
    1C        C   20   3.205   2.554   4.502
    1C        C   21   3.073   2.603   4.500
    1C        C   22   3.274   2.530   4.623
    1C        C   23   3.203   2.541   4.745
    1C        C   24   3.406   2.481   4.863
    1C        C   25   3.263   2.498   4.866
    1C        C   26   3.488   2.473   4.976
    1C        C   27   2.847   2.766   3.279
    1C        C   28   2.901   2.720   3.401
    1C        C   29   2.848   2.767   3.523
    1C        C   30   3.015   2.639   3.646
    1C        C   31   2.900   2.722   3.646
    1C        C   32   3.072   2.602   3.770
    1C        C   33   3.011   2.637   3.892
    1C        C   34   3.199   2.543   4.013
    1C        C   35   3.072   2.604   4.015
    1C        C   36   3.273   2.530   4.133
    1C        C   37   3.208   2.553   4.256
    1C        C   38   3.410   2.503   4.380
    1C        C   39   3.272   2.530   4.380
    1C        C   40   3.482   2.492   4.501
    1C        C   41   3.413   2.502   4.623
    1C        C   42   3.625   2.472   4.739
    1C        C   43   3.483   2.477   4.744
    1C        C   44   3.700   2.478   4.858
    1C        C   45   3.627   2.466   4.977
    1C        C   46   2.832   2.747   2.791
    1C        C   47   2.890   2.707   2.913
    1C        C   48   2.843   2.760   3.035
    1C        C   49   3.014   2.634   3.159
    1C        C   50   2.899   2.716   3.157
    1C        C   51   3.076   2.599   3.281
    1C        C   52   3.014   2.635   3.403
    1C        C   53   3.203   2.538   3.526
    1C        C   54   3.075   2.599   3.525
    1C        C   55   3.270   2.519   3.648
    1C        C   56   3.201   2.543   3.769
    1C        C   57   3.407   2.498   3.889
    1C        C   58   3.268   2.521   3.892
    1C        C   59   3.480   2.499   4.010
    1C        C   60   3.413   2.508   4.134
    1C        C   61   3.622   2.502   4.257
    1C        C   62   3.481   2.499   4.257
    1C        C   63   3.696   2.505   4.377
    1C        C   64   3.624   2.497   4.498
    1C        C   65   3.832   2.537   4.619
    1C        C   66   3.696   2.498   4.619
    1C        C   67   3.901   2.555   4.741
    1C        C   68   3.835   2.521   4.861
    1C        C   69   4.042   2.585   4.975
    1C        C   70   3.914   2.527   4.976
    1C        C   71   2.814   2.725   2.306
    1C        C   72   2.880   2.691   2.426
    1C        C   73   2.829   2.740   2.548
    1C        C   74   3.003   2.620   2.669
    1C        C   75   2.886   2.700   2.670
    1C        C   76   3.070   2.595   2.791
    1C        C   77   3.010   2.631   2.914
    1C        C   78   3.199   2.536   3.032
    1C        C   79   3.070   2.593   3.036
    1C        C   80   3.267   2.513   3.154
    1C        C   81   3.202   2.535   3.278
    1C        C   82   3.407   2.495   3.400
    1C        C   83   3.267   2.514   3.402
    1C        C   84   3.477   2.489   3.522
    1C        C   85   3.409   2.495   3.646
    1C        C   86   3.620   2.498   3.768
    1C        C   87   3.479   2.487   3.768
    1C        C   88   3.690   2.510   3.890
    1C        C   89   3.622   2.500   4.013
    1C        C   90   3.829   2.547   4.132
    1C        C   91   3.694   2.506   4.135
    1C        C   92   3.898   2.568   4.254
    1C        C   93   3.833   2.541   4.376
    1C        C   94   4.023   2.632   4.497
    1C        C   95   3.896   2.570   4.499
    1C        C   96   4.088   2.664   4.619
    1C        C   97   4.028   2.620   4.739
    1C        C   98   4.187   2.761   4.861
    1C        C   99   4.095   2.652   4.860
    1C        C  100   4.210   2.838   4.976
    1C        C  101   2.816   2.733   2.067
    1C        C  102   2.985   2.594   2.185
    1C        C  103   2.866   2.674   2.184
    1C        C  104   3.059   2.574   2.304
    1C        C  105   2.998   2.613   2.425
    1C        C  106   3.194   2.531   2.550
    1C        C  107   3.063   2.582   2.547
    1C        C  108   3.267   2.516   2.670
    1C        C  109   3.196   2.532   2.791
    1C        C  110   3.404   2.490   2.913
    1C        C  111   3.264   2.502   2.911
    1C        C  112   3.478   2.492   3.034
    1C        C  113   3.407   2.496   3.156
    1C        C  114   3.619   2.490   3.278
    1C        C  115   3.478   2.485   3.278
    1C        C  116   3.687   2.506   3.401
    1C        C  117   3.618   2.496   3.524
    1C        C  118   3.828   2.541   3.642
    1C        C  119   3.690   2.508   3.645
    1C        C  120   3.893   2.568   3.765
    1C        C  121   3.826   2.550   3.888
    1C        C  122   4.019   2.639   4.008
    1C        C  123   3.892   2.578   4.010
    1C        C  124   4.080   2.674   4.130
    1C        C  125   4.022   2.636   4.253
    1C        C  126   4.196   2.757   4.374
    1C        C  127   4.083   2.672   4.376
    1C        C  128   4.240   2.815   4.495
    1C        C  129   4.191   2.761   4.616
    1C        C  130   4.322   2.929   4.737
    1C        C  131   4.239   2.813   4.739
    1C        C  132   4.348   3.001   4.855
    1C        C  133   4.273   2.962   4.967
    1C        C  134   3.166   2.463   2.080
    1C        C  135   3.036   2.515   2.077
    1C        C  136   3.254   2.480   2.188
    1C        C  137   3.190   2.518   2.308
    1C        C  138   3.399   2.473   2.426
    1C        C  139   3.261   2.500   2.429
    1C        C  140   3.476   2.480   2.544
    1C        C  141   3.406   2.492   2.666
    1C        C  142   3.614   2.495   2.788
    1C        C  143   3.473   2.487   2.790
    1C        C  144   3.687   2.503   2.909
    1C        C  145   3.619   2.490   3.032
    1C        C  146   3.823   2.543   3.149
    1C        C  147   3.688   2.499   3.155
    1C        C  148   3.887   2.566   3.273
    1C        C  149   3.823   2.543   3.397
    1C        C  150   4.019   2.627   3.518
    1C        C  151   3.892   2.565   3.519
    1C        C  152   4.079   2.666   3.640
    1C        C  153   4.017   2.636   3.763
    1C        C  154   4.188   2.764   3.885
    1C        C  155   4.079   2.673   3.884
    1C        C  156   4.235   2.815   4.008
    1C        C  157   4.187   2.766   4.132
    1C        C  158   4.331   2.922   4.248
    1C        C  159   4.247   2.808   4.253
    1C        C  160   4.368   2.983   4.370
    1C        C  161   4.325   2.928   4.493
    1C        C  162   4.432   3.111   4.615
    1C        C  163   4.365   2.986   4.615
    1C        C  164   4.452   3.185   4.733
    1C        C  165   4.425   3.120   4.855
    1C        C  166   4.521   3.315   4.974
    1C        C  167   4.476   3.184   4.968
    1C        C  168   3.470   2.433   2.072
    1C        C  169   3.393   2.456   2.186
    1C        C  170   3.612   2.459   2.304
    1C        C  171   3.470   2.459   2.304
    1C        C  172   3.689   2.478   2.421
    1C        C  173   3.617   2.478   2.543
    1C        C  174   3.821   2.534   2.662
    1C        C  175   3.684   2.499   2.666
    1C        C  176   3.889   2.561   2.783
    1C        C  177   3.824   2.536   2.906
    1C        C  178   4.018   2.626   3.029
    1C        C  179   3.891   2.564   3.028
    1C        C  180   4.077   2.667   3.151
    1C        C  181   4.014   2.627   3.271
    1C        C  182   4.187   2.750   3.396
    1C        C  183   4.074   2.664   3.394
    1C        C  184   4.239   2.803   3.516
    1C        C  185   4.192   2.752   3.639
    1C        C  186   4.332   2.913   3.760
    1C        C  187   4.240   2.806   3.760
    1C        C  188   4.372   2.974   3.881
    1C        C  189   4.330   2.919   4.005
    1C        C  190   4.440   3.103   4.125
    1C        C  191   4.374   2.978   4.126
    1C        C  192   4.462   3.171   4.247
    1C        C  193   4.436   3.107   4.370
    1C        C  194   4.502   3.309   4.491
    1C        C  195   4.461   3.174   4.492
    1C        C  196   4.519   3.383   4.610
    1C        C  197   4.505   3.317   4.734
    1C        C  198   4.549   3.530   4.848
    1C        C  199   4.531   3.389   4.855
    1C        C  200   4.579   3.618   4.957
    1C        C  201   3.609   2.417   2.069
    1C        C  202   3.821   2.507   2.180
    1C        C  203   3.687   2.457   2.183
    1C        C  204   3.894   2.536   2.298
    1C        C  205   3.826   2.515   2.420
    1C        C  206   4.014   2.619   2.536
    1C        C  207   3.889   2.554   2.540
    1C        C  208   4.071   2.662   2.659
    1C        C  209   4.014   2.627   2.783
    1C        C  210   4.191   2.744   2.904
    1C        C  211   4.077   2.660   2.905
    1C        C  212   4.246   2.792   3.026
    1C        C  213   4.190   2.751   3.149
    1C        C  214   4.331   2.904   3.271
    1C        C  215   4.241   2.795   3.273
    1C        C  216   4.370   2.967   3.392
    1C        C  217   4.329   2.912   3.515
    1C        C  218   4.437   3.095   3.634
    1C        C  219   4.370   2.970   3.637
    1C        C  220   4.466   3.161   3.755
    1C        C  221   4.440   3.097   3.879
    1C        C  222   4.498   3.301   4.002
    1C        C  223   4.468   3.163   4.001
    1C        C  224   4.511   3.374   4.122
    1C        C  225   4.498   3.308   4.247
    1C        C  226   4.512   3.519   4.364
    1C        C  227   4.511   3.378   4.368
    1C        C  228   4.511   3.591   4.486
    1C        C  229   4.521   3.524   4.610
    1C        C  230   4.493   3.740   4.724
    1C        C  231   4.531   3.603   4.727
    1C        C  232   4.488   3.817   4.842
    1C        C  233   4.547   3.755   4.952
    1C        C  234   4.012   2.605   2.058
    1C        C  235   3.886   2.547   2.062
    1C        C  236   4.081   2.641   2.174
    1C        C  237   4.017   2.607   2.296
    1C        C  238   4.193   2.735   2.418
    1C        C  239   4.080   2.648   2.415
    1C        C  240   4.247   2.784   2.540
    1C        C  241   4.187   2.742   2.661
    1C        C  242   4.331   2.902   2.778
    1C        C  243   4.239   2.794   2.781
    1C        C  244   4.370   2.959   2.902
    1C        C  245   4.331   2.904   3.026
    1C        C  246   4.435   3.087   3.147
    1C        C  247   4.370   2.962   3.149
    1C        C  248   4.452   3.159   3.268
    1C        C  249   4.426   3.096   3.392
    1C        C  250   4.493   3.300   3.511
    1C        C  251   4.456   3.164   3.512
    1C        C  252   4.507   3.367   3.635
    1C        C  253   4.498   3.299   3.758
    1C        C  254   4.525   3.510   3.875
    1C        C  255   4.514   3.369   3.879
    1C        C  256   4.514   3.584   3.995
    1C        C  257   4.515   3.515   4.119
    1C        C  258   4.482   3.726   4.237
    1C        C  259   4.508   3.587   4.240
    1C        C  260   4.465   3.797   4.358
    1C        C  261   4.484   3.729   4.481
    1C        C  262   4.424   3.937   4.600
    1C        C  263   4.471   3.804   4.600
    1C        C  264   4.392   4.006   4.719
    1C        C  265   4.429   3.945   4.842
    1C        C  266   4.313   4.130   4.955
    1C        C  267   4.392   4.016   4.957
    1C        C  268   4.255   2.777   2.058
    1C        C  269   4.189   2.732   2.173
    1C        C  270   4.340   2.885   2.295
    1C        C  271   4.243   2.781   2.295
    1C        C  272   4.380   2.949   2.414
    1C        C  273   4.337   2.893   2.536
    1C        C  274   4.445   3.080   2.657
    1C        C  275   4.374   2.958   2.656
    1C        C  276   4.471   3.145   2.780
    1C        C  277   4.440   3.082   2.903
    1C        C  278   4.499   3.286   3.022
    1C        C  279   4.468   3.149   3.024
    1C        C  280   4.509   3.360   3.142
    1C        C  281   4.494   3.294   3.266
    1C        C  282   4.512   3.507   3.388
    1C        C  283   4.506   3.366   3.387
    1C        C  284   4.508   3.578   3.510
    1C        C  285   4.511   3.508   3.633
    1C        C  286   4.485   3.720   3.748
    1C        C  287   4.515   3.582   3.754
    1C        C  288   4.463   3.787   3.871
    1C        C  289   4.486   3.722   3.994
    1C        C  290   4.420   3.927   4.111
    1C        C  291   4.470   3.795   4.115
    1C        C  292   4.390   3.991   4.234
    1C        C  293   4.420   3.931   4.358
    1C        C  294   4.326   4.126   4.473
    1C        C  295   4.392   4.001   4.478
    1C        C  296   4.285   4.185   4.594
    1C        C  297   4.326   4.132   4.718
    1C        C  298   4.196   4.313   4.833
    1C        C  299   4.278   4.195   4.836
    1C        C  300   4.160   4.399   4.942
    1C        C  301   4.355   2.873   2.059
    1C        C  302   4.469   3.062   2.173
    1C        C  303   4.392   2.941   2.176
    1C        C  304   4.482   3.136   2.293
    1C        C  305   4.450   3.072   2.416
    1C        C  306   4.509   3.280   2.533
    1C        C  307   4.477   3.143   2.535
    1C        C  308   4.515   3.351   2.655
    1C        C  309   4.501   3.283   2.778
    1C        C  310   4.519   3.496   2.897
    1C        C  311   4.513   3.355   2.899
    1C        C  312   4.511   3.569   3.018
    1C        C  313   4.508   3.501   3.142
    1C        C  314   4.482   3.713   3.263
    1C        C  315   4.505   3.573   3.263
    1C        C  316   4.472   3.786   3.383
    1C        C  317   4.490   3.718   3.506
    1C        C  318   4.425   3.923   3.624
    1C        C  319   4.470   3.789   3.626
    1C        C  320   4.389   3.985   3.746
    1C        C  321   4.417   3.921   3.868
    1C        C  322   4.315   4.110   3.986
    1C        C  323   4.387   3.988   3.988
    1C        C  324   4.276   4.169   4.108
    1C        C  325   4.323   4.115   4.230
    1C        C  326   4.189   4.284   4.348
    1C        C  327   4.283   4.179   4.349
    1C        C  328   4.138   4.339   4.468
    1C        C  329   4.192   4.292   4.590
    1C        C  330   4.021   4.427   4.707
    1C        C  331   4.139   4.347   4.708
    1C        C  332   3.965   4.488   4.821
    1C        C  333   4.050   4.485   4.933
    1C        C  334   4.547   3.261   2.056
    1C        C  335   4.528   3.122   2.057
    1C        C  336   4.536   3.345   2.168
    1C        C  337   4.518   3.273   2.288
    1C        C  338   4.516   3.488   2.412
    1C        C  339   4.519   3.347   2.409
    1C        C  340   4.514   3.563   2.532
    1C        C  341   4.515   3.492   2.654
    1C        C  342   4.486   3.705   2.772
    1C        C  343   4.508   3.565   2.774
    1C        C  344   4.469   3.775   2.893
    1C        C  345   4.487   3.709   3.016
    1C        C  346   4.415   3.908   3.134
    1C        C  347   4.467   3.777   3.138
    1C        C  348   4.386   3.977   3.254
    1C        C  349   4.421   3.917   3.378
    1C        C  350   4.319   4.103   3.498
    1C        C  351   4.394   3.983   3.500
    1C        C  352   4.276   4.163   3.619
    1C        C  353   4.317   4.106   3.742
    1C        C  354   4.170   4.261   3.862
    1C        C  355   4.271   4.162   3.863
    1C        C  356   4.120   4.309   3.985
    1C        C  357   4.172   4.264   4.109
    1C        C  358   4.006   4.399   4.227
    1C        C  359   4.127   4.325   4.228
    1C        C  360   3.947   4.441   4.349
    1C        C  361   4.018   4.414   4.468
    1C        C  362   3.824   4.511   4.587
    1C        C  363   3.955   4.458   4.586
    1C        C  364   3.757   4.544   4.707
    1C        C  365   3.833   4.539   4.825
    1C        C  366   3.626   4.580   4.948
    1C        C  367   3.764   4.565   4.944
    1C        C  368   4.502   3.557   2.053
    1C        C  369   4.528   3.486   2.171
    1C        C  370   4.498   3.700   2.287
    1C        C  371   4.519   3.560   2.291
    1C        C  372   4.484   3.773   2.407
    1C        C  373   4.499   3.703   2.529
    1C        C  374   4.426   3.906   2.646
    1C        C  375   4.475   3.773   2.649
    1C        C  376   4.393   3.971   2.767
    1C        C  377   4.420   3.908   2.891
    1C        C  378   4.316   4.094   3.009
    1C        C  379   4.391   3.974   3.012
    1C        C  380   4.276   4.156   3.129
    1C        C  381   4.321   4.102   3.252
    1C        C  382   4.174   4.254   3.374
    1C        C  383   4.275   4.156   3.375
    1C        C  384   4.118   4.304   3.494
    1C        C  385   4.171   4.257   3.616
    1C        C  386   4.003   4.387   3.738
    1C        C  387   4.118   4.305   3.738
    1C        C  388   3.941   4.424   3.859
    1C        C  389   4.003   4.389   3.981
    1C        C  390   3.817   4.488   4.104
    1C        C  391   3.947   4.432   4.103
    1C        C  392   3.747   4.510   4.225
    1C        C  393   3.816   4.492   4.347
    1C        C  394   3.612   4.548   4.471
    1C        C  395   3.751   4.526   4.468
    1C        C  396   3.541   4.561   4.592
    1C        C  397   3.616   4.558   4.711
    1C        C  398   3.407   4.541   4.838
    1C        C  399   3.546   4.564   4.834
    1C        C  400   3.337   4.507   4.954
    1C        C  401   4.501   3.696   2.051
    1C        C  402   4.449   3.909   2.165
    1C        C  403   4.488   3.773   2.167
    1C        C  404   4.408   3.972   2.284
    1C        C  405   4.433   3.905   2.406
    1C        C  406   4.323   4.093   2.522
    1C        C  407   4.398   3.973   2.525
    1C        C  408   4.279   4.152   2.642
    1C        C  409   4.317   4.089   2.763
    1C        C  410   4.171   4.245   2.881
    1C        C  411   4.270   4.144   2.885
    1C        C  412   4.123   4.294   3.005
    1C        C  413   4.175   4.255   3.130
    1C        C  414   3.999   4.374   3.248
    1C        C  415   4.117   4.296   3.252
    1C        C  416   3.940   4.412   3.370
    1C        C  417   4.002   4.384   3.494
    1C        C  418   3.812   4.480   3.615
    1C        C  419   3.941   4.423   3.616
    1C        C  420   3.747   4.506   3.737
    1C        C  421   3.811   4.480   3.860
    1C        C  422   3.611   4.537   3.984
    1C        C  423   3.750   4.513   3.983
    1C        C  424   3.539   4.543   4.105
    1C        C  425   3.610   4.542   4.228
    1C        C  426   3.397   4.546   4.351
    1C        C  427   3.539   4.549   4.350
    1C        C  428   3.327   4.547   4.473
    1C        C  429   3.400   4.550   4.594
    1C        C  430   3.192   4.515   4.720
    1C        C  431   3.332   4.540   4.718
    1C        C  432   3.122   4.487   4.840
    1C        C  433   3.199   4.495   4.957
    1C        C  434   4.379   4.114   2.049
    1C        C  435   4.450   3.993   2.052
    1C        C  436   4.299   4.156   2.160
    1C        C  437   4.335   4.094   2.282
    1C        C  438   4.185   4.254   2.395
    1C        C  439   4.283   4.153   2.400
    1C        C  440   4.128   4.299   2.516
    1C        C  441   4.181   4.254   2.639
    1C        C  442   4.002   4.372   2.762
    1C        C  443   4.119   4.293   2.759
    1C        C  444   3.940   4.408   2.884
    1C        C  445   4.005   4.371   3.004
    1C        C  446   3.809   4.460   3.127
    1C        C  447   3.940   4.406   3.124
    1C        C  448   3.741   4.483   3.249
    1C        C  449   3.810   4.467   3.371
    1C        C  450   3.605   4.525   3.493
    1C        C  451   3.744   4.497   3.492
    1C        C  452   3.537   4.537   3.616
    1C        C  453   3.608   4.533   3.738
    1C        C  454   3.399   4.539   3.861
    1C        C  455   3.541   4.543   3.862
    1C        C  456   3.329   4.529   3.984
    1C        C  457   3.398   4.545   4.106
    1C        C  458   3.192   4.496   4.234
    1C        C  459   3.328   4.534   4.229
    1C        C  460   3.125   4.476   4.357
    1C        C  461   3.190   4.513   4.477
    1C        C  462   2.994   4.435   4.599
    1C        C  463   3.121   4.496   4.599
    1C        C  464   2.929   4.399   4.719
    1C        C  465   2.987   4.442   4.842
    1C        C  466   2.795   4.335   4.954
    1C        C  467   2.903   4.424   4.957
    1C        C  468   4.118   4.275   2.038
    1C        C  469   4.183   4.240   2.157
    1C        C  470   4.004   4.370   2.274
    1C        C  471   4.126   4.296   2.274
    1C        C  472   3.938   4.399   2.396
    1C        C  473   4.005   4.370   2.517
    1C        C  474   3.813   4.459   2.640
    1C        C  475   3.944   4.409   2.638
    1C        C  476   3.743   4.483   2.761
    1C        C  477   3.810   4.462   2.884
    1C        C  478   3.603   4.516   3.005
    1C        C  479   3.741   4.484   3.005
    1C        C  480   3.534   4.530   3.128
    1C        C  481   3.604   4.518   3.250
    1C        C  482   3.392   4.529   3.372
    1C        C  483   3.533   4.528   3.371
    1C        C  484   3.324   4.527   3.496
    1C        C  485   3.395   4.540   3.617
    1C        C  486   3.191   4.495   3.744
    1C        C  487   3.327   4.534   3.740
    1C        C  488   3.124   4.474   3.866
    1C        C  489   3.193   4.491   3.988
    1C        C  490   3.002   4.406   4.112
    1C        C  491   3.127   4.471   4.111
    1C        C  492   2.942   4.375   4.236
    1C        C  493   2.994   4.422   4.358
    1C        C  494   2.827   4.292   4.480
    1C        C  495   2.934   4.385   4.481
    1C        C  496   2.773   4.247   4.603
    1C        C  497   2.815   4.314   4.720
    1C        C  498   2.660   4.162   4.840
    1C        C  499   2.750   4.271   4.837
    1C        C  500   2.593   4.117   4.955
    1C        C  501   4.002   4.351   2.037
    1C        C  502   3.813   4.461   2.154
    1C        C  503   3.940   4.401   2.152
    1C        C  504   3.741   4.483   2.274
    1C        C  505   3.808   4.453   2.395
    1C        C  506   3.604   4.505   2.514
    1C        C  507   3.742   4.473   2.518
    1C        C  508   3.534   4.509   2.636
    1C        C  509   3.604   4.506   2.759
    1C        C  510   3.394   4.525   2.880
    1C        C  511   3.535   4.519   2.882
    1C        C  512   3.322   4.518   3.002
    1C        C  513   3.393   4.527   3.124
    1C        C  514   3.188   4.488   3.252
    1C        C  515   3.325   4.522   3.248
    1C        C  516   3.122   4.465   3.375
    1C        C  517   3.185   4.497   3.497
    1C        C  518   3.003   4.399   3.621
    1C        C  519   3.123   4.473   3.622
    1C        C  520   2.947   4.357   3.744
    1C        C  521   3.001   4.405   3.866
    1C        C  522   2.835   4.276   3.993
    1C        C  523   2.944   4.366   3.989
    1C        C  524   2.783   4.232   4.116
    1C        C  525   2.835   4.283   4.238
    1C        C  526   2.688   4.130   4.358
    1C        C  527   2.779   4.238   4.359
    1C        C  528   2.646   4.075   4.481
    1C        C  529   2.686   4.136   4.602
    1C        C  530   2.578   3.956   4.728
    1C        C  531   2.635   4.086   4.724
    1C        C  532   2.536   3.897   4.850
    1C        C  533   2.531   3.992   4.957
    1C        C  534   3.615   4.553   2.034
    1C        C  535   3.746   4.505   2.038
    1C        C  536   3.531   4.531   2.148
    1C        C  537   3.601   4.504   2.269
    1C        C  538   3.392   4.508   2.395
    1C        C  539   3.533   4.516   2.392
    1C        C  540   3.320   4.502   2.517
    1C        C  541   3.393   4.512   2.637
    1C        C  542   3.185   4.475   2.760
    1C        C  543   3.322   4.511   2.759
    1C        C  544   3.120   4.458   2.884
    1C        C  545   3.186   4.482   3.006
    1C        C  546   2.993   4.403   3.132
    1C        C  547   3.120   4.466   3.130
    1C        C  548   2.936   4.363   3.255
    1C        C  549   2.996   4.401   3.377
    1C        C  550   2.831   4.270   3.504
    1C        C  551   2.940   4.361   3.501
    1C        C  552   2.778   4.223   3.627
    1C        C  553   2.833   4.274   3.746
    1C        C  554   2.697   4.116   3.871
    1C        C  555   2.782   4.229   3.870
    1C        C  556   2.654   4.060   3.993
    1C        C  557   2.693   4.123   4.113
    1C        C  558   2.594   3.939   4.242
    1C        C  559   2.653   4.067   4.236
    1C        C  560   2.563   3.877   4.366
    1C        C  561   2.582   3.949   4.486
    1C        C  562   2.522   3.747   4.611
    1C        C  563   2.553   3.885   4.609
    1C        C  564   2.507   3.677   4.733
    1C        C  565   2.507   3.757   4.851
    1C        C  566   2.531   3.548   4.975
    1C        C  567   2.523   3.687   4.971
    1C        C  568   3.324   4.463   2.037
    1C        C  569   3.390   4.510   2.151
    1C        C  570   3.182   4.463   2.276
    1C        C  571   3.320   4.496   2.274
    1C        C  572   3.113   4.450   2.398
    1C        C  573   3.181   4.475   2.519
    1C        C  574   2.983   4.398   2.642
    1C        C  575   3.114   4.451   2.641
    1C        C  576   2.927   4.361   2.767
    1C        C  577   2.993   4.395   2.887
    1C        C  578   2.824   4.273   3.014
    1C        C  579   2.934   4.361   3.011
    1C        C  580   2.780   4.219   3.137
    1C        C  581   2.829   4.271   3.259
    1C        C  582   2.694   4.110   3.379
    1C        C  583   2.780   4.222   3.382
    1C        C  584   2.658   4.052   3.502
    1C        C  585   2.691   4.112   3.626
    1C        C  586   2.587   3.932   3.751
    1C        C  587   2.655   4.055   3.750
    1C        C  588   2.566   3.868   3.875
    1C        C  589   2.600   3.929   3.998
    1C        C  590   2.529   3.733   4.124
    1C        C  591   2.571   3.868   4.122
    1C        C  592   2.518   3.668   4.249
    1C        C  593   2.527   3.741   4.370
    1C        C  594   2.512   3.530   4.496
    1C        C  595   2.513   3.672   4.492
    1C        C  596   2.512   3.461   4.619
    1C        C  597   2.512   3.535   4.739
    1C        C  598   2.534   3.326   4.862
    1C        C  599   2.521   3.466   4.862
    1C        C  600   2.534   3.247   4.978
    1C        C  601   3.189   4.435   2.037
    1C        C  602   2.978   4.386   2.153
    1C        C  603   3.114   4.428   2.155
    1C        C  604   2.926   4.344   2.279
    1C        C  605   2.985   4.390   2.399
    1C        C  606   2.815   4.266   2.524
    1C        C  607   2.919   4.361   2.521
    1C        C  608   2.768   4.217   2.648
    1C        C  609   2.822   4.267   2.768
    1C        C  610   2.683   4.113   2.889
    1C        C  611   2.772   4.223   2.893
    1C        C  612   2.648   4.054   3.012
    1C        C  613   2.694   4.107   3.135
    1C        C  614   2.588   3.925   3.260
    1C        C  615   2.652   4.051   3.257
    1C        C  616   2.564   3.861   3.383
    1C        C  617   2.595   3.925   3.505
    1C        C  618   2.526   3.728   3.634
    1C        C  619   2.566   3.863   3.629
    1C        C  620   2.512   3.660   3.757
    1C        C  621   2.525   3.733   3.878
    1C        C  622   2.510   3.525   4.008
    1C        C  623   2.512   3.666   4.001
    1C        C  624   2.510   3.453   4.129
    1C        C  625   2.507   3.527   4.249
    1C        C  626   2.539   3.321   4.374
    1C        C  627   2.514   3.460   4.373
    1C        C  628   2.554   3.253   4.497
    1C        C  629   2.532   3.321   4.619
    1C        C  630   2.589   3.118   4.741
    1C        C  631   2.543   3.252   4.742
    1C        C  632   2.612   3.050   4.864
    1C        C  633   2.560   3.109   4.983
    1C        C  634   2.777   4.299   2.052
    1C        C  635   2.885   4.389   2.044
    1C        C  636   2.741   4.223   2.164
    1C        C  637   2.806   4.268   2.281
    1C        C  638   2.671   4.106   2.406
    1C        C  639   2.759   4.217   2.404
    1C        C  640   2.635   4.046   2.529
    1C        C  641   2.682   4.105   2.648
    1C        C  642   2.580   3.919   2.773
    1C        C  643   2.646   4.044   2.771
    1C        C  644   2.560   3.856   2.897
    1C        C  645   2.587   3.926   3.017
    1C        C  646   2.532   3.720   3.146
    1C        C  647   2.562   3.858   3.138
    1C        C  648   2.517   3.654   3.270
    1C        C  649   2.524   3.726   3.391
    1C        C  650   2.504   3.516   3.516
    1C        C  651   2.506   3.657   3.513
    1C        C  652   2.513   3.448   3.639
    1C        C  653   2.504   3.519   3.761
    1C        C  654   2.532   3.314   3.887
    1C        C  655   2.509   3.453   3.886
    1C        C  656   2.550   3.244   4.009
    1C        C  657   2.534   3.314   4.131
    1C        C  658   2.602   3.116   4.257
    1C        C  659   2.552   3.248   4.254
    1C        C  660   2.630   3.052   4.380
    1C        C  661   2.601   3.120   4.500
    1C        C  662   2.699   2.931   4.623
    1C        C  663   2.624   3.050   4.621
    1C        C  664   2.751   2.882   4.745
    1C        C  665   2.698   2.936   4.865
    1C        C  666   2.742   2.867   4.980
    1C        C  667   2.670   4.021   2.049
    1C        C  668   2.671   4.101   2.163
    1C        C  669   2.584   3.909   2.288
    1C        C  670   2.634   4.042   2.286
    1C        C  671   2.557   3.844   2.411
    1C        C  672   2.579   3.916   2.530
    1C        C  673   2.507   3.717   2.658
    1C        C  674   2.548   3.852   2.653
    1C        C  675   2.500   3.649   2.781
    1C        C  676   2.522   3.720   2.901
    1C        C  677   2.505   3.510   3.026
    1C        C  678   2.518   3.650   3.024
    1C        C  679   2.504   3.439   3.149
    1C        C  680   2.504   3.513   3.269
    1C        C  681   2.529   3.307   3.398
    1C        C  682   2.502   3.446   3.394
    1C        C  683   2.552   3.240   3.520
    1C        C  684   2.535   3.308   3.643
    1C        C  685   2.600   3.109   3.766
    1C        C  686   2.550   3.242   3.767
    1C        C  687   2.635   3.048   3.889
    1C        C  688   2.603   3.113   4.010
    1C        C  689   2.708   2.933   4.136
    1C        C  690   2.632   3.052   4.134
    1C        C  691   2.749   2.877   4.259
    1C        C  692   2.708   2.934   4.382
    1C        C  693   2.751   2.877   4.504
    1C        C  694   2.622   3.890   2.055
    1C        C  695   2.518   3.700   2.171
    1C        C  696   2.568   3.832   2.171
    1C        C  697   2.501   3.635   2.295
    1C        C  698   2.515   3.709   2.414
    1C        C  699   2.490   3.502   2.540
    1C        C  700   2.494   3.643   2.538
    1C        C  701   2.505   3.435   2.663
    1C        C  702   2.498   3.507   2.784
    1C        C  703   2.527   3.297   2.907
    1C        C  704   2.504   3.436   2.905
    1C        C  705   2.549   3.234   3.031
    1C        C  706   2.530   3.301   3.154
    1C        C  707   2.597   3.102   3.278
    1C        C  708   2.547   3.234   3.278
    1C        C  709   2.629   3.039   3.400
    1C        C  710   2.606   3.109   3.520
    1C        C  711   2.710   2.928   3.645
    1C        C  712   2.632   3.047   3.644
    1C        C  713   2.753   2.872   3.767
    1C        C  714   2.713   2.930   3.889
    1C        C  715   2.749   2.874   4.014
    1C        C  716   2.445   3.494   2.059
    1C        C  717   2.486   3.627   2.056
    1C        C  718   2.453   3.418   2.181
    1C        C  719   2.476   3.495   2.298
    1C        C  720   2.508   3.286   2.422
    1C        C  721   2.489   3.426   2.421
    1C        C  722   2.536   3.220   2.544
    1C        C  723   2.525   3.295   2.663
    1C        C  724   2.590   3.093   2.789
    1C        C  725   2.541   3.226   2.786
    1C        C  726   2.620   3.031   2.911
    1C        C  727   2.593   3.099   3.032
    1C        C  728   2.701   2.918   3.152
    1C        C  729   2.627   3.039   3.155
    1C        C  730   2.747   2.865   3.275
    1C        C  731   2.712   2.925   3.398
    1C        C  732   2.754   2.873   3.523
    1C        C  733   2.482   3.195   2.070
    1C        C  734   2.481   3.278   2.183
    1C        C  735   2.580   3.082   2.300
    1C        C  736   2.524   3.213   2.302
    1C        C  737   2.616   3.022   2.423
    1C        C  738   2.592   3.091   2.544
    1C        C  739   2.689   2.905   2.664
    1C        C  740   2.618   3.027   2.667
    1C        C  741   2.738   2.853   2.786
    1C        C  742   2.696   2.911   2.908
    1C        C  743   2.745   2.862   3.030
    1C        C  744   2.539   3.069   2.067
    1C        C  745   2.672   2.890   2.185
    1C        C  746   2.601   3.012   2.179
    1C        C  747   2.722   2.834   2.304
    1C        C  748   2.684   2.898   2.424
    1C        C  749   2.731   2.842   2.545
    1C        C  750   2.721   2.834   2.066
    1C        C  751   3.644   2.313   1.970
    1C        O  752   3.575   2.208   1.981
    1C        O  753   3.666   2.338   1.835
    1C        C  754   4.606   3.048   1.955
    1C        O  755   4.569   3.041   1.834
    1C        O  756   4.728   2.986   1.983
    1C        C  757   4.432   4.220   1.960
    1C        O  758   4.536   4.285   1.986
    1C        O  759   4.408   4.222   1.822
    1C        C  760   3.568   4.644   1.928
    1C        O  761   3.602   4.765   1.915
    1C        O  762   3.571   4.606   1.793
    1C        C  763   2.862   4.505   1.956
    1C        O  764   2.887   4.504   1.832
    1C        O  765   2.750   4.588   1.970
    1C        C  766   2.346   3.457   1.956
    1C        O  767   2.381   3.422   1.840
    1C        O  768   2.207   3.467   1.975
    1C        C  769   4.687   3.591   5.055
    1C        O  770   4.664   3.555   5.173
    1C        O  771   4.811   3.536   5.020
    1C        C  772   4.260   4.449   5.038
    1C        O  773   4.252   4.425   5.162
    1C        O  774   4.352   4.547   4.998
    1C        C  775   4.129   2.516   5.073
    1C        O  776   4.161   2.395   5.076
    1C        O  777   4.160   2.585   5.191
    1C        C  778   2.883   4.534   5.054
    1C        O  779   2.799   4.621   5.017
    1C        O  780   2.935   4.530   5.184
    1C        C  781   2.485   3.035   5.087
    1C        O  782   2.392   2.953   5.066
    1C        O  783   2.525   3.055   5.218
    1C        C  784   2.419   3.973   5.052
    1C        O  785   2.299   3.986   5.015
    1C        O  786   2.444   3.955   5.189
    1C        C  787   2.947   2.453   1.976
    1C        O  788   2.977   2.463   1.855
    1C        O  789   2.853   2.357   2.013
    1C        C  790   3.159   2.353   5.044
    1C        O  791   3.148   2.241   4.988
    1C        O  792   3.169   2.349   5.184
    1C        H  793   4.242   3.039   5.033
    1C        H  794   4.194   2.795   5.072
    1C        H  795   4.512   3.122   5.048
    1C        H  796   4.517   3.367   5.067
    1C        H  797   4.602   3.816   5.021
    1C        H  798   4.457   4.000   5.041
    1C        H  799   4.259   4.151   5.045
    1C        H  800   4.037   4.563   5.006
    1C        H  801   3.818   4.610   5.025
    1C        H  802   3.582   4.634   5.029
    1C        H  803   3.394   4.450   5.026
    1C        H  804   3.165   4.446   5.046
    1C        H  805   3.886   2.467   5.060
    1C        H  806   3.674   2.429   5.066
    1C        H  807   2.985   2.545   5.055
    1C        H  808   3.437   2.500   5.066
    1C        H  809   2.911   2.786   5.062
    1C        H  810   2.730   2.923   5.070
    1C        H  811   2.502   3.297   5.067
    1C        H  812   2.495   3.504   5.066
    1C        H  813   2.484   3.731   5.060
    1C        H  814   2.566   4.190   5.029
    1C        H  815   2.732   4.338   5.041
    1C        H  816   2.652   2.823   1.985
    1C        H  817   2.889   2.733   1.989
    1C        H  818   3.181   2.376   2.019
    1C        H  819   3.423   2.446   1.976
    1C        H  820   3.862   2.491   1.974
    1C        H  821   4.071   2.583   1.971
    1C        H  822   4.213   2.749   1.963
    1C        H  823   4.426   2.866   1.979
    1C        H  824   4.597   3.306   1.973
    1C        H  825   4.471   3.499   1.969
    1C        H  826   4.537   3.744   1.962
    1C        H  827   3.799   4.504   1.945
    1C        H  828   3.950   4.360   1.943
    1C        H  829   4.116   4.193   1.969
    1C        H  830   4.512   3.968   1.969
    1C        H  831   2.628   3.835   1.963
    1C        H  832   2.677   4.064   1.951
    1C        H  833   2.707   4.295   1.972
    1C        H  834   3.384   4.399   1.975
    1C        H  835   3.141   4.430   1.942
    1C        H  836   2.537   3.017   1.974
    1C        H  837   2.422   3.219   1.984
    1C        H  838   2.458   3.682   1.968
    2V3OU   H29  839   2.801   3.542   1.078
    2V3OU   C27  840   2.778   3.502   1.180
    2V3OU   H27  841   2.725   3.565   1.256
    2V3OU   H28  842   2.724   3.404   1.183
    2V3OU   O11  843   2.902   3.464   1.240
    2V3OU   C15  844   2.916   3.395   1.359
    2V3OU   C13  845   3.046   3.372   1.406
    2V3OU   C14  846   3.071   3.266   1.494
    2V3OU   C16  847   2.970   3.180   1.536
    2V3OU    H6  848   2.990   3.101   1.610
    2V3OU   C12  849   3.211   3.223   1.517
    2V3OU    O2  850   3.235   3.118   1.581
    2V3OU   C10  851   3.323   3.304   1.468
    2V3OU    C8  852   3.456   3.270   1.489
    2V3OU   O10  853   3.488   3.153   1.552
    2V3OU   H26  854   3.402   3.111   1.563
    2V3OU    C6  855   3.565   3.351   1.446
    2V3OU    C5  856   3.533   3.466   1.375
    2V3OU    C4  857   3.702   3.293   1.440
    2V3OU    H4  858   3.723   3.227   1.530
    2V3OU    H5  859   3.703   3.229   1.347
    2V3OU    C2  860   3.817   3.394   1.440
    2V3OU    O6  861   3.803   3.472   1.559
    2V3OU   H21  862   3.767   3.556   1.527
    2V3OU    C3  863   3.777   3.487   1.325
    2V3OU    H2  864   3.857   3.565   1.314
    2V3OU    H3  865   3.779   3.430   1.228
    2V3OU   C25  866   3.953   3.327   1.421
    2V3OU    O7  867   4.002   3.293   1.313
    2V3OU   C26  868   4.025   3.288   1.549
    2V3OU   H22  869   4.060   3.382   1.598
    2V3OU   H23  870   4.111   3.220   1.526
    2V3OU    O8  871   3.954   3.206   1.639
    2V3OU   H24  872   3.919   3.259   1.713
    2V3OU    C1  873   3.645   3.560   1.339
    2V3OU    H1  874   3.622   3.614   1.243
    2V3OU    O3  875   3.651   3.651   1.450
    2V3OU   C19  876   3.615   3.789   1.440
    2V3OU    H9  877   3.520   3.799   1.380
    2V3OU    O4  878   3.705   3.845   1.347
    2V3OU   C20  879   3.836   3.873   1.397
    2V3OU   H10  880   3.881   3.771   1.413
    2V3OU   C24  881   3.606   3.851   1.579
    2V3OU   H16  882   3.539   3.792   1.648
    2V3OU   H17  883   3.566   3.955   1.578
    2V3OU   C23  884   3.748   3.872   1.632
    2V3OU   H15  885   3.793   3.768   1.645
    2V3OU    N1  886   3.736   3.956   1.750
    2V3OU   H19  887   3.802   3.920   1.815
    2V3OU   H20  888   3.647   3.934   1.789
    2V3OU   C21  889   3.841   3.946   1.531
    2V3OU   H11  890   3.947   3.922   1.563
    2V3OU    O5  891   3.825   4.087   1.533
    2V3OU   H18  892   3.778   4.099   1.617
    2V3OU   C22  893   3.910   3.948   1.287
    2V3OU   H12  894   3.854   4.040   1.257
    2V3OU   H13  895   3.901   3.890   1.191
    2V3OU   H14  896   4.019   3.954   1.314
    2V3OU   C11  897   3.156   3.466   1.381
    2V3OU    O1  898   3.130   3.578   1.331
    2V3OU    C9  899   3.297   3.422   1.394
    2V3OU    C7  900   3.398   3.504   1.344
    2V3OU    O9  901   3.376   3.614   1.264
    2V3OU   H25  902   3.280   3.630   1.262
    2V3OU   C17  903   2.815   3.311   1.411
    2V3OU    H7  904   2.710   3.335   1.393
    2V3OU   C18  905   2.839   3.205   1.498
    2V3OU    H8  906   2.750   3.155   1.538
    3SOL     OW  907   0.661   3.230   0.791
    3SOL    HW1  908   0.747   3.256   0.834
    3SOL    HW2  909   0.677   3.153   0.729
    4SOL     OW  910   5.944   0.698   1.904
    4SOL    HW1  911   5.955   0.667   1.999
    4SOL    HW2  912   5.892   0.784   1.903
    5SOL     OW  913   3.451   3.229   1.091
    5SOL    HW1  914   3.547   3.249   1.068
    5SOL    HW2  915   3.448   3.156   1.159
    6SOL     OW  916   2.727   2.380   0.954
    6SOL    HW1  917   2.693   2.474   0.957
    6SOL    HW2  918   2.679   2.329   0.882
    7SOL     OW  919   6.163   0.660   1.749
    7SOL    HW1  920   6.083   0.691   1.800
    7SOL    HW2  921   6.209   0.587   1.799
    8SOL     OW  922   2.830   1.593   3.998
    8SOL    HW1  923   2.877   1.570   4.084
    8SOL    HW2  924   2.758   1.659   4.017
    9SOL     OW  925   0.930   3.768   5.878
    9SOL    HW1  926   0.993   3.731   5.810
    9SOL    HW2  927   0.873   3.839   5.837
   10SOL     OW  928   0.392   4.130   0.197
   10SOL    HW1  929   0.467   4.085   0.149
   10SOL    HW2  930   0.386   4.095   0.291
   11SOL     OW  931   3.730   6.637   6.828
   11SOL    HW1  932   3.641   6.593   6.832
   11SOL    HW2  933   3.784   6.597   6.754
   12SOL     OW  934   5.664   6.084   2.491
   12SOL    HW1  935   5.593   6.098   2.421
   12SOL    HW2  936   5.753   6.078   2.446
   13SOL     OW  937   2.013   6.991   3.294
   13SOL    HW1  938   2.034   0.067   3.327
   13SOL    HW2  939   1.914   6.976   3.299
   14SOL     OW  940   2.818   6.753   2.140
   14SOL    HW1  941   2.843   6.679   2.203
   14SOL    HW2  942   2.735   6.798   2.174
   15SOL     OW  943   1.765   6.528   6.189
   15SOL    HW1  944   1.800   6.516   6.282
   15SOL    HW2  945   1.804   6.611   6.148
   16SOL     OW  946   6.563   1.490   6.171
   16SOL    HW1  947   6.543   1.580   6.211
   16SOL    HW2  948   6.629   1.501   6.097
   17SOL     OW  949   4.946   5.861   3.686
   17SOL    HW1  950   4.973   5.827   3.776
   17SOL    HW2  951   4.857   5.906   3.693
   18SOL     OW  952   1.796   1.288   6.934
   18SOL    HW1  953   1.796   1.386   6.954
   18SOL    HW2  954   1.864   1.269   6.863
   19SOL     OW  955   0.545   6.960   1.549
   19SOL    HW1  956   0.450   6.982   1.570
   19SOL    HW2  957   0.578   0.007   1.477
   20SOL     OW  958   3.184   1.289   4.418
   20SOL    HW1  959   3.158   1.247   4.330
   20SOL    HW2  960   3.112   1.352   4.447
   21SOL     OW  961   3.272   2.542   0.976
   21SOL    HW1  962   3.176   2.530   1.003
   21SOL    HW2  963   3.319   2.454   0.979
   22SOL     OW  964   0.914   0.984   5.368
   22SOL    HW1  965   0.974   1.051   5.324
   22SOL    HW2  966   0.920   0.897   5.319
   23SOL     OW  967   4.107   6.110   4.209
   23SOL    HW1  968   4.153   6.076   4.127
   23SOL    HW2  969   4.024   6.159   4.183
   24SOL     OW  970   4.021   1.599   4.642
   24SOL    HW1  971   4.110   1.622   4.603
   24SOL    HW2  972   3.961   1.679   4.638
   25SOL     OW  973   2.969   4.663   1.312
   25SOL    HW1  974   2.896   4.640   1.247
   25SOL    HW2  975   2.940   4.741   1.368
   26SOL     OW  976   6.097   1.416   2.635
   26SOL    HW1  977   6.033   1.469   2.580
   26SOL    HW2  978   6.056   1.329   2.661
   27SOL     OW  979   6.152   6.050   2.052
   27SOL    HW1  980   6.178   5.969   2.105
   27SOL    HW2  981   6.162   6.030   1.954
   28SOL     OW  982   3.193   0.715   0.664
   28SOL    HW1  983   3.144   0.802   0.668
   28SOL    HW2  984   3.241   0.708   0.576
   29SOL     OW  985   4.371   2.239   1.552
   29SOL    HW1  986   4.357   2.237   1.651
   29SOL    HW2  987   4.351   2.330   1.517
   30SOL     OW  988   3.910   1.037   4.885
   30SOL    HW1  989   3.909   1.136   4.871
   30SOL    HW2  990   3.995   0.999   4.850
   31SOL     OW  991   0.469   0.750   5.005
   31SOL    HW1  992   0.484   0.718   5.098
   31SOL    HW2  993   0.380   0.719   4.972
   32SOL     OW  994   0.315   2.125   1.492
   32SOL    HW1  995   0.272   2.146   1.580
   32SOL    HW2  996   0.244   2.117   1.422
   33SOL     OW  997   1.336   1.924   5.149
   33SOL    HW1  998   1.362   1.828   5.138
   33SOL    HW2  999   1.354   1.974   5.064
   34SOL     OW 1000   1.181   0.647   4.729
   34SOL    HW1 1001   1.217   0.567   4.680
   34SOL    HW2 1002   1.090   0.669   4.694
   35SOL     OW 1003   4.186   1.642   6.687
   35SOL    HW1 1004   4.219   1.734   6.667
   35SOL    HW2 1005   4.246   1.575   6.643
   36SOL     OW 1006   1.853   1.215   5.729
   36SOL    HW1 1007   1.762   1.238   5.762
   36SOL    HW2 1008   1.875   1.272   5.650
   37SOL     OW 1009   2.574   6.630   0.941
   37SOL    HW1 1010   2.586   6.550   0.881
   37SOL    HW2 1011   2.501   6.612   1.007
   38SOL     OW 1012   0.364   6.249   2.376
   38SOL    HW1 1013   0.277   6.296   2.369
   38SOL    HW2 1014   0.438   6.311   2.348
   39SOL     OW 1015   6.639   3.211   5.969
   39SOL    HW1 1016   6.591   3.129   5.937
   39SOL    HW2 1017   6.672   3.263   5.890
   40SOL     OW 1018   6.605   0.878   1.669
   40SOL    HW1 1019   6.584   0.814   1.743
   40SOL    HW2 1020   6.698   0.862   1.636
   41SOL     OW 1021   1.467   0.129   5.223
   41SOL    HW1 1022   1.452   0.040   5.267
   41SOL    HW2 1023   1.400   0.195   5.257
   42SOL     OW 1024   3.591   0.905   0.752
   42SOL    HW1 1025   3.613   0.902   0.850
   42SOL    HW2 1026   3.675   0.905   0.698
   43SOL     OW 1027   5.190   5.492   5.367
   43SOL    HW1 1028   5.260   5.433   5.328
   43SOL    HW2 1029   5.233   5.563   5.423
   44SOL     OW 1030   0.677   3.537   6.549
   44SOL    HW1 1031   0.700   3.548   6.452
   44SOL    HW2 1032   0.626   3.453   6.563
   45SOL     OW 1033   2.844   0.552   1.642
   45SOL    HW1 1034   2.802   0.462   1.647
   45SOL    HW2 1035   2.773   0.622   1.635
   46SOL     OW 1036   1.139   4.449   3.681
   46SOL    HW1 1037   1.141   4.522   3.749
   46SOL    HW2 1038   1.164   4.486   3.592
   47SOL     OW 1039   6.145   4.438   3.003
   47SOL    HW1 1040   6.137   4.401   3.096
   47SOL    HW2 1041   6.130   4.364   2.937
   48SOL     OW 1042   0.929   1.882   5.426
   48SOL    HW1 1043   0.990   1.803   5.420
   48SOL    HW2 1044   0.895   1.904   5.335
   49SOL     OW 1045   5.488   2.306   0.756
   49SOL    HW1 1046   5.522   2.369   0.827
   49SOL    HW2 1047   5.401   2.341   0.721
   50SOL     OW 1048   6.811   3.831   4.774
   50SOL    HW1 1049   6.752   3.910   4.755
   50SOL    HW2 1050   6.832   3.785   4.688
   51SOL     OW 1051   3.136   5.559   2.683
   51SOL    HW1 1052   3.059   5.496   2.691
   51SOL    HW2 1053   3.132   5.606   2.595
   52SOL     OW 1054   1.087   2.223   1.503
   52SOL    HW1 1055   1.076   2.125   1.516
   52SOL    HW2 1056   1.182   2.250   1.521
   53SOL     OW 1057   5.002   6.581   3.863
   53SOL    HW1 1058   4.932   6.545   3.925
   53SOL    HW2 1059   5.088   6.593   3.913
   54SOL     OW 1060   4.234   5.698   6.062
   54SOL    HW1 1061   4.285   5.781   6.086
   54SOL    HW2 1062   4.228   5.690   5.963
   55SOL     OW 1063   3.875   2.502   0.222
   55SOL    HW1 1064   3.824   2.470   0.301
   55SOL    HW2 1065   3.926   2.584   0.247
   56SOL     OW 1066   0.586   6.947   1.857
   56SOL    HW1 1067   0.638   6.872   1.897
   56SOL    HW2 1068   0.567   6.928   1.761
   57SOL     OW 1069   5.620   0.695   0.619
   57SOL    HW1 1070   5.576   0.678   0.707
   57SOL    HW2 1071   5.715   0.664   0.623
   58SOL     OW 1072   6.978   6.403   7.006
   58SOL    HW1 1073   6.905   6.465   6.977
   58SOL    HW2 1074   0.036   6.406   6.939
   59SOL     OW 1075   1.102   0.028   4.640
   59SOL    HW1 1076   1.117   0.023   4.739
   59SOL    HW2 1077   1.006   0.050   4.622
   60SOL     OW 1078   4.819   6.630   4.990
   60SOL    HW1 1079   4.804   6.722   5.027
   60SOL    HW2 1080   4.910   6.624   4.949
   61SOL     OW 1081   3.878   0.210   4.962
   61SOL    HW1 1082   3.799   0.181   5.017
   61SOL    HW2 1083   3.847   0.233   4.870
   62SOL     OW 1084   2.793   1.437   4.605
   62SOL    HW1 1085   2.750   1.496   4.536
   62SOL    HW2 1086   2.805   1.489   4.690
   63SOL     OW 1087   6.530   3.584   3.228
   63SOL    HW1 1088   6.525   3.672   3.276
   63SOL    HW2 1089   6.438   3.554   3.204
   64SOL     OW 1090   6.850   2.441   5.671
   64SOL    HW1 1091   6.902   2.433   5.586
   64SOL    HW2 1092   6.755   2.411   5.655
   65SOL     OW 1093   6.977   4.275   5.972
   65SOL    HW1 1094   0.050   4.230   5.963
   65SOL    HW2 1095   6.957   4.290   6.068
   66SOL     OW 1096   2.926   1.274   0.916
   66SOL    HW1 1097   2.962   1.297   1.006
   66SOL    HW2 1098   2.955   1.344   0.850
   67SOL     OW 1099   5.028   5.944   4.200
   67SOL    HW1 1100   5.092   5.868   4.195
   67SOL    HW2 1101   5.052   6.002   4.278
   68SOL     OW 1102   5.403   2.678   6.080
   68SOL    HW1 1103   5.361   2.587   6.082
   68SOL    HW2 1104   5.496   2.673   6.117
   69SOL     OW 1105   2.347   3.263   5.937
   69SOL    HW1 1106   2.412   3.276   6.013
   69SOL    HW2 1107   2.397   3.234   5.855
   70SOL     OW 1108   6.876   4.974   2.002
   70SOL    HW1 1109   6.969   4.988   2.037
   70SOL    HW2 1110   6.868   5.016   1.911
   71SOL     OW 1111   1.833   2.497   2.958
   71SOL    HW1 1112   1.835   2.597   2.964
   71SOL    HW2 1113   1.739   2.465   2.968
   72SOL     OW 1114   2.965   5.707   4.277
   72SOL    HW1 1115   2.961   5.633   4.344
   72SOL    HW2 1116   2.934   5.674   4.188
   73SOL     OW 1117   4.449   2.597   6.906
   73SOL    HW1 1118   4.512   2.570   6.979
   73SOL    HW2 1119   4.356   2.602   6.943
   74SOL     OW 1120   4.994   5.768   6.042
   74SOL    HW1 1121   5.026   5.677   6.016
   74SOL    HW2 1122   4.942   5.762   6.127
   75SOL     OW 1123   3.816   5.097   5.445
   75SOL    HW1 1124   3.903   5.097   5.495
   75SOL    HW2 1125   3.808   5.012   5.393
   76SOL     OW 1126   2.153   2.725   1.080
   76SOL    HW1 1127   2.170   2.799   1.015
   76SOL    HW2 1128   2.070   2.743   1.132
   77SOL     OW 1129   5.665   4.857   6.295
   77SOL    HW1 1130   5.635   4.801   6.372
   77SOL    HW2 1131   5.641   4.953   6.312
   78SOL     OW 1132   6.209   6.673   6.198
   78SOL    HW1 1133   6.138   6.740   6.217
   78SOL    HW2 1134   6.191   6.590   6.249
   79SOL     OW 1135   3.148   0.443   6.912
   79SOL    HW1 1136   3.233   0.429   6.962
   79SOL    HW2 1137   3.166   0.442   6.813
   80SOL     OW 1138   0.357   1.439   4.336
   80SOL    HW1 1139   0.337   1.349   4.299
   80SOL    HW2 1140   0.418   1.430   4.415
   81SOL     OW 1141   1.235   0.247   3.925
   81SOL    HW1 1142   1.154   0.217   3.976
   81SOL    HW2 1143   1.271   0.170   3.872
   82SOL     OW 1144   0.102   4.597   5.452
   82SOL    HW1 1145   0.146   4.596   5.542
   82SOL    HW2 1146   0.079   4.691   5.427
   83SOL     OW 1147   6.856   6.764   0.084
   83SOL    HW1 1148   6.943   6.801   0.052
   83SOL    HW2 1149   6.820   6.699   0.017
   84SOL     OW 1150   6.064   3.728   1.715
   84SOL    HW1 1151   5.979   3.767   1.679
   84SOL    HW2 1152   6.117   3.690   1.639
   85SOL     OW 1153   0.308   2.613   5.643
   85SOL    HW1 1154   0.336   2.672   5.567
   85SOL    HW2 1155   0.307   2.518   5.612
   86SOL     OW 1156   1.044   1.100   4.972
   86SOL    HW1 1157   1.038   1.104   5.072
   86SOL    HW2 1158   0.958   1.133   4.933
   87SOL     OW 1159   4.138   0.593   1.913
   87SOL    HW1 1160   4.073   0.521   1.888
   87SOL    HW2 1161   4.162   0.646   1.832
   88SOL     OW 1162   5.109   0.338   0.792
   88SOL    HW1 1163   5.143   0.253   0.750
   88SOL    HW2 1164   5.053   0.316   0.872
   89SOL     OW 1165   2.071   2.209   5.832
   89SOL    HW1 1166   2.129   2.193   5.912
   89SOL    HW2 1167   2.127   2.247   5.758
   90SOL     OW 1168   6.417   6.113   3.448
   90SOL    HW1 1169   6.495   6.053   3.429
   90SOL    HW2 1170   6.445   6.187   3.510
   91SOL     OW 1171   4.810   4.888   4.910
   91SOL    HW1 1172   4.783   4.885   4.813
   91SOL    HW2 1173   4.856   4.803   4.935
   92SOL     OW 1174   2.968   6.406   1.215
   92SOL    HW1 1175   2.893   6.386   1.152
   92SOL    HW2 1176   3.039   6.459   1.168
   93SOL     OW 1177   3.342   5.373   5.862
   93SOL    HW1 1178   3.302   5.281   5.861
   93SOL    HW2 1179   3.406   5.382   5.785
   94SOL     OW 1180   2.171   5.940   0.510
   94SOL    HW1 1181   2.220   5.938   0.597
   94SOL    HW2 1182   2.182   5.852   0.464
   95SOL     OW 1183   6.369   0.353   4.863
   95SOL    HW1 1184   6.290   0.394   4.818
   95SOL    HW2 1185   6.383   0.395   4.952
   96SOL     OW 1186   1.530   0.147   4.957
   96SOL    HW1 1187   1.508   0.067   4.901
   96SOL    HW2 1188   1.470   0.148   5.037
   97SOL     OW 1189   6.061   3.173   5.443
   97SOL    HW1 1190   5.997   3.140   5.512
   97SOL    HW2 1191   6.017   3.246   5.390
   98SOL     OW 1192   5.677   2.636   6.236
   98SOL    HW1 1193   5.774   2.619   6.218
   98SOL    HW2 1194   5.668   2.713   6.300
   99SOL     OW 1195   4.485   2.282   1.170
   99SOL    HW1 1196   4.509   2.203   1.226
   99SOL    HW2 1197   4.405   2.260   1.114
  100SOL     OW 1198   6.155   5.156   6.431
  100SOL    HW1 1199   6.216   5.154   6.352
  100SOL    HW2 1200   6.203   5.121   6.511
  101SOL     OW 1201   0.813   6.351   3.683
  101SOL    HW1 1202   0.849   6.444   3.672
  101SOL    HW2 1203   0.890   6.288   3.696
  102SOL     OW 1204   5.089   0.109   3.361
  102SOL    HW1 1205   4.999   0.143   3.333
  102SOL    HW2 1206   5.117   0.036   3.299
  103SOL     OW 1207   3.771   1.916   1.720
  103SOL    HW1 1208   3.707   1.956   1.654
  103SOL    HW2 1209   3.859   1.963   1.715
  104SOL     OW 1210   0.044   5.883   1.872
  104SOL    HW1 1211   7.010   5.901   1.958
  104SOL    HW2 1212   0.142   5.895   1.886
  105SOL     OW 1213   4.964   1.220   5.236
  105SOL    HW1 1214   4.920   1.304   5.207
  105SOL    HW2 1215   4.945   1.204   5.333
  106SOL     OW 1216   3.209   6.126   0.133
  106SOL    HW1 1217   3.143   6.102   0.205
  106SOL    HW2 1218   3.301   6.098   0.162
  107SOL     OW 1219   2.226   3.428   1.290
  107SOL    HW1 1220   2.271   3.358   1.345
  107SOL    HW2 1221   2.237   3.517   1.334
  108SOL     OW 1222   4.986   4.500   5.643
  108SOL    HW1 1223   4.966   4.446   5.725
  108SOL    HW2 1224   5.018   4.439   5.570
  109SOL     OW 1225   6.406   1.049   1.158
  109SOL    HW1 1226   6.349   1.103   1.221
  109SOL    HW2 1227   6.493   1.095   1.144
  110SOL     OW 1228   3.831   5.723   5.442
  110SOL    HW1 1229   3.738   5.759   5.444
  110SOL    HW2 1230   3.832   5.638   5.389
  111SOL     OW 1231   3.752   1.008   3.086
  111SOL    HW1 1232   3.674   0.951   3.060
  111SOL    HW2 1233   3.719   1.093   3.126
  112SOL     OW 1234   0.128   0.562   5.842
  112SOL    HW1 1235   0.198   0.613   5.793
  112SOL    HW2 1236   0.128   0.466   5.811
  113SOL     OW 1237   0.239   5.575   3.772
  113SOL    HW1 1238   0.314   5.637   3.794
  113SOL    HW2 1239   0.262   5.521   3.691
  114SOL     OW 1240   0.498   6.718   6.885
  114SOL    HW1 1241   0.535   6.712   6.977
  114SOL    HW2 1242   0.566   6.757   6.823
  115SOL     OW 1243   5.120   1.081   5.049
  115SOL    HW1 1244   5.065   1.139   5.108
  115SOL    HW2 1245   5.207   1.060   5.095
  116SOL     OW 1246   6.347   4.485   2.441
  116SOL    HW1 1247   6.436   4.479   2.487
  116SOL    HW2 1248   6.347   4.563   2.379
  117SOL     OW 1249   1.163   6.886   6.406
  117SOL    HW1 1250   1.136   6.790   6.420
  117SOL    HW2 1251   1.243   6.906   6.462
  118SOL     OW 1252   1.399   0.478   2.143
  118SOL    HW1 1253   1.344   0.397   2.164
  118SOL    HW2 1254   1.348   0.538   2.082
  119SOL     OW 1255   6.585   2.651   6.573
  119SOL    HW1 1256   6.505   2.681   6.626
  119SOL    HW2 1257   6.667   2.698   6.607
  120SOL     OW 1258   5.619   6.483   1.175
  120SOL    HW1 1259   5.549   6.452   1.111
  120SOL    HW2 1260   5.667   6.562   1.137
  121SOL     OW 1261   2.826   3.438   5.891
  121SOL    HW1 1262   2.891   3.513   5.882
  121SOL    HW2 1263   2.752   3.466   5.952
  122SOL     OW 1264   0.498   3.340   4.542
  122SOL    HW1 1265   0.400   3.322   4.535
  122SOL    HW2 1266   0.513   3.423   4.595
  123SOL     OW 1267   1.061   1.926   1.521
  123SOL    HW1 1268   1.009   1.920   1.436
  123SOL    HW2 1269   1.025   1.861   1.587
  124SOL     OW 1270   4.996   2.809   0.890
  124SOL    HW1 1271   4.999   2.898   0.844
  124SOL    HW2 1272   5.042   2.816   0.978
  125SOL     OW 1273   2.098   3.531   1.646
  125SOL    HW1 1274   2.125   3.605   1.708
  125SOL    HW2 1275   2.126   3.444   1.685
  126SOL     OW 1276   3.228   4.394   1.644
  126SOL    HW1 1277   3.288   4.316   1.661
  126SOL    HW2 1278   3.282   4.477   1.630
  127SOL     OW 1279   0.653   5.900   6.039
  127SOL    HW1 1280   0.616   5.836   5.971
  127SOL    HW2 1281   0.578   5.941   6.090
  128SOL     OW 1282   4.656   2.438   1.666
  128SOL    HW1 1283   4.699   2.461   1.753
  128SOL    HW2 1284   4.557   2.430   1.678
  129SOL     OW 1285   2.757   3.834   6.571
  129SOL    HW1 1286   2.721   3.763   6.633
  129SOL    HW2 1287   2.835   3.798   6.521
  130SOL     OW 1288   1.626   2.009   4.624
  130SOL    HW1 1289   1.593   2.042   4.535
  130SOL    HW2 1290   1.711   2.057   4.648
  131SOL     OW 1291   5.158   1.764   2.639
  131SOL    HW1 1292   5.128   1.755   2.544
  131SOL    HW2 1293   5.247   1.720   2.650
  132SOL     OW 1294   0.379   2.493   0.715
  132SOL    HW1 1295   0.280   2.483   0.725
  132SOL    HW2 1296   0.409   2.575   0.764
  133SOL     OW 1297   6.277   5.134   2.108
  133SOL    HW1 1298   6.191   5.176   2.082
  133SOL    HW2 1299   6.260   5.061   2.174
  134SOL     OW 1300   0.465   3.519   2.867
  134SOL    HW1 1301   0.410   3.589   2.820
  134SOL    HW2 1302   0.431   3.507   2.960
  135SOL     OW 1303   4.824   1.616   4.245
  135SOL    HW1 1304   4.908   1.598   4.192
  135SOL    HW2 1305   4.765   1.536   4.242
  136SOL     OW 1306   5.650   4.781   5.433
  136SOL    HW1 1307   5.650   4.714   5.359
  136SOL    HW2 1308   5.557   4.817   5.444
  137SOL     OW 1309   4.054   0.240   5.847
  137SOL    HW1 1310   3.986   0.294   5.897
  137SOL    HW2 1311   4.073   0.284   5.759
  138SOL     OW 1312   6.876   4.984   4.832
  138SOL    HW1 1313   6.918   4.973   4.742
  138SOL    HW2 1314   6.824   4.901   4.854
  139SOL     OW 1315   3.799   5.464   5.361
  139SOL    HW1 1316   3.854   5.405   5.301
  139SOL    HW2 1317   3.823   5.447   5.456
  140SOL     OW 1318   5.974   3.856   4.708
  140SOL    HW1 1319   6.003   3.869   4.803
  140SOL    HW2 1320   5.946   3.944   4.669
  141SOL     OW 1321   1.092   1.825   3.642
  141SOL    HW1 1322   1.177   1.873   3.620
  141SOL    HW2 1323   1.112   1.745   3.698
  142SOL     OW 1324   1.535   5.497   1.258
  142SOL    HW1 1325   1.479   5.579   1.264
  142SOL    HW2 1326   1.604   5.498   1.330
  143SOL     OW 1327   5.664   3.976   1.877
  143SOL    HW1 1328   5.602   4.001   1.803
  143SOL    HW2 1329   5.618   3.913   1.940
  144SOL     OW 1330   2.897   6.680   0.527
  144SOL    HW1 1331   2.952   6.666   0.445
  144SOL    HW2 1332   2.824   6.612   0.532
  145SOL     OW 1333   6.845   5.772   0.640
  145SOL    HW1 1334   6.765   5.819   0.606
  145SOL    HW2 1335   6.928   5.811   0.598
  146SOL     OW 1336   6.183   4.869   0.613
  146SOL    HW1 1337   6.105   4.931   0.615
  146SOL    HW2 1338   6.157   4.781   0.653
  147SOL     OW 1339   6.090   2.254   0.940
  147SOL    HW1 1340   6.110   2.156   0.943
  147SOL    HW2 1341   6.081   2.289   1.034
  148SOL     OW 1342   1.320   5.116   5.814
  148SOL    HW1 1343   1.339   5.148   5.721
  148SOL    HW2 1344   1.298   5.018   5.811
  149SOL     OW 1345   3.051   1.120   5.859
  149SOL    HW1 1346   3.073   1.156   5.950
  149SOL    HW2 1347   3.121   1.055   5.831
  150SOL     OW 1348   0.157   5.598   6.201
  150SOL    HW1 1349   0.085   5.548   6.249
  150SOL    HW2 1350   0.243   5.548   6.208
  151SOL     OW 1351   4.265   1.550   1.477
  151SOL    HW1 1352   4.327   1.551   1.556
  151SOL    HW2 1353   4.178   1.592   1.503
  152SOL     OW 1354   3.667   1.014   4.359
  152SOL    HW1 1355   3.654   1.106   4.323
  152SOL    HW2 1356   3.582   0.984   4.404
  153SOL     OW 1357   1.866   0.703   3.123
  153SOL    HW1 1358   1.937   0.725   3.190
  153SOL    HW2 1359   1.776   0.711   3.166
  154SOL     OW 1360   6.753   2.054   2.742
  154SOL    HW1 1361   6.822   2.009   2.684
  154SOL    HW2 1362   6.787   2.062   2.835
  155SOL     OW 1363   0.472   0.807   3.151
  155SOL    HW1 1364   0.525   0.844   3.227
  155SOL    HW2 1365   0.417   0.730   3.183
  156SOL     OW 1366   6.531   2.280   0.837
  156SOL    HW1 1367   6.552   2.351   0.904
  156SOL    HW2 1368   6.498   2.199   0.884
  157SOL     OW 1369   5.529   3.739   2.547
  157SOL    HW1 1370   5.437   3.777   2.543
  157SOL    HW2 1371   5.592   3.801   2.500
  158SOL     OW 1372   1.434   1.524   3.547
  158SOL    HW1 1373   1.433   1.488   3.640
  158SOL    HW2 1374   1.383   1.463   3.487
  159SOL     OW 1375   5.038   4.046   2.010
  159SOL    HW1 1376   5.112   4.112   2.022
  159SOL    HW2 1377   4.950   4.093   2.021
  160SOL     OW 1378   6.704   4.226   5.816
  160SOL    HW1 1379   6.728   4.173   5.735
  160SOL    HW2 1380   6.786   4.242   5.871
  161SOL     OW 1381   3.098   4.961   5.208
  161SOL    HW1 1382   3.019   4.987   5.263
  161SOL    HW2 1383   3.170   5.031   5.218
  162SOL     OW 1384   4.296   6.166   1.576
  162SOL    HW1 1385   4.288   6.138   1.672
  162SOL    HW2 1386   4.333   6.259   1.571
  163SOL     OW 1387   4.875   0.830   2.318
  163SOL    HW1 1388   4.904   0.871   2.404
  163SOL    HW2 1389   4.804   0.761   2.335
  164SOL     OW 1390   6.172   3.148   1.245
  164SOL    HW1 1391   6.255   3.202   1.232
  164SOL    HW2 1392   6.104   3.173   1.176
  165SOL     OW 1393   5.168   4.175   6.969
  165SOL    HW1 1394   5.153   4.081   6.998
  165SOL    HW2 1395   5.185   4.232   0.034
  166SOL     OW 1396   1.224   0.843   1.627
  166SOL    HW1 1397   1.144   0.890   1.664
  166SOL    HW2 1398   1.267   0.789   1.698
  167SOL     OW 1399   6.738   3.162   0.350
  167SOL    HW1 1400   6.754   3.185   0.254
  167SOL    HW2 1401   6.640   3.167   0.369
  168SOL     OW 1402   2.125   5.558   1.053
  168SOL    HW1 1403   2.126   5.578   0.955
  168SOL    HW2 1404   2.073   5.629   1.101
  169SOL     OW 1405   1.089   0.097   1.410
  169SOL    HW1 1406   1.064   0.010   1.453
  169SOL    HW2 1407   1.047   0.173   1.460
  170SOL     OW 1408   0.156   1.699   3.383
  170SOL    HW1 1409   0.139   1.606   3.350
  170SOL    HW2 1410   0.069   1.744   3.402
  171SOL     OW 1411   3.446   3.382   6.837
  171SOL    HW1 1412   3.518   3.394   6.769
  171SOL    HW2 1413   3.474   3.313   6.904
  172SOL     OW 1414   0.268   2.772   6.789
  172SOL    HW1 1415   0.186   2.746   6.840
  172SOL    HW2 1416   0.250   2.762   6.691
  173SOL     OW 1417   0.499   6.200   5.525
  173SOL    HW1 1418   0.430   6.241   5.585
  173SOL    HW2 1419   0.527   6.112   5.564
  174SOL     OW 1420   2.878   5.504   3.549
  174SOL    HW1 1421   2.955   5.567   3.541
  174SOL    HW2 1422   2.855   5.469   3.458
  175SOL     OW 1423   1.114   5.709   2.872
  175SOL    HW1 1424   1.086   5.743   2.961
  175SOL    HW2 1425   1.075   5.618   2.857
  176SOL     OW 1426   2.620   5.343   1.157
  176SOL    HW1 1427   2.661   5.385   1.076
  176SOL    HW2 1428   2.535   5.297   1.131
  177SOL     OW 1429   4.793   1.981   2.212
  177SOL    HW1 1430   4.789   1.904   2.274
  177SOL    HW2 1431   4.740   2.057   2.250
  178SOL     OW 1432   5.893   4.570   6.437
  178SOL    HW1 1433   5.878   4.658   6.482
  178SOL    HW2 1434   5.990   4.557   6.420
  179SOL     OW 1435   3.066   0.084   0.989
  179SOL    HW1 1436   3.022   0.026   0.921
  179SOL    HW2 1437   3.018   0.172   0.994
  180SOL     OW 1438   1.051   2.226   6.825
  180SOL    HW1 1439   1.008   2.171   6.754
  180SOL    HW2 1440   1.147   2.243   6.800
  181SOL     OW 1441   3.398   2.778   5.128
  181SOL    HW1 1442   3.439   2.731   5.050
  181SOL    HW2 1443   3.365   2.868   5.099
  182SOL     OW 1444   4.639   2.792   4.955
  182SOL    HW1 1445   4.576   2.836   5.018
  182SOL    HW2 1446   4.588   2.735   4.890
  183SOL     OW 1447   5.392   1.467   1.966
  183SOL    HW1 1448   5.339   1.438   1.886
  183SOL    HW2 1449   5.401   1.390   2.030
  184SOL     OW 1450   0.253   4.680   2.752
  184SOL    HW1 1451   0.153   4.674   2.757
  184SOL    HW2 1452   0.293   4.600   2.799
  185SOL     OW 1453   2.507   3.624   6.323
  185SOL    HW1 1454   2.442   3.674   6.381
  185SOL    HW2 1455   2.465   3.539   6.292
  186SOL     OW 1456   5.870   6.760   3.254
  186SOL    HW1 1457   5.867   6.843   3.309
  186SOL    HW2 1458   5.857   6.680   3.314
  187SOL     OW 1459   5.665   0.987   3.980
  187SOL    HW1 1460   5.761   1.013   3.968
  187SOL    HW2 1461   5.606   1.065   3.958
  188SOL     OW 1462   6.309   2.373   3.541
  188SOL    HW1 1463   6.239   2.423   3.489
  188SOL    HW2 1464   6.316   2.412   3.633
  189SOL     OW 1465   2.310   4.181   2.752
  189SOL    HW1 1466   2.331   4.266   2.801
  189SOL    HW2 1467   2.285   4.204   2.658
  190SOL     OW 1468   3.239   1.080   6.204
  190SOL    HW1 1469   3.260   0.984   6.184
  190SOL    HW2 1470   3.293   1.110   6.282
  191SOL     OW 1471   4.692   5.843   5.772
  191SOL    HW1 1472   4.604   5.870   5.733
  191SOL    HW2 1473   4.711   5.748   5.747
  192SOL     OW 1474   6.988   0.316   1.427
  192SOL    HW1 1475   6.983   0.287   1.332
  192SOL    HW2 1476   6.916   0.383   1.446
  193SOL     OW 1477   5.698   4.335   6.510
  193SOL    HW1 1478   5.757   4.412   6.488
  193SOL    HW2 1479   5.700   4.319   6.609
  194SOL     OW 1480   3.727   0.487   3.935
  194SOL    HW1 1481   3.679   0.407   3.971
  194SOL    HW2 1482   3.824   0.482   3.959
  195SOL     OW 1483   0.193   5.732   3.349
  195SOL    HW1 1484   0.286   5.758   3.325
  195SOL    HW2 1485   0.166   5.776   3.435
  196SOL     OW 1486   0.850   1.272   0.937
  196SOL    HW1 1487   0.869   1.263   1.035
  196SOL    HW2 1488   0.933   1.253   0.885
  197SOL     OW 1489   1.812   1.018   0.763
  197SOL    HW1 1490   1.721   1.014   0.805
  197SOL    HW2 1491   1.879   0.976   0.825
  198SOL     OW 1492   2.894   1.701   3.718
  198SOL    HW1 1493   2.872   1.669   3.810
  198SOL    HW2 1494   2.986   1.740   3.718
  199SOL     OW 1495   0.947   2.130   4.348
  199SOL    HW1 1496   0.928   2.084   4.262
  199SOL    HW2 1497   0.881   2.204   4.362
  200SOL     OW 1498   0.016   2.775   0.235
  200SOL    HW1 1499   0.084   2.849   0.230
  200SOL    HW2 1500   6.950   2.807   0.282
  201SOL     OW 1501   0.720   0.829   6.460
  201SOL    HW1 1502   0.813   0.828   6.422
  201SOL    HW2 1503   0.664   0.892   6.407
  202SOL     OW 1504   4.209   6.678   0.718
  202SOL    HW1 1505   4.124   6.646   0.760
  202SOL    HW2 1506   4.193   6.766   0.673
  203SOL     OW 1507   5.906   3.116   6.624
  203SOL    HW1 1508   5.998   3.078   6.624
  203SOL    HW2 1509   5.871   3.120   6.530
  204SOL     OW 1510   6.223   1.112   5.374
  204SOL    HW1 1511   6.299   1.055   5.341
  204SOL    HW2 1512   6.196   1.083   5.465
  205SOL     OW 1513   1.427   3.253   3.147
  205SOL    HW1 1514   1.350   3.207   3.191
  205SOL    HW2 1515   1.489   3.185   3.108
  206SOL     OW 1516   0.586   3.531   0.225
  206SOL    HW1 1517   0.662   3.502   0.166
  206SOL    HW2 1518   0.599   3.494   0.317
  207SOL     OW 1519   5.975   2.489   4.479
  207SOL    HW1 1520   5.897   2.429   4.460
  207SOL    HW2 1521   5.980   2.560   4.409
  208SOL     OW 1522   1.241   3.923   4.671
  208SOL    HW1 1523   1.298   3.983   4.728
  208SOL    HW2 1524   1.153   3.909   4.714
  209SOL     OW 1525   6.497   4.380   2.801
  209SOL    HW1 1526   6.583   4.370   2.851
  209SOL    HW2 1527   6.436   4.440   2.852
  210SOL     OW 1528   4.576   2.790   0.478
  210SOL    HW1 1529   4.563   2.888   0.495
  210SOL    HW2 1530   4.604   2.776   0.384
  211SOL     OW 1531   0.415   1.351   2.901
  211SOL    HW1 1532   0.398   1.257   2.872
  211SOL    HW2 1533   0.442   1.406   2.822
  212SOL     OW 1534   2.210   3.937   2.288
  212SOL    HW1 1535   2.243   3.967   2.198
  212SOL    HW2 1536   2.111   3.924   2.284
  213SOL     OW 1537   1.006   5.020   1.472
  213SOL    HW1 1538   0.964   5.014   1.562
  213SOL    HW2 1539   1.106   5.014   1.481
  214SOL     OW 1540   5.308   5.765   1.482
  214SOL    HW1 1541   5.221   5.721   1.458
  214SOL    HW2 1542   5.349   5.719   1.561
  215SOL     OW 1543   2.872   5.439   3.292
  215SOL    HW1 1544   2.915   5.350   3.284
  215SOL    HW2 1545   2.884   5.490   3.207
  216SOL     OW 1546   0.997   6.799   2.420
  216SOL    HW1 1547   1.037   6.724   2.367
  216SOL    HW2 1548   0.946   6.859   2.358
  217SOL     OW 1549   1.274   4.575   6.066
  217SOL    HW1 1550   1.260   4.608   5.973
  217SOL    HW2 1551   1.299   4.479   6.064
  218SOL     OW 1552   1.649   1.606   4.880
  218SOL    HW1 1553   1.708   1.544   4.930
  218SOL    HW2 1554   1.701   1.688   4.854
  219SOL     OW 1555   4.262   2.103   1.176
  219SOL    HW1 1556   4.248   2.089   1.274
  219SOL    HW2 1557   4.198   2.171   1.142
  220SOL     OW 1558   3.089   6.631   0.982
  220SOL    HW1 1559   2.994   6.615   1.011
  220SOL    HW2 1560   3.090   6.656   0.885
  221SOL     OW 1561   5.575   5.082   2.034
  221SOL    HW1 1562   5.502   5.079   1.966
  221SOL    HW2 1563   5.621   4.994   2.037
  222SOL     OW 1564   2.425   5.055   6.453
  222SOL    HW1 1565   2.384   5.107   6.378
  222SOL    HW2 1566   2.355   4.998   6.496
  223SOL     OW 1567   5.993   2.655   5.574
  223SOL    HW1 1568   5.981   2.711   5.492
  223SOL    HW2 1569   6.073   2.686   5.624
  224SOL     OW 1570   2.363   1.170   6.408
  224SOL    HW1 1571   2.365   1.099   6.477
  224SOL    HW2 1572   2.425   1.145   6.333
  225SOL     OW 1573   4.161   6.277   6.079
  225SOL    HW1 1574   4.198   6.192   6.042
  225SOL    HW2 1575   4.141   6.340   6.004
  226SOL     OW 1576   1.443   2.520   6.850
  226SOL    HW1 1577   1.364   2.463   6.829
  226SOL    HW2 1578   1.446   2.539   6.948
  227SOL     OW 1579   1.685   3.837   1.318
  227SOL    HW1 1580   1.667   3.924   1.273
  227SOL    HW2 1581   1.734   3.853   1.404
  228SOL     OW 1582   1.397   0.078   2.066
  228SOL    HW1 1583   1.314   0.128   2.090
  228SOL    HW2 1584   1.477   0.125   2.104
  229SOL     OW 1585   3.941   6.651   6.015
  229SOL    HW1 1586   3.966   6.700   6.098
  229SOL    HW2 1587   4.008   6.579   5.997
  230SOL     OW 1588   5.345   5.738   5.420
  230SOL    HW1 1589   5.388   5.795   5.350
  230SOL    HW2 1590   5.370   5.771   5.511
  231SOL     OW 1591   5.007   1.839   6.659
  231SOL    HW1 1592   5.035   1.813   6.566
  231SOL    HW2 1593   5.069   1.797   6.725
  232SOL     OW 1594   1.298   1.794   5.640
  232SOL    HW1 1595   1.255   1.881   5.619
  232SOL    HW2 1596   1.395   1.809   5.662
  233SOL     OW 1597   3.237   1.680   3.116
  233SOL    HW1 1598   3.334   1.696   3.131
  233SOL    HW2 1599   3.208   1.728   3.033
  234SOL     OW 1600   4.564   0.739   6.963
  234SOL    HW1 1601   4.630   0.802   6.922
  234SOL    HW2 1602   4.599   0.706   0.035
  235SOL     OW 1603   4.924   3.053   3.382
  235SOL    HW1 1604   5.021   3.051   3.358
  235SOL    HW2 1605   4.897   2.963   3.418
  236SOL     OW 1606   3.963   4.986   6.118
  236SOL    HW1 1607   3.937   5.012   6.025
  236SOL    HW2 1608   3.956   4.887   6.128
  237SOL     OW 1609   6.232   3.299   3.092
  237SOL    HW1 1610   6.230   3.398   3.079
  237SOL    HW2 1611   6.258   3.254   3.006
  238SOL     OW 1612   6.587   1.727   0.547
  238SOL    HW1 1613   6.540   1.761   0.466
  238SOL    HW2 1614   6.685   1.723   0.530
  239SOL     OW 1615   1.117   3.238   0.510
  239SOL    HW1 1616   1.148   3.205   0.599
  239SOL    HW2 1617   1.105   3.338   0.514
  240SOL     OW 1618   5.515   3.313   3.365
  240SOL    HW1 1619   5.539   3.280   3.456
  240SOL    HW2 1620   5.532   3.411   3.360
  241SOL     OW 1621   3.112   2.133   4.180
  241SOL    HW1 1622   3.132   2.043   4.142
  241SOL    HW2 1623   3.162   2.146   4.266
  242SOL     OW 1624   3.498   3.609   2.516
  242SOL    HW1 1625   3.558   3.619   2.596
  242SOL    HW2 1626   3.419   3.554   2.542
  243SOL     OW 1627   4.289   2.840   5.987
  243SOL    HW1 1628   4.201   2.868   6.025
  243SOL    HW2 1629   4.302   2.742   6.003
  244SOL     OW 1630   4.722   3.423   5.403
  244SOL    HW1 1631   4.697   3.480   5.481
  244SOL    HW2 1632   4.699   3.470   5.318
  245SOL     OW 1633   4.000   1.310   2.948
  245SOL    HW1 1634   4.013   1.356   3.036
  245SOL    HW2 1635   4.078   1.330   2.888
  246SOL     OW 1636   6.391   1.476   2.016
  246SOL    HW1 1637   6.394   1.554   1.954
  246SOL    HW2 1638   6.372   1.393   1.963
  247SOL     OW 1639   1.582   1.086   1.471
  247SOL    HW1 1640   1.552   1.051   1.383
  247SOL    HW2 1641   1.628   1.174   1.459
  248SOL     OW 1642   2.019   2.446   1.949
  248SOL    HW1 1643   2.006   2.541   1.979
  248SOL    HW2 1644   2.116   2.431   1.929
  249SOL     OW 1645   4.793   5.914   5.119
  249SOL    HW1 1646   4.865   5.967   5.163
  249SOL    HW2 1647   4.792   5.821   5.156
  250SOL     OW 1648   4.106   2.614   0.853
  250SOL    HW1 1649   4.201   2.631   0.826
  250SOL    HW2 1650   4.098   2.622   0.952
  251SOL     OW 1651   3.801   3.960   5.549
  251SOL    HW1 1652   3.880   3.906   5.522
  251SOL    HW2 1653   3.817   4.000   5.639
  252SOL     OW 1654   6.145   6.475   5.172
  252SOL    HW1 1655   6.215   6.527   5.124
  252SOL    HW2 1656   6.153   6.378   5.148
  253SOL     OW 1657   3.793   6.385   6.170
  253SOL    HW1 1658   3.854   6.329   6.227
  253SOL    HW2 1659   3.836   6.472   6.150
  254SOL     OW 1660   5.591   2.713   5.093
  254SOL    HW1 1661   5.537   2.682   5.172
  254SOL    HW2 1662   5.620   2.633   5.040
  255SOL     OW 1663   1.588   4.330   6.154
  255SOL    HW1 1664   1.503   4.357   6.109
  255SOL    HW2 1665   1.658   4.400   6.138
  256SOL     OW 1666   5.063   2.152   5.641
  256SOL    HW1 1667   5.023   2.228   5.588
  256SOL    HW2 1668   5.023   2.066   5.610
  257SOL     OW 1669   4.991   6.908   2.475
  257SOL    HW1 1670   4.912   6.849   2.485
  257SOL    HW2 1671   5.050   6.899   2.555
  258SOL     OW 1672   1.495   2.926   5.294
  258SOL    HW1 1673   1.555   2.995   5.333
  258SOL    HW2 1674   1.446   2.965   5.216
  259SOL     OW 1675   3.829   7.015   3.941
  259SOL    HW1 1676   3.848   0.098   3.933
  259SOL    HW2 1677   3.878   6.978   4.020
  260SOL     OW 1678   3.595   5.412   3.596
  260SOL    HW1 1679   3.625   5.339   3.657
  260SOL    HW2 1680   3.663   5.427   3.525
  261SOL     OW 1681   4.321   4.951   0.444
  261SOL    HW1 1682   4.234   4.995   0.467
  261SOL    HW2 1683   4.375   5.010   0.385
  262SOL     OW 1684   1.688   4.224   6.392
  262SOL    HW1 1685   1.649   4.274   6.315
  262SOL    HW2 1686   1.616   4.203   6.458
  263SOL     OW 1687   0.679   6.261   3.924
  263SOL    HW1 1688   0.697   6.270   3.826
  263SOL    HW2 1689   0.656   6.351   3.962
  264SOL     OW 1690   6.521   3.261   6.519
  264SOL    HW1 1691   6.550   3.339   6.464
  264SOL    HW2 1692   6.601   3.213   6.555
  265SOL     OW 1693   6.315   0.142   4.096
  265SOL    HW1 1694   6.411   0.158   4.073
  265SOL    HW2 1695   6.272   0.086   4.024
  266SOL     OW 1696   3.616   1.029   5.946
  266SOL    HW1 1697   3.560   1.101   5.987
  266SOL    HW2 1698   3.706   1.029   5.988
  267SOL     OW 1699   1.656   1.124   3.979
  267SOL    HW1 1700   1.678   1.221   3.969
  267SOL    HW2 1701   1.665   1.098   4.075
  268SOL     OW 1702   3.533   2.150   1.326
  268SOL    HW1 1703   3.445   2.198   1.319
  268SOL    HW2 1704   3.526   2.079   1.396
  269SOL     OW 1705   4.553   1.914   0.321
  269SOL    HW1 1706   4.624   1.847   0.346
  269SOL    HW2 1707   4.463   1.871   0.326
  270SOL     OW 1708   5.500   0.228   0.218
  270SOL    HW1 1709   5.410   0.252   0.253
  270SOL    HW2 1710   5.570   0.283   0.264
  271SOL     OW 1711   1.300   3.442   6.542
  271SOL    HW1 1712   1.292   3.353   6.499
  271SOL    HW2 1713   1.360   3.500   6.487
  272SOL     OW 1714   3.286   6.543   3.848
  272SOL    HW1 1715   3.187   6.551   3.854
  272SOL    HW2 1716   3.315   6.558   3.754
  273SOL     OW 1717   1.795   4.803   6.251
  273SOL    HW1 1718   1.792   4.759   6.340
  273SOL    HW2 1719   1.719   4.771   6.195
  274SOL     OW 1720   4.880   2.007   3.780
  274SOL    HW1 1721   4.929   2.075   3.725
  274SOL    HW2 1722   4.799   2.050   3.821
  275SOL     OW 1723   6.548   6.489   1.798
  275SOL    HW1 1724   6.631   6.525   1.756
  275SOL    HW2 1725   6.572   6.416   1.863
  276SOL     OW 1726   0.738   1.231   4.674
  276SOL    HW1 1727   0.793   1.159   4.716
  276SOL    HW2 1728   0.795   1.313   4.662
  277SOL     OW 1729   2.190   4.014   1.228
  277SOL    HW1 1730   2.143   3.958   1.160
  277SOL    HW2 1731   2.232   3.954   1.297
  278SOL     OW 1732   0.359   2.933   1.871
  278SOL    HW1 1733   0.281   2.872   1.853
  278SOL    HW2 1734   0.388   2.975   1.785
  279SOL     OW 1735   5.898   1.716   3.640
  279SOL    HW1 1736   5.974   1.762   3.594
  279SOL    HW2 1737   5.912   1.617   3.639
  280SOL     OW 1738   1.750   4.845   2.052
  280SOL    HW1 1739   1.830   4.901   2.030
  280SOL    HW2 1740   1.666   4.899   2.036
  281SOL     OW 1741   2.468   4.601   1.316
  281SOL    HW1 1742   2.373   4.632   1.310
  281SOL    HW2 1743   2.503   4.620   1.408
  282SOL     OW 1744   2.737   2.203   5.983
  282SOL    HW1 1745   2.795   2.283   5.971
  282SOL    HW2 1746   2.644   2.232   6.005
  283SOL     OW 1747   4.058   2.498   6.160
  283SOL    HW1 1748   3.981   2.437   6.140
  283SOL    HW2 1749   4.025   2.580   6.208
  284SOL     OW 1750   1.355   4.110   3.933
  284SOL    HW1 1751   1.263   4.075   3.952
  284SOL    HW2 1752   1.350   4.177   3.860
  285SOL     OW 1753   5.672   4.791   4.662
  285SOL    HW1 1754   5.621   4.763   4.580
  285SOL    HW2 1755   5.754   4.735   4.671
  286SOL     OW 1756   3.127   3.693   6.763
  286SOL    HW1 1757   3.061   3.661   6.832
  286SOL    HW2 1758   3.089   3.680   6.672
  287SOL     OW 1759   1.616   3.608   0.073
  287SOL    HW1 1760   1.712   3.635   0.067
  287SOL    HW2 1761   1.609   3.517   0.113
  288SOL     OW 1762   4.715   3.222   0.513
  288SOL    HW1 1763   4.745   3.194   0.422
  288SOL    HW2 1764   4.761   3.307   0.539
  289SOL     OW 1765   3.080   4.850   6.397
  289SOL    HW1 1766   2.983   4.834   6.417
  289SOL    HW2 1767   3.123   4.764   6.370
  290SOL     OW 1768   0.842   1.479   4.700
  290SOL    HW1 1769   0.902   1.545   4.655
  290SOL    HW2 1770   0.831   1.504   4.796
  291SOL     OW 1771   0.250   1.990   2.567
  291SOL    HW1 1772   0.301   2.039   2.496
  291SOL    HW2 1773   0.305   1.914   2.602
  292SOL     OW 1774   2.540   6.565   4.090
  292SOL    HW1 1775   2.579   6.517   4.169
  292SOL    HW2 1776   2.500   6.651   4.120
  293SOL     OW 1777   3.584   4.930   3.329
  293SOL    HW1 1778   3.680   4.904   3.317
  293SOL    HW2 1779   3.532   4.901   3.249
  294SOL     OW 1780   4.714   0.238   6.794
  294SOL    HW1 1781   4.620   0.258   6.824
  294SOL    HW2 1782   4.752   0.320   6.750
  295SOL     OW 1783   5.185   6.838   3.683
  295SOL    HW1 1784   5.105   6.837   3.623
  295SOL    HW2 1785   5.258   6.784   3.643
  296SOL     OW 1786   2.623   2.151   3.252
  296SOL    HW1 1787   2.651   2.203   3.333
  296SOL    HW2 1788   2.527   2.126   3.260
  297SOL     OW 1789   1.733   4.676   3.225
  297SOL    HW1 1790   1.796   4.738   3.178
  297SOL    HW2 1791   1.774   4.645   3.311
  298SOL     OW 1792   6.101   5.271   0.493
  298SOL    HW1 1793   6.148   5.212   0.427
  298SOL    HW2 1794   6.154   5.276   0.577
  299SOL     OW 1795   6.427   2.541   4.663
  299SOL    HW1 1796   6.374   2.590   4.732
  299SOL    HW2 1797   6.519   2.524   4.699
  300SOL     OW 1798   6.357   6.922   2.398
  300SOL    HW1 1799   6.429   6.910   2.465
  300SOL    HW2 1800   6.330   0.003   2.394
  301SOL     OW 1801   4.957   3.203   6.381
  301SOL    HW1 1802   4.976   3.142   6.304
  301SOL    HW2 1803   4.934   3.294   6.346
  302SOL     OW 1804   1.220   6.988   3.502
  302SOL    HW1 1805   1.136   6.973   3.451
  302SOL    HW2 1806   1.276   6.905   3.501
  303SOL     OW 1807   6.134   6.503   2.910
  303SOL    HW1 1808   6.106   6.428   2.970
  303SOL    HW2 1809   6.064   6.517   2.840
  304SOL     OW 1810   3.330   6.562   3.575
  304SOL    HW1 1811   3.413   6.608   3.546
  304SOL    HW2 1812   3.254   6.592   3.517
  305SOL     OW 1813   1.304   4.011   1.937
  305SOL    HW1 1814   1.382   4.038   1.993
  305SOL    HW2 1815   1.310   4.054   1.847
  306SOL     OW 1816   2.580   0.619   3.034
  306SOL    HW1 1817   2.610   0.676   2.957
  306SOL    HW2 1818   2.494   0.655   3.071
  307SOL     OW 1819   3.494   0.194   1.644
  307SOL    HW1 1820   3.434   0.121   1.614
  307SOL    HW2 1821   3.521   0.179   1.739
  308SOL     OW 1822   1.069   5.089   4.487
  308SOL    HW1 1823   1.052   5.036   4.570
  308SOL    HW2 1824   1.022   5.047   4.410
  309SOL     OW 1825   3.836   4.883   5.264
  309SOL    HW1 1826   3.777   4.911   5.187
  309SOL    HW2 1827   3.910   4.826   5.229
  310SOL     OW 1828   0.902   6.206   6.047
  310SOL    HW1 1829   0.853   6.292   6.059
  310SOL    HW2 1830   0.914   6.161   6.136
  311SOL     OW 1831   0.615   0.593   1.393
  311SOL    HW1 1832   0.657   0.667   1.446
  311SOL    HW2 1833   0.552   0.542   1.451
  312SOL     OW 1834   3.943   1.739   4.318
  312SOL    HW1 1835   3.877   1.813   4.321
  312SOL    HW2 1836   4.027   1.768   4.364
  313SOL     OW 1837   0.159   4.749   1.043
  313SOL    HW1 1838   0.202   4.672   0.997
  313SOL    HW2 1839   0.067   4.762   1.007
  314SOL     OW 1840   3.124   6.139   1.156
  314SOL    HW1 1841   3.181   6.122   1.237
  314SOL    HW2 1842   3.093   6.234   1.157
  315SOL     OW 1843   1.020   3.182   2.396
  315SOL    HW1 1844   0.936   3.130   2.393
  315SOL    HW2 1845   1.097   3.125   2.366
  316SOL     OW 1846   2.125   3.597   3.985
  316SOL    HW1 1847   2.143   3.686   3.943
  316SOL    HW2 1848   2.130   3.526   3.915
  317SOL     OW 1849   6.666   1.261   0.002
  317SOL    HW1 1850   6.643   1.355   6.992
  317SOL    HW2 1851   6.763   1.245   7.000
  318SOL     OW 1852   1.992   4.742   0.901
  318SOL    HW1 1853   1.970   4.798   0.980
  318SOL    HW2 1854   1.997   4.800   0.819
  319SOL     OW 1855   1.342   0.256   6.821
  319SOL    HW1 1856   1.255   0.278   6.866
  319SOL    HW2 1857   1.400   0.337   6.819
  320SOL     OW 1858   4.910   3.303   0.770
  320SOL    HW1 1859   4.958   3.391   0.773
  320SOL    HW2 1860   4.813   3.317   0.790
  321SOL     OW 1861   1.982   1.363   1.769
  321SOL    HW1 1862   2.061   1.406   1.812
  321SOL    HW2 1863   1.973   1.398   1.675
  322SOL     OW 1864   3.158   2.957   5.275
  322SOL    HW1 1865   3.215   2.933   5.197
  322SOL    HW2 1866   3.166   2.886   5.345
  323SOL     OW 1867   0.454   3.864   1.926
  323SOL    HW1 1868   0.401   3.795   1.877
  323SOL    HW2 1869   0.438   3.855   2.024
  324SOL     OW 1870   0.616   3.296   4.289
  324SOL    HW1 1871   0.562   3.335   4.365
  324SOL    HW2 1872   0.706   3.340   4.286
  325SOL     OW 1873   2.161   2.578   2.912
  325SOL    HW1 1874   2.106   2.632   2.976
  325SOL    HW2 1875   2.249   2.556   2.952
  326SOL     OW 1876   2.575   4.476   5.578
  326SOL    HW1 1877   2.570   4.504   5.482
  326SOL    HW2 1878   2.530   4.544   5.636
  327SOL     OW 1879   6.364   5.158   6.240
  327SOL    HW1 1880   6.359   5.130   6.145
  327SOL    HW2 1881   6.440   5.222   6.252
  328SOL     OW 1882   3.076   5.844   1.775
  328SOL    HW1 1883   3.060   5.942   1.788
  328SOL    HW2 1884   3.067   5.821   1.678
  329SOL     OW 1885   3.127   3.535   2.531
  329SOL    HW1 1886   3.203   3.476   2.558
  329SOL    HW2 1887   3.041   3.488   2.547
  330SOL     OW 1888   3.311   1.623   1.759
  330SOL    HW1 1889   3.229   1.567   1.767
  330SOL    HW2 1890   3.318   1.684   1.837
  331SOL     OW 1891   5.696   4.660   5.690
  331SOL    HW1 1892   5.790   4.630   5.709
  331SOL    HW2 1893   5.682   4.667   5.592
  332SOL     OW 1894   4.559   1.998   3.708
  332SOL    HW1 1895   4.525   2.016   3.616
  332SOL    HW2 1896   4.609   1.911   3.708
  333SOL     OW 1897   3.706   6.400   0.306
  333SOL    HW1 1898   3.663   6.468   0.366
  333SOL    HW2 1899   3.642   6.375   0.233
  334SOL     OW 1900   4.482   6.767   3.117
  334SOL    HW1 1901   4.503   6.702   3.043
  334SOL    HW2 1902   4.399   6.738   3.164
  335SOL     OW 1903   3.419   6.757   3.087
  335SOL    HW1 1904   3.399   6.841   3.037
  335SOL    HW2 1905   3.441   6.779   3.182
  336SOL     OW 1906   3.366   0.485   4.908
  336SOL    HW1 1907   3.449   0.475   4.854
  336SOL    HW2 1908   3.388   0.534   4.993
  337SOL     OW 1909   0.552   4.479   1.252
  337SOL    HW1 1910   0.569   4.400   1.192
  337SOL    HW2 1911   0.455   4.501   1.252
  338SOL     OW 1912   2.424   2.662   1.700
  338SOL    HW1 1913   2.523   2.651   1.709
  338SOL    HW2 1914   2.397   2.752   1.736
  339SOL     OW 1915   4.096   0.652   2.809
  339SOL    HW1 1916   4.012   0.599   2.822
  339SOL    HW2 1917   4.161   0.630   2.882
  340SOL     OW 1918   4.967   3.707   4.657
  340SOL    HW1 1919   4.968   3.616   4.616
  340SOL    HW2 1920   4.883   3.755   4.632
  341SOL     OW 1921   5.405   5.007   5.341
  341SOL    HW1 1922   5.424   5.004   5.439
  341SOL    HW2 1923   5.491   5.017   5.291
  342SOL     OW 1924   5.327   3.449   0.439
  342SOL    HW1 1925   5.289   3.415   0.353
  342SOL    HW2 1926   5.403   3.391   0.467
  343SOL     OW 1927   2.381   0.946   2.687
  343SOL    HW1 1928   2.371   1.024   2.748
  343SOL    HW2 1929   2.452   0.966   2.619
  344SOL     OW 1930   3.387   5.518   6.612
  344SOL    HW1 1931   3.329   5.457   6.558
  344SOL    HW2 1932   3.330   5.582   6.663
  345SOL     OW 1933   1.512   0.268   5.883
  345SOL    HW1 1934   1.448   0.195   5.859
  345SOL    HW2 1935   1.507   0.340   5.813
  346SOL     OW 1936   3.376   0.545   4.046
  346SOL    HW1 1937   3.284   0.505   4.038
  346SOL    HW2 1938   3.430   0.492   4.110
  347SOL     OW 1939   4.940   6.344   5.982
  347SOL    HW1 1940   4.955   6.319   5.886
  347SOL    HW2 1941   5.014   6.307   6.038
  348SOL     OW 1942   2.822   6.167   2.905
  348SOL    HW1 1943   2.830   6.100   2.979
  348SOL    HW2 1944   2.726   6.196   2.897
  349SOL     OW 1945   2.288   4.951   1.560
  349SOL    HW1 1946   2.319   4.975   1.468
  349SOL    HW2 1947   2.228   4.870   1.555
  350SOL     OW 1948   4.455   2.932   0.838
  350SOL    HW1 1949   4.461   3.000   0.911
  350SOL    HW2 1950   4.477   2.976   0.751
  351SOL     OW 1951   3.001   2.155   0.552
  351SOL    HW1 1952   3.061   2.154   0.632
  351SOL    HW2 1953   2.952   2.242   0.547
  352SOL     OW 1954   3.715   1.461   6.470
  352SOL    HW1 1955   3.805   1.418   6.464
  352SOL    HW2 1956   3.678   1.475   6.378
  353SOL     OW 1957   2.411   0.455   1.211
  353SOL    HW1 1958   2.428   0.497   1.122
  353SOL    HW2 1959   2.493   0.460   1.267
  354SOL     OW 1960   5.171   1.241   2.212
  354SOL    HW1 1961   5.123   1.160   2.178
  354SOL    HW2 1962   5.259   1.249   2.165
  355SOL     OW 1963   1.494   1.892   1.726
  355SOL    HW1 1964   1.580   1.939   1.706
  355SOL    HW2 1965   1.483   1.883   1.825
  356SOL     OW 1966   4.028   6.056   2.897
  356SOL    HW1 1967   3.953   6.098   2.847
  356SOL    HW2 1968   4.096   6.021   2.833
  357SOL     OW 1969   1.779   4.511   6.013
  357SOL    HW1 1970   1.846   4.441   5.988
  357SOL    HW2 1971   1.815   4.601   5.991
  358SOL     OW 1972   5.520   1.118   2.305
  358SOL    HW1 1973   5.610   1.078   2.324
  358SOL    HW2 1974   5.488   1.167   2.386
  359SOL     OW 1975   1.176   2.077   0.899
  359SOL    HW1 1976   1.150   2.134   0.821
  359SOL    HW2 1977   1.098   2.024   0.929
  360SOL     OW 1978   4.340   6.419   0.857
  360SOL    HW1 1979   4.433   6.400   0.828
  360SOL    HW2 1980   4.279   6.346   0.825
  361SOL     OW 1981   3.739   0.773   3.337
  361SOL    HW1 1982   3.814   0.728   3.289
  361SOL    HW2 1983   3.739   0.746   3.433
  362SOL     OW 1984   2.839   3.799   0.947
  362SOL    HW1 1985   2.786   3.752   0.877
  362SOL    HW2 1986   2.927   3.827   0.910
  363SOL     OW 1987   4.286   4.842   4.003
  363SOL    HW1 1988   4.343   4.918   4.035
  363SOL    HW2 1989   4.339   4.757   4.008
  364SOL     OW 1990   1.506   6.107   5.655
  364SOL    HW1 1991   1.593   6.096   5.608
  364SOL    HW2 1992   1.431   6.089   5.590
  365SOL     OW 1993   4.511   6.691   2.847
  365SOL    HW1 1994   4.606   6.719   2.833
  365SOL    HW2 1995   4.497   6.600   2.809
  366SOL     OW 1996   4.878   0.419   0.645
  366SOL    HW1 1997   4.972   0.403   0.677
  366SOL    HW2 1998   4.818   0.432   0.724
  367SOL     OW 1999   4.737   2.038   1.605
  367SOL    HW1 2000   4.690   1.984   1.535
  367SOL    HW2 2001   4.671   2.063   1.677
  368SOL     OW 2002   1.892   5.005   5.610
  368SOL    HW1 2003   1.981   4.987   5.568
  368SOL    HW2 2004   1.892   4.972   5.704
  369SOL     OW 2005   0.342   3.357   1.495
  369SOL    HW1 2006   0.255   3.402   1.477
  369SOL    HW2 2007   0.390   3.342   1.408
  370SOL     OW 2008   3.195   1.672   6.915
  370SOL    HW1 2009   3.294   1.661   6.908
  370SOL    HW2 2010   3.149   1.595   6.871
  371SOL     OW 2011   3.938   3.040   6.026
  371SOL    HW1 2012   3.853   3.006   5.986
  371SOL    HW2 2013   3.984   2.966   6.074
  372SOL     OW 2014   1.608   5.185   6.935
  372SOL    HW1 2015   1.671   5.257   6.962
  372SOL    HW2 2016   1.550   5.160   7.013
  373SOL     OW 2017   6.702   6.581   0.314
  373SOL    HW1 2018   6.620   6.635   0.332
  373SOL    HW2 2019   6.746   6.558   0.401
  374SOL     OW 2020   4.343   0.874   1.157
  374SOL    HW1 2021   4.252   0.843   1.130
  374SOL    HW2 2022   4.370   0.953   1.102
  375SOL     OW 2023   6.819   4.389   1.320
  375SOL    HW1 2024   6.772   4.305   1.295
  375SOL    HW2 2025   6.847   4.384   1.416
  376SOL     OW 2026   2.167   3.485   4.535
  376SOL    HW1 2027   2.085   3.454   4.584
  376SOL    HW2 2028   2.187   3.579   4.560
  377SOL     OW 2029   4.655   2.228   4.764
  377SOL    HW1 2030   4.613   2.144   4.730
  377SOL    HW2 2031   4.720   2.263   4.696
  378SOL     OW 2032   5.144   2.588   4.356
  378SOL    HW1 2033   5.200   2.652   4.304
  378SOL    HW2 2034   5.166   2.594   4.453
  379SOL     OW 2035   0.062   2.612   1.430
  379SOL    HW1 2036   0.147   2.584   1.476
  379SOL    HW2 2037   7.014   2.534   1.429
  380SOL     OW 2038   1.308   2.008   0.342
  380SOL    HW1 2039   1.366   1.927   0.356
  380SOL    HW2 2040   1.309   2.033   0.245
  381SOL     OW 2041   3.470   4.715   0.443
  381SOL    HW1 2042   3.373   4.692   0.442
  381SOL    HW2 2043   3.523   4.639   0.405
  382SOL     OW 2044   2.043   4.903   0.695
  382SOL    HW1 2045   2.112   4.871   0.630
  382SOL    HW2 2046   1.999   4.986   0.660
  383SOL     OW 2047   6.510   2.073   0.170
  383SOL    HW1 2048   6.607   2.089   0.193
  383SOL    HW2 2049   6.456   2.151   0.202
  384SOL     OW 2050   2.102   5.185   4.908
  384SOL    HW1 2051   2.032   5.256   4.908
  384SOL    HW2 2052   2.183   5.218   4.860
  385SOL     OW 2053   4.727   5.489   1.403
  385SOL    HW1 2054   4.779   5.407   1.422
  385SOL    HW2 2055   4.671   5.475   1.321
  386SOL     OW 2056   2.769   6.608   4.683
  386SOL    HW1 2057   2.676   6.589   4.651
  386SOL    HW2 2058   2.816   6.521   4.700
  387SOL     OW 2059   6.570   0.127   6.127
  387SOL    HW1 2060   6.650   0.185   6.143
  387SOL    HW2 2061   6.536   0.142   6.035
  388SOL     OW 2062   0.277   2.191   4.603
  388SOL    HW1 2063   0.186   2.205   4.564
  388SOL    HW2 2064   0.342   2.253   4.558
  389SOL     OW 2065   5.127   4.568   1.718
  389SOL    HW1 2066   5.139   4.667   1.719
  389SOL    HW2 2067   5.130   4.533   1.812
  390SOL     OW 2068   4.207   2.653   7.009
  390SOL    HW1 2069   4.145   2.728   0.017
  390SOL    HW2 2070   4.227   2.599   0.076
  391SOL     OW 2071   4.012   3.854   3.679
  391SOL    HW1 2072   3.983   3.888   3.769
  391SOL    HW2 2073   4.062   3.769   3.691
  392SOL     OW 2074   1.659   4.037   1.941
  392SOL    HW1 2075   1.645   4.020   1.843
  392SOL    HW2 2076   1.756   4.032   1.962
  393SOL     OW 2077   1.426   5.706   1.781
  393SOL    HW1 2078   1.466   5.740   1.696
  393SOL    HW2 2079   1.397   5.783   1.838
  394SOL     OW 2080   5.942   0.943   6.465
  394SOL    HW1 2081   6.010   0.906   6.528
  394SOL    HW2 2082   5.850   0.931   6.504
  395SOL     OW 2083   5.849   4.583   0.225
  395SOL    HW1 2084   5.824   4.680   0.227
  395SOL    HW2 2085   5.908   4.566   0.146
  396SOL     OW 2086   1.416   0.690   1.252
  396SOL    HW1 2087   1.504   0.709   1.208
  396SOL    HW2 2088   1.363   0.775   1.259
  397SOL     OW 2089   4.442   2.376   4.639
  397SOL    HW1 2090   4.372   2.363   4.710
  397SOL    HW2 2091   4.524   2.324   4.664
  398SOL     OW 2092   0.310   0.663   3.561
  398SOL    HW1 2093   0.237   0.597   3.545
  398SOL    HW2 2094   0.356   0.683   3.474
  399SOL     OW 2095   5.763   5.764   3.938
  399SOL    HW1 2096   5.754   5.844   3.997
  399SOL    HW2 2097   5.821   5.787   3.860
  400SOL     OW 2098   0.103   6.816   3.419
  400SOL    HW1 2099   0.011   6.831   3.455
  400SOL    HW2 2100   0.100   6.744   3.349
  401SOL     OW 2101   1.095   5.301   4.665
  401SOL    HW1 2102   1.009   5.342   4.636
  401SOL    HW2 2103   1.109   5.214   4.616
  402SOL     OW 2104   6.108   1.621   4.343
  402SOL    HW1 2105   6.106   1.521   4.341
  402SOL    HW2 2106   6.022   1.656   4.381
  403SOL     OW 2107   3.002   1.880   5.152
  403SOL    HW1 2108   3.066   1.808   5.181
  403SOL    HW2 2109   2.945   1.845   5.077
  404SOL     OW 2110   3.340   5.569   3.375
  404SOL    HW1 2111   3.305   5.490   3.424
  404SOL    HW2 2112   3.264   5.622   3.338
  405SOL     OW 2113   2.509   4.899   4.363
  405SOL    HW1 2114   2.605   4.889   4.388
  405SOL    HW2 2115   2.456   4.923   4.444
  406SOL     OW 2116   6.953   0.303   6.110
  406SOL    HW1 2117   0.003   0.336   6.042
  406SOL    HW2 2118   6.996   0.230   6.165
  407SOL     OW 2119   1.631   3.369   4.052
  407SOL    HW1 2120   1.682   3.442   4.005
  407SOL    HW2 2121   1.695   3.299   4.083
  408SOL     OW 2122   2.237   2.219   2.902
  408SOL    HW1 2123   2.252   2.145   2.837
  408SOL    HW2 2124   2.175   2.287   2.862
  409SOL     OW 2125   0.587   2.723   2.915
  409SOL    HW1 2126   0.513   2.712   2.981
  409SOL    HW2 2127   0.669   2.678   2.950
  410SOL     OW 2128   1.906   2.795   1.232
  410SOL    HW1 2129   1.925   2.861   1.304
  410SOL    HW2 2130   1.871   2.710   1.272
  411SOL     OW 2131   6.725   2.197   0.327
  411SOL    HW1 2132   6.772   2.146   0.399
  411SOL    HW2 2133   6.705   2.290   0.359
  412SOL     OW 2134   1.818   5.242   2.822
  412SOL    HW1 2135   1.727   5.202   2.812
  412SOL    HW2 2136   1.830   5.314   2.754
  413SOL     OW 2137   6.262   4.601   1.982
  413SOL    HW1 2138   6.215   4.577   1.897
  413SOL    HW2 2139   6.355   4.564   1.981
  414SOL     OW 2140   2.200   6.830   3.564
  414SOL    HW1 2141   2.237   6.737   3.557
  414SOL    HW2 2142   2.107   6.832   3.529
  415SOL     OW 2143   5.339   1.522   6.408
  415SOL    HW1 2144   5.404   1.598   6.410
  415SOL    HW2 2145   5.372   1.447   6.465
  416SOL     OW 2146   5.585   3.001   6.003
  416SOL    HW1 2147   5.494   3.015   6.042
  416SOL    HW2 2148   5.609   2.904   6.006
  417SOL     OW 2149   2.261   2.512   5.918
  417SOL    HW1 2150   2.321   2.517   5.838
  417SOL    HW2 2151   2.167   2.496   5.888
  418SOL     OW 2152   3.324   6.947   5.369
  418SOL    HW1 2153   3.224   6.946   5.365
  418SOL    HW2 2154   3.355   0.004   5.430
  419SOL     OW 2155   5.853   0.256   0.571
  419SOL    HW1 2156   5.893   0.312   0.643
  419SOL    HW2 2157   5.921   0.190   0.538
  420SOL     OW 2158   3.725   6.908   0.914
  420SOL    HW1 2159   3.689   7.000   0.897
  420SOL    HW2 2160   3.722   6.889   1.013
  421SOL     OW 2161   4.777   4.039   2.286
  421SOL    HW1 2162   4.711   4.100   2.331
  421SOL    HW2 2163   4.857   4.027   2.345
  422SOL     OW 2164   4.541   2.065   1.789
  422SOL    HW1 2165   4.471   2.023   1.846
  422SOL    HW2 2166   4.518   2.161   1.771
  423SOL     OW 2167   2.982   0.826   6.158
  423SOL    HW1 2168   2.963   0.828   6.059
  423SOL    HW2 2169   3.080   0.831   6.173
  424SOL     OW 2170   1.950   3.867   4.312
  424SOL    HW1 2171   1.927   3.907   4.223
  424SOL    HW2 2172   1.992   3.777   4.299
  425SOL     OW 2173   3.475   1.335   6.749
  425SOL    HW1 2174   3.461   1.336   6.848
  425SOL    HW2 2175   3.571   1.353   6.729
  426SOL     OW 2176   2.492   1.958   4.520
  426SOL    HW1 2177   2.462   2.000   4.606
  426SOL    HW2 2178   2.580   1.913   4.534
  427SOL     OW 2179   4.925   1.641   3.732
  427SOL    HW1 2180   4.832   1.679   3.724
  427SOL    HW2 2181   4.969   1.680   3.813
  428SOL     OW 2182   2.519   2.116   6.241
  428SOL    HW1 2183   2.514   2.196   6.181
  428SOL    HW2 2184   2.530   2.145   6.336
  429SOL     OW 2185   0.265   5.949   3.823
  429SOL    HW1 2186   0.219   5.983   3.905
  429SOL    HW2 2187   0.325   5.874   3.848
  430SOL     OW 2188   2.138   0.029   4.084
  430SOL    HW1 2189   2.106   0.114   4.043
  430SOL    HW2 2190   2.143   0.040   4.184
  431SOL     OW 2191   2.712   1.282   1.182
  431SOL    HW1 2192   2.682   1.376   1.198
  431SOL    HW2 2193   2.809   1.283   1.156
  432SOL     OW 2194   4.981   1.711   1.326
  432SOL    HW1 2195   4.971   1.751   1.417
  432SOL    HW2 2196   4.901   1.732   1.270
  433SOL     OW 2197   1.707   4.502   0.589
  433SOL    HW1 2198   1.668   4.412   0.606
  433SOL    HW2 2199   1.699   4.558   0.672
  434SOL     OW 2200   4.314   5.306   2.948
  434SOL    HW1 2201   4.323   5.363   2.866
  434SOL    HW2 2202   4.404   5.285   2.984
  435SOL     OW 2203   3.747   2.879   5.919
  435SOL    HW1 2204   3.661   2.901   5.965
  435SOL    HW2 2205   3.730   2.862   5.822
  436SOL     OW 2206   5.550   5.974   1.895
  436SOL    HW1 2207   5.625   5.980   1.961
  436SOL    HW2 2208   5.541   6.061   1.848
  437SOL     OW 2209   6.860   1.119   5.072
  437SOL    HW1 2210   6.876   1.190   5.003
  437SOL    HW2 2211   6.947   1.077   5.098
  438SOL     OW 2212   0.963   4.348   2.462
  438SOL    HW1 2213   1.046   4.379   2.416
  438SOL    HW2 2214   0.883   4.386   2.416
  439SOL     OW 2215   0.383   0.268   5.651
  439SOL    HW1 2216   0.315   0.223   5.593
  439SOL    HW2 2217   0.426   0.201   5.710
  440SOL     OW 2218   4.686   2.005   0.779
  440SOL    HW1 2219   4.615   1.977   0.714
  440SOL    HW2 2220   4.650   1.998   0.872
  441SOL     OW 2221   0.108   4.641   2.230
  441SOL    HW1 2222   0.155   4.574   2.286
  441SOL    HW2 2223   0.175   4.689   2.173
  442SOL     OW 2224   4.130   3.314   4.935
  442SOL    HW1 2225   4.090   3.245   4.876
  442SOL    HW2 2226   4.117   3.288   5.031
  443SOL     OW 2227   4.821   2.804   3.481
  443SOL    HW1 2228   4.903   2.754   3.451
  443SOL    HW2 2229   4.741   2.745   3.471
  444SOL     OW 2230   4.187   2.040   1.423
  444SOL    HW1 2231   4.225   2.006   1.509
  444SOL    HW2 2232   4.117   1.978   1.390
  445SOL     OW 2233   2.911   5.403   2.673
  445SOL    HW1 2234   2.884   5.338   2.745
  445SOL    HW2 2235   2.829   5.435   2.625
  446SOL     OW 2236   6.397   0.260   1.901
  446SOL    HW1 2237   6.323   0.226   1.841
  446SOL    HW2 2238   6.421   0.189   1.967
  447SOL     OW 2239   5.714   4.025   0.438
  447SOL    HW1 2240   5.632   4.017   0.381
  447SOL    HW2 2241   5.703   4.101   0.502
  448SOL     OW 2242   3.733   6.519   3.853
  448SOL    HW1 2243   3.792   6.599   3.855
  448SOL    HW2 2244   3.672   6.525   3.773
  449SOL     OW 2245   1.020   3.940   4.824
  449SOL    HW1 2246   1.086   3.980   4.887
  449SOL    HW2 2247   0.935   3.993   4.826
  450SOL     OW 2248   6.779   4.033   3.243
  450SOL    HW1 2249   6.847   4.106   3.244
  450SOL    HW2 2250   6.824   3.946   3.223
  451SOL     OW 2251   1.138   1.962   0.540
  451SOL    HW1 2252   1.172   2.009   0.621
  451SOL    HW2 2253   1.196   1.984   0.462
  452SOL     OW 2254   4.146   5.564   1.887
  452SOL    HW1 2255   4.055   5.559   1.846
  452SOL    HW2 2256   4.192   5.648   1.858
  453SOL     OW 2257   3.876   1.253   0.165
  453SOL    HW1 2258   3.954   1.191   0.162
  453SOL    HW2 2259   3.791   1.201   0.168
  454SOL     OW 2260   0.179   3.355   4.527
  454SOL    HW1 2261   0.220   3.438   4.489
  454SOL    HW2 2262   0.092   3.378   4.570
  455SOL     OW 2263   5.428   5.050   6.213
  455SOL    HW1 2264   5.367   4.971   6.226
  455SOL    HW2 2265   5.489   5.058   6.292
  456SOL     OW 2266   2.104   0.770   2.919
  456SOL    HW1 2267   2.132   0.768   2.823
  456SOL    HW2 2268   2.055   0.686   2.941
  457SOL     OW 2269   2.376   6.200   0.165
  457SOL    HW1 2270   2.420   6.131   0.107
  457SOL    HW2 2271   2.304   6.246   0.114
  458SOL     OW 2272   3.831   1.630   3.309
  458SOL    HW1 2273   3.874   1.720   3.308
  458SOL    HW2 2274   3.900   1.560   3.291
  459SOL     OW 2275   3.141   1.082   3.003
  459SOL    HW1 2276   3.241   1.083   3.001
  459SOL    HW2 2277   3.110   1.013   3.068
  460SOL     OW 2278   0.690   1.765   6.145
  460SOL    HW1 2279   0.667   1.862   6.145
  460SOL    HW2 2280   0.721   1.738   6.054
  461SOL     OW 2281   1.503   6.313   5.309
  461SOL    HW1 2282   1.601   6.319   5.287
  461SOL    HW2 2283   1.472   6.400   5.346
  462SOL     OW 2284   3.589   4.131   4.611
  462SOL    HW1 2285   3.585   4.229   4.633
  462SOL    HW2 2286   3.582   4.077   4.695
  463SOL     OW 2287   5.464   5.959   3.324
  463SOL    HW1 2288   5.400   6.035   3.319
  463SOL    HW2 2289   5.533   5.968   3.252
  464SOL     OW 2290   4.337   5.373   5.370
  464SOL    HW1 2291   4.242   5.392   5.347
  464SOL    HW2 2292   4.397   5.433   5.316
  465SOL     OW 2293   0.033   4.540   6.890
  465SOL    HW1 2294   0.120   4.492   6.884
  465SOL    HW2 2295   6.984   4.501   6.823
  466SOL     OW 2296   3.858   4.931   4.356
  466SOL    HW1 2297   3.864   5.005   4.288
  466SOL    HW2 2298   3.779   4.873   4.334
  467SOL     OW 2299   6.673   0.415   2.057
  467SOL    HW1 2300   6.752   0.392   2.114
  467SOL    HW2 2301   6.694   0.496   2.002
  468SOL     OW 2302   2.473   6.118   6.360
  468SOL    HW1 2303   2.512   6.043   6.413
  468SOL    HW2 2304   2.381   6.093   6.331
  469SOL     OW 2305   3.143   4.706   5.245
  469SOL    HW1 2306   3.104   4.628   5.195
  469SOL    HW2 2307   3.095   4.789   5.218
  470SOL     OW 2308   2.313   4.725   2.895
  470SOL    HW1 2309   2.275   4.816   2.877
  470SOL    HW2 2310   2.408   4.733   2.925
  471SOL     OW 2311   1.655   1.976   4.048
  471SOL    HW1 2312   1.599   1.894   4.056
  471SOL    HW2 2313   1.702   1.975   3.959
  472SOL     OW 2314   5.324   4.178   6.738
  472SOL    HW1 2315   5.272   4.182   6.823
  472SOL    HW2 2316   5.310   4.262   6.685
  473SOL     OW 2317   5.219   3.642   2.694
  473SOL    HW1 2318   5.180   3.600   2.612
  473SOL    HW2 2319   5.216   3.577   2.770
  474SOL     OW 2320   5.084   5.490   3.934
  474SOL    HW1 2321   5.070   5.404   3.887
  474SOL    HW2 2322   5.177   5.493   3.972
  475SOL     OW 2323   5.760   1.635   0.486
  475SOL    HW1 2324   5.721   1.557   0.535
  475SOL    HW2 2325   5.740   1.719   0.537
  476SOL     OW 2326   1.378   3.756   0.089
  476SOL    HW1 2327   1.468   3.718   0.067
  476SOL    HW2 2328   1.308   3.702   0.044
  477SOL     OW 2329   0.066   5.251   3.018
  477SOL    HW1 2330   0.123   5.169   3.023
  477SOL    HW2 2331   0.087   5.311   3.096
  478SOL     OW 2332   6.114   5.575   2.684
  478SOL    HW1 2333   6.096   5.481   2.654
  478SOL    HW2 2334   6.165   5.574   2.770
  479SOL     OW 2335   3.019   3.876   2.966
  479SOL    HW1 2336   2.976   3.867   2.876
  479SOL    HW2 2337   3.106   3.925   2.956
  480SOL     OW 2338   1.046   0.992   1.886
  480SOL    HW1 2339   1.103   1.055   1.939
  480SOL    HW2 2340   1.019   1.036   1.801
  481SOL     OW 2341   5.748   6.698   1.002
  481SOL    HW1 2342   5.803   6.762   0.948
  481SOL    HW2 2343   5.772   6.604   0.977
  482SOL     OW 2344   3.824   4.900   2.853
  482SOL    HW1 2345   3.762   4.874   2.780
  482SOL    HW2 2346   3.790   4.983   2.898
  483SOL     OW 2347   5.953   1.117   3.940
  483SOL    HW1 2348   5.958   1.093   3.843
  483SOL    HW2 2349   6.029   1.176   3.964
  484SOL     OW 2350   1.913   5.052   3.330
  484SOL    HW1 2351   1.920   5.117   3.254
  484SOL    HW2 2352   1.874   4.966   3.296
  485SOL     OW 2353   5.137   2.001   0.509
  485SOL    HW1 2354   5.140   2.082   0.567
  485SOL    HW2 2355   5.184   2.020   0.423
  486SOL     OW 2356   5.800   6.871   5.757
  486SOL    HW1 2357   5.800   6.971   5.759
  486SOL    HW2 2358   5.856   6.840   5.680
  487SOL     OW 2359   0.327   0.886   6.608
  487SOL    HW1 2360   0.259   0.890   6.682
  487SOL    HW2 2361   0.385   0.806   6.620
  488SOL     OW 2362   1.874   5.693   3.249
  488SOL    HW1 2363   1.867   5.713   3.152
  488SOL    HW2 2364   1.793   5.727   3.296
  489SOL     OW 2365   2.885   4.969   5.372
  489SOL    HW1 2366   2.897   4.950   5.470
  489SOL    HW2 2367   2.831   4.896   5.331
  490SOL     OW 2368   1.488   3.487   4.636
  490SOL    HW1 2369   1.399   3.526   4.659
  490SOL    HW2 2370   1.532   3.542   4.566
  491SOL     OW 2371   6.416   2.730   1.129
  491SOL    HW1 2372   6.378   2.818   1.100
  491SOL    HW2 2373   6.406   2.664   1.054
  492SOL     OW 2374   1.818   2.354   5.928
  492SOL    HW1 2375   1.872   2.291   5.872
  492SOL    HW2 2376   1.851   2.447   5.916
  493SOL     OW 2377   2.099   5.723   3.974
  493SOL    HW1 2378   2.037   5.646   3.960
  493SOL    HW2 2379   2.112   5.738   4.072
  494SOL     OW 2380   3.013   0.615   4.215
  494SOL    HW1 2381   3.034   0.708   4.186
  494SOL    HW2 2382   2.921   0.591   4.184
  495SOL     OW 2383   3.777   4.374   6.660
  495SOL    HW1 2384   3.766   4.324   6.746
  495SOL    HW2 2385   3.687   4.401   6.625
  496SOL     OW 2386   5.070   1.268   3.028
  496SOL    HW1 2387   5.016   1.261   3.112
  496SOL    HW2 2388   5.020   1.323   2.961
  497SOL     OW 2389   4.321   2.396   0.815
  497SOL    HW1 2390   4.333   2.496   0.817
  497SOL    HW2 2391   4.410   2.352   0.828
  498SOL     OW 2392   0.289   0.282   1.223
  498SOL    HW1 2393   0.359   0.311   1.288
  498SOL    HW2 2394   0.233   0.210   1.263
  499SOL     OW 2395   2.826   6.065   0.399
  499SOL    HW1 2396   2.918   6.040   0.368
  499SOL    HW2 2397   2.831   6.151   0.450
  500SOL     OW 2398   5.457   1.905   6.140
  500SOL    HW1 2399   5.542   1.945   6.107
  500SOL    HW2 2400   5.413   1.968   6.203
  501SOL     OW 2401   1.849   1.793   4.577
  501SOL    HW1 2402   1.815   1.846   4.500
  501SOL    HW2 2403   1.939   1.829   4.604
  502SOL     OW 2404   2.667   4.073   6.807
  502SOL    HW1 2405   2.677   4.133   6.728
  502SOL    HW2 2406   2.590   4.011   6.792
  503SOL     OW 2407   3.143   5.340   1.030
  503SOL    HW1 2408   3.192   5.259   0.998
  503SOL    HW2 2409   3.179   5.367   1.120
  504SOL     OW 2410   6.091   6.628   0.458
  504SOL    HW1 2411   6.170   6.684   0.434
  504SOL    HW2 2412   6.013   6.687   0.476
  505SOL     OW 2413   5.993   4.304   5.566
  505SOL    HW1 2414   5.917   4.369   5.565
  505SOL    HW2 2415   6.074   4.349   5.603
  506SOL     OW 2416   3.234   5.307   2.852
  506SOL    HW1 2417   3.213   5.375   2.782
  506SOL    HW2 2418   3.284   5.350   2.927
  507SOL     OW 2419   3.513   0.149   2.695
  507SOL    HW1 2420   3.583   0.209   2.733
  507SOL    HW2 2421   3.427   0.200   2.686
  508SOL     OW 2422   0.550   5.021   3.464
  508SOL    HW1 2423   0.539   4.938   3.408
  508SOL    HW2 2424   0.582   4.995   3.555
  509SOL     OW 2425   4.351   6.890   6.502
  509SOL    HW1 2426   4.445   6.881   6.469
  509SOL    HW2 2427   4.329   6.987   6.513
  510SOL     OW 2428   6.328   4.070   0.084
  510SOL    HW1 2429   6.379   4.098   0.165
  510SOL    HW2 2430   6.312   4.150   0.026
  511SOL     OW 2431   0.625   1.249   6.894
  511SOL    HW1 2432   0.696   1.182   6.871
  511SOL    HW2 2433   0.664   1.318   6.956
  512SOL     OW 2434   0.339   2.398   4.248
  512SOL    HW1 2435   0.363   2.495   4.249
  512SOL    HW2 2436   0.249   2.385   4.291
  513SOL     OW 2437   5.805   6.726   2.986
  513SOL    HW1 2438   5.768   6.810   2.947
  513SOL    HW2 2439   5.832   6.741   3.081
  514SOL     OW 2440   4.885   1.550   4.911
  514SOL    HW1 2441   4.972   1.534   4.957
  514SOL    HW2 2442   4.893   1.525   4.814
  515SOL     OW 2443   3.229   1.044   0.026
  515SOL    HW1 2444   3.205   1.005   6.953
  515SOL    HW2 2445   3.181   1.131   0.038
  516SOL     OW 2446   1.466   6.334   1.907
  516SOL    HW1 2447   1.479   6.431   1.885
  516SOL    HW2 2448   1.380   6.322   1.957
  517SOL     OW 2449   3.123   5.406   1.620
  517SOL    HW1 2450   3.085   5.449   1.538
  517SOL    HW2 2451   3.117   5.307   1.612
  518SOL     OW 2452   2.189   6.080   4.198
  518SOL    HW1 2453   2.252   6.077   4.120
  518SOL    HW2 2454   2.241   6.070   4.283
  519SOL     OW 2455   6.679   0.145   2.462
  519SOL    HW1 2456   6.642   0.066   2.510
  519SOL    HW2 2457   6.639   0.151   2.370
  520SOL     OW 2458   2.251   5.146   0.832
  520SOL    HW1 2459   2.228   5.192   0.746
  520SOL    HW2 2460   2.301   5.062   0.813
  521SOL     OW 2461   6.201   5.895   5.654
  521SOL    HW1 2462   6.221   5.970   5.718
  521SOL    HW2 2463   6.127   5.839   5.690
  522SOL     OW 2464   3.647   4.510   0.030
  522SOL    HW1 2465   3.702   4.576   6.995
  522SOL    HW2 2466   3.657   4.419   7.005
  523SOL     OW 2467   1.972   6.953   5.872
  523SOL    HW1 2468   1.961   6.943   5.773
  523SOL    HW2 2469   2.064   6.923   5.899
  524SOL     OW 2470   0.111   1.136   0.850
  524SOL    HW1 2471   0.030   1.142   0.909
  524SOL    HW2 2472   0.173   1.211   0.872
  525SOL     OW 2473   0.462   3.024   3.192
  525SOL    HW1 2474   0.506   3.023   3.282
  525SOL    HW2 2475   0.529   3.002   3.122
  526SOL     OW 2476   4.178   6.982   4.544
  526SOL    HW1 2477   4.261   0.002   4.501
  526SOL    HW2 2478   4.154   6.894   4.503
  527SOL     OW 2479   0.314   0.964   1.277
  527SOL    HW1 2480   0.233   1.023   1.275
  527SOL    HW2 2481   0.375   0.994   1.350
  528SOL     OW 2482   0.090   2.699   4.338
  528SOL    HW1 2483   0.052   2.608   4.320
  528SOL    HW2 2484   0.092   2.752   4.253
  529SOL     OW 2485   1.510   0.558   6.035
  529SOL    HW1 2486   1.546   0.577   5.943
  529SOL    HW2 2487   1.480   0.463   6.039
  530SOL     OW 2488   2.768   4.837   1.669
  530SOL    HW1 2489   2.793   4.888   1.750
  530SOL    HW2 2490   2.849   4.792   1.631
  531SOL     OW 2491   0.990   0.824   6.376
  531SOL    HW1 2492   0.988   0.791   6.470
  531SOL    HW2 2493   1.029   0.917   6.374
  532SOL     OW 2494   2.751   0.692   6.257
  532SOL    HW1 2495   2.827   0.706   6.195
  532SOL    HW2 2496   2.770   0.614   6.317
  533SOL     OW 2497   4.077   0.387   4.406
  533SOL    HW1 2498   4.008   0.321   4.378
  533SOL    HW2 2499   4.152   0.388   4.339
  534SOL     OW 2500   1.758   4.295   2.125
  534SOL    HW1 2501   1.843   4.303   2.073
  534SOL    HW2 2502   1.713   4.384   2.129
  535SOL     OW 2503   4.798   3.963   4.630
  535SOL    HW1 2504   4.782   3.968   4.531
  535SOL    HW2 2505   4.787   4.054   4.670
  536SOL     OW 2506   6.670   6.260   1.610
  536SOL    HW1 2507   6.710   6.351   1.599
  536SOL    HW2 2508   6.740   6.197   1.642
  537SOL     OW 2509   2.659   2.003   2.041
  537SOL    HW1 2510   2.659   2.074   1.971
  537SOL    HW2 2511   2.658   2.045   2.132
  538SOL     OW 2512   4.104   4.692   5.259
  538SOL    HW1 2513   4.115   4.737   5.348
  538SOL    HW2 2514   4.169   4.617   5.251
  539SOL     OW 2515   2.371   0.177   6.757
  539SOL    HW1 2516   2.417   0.132   6.833
  539SOL    HW2 2517   2.437   0.233   6.707
  540SOL     OW 2518   1.902   1.259   5.281
  540SOL    HW1 2519   1.848   1.270   5.198
  540SOL    HW2 2520   1.868   1.322   5.351
  541SOL     OW 2521   5.206   6.383   3.754
  541SOL    HW1 2522   5.142   6.311   3.779
  541SOL    HW2 2523   5.198   6.402   3.656
  542SOL     OW 2524   3.513   6.596   6.343
  542SOL    HW1 2525   3.472   6.625   6.256
  542SOL    HW2 2526   3.610   6.579   6.330
  543SOL     OW 2527   5.963   2.587   3.913
  543SOL    HW1 2528   5.891   2.554   3.975
  543SOL    HW2 2529   5.929   2.588   3.819
  544SOL     OW 2530   1.600   3.145   1.165
  544SOL    HW1 2531   1.577   3.078   1.235
  544SOL    HW2 2532   1.551   3.230   1.182
  545SOL     OW 2533   0.012   5.557   0.625
  545SOL    HW1 2534   6.952   5.621   0.616
  545SOL    HW2 2535   0.012   5.519   0.718
  546SOL     OW 2536   6.981   4.344   1.902
  546SOL    HW1 2537   6.902   4.338   1.842
  546SOL    HW2 2538   6.964   4.413   1.973
  547SOL     OW 2539   4.127   0.039   0.149
  547SOL    HW1 2540   4.215   0.036   0.102
  547SOL    HW2 2541   4.054   0.018   0.085
  548SOL     OW 2542   4.320   3.046   0.332
  548SOL    HW1 2543   4.265   2.981   0.383
  548SOL    HW2 2544   4.359   3.002   0.251
  549SOL     OW 2545   5.231   1.975   3.276
  549SOL    HW1 2546   5.329   1.990   3.286
  549SOL    HW2 2547   5.200   1.908   3.344
  550SOL     OW 2548   6.712   5.782   3.628
  550SOL    HW1 2549   6.634   5.816   3.576
  550SOL    HW2 2550   6.749   5.701   3.584
  551SOL     OW 2551   5.721   0.347   0.314
  551SOL    HW1 2552   5.751   0.313   0.403
  551SOL    HW2 2553   5.736   0.446   0.309
  552SOL     OW 2554   0.632   0.092   4.811
  552SOL    HW1 2555   0.690   0.041   4.874
  552SOL    HW2 2556   0.536   0.083   4.839
  553SOL     OW 2557   3.399   2.682   5.790
  553SOL    HW1 2558   3.333   2.692   5.864
  553SOL    HW2 2559   3.422   2.772   5.754
  554SOL     OW 2560   6.636   5.887   0.506
  554SOL    HW1 2561   6.641   5.866   0.409
  554SOL    HW2 2562   6.553   5.939   0.525
  555SOL     OW 2563   2.963   3.911   5.925
  555SOL    HW1 2564   2.879   3.860   5.906
  555SOL    HW2 2565   3.038   3.873   5.871
  556SOL     OW 2566   6.282   5.981   3.114
  556SOL    HW1 2567   6.281   5.997   3.213
  556SOL    HW2 2568   6.361   6.027   3.074
  557SOL     OW 2569   5.357   4.114   6.289
  557SOL    HW1 2570   5.436   4.052   6.289
  557SOL    HW2 2571   5.319   4.118   6.197
  558SOL     OW 2572   3.752   3.473   2.058
  558SOL    HW1 2573   3.787   3.403   2.119
  558SOL    HW2 2574   3.782   3.563   2.089
  559SOL     OW 2575   6.649   0.953   6.257
  559SOL    HW1 2576   6.643   1.046   6.220
  559SOL    HW2 2577   6.572   0.899   6.223
  560SOL     OW 2578   0.076   2.562   3.977
  560SOL    HW1 2579   7.007   2.559   3.924
  560SOL    HW2 2580   0.129   2.479   3.960
  561SOL     OW 2581   0.609   4.026   0.066
  561SOL    HW1 2582   0.628   3.949   0.127
  561SOL    HW2 2583   0.694   4.078   0.052
  562SOL     OW 2584   4.721   6.355   3.678
  562SOL    HW1 2585   4.789   6.283   3.669
  562SOL    HW2 2586   4.629   6.315   3.669
  563SOL     OW 2587   1.406   1.007   3.869
  563SOL    HW1 2588   1.456   0.958   3.798
  563SOL    HW2 2589   1.465   1.021   3.948
  564SOL     OW 2590   6.035   1.516   6.102
  564SOL    HW1 2591   6.039   1.616   6.103
  564SOL    HW2 2592   6.127   1.479   6.107
  565SOL     OW 2593   3.274   3.037   3.365
  565SOL    HW1 2594   3.206   3.005   3.431
  565SOL    HW2 2595   3.240   3.021   3.272
  566SOL     OW 2596   2.495   1.891   3.607
  566SOL    HW1 2597   2.580   1.893   3.659
  566SOL    HW2 2598   2.457   1.799   3.608
  567SOL     OW 2599   1.898   3.218   5.298
  567SOL    HW1 2600   1.978   3.200   5.354
  567SOL    HW2 2601   1.862   3.309   5.319
  568SOL     OW 2602   0.966   6.785   0.078
  568SOL    HW1 2603   0.908   6.867   0.069
  568SOL    HW2 2604   0.968   6.756   0.173
  569SOL     OW 2605   5.320   3.568   6.426
  569SOL    HW1 2606   5.386   3.611   6.488
  569SOL    HW2 2607   5.233   3.617   6.432
  570SOL     OW 2608   3.825   0.598   6.004
  570SOL    HW1 2609   3.868   0.618   6.092
  570SOL    HW2 2610   3.875   0.645   5.931
  571SOL     OW 2611   2.332   4.481   1.774
  571SOL    HW1 2612   2.356   4.465   1.678
  571SOL    HW2 2613   2.380   4.562   1.807
  572SOL     OW 2614   3.061   1.251   4.737
  572SOL    HW1 2615   3.092   1.174   4.794
  572SOL    HW2 2616   3.042   1.218   4.645
  573SOL     OW 2617   0.470   0.653   5.263
  573SOL    HW1 2618   0.522   0.570   5.244
  573SOL    HW2 2619   0.527   0.719   5.312
  574SOL     OW 2620   2.266   0.963   6.124
  574SOL    HW1 2621   2.363   0.958   6.147
  574SOL    HW2 2622   2.236   1.058   6.129
  575SOL     OW 2623   4.084   4.139   0.088
  575SOL    HW1 2624   3.993   4.098   0.090
  575SOL    HW2 2625   4.082   4.228   0.134
  576SOL     OW 2626   1.493   1.238   2.578
  576SOL    HW1 2627   1.511   1.199   2.487
  576SOL    HW2 2628   1.535   1.180   2.648
  577SOL     OW 2629   0.522   0.745   1.753
  577SOL    HW1 2630   0.449   0.719   1.689
  577SOL    HW2 2631   0.485   0.806   1.823
  578SOL     OW 2632   3.428   6.709   0.005
  578SOL    HW1 2633   3.518   6.731   6.983
  578SOL    HW2 2634   3.414   6.758   0.091
  579SOL     OW 2635   1.162   3.541   2.010
  579SOL    HW1 2636   1.079   3.544   2.065
  579SOL    HW2 2637   1.175   3.628   1.962
  580SOL     OW 2638   4.748   4.930   4.653
  580SOL    HW1 2639   4.772   5.014   4.605
  580SOL    HW2 2640   4.751   4.853   4.590
  581SOL     OW 2641   2.149   2.396   4.060
  581SOL    HW1 2642   2.211   2.340   4.116
  581SOL    HW2 2643   2.057   2.393   4.099
  582SOL     OW 2644   5.416   4.412   5.488
  582SOL    HW1 2645   5.437   4.385   5.394
  582SOL    HW2 2646   5.366   4.339   5.533
  583SOL     OW 2647   3.435   6.389   5.608
  583SOL    HW1 2648   3.477   6.416   5.521
  583SOL    HW2 2649   3.501   6.337   5.662
  584SOL     OW 2650   3.951   0.566   5.287
  584SOL    HW1 2651   4.020   0.635   5.309
  584SOL    HW2 2652   3.981   0.513   5.207
  585SOL     OW 2653   3.486   6.639   1.698
  585SOL    HW1 2654   3.471   6.541   1.709
  585SOL    HW2 2655   3.512   6.679   1.786
  586SOL     OW 2656   3.303   0.172   0.695
  586SOL    HW1 2657   3.322   0.235   0.620
  586SOL    HW2 2658   3.244   0.215   0.762
  587SOL     OW 2659   4.729   1.454   2.272
  587SOL    HW1 2660   4.704   1.485   2.180
  587SOL    HW2 2661   4.690   1.364   2.289
  588SOL     OW 2662   1.831   4.731   2.721
  588SOL    HW1 2663   1.779   4.671   2.660
  588SOL    HW2 2664   1.896   4.677   2.774
  589SOL     OW 2665   3.526   5.380   0.720
  589SOL    HW1 2666   3.622   5.363   0.697
  589SOL    HW2 2667   3.521   5.447   0.795
  590SOL     OW 2668   3.043   2.370   6.463
  590SOL    HW1 2669   3.078   2.463   6.476
  590SOL    HW2 2670   3.054   2.344   6.367
  591SOL     OW 2671   2.659   6.872   3.740
  591SOL    HW1 2672   2.674   6.908   3.648
  591SOL    HW2 2673   2.587   6.926   3.785
  592SOL     OW 2674   5.312   2.242   4.340
  592SOL    HW1 2675   5.278   2.245   4.246
  592SOL    HW2 2676   5.247   2.289   4.400
  593SOL     OW 2677   2.012   1.233   6.770
  593SOL    HW1 2678   1.980   1.217   6.676
  593SOL    HW2 2679   2.111   1.246   6.769
  594SOL     OW 2680   4.260   0.899   3.244
  594SOL    HW1 2681   4.258   0.967   3.170
  594SOL    HW2 2682   4.293   0.942   3.328
  595SOL     OW 2683   5.951   4.502   2.592
  595SOL    HW1 2684   6.028   4.563   2.611
  595SOL    HW2 2685   5.984   4.422   2.542
  596SOL     OW 2686   6.348   5.006   4.549
  596SOL    HW1 2687   6.346   5.017   4.649
  596SOL    HW2 2688   6.355   4.908   4.527
  597SOL     OW 2689   3.235   1.826   6.668
  597SOL    HW1 2690   3.250   1.738   6.715
  597SOL    HW2 2691   3.137   1.845   6.664
  598SOL     OW 2692   3.376   3.439   2.845
  598SOL    HW1 2693   3.457   3.498   2.840
  598SOL    HW2 2694   3.375   3.393   2.934
  599SOL     OW 2695   1.491   4.668   1.669
  599SOL    HW1 2696   1.518   4.763   1.654
  599SOL    HW2 2697   1.458   4.656   1.763
  600SOL     OW 2698   0.101   3.450   5.461
  600SOL    HW1 2699   0.155   3.426   5.380
  600SOL    HW2 2700   0.004   3.439   5.440
  601SOL     OW 2701   0.384   6.615   5.812
  601SOL    HW1 2702   0.371   6.686   5.881
  601SOL    HW2 2703   0.474   6.625   5.770
  602SOL     OW 2704   1.767   0.938   3.507
  602SOL    HW1 2705   1.711   1.021   3.510
  602SOL    HW2 2706   1.852   0.956   3.458
  603SOL     OW 2707   2.265   1.853   4.001
  603SOL    HW1 2708   2.194   1.863   3.931
  603SOL    HW2 2709   2.222   1.834   4.089
  604SOL     OW 2710   5.867   2.555   1.002
  604SOL    HW1 2711   5.963   2.580   1.013
  604SOL    HW2 2712   5.845   2.552   0.904
  605SOL     OW 2713   6.259   6.350   1.116
  605SOL    HW1 2714   6.262   6.450   1.120
  605SOL    HW2 2715   6.352   6.314   1.121
  606SOL     OW 2716   3.136   6.603   4.837
  606SOL    HW1 2717   3.051   6.640   4.876
  606SOL    HW2 2718   3.188   6.677   4.795
  607SOL     OW 2719   1.683   2.721   6.016
  607SOL    HW1 2720   1.588   2.715   6.047
  607SOL    HW2 2721   1.741   2.665   6.074
  608SOL     OW 2722   3.526   0.991   6.670
  608SOL    HW1 2723   3.600   1.053   6.643
  608SOL    HW2 2724   3.530   0.978   6.769
  609SOL     OW 2725   3.530   2.830   2.257
  609SOL    HW1 2726   3.594   2.832   2.180
  609SOL    HW2 2727   3.437   2.817   2.223
  610SOL     OW 2728   4.801   3.537   1.811
  610SOL    HW1 2729   4.720   3.506   1.762
  610SOL    HW2 2730   4.834   3.622   1.770
  611SOL     OW 2731   4.255   1.223   2.549
  611SOL    HW1 2732   4.195   1.150   2.581
  611SOL    HW2 2733   4.346   1.213   2.590
  612SOL     OW 2734   5.044   4.584   3.971
  612SOL    HW1 2735   5.070   4.621   4.060
  612SOL    HW2 2736   5.105   4.620   3.901
  613SOL     OW 2737   3.755   4.727   6.192
  613SOL    HW1 2738   3.717   4.787   6.122
  613SOL    HW2 2739   3.842   4.689   6.160
  614SOL     OW 2740   2.592   6.671   6.404
  614SOL    HW1 2741   2.529   6.593   6.406
  614SOL    HW2 2742   2.558   6.738   6.338
  615SOL     OW 2743   6.987   4.664   2.813
  615SOL    HW1 2744   6.940   4.647   2.900
  615SOL    HW2 2745   6.970   4.588   2.751
  616SOL     OW 2746   6.262   3.392   3.830
  616SOL    HW1 2747   6.347   3.346   3.856
  616SOL    HW2 2748   6.188   3.363   3.891
  617SOL     OW 2749   3.308   6.796   5.806
  617SOL    HW1 2750   3.241   6.824   5.876
  617SOL    HW2 2751   3.385   6.859   5.806
  618SOL     OW 2752   1.642   0.875   3.817
  618SOL    HW1 2753   1.711   0.872   3.745
  618SOL    HW2 2754   1.651   0.961   3.867
  619SOL     OW 2755   1.004   2.165   6.414
  619SOL    HW1 2756   1.011   2.134   6.319
  619SOL    HW2 2757   1.009   2.265   6.416
  620SOL     OW 2758   4.437   3.414   0.696
  620SOL    HW1 2759   4.507   3.443   0.630
  620SOL    HW2 2760   4.481   3.379   0.778
  621SOL     OW 2761   0.007   5.955   0.534
  621SOL    HW1 2762   6.962   6.022   0.575
  621SOL    HW2 2763   0.083   5.936   0.595
  622SOL     OW 2764   0.450   0.650   6.617
  622SOL    HW1 2765   0.547   0.627   6.607
  622SOL    HW2 2766   0.408   0.587   6.682
  623SOL     OW 2767   0.449   4.790   4.779
  623SOL    HW1 2768   0.463   4.887   4.798
  623SOL    HW2 2769   0.534   4.751   4.741
  624SOL     OW 2770   0.992   1.743   1.713
  624SOL    HW1 2771   0.905   1.700   1.736
  624SOL    HW2 2772   1.054   1.735   1.791
  625SOL     OW 2773   1.446   1.350   2.969
  625SOL    HW1 2774   1.348   1.334   2.970
  625SOL    HW2 2775   1.477   1.360   2.874
  626SOL     OW 2776   2.781   5.943   4.676
  626SOL    HW1 2777   2.824   5.970   4.590
  626SOL    HW2 2778   2.826   5.861   4.712
  627SOL     OW 2779   5.327   6.787   0.068
  627SOL    HW1 2780   5.369   6.842   7.012
  627SOL    HW2 2781   5.264   6.845   0.121
  628SOL     OW 2782   5.425   4.404   2.955
  628SOL    HW1 2783   5.336   4.450   2.949
  628SOL    HW2 2784   5.418   4.312   2.918
  629SOL     OW 2785   1.379   0.034   1.236
  629SOL    HW1 2786   1.415   0.123   1.263
  629SOL    HW2 2787   1.282   0.029   1.259
  630SOL     OW 2788   2.885   1.698   1.137
  630SOL    HW1 2789   2.957   1.662   1.196
  630SOL    HW2 2790   2.842   1.777   1.182
  631SOL     OW 2791   2.627   0.490   4.420
  631SOL    HW1 2792   2.709   0.530   4.462
  631SOL    HW2 2793   2.546   0.535   4.457
  632SOL     OW 2794   3.096   0.236   1.306
  632SOL    HW1 2795   3.031   0.162   1.324
  632SOL    HW2 2796   3.147   0.255   1.390
  633SOL     OW 2797   2.435   6.919   5.215
  633SOL    HW1 2798   2.403   7.010   5.241
  633SOL    HW2 2799   2.480   6.876   5.293
  634SOL     OW 2800   2.787   5.405   2.059
  634SOL    HW1 2801   2.882   5.426   2.084
  634SOL    HW2 2802   2.768   5.443   1.968
  635SOL     OW 2803   2.815   0.169   3.272
  635SOL    HW1 2804   2.826   0.263   3.302
  635SOL    HW2 2805   2.807   0.166   3.172
  636SOL     OW 2806   4.522   5.387   6.782
  636SOL    HW1 2807   4.506   5.464   6.721
  636SOL    HW2 2808   4.516   5.302   6.731
  637SOL     OW 2809   6.035   4.353   0.102
  637SOL    HW1 2810   5.994   4.291   0.169
  637SOL    HW2 2811   6.071   4.301   0.025
  638SOL     OW 2812   5.334   1.522   2.922
  638SOL    HW1 2813   5.247   1.553   2.961
  638SOL    HW2 2814   5.350   1.568   2.835
  639SOL     OW 2815   4.935   3.775   2.013
  639SOL    HW1 2816   4.848   3.783   1.964
  639SOL    HW2 2817   4.978   3.865   2.020
  640SOL     OW 2818   2.161   3.369   5.609
  640SOL    HW1 2819   2.175   3.439   5.539
  640SOL    HW2 2820   2.150   3.413   5.698
  641SOL     OW 2821   0.180   5.657   5.068
  641SOL    HW1 2822   0.114   5.584   5.088
  641SOL    HW2 2823   0.231   5.680   5.151
  642SOL     OW 2824   1.884   4.788   5.949
  642SOL    HW1 2825   1.906   4.815   6.042
  642SOL    HW2 2826   1.792   4.819   5.925
  643SOL     OW 2827   6.016   6.001   4.955
  643SOL    HW1 2828   5.963   5.918   4.934
  643SOL    HW2 2829   5.961   6.062   5.013
  644SOL     OW 2830   2.271   6.568   1.764
  644SOL    HW1 2831   2.352   6.532   1.718
  644SOL    HW2 2832   2.286   6.568   1.863
  645SOL     OW 2833   6.774   2.339   3.069
  645SOL    HW1 2834   6.799   2.354   3.165
  645SOL    HW2 2835   6.790   2.243   3.046
  646SOL     OW 2836   1.123   2.803   4.313
  646SOL    HW1 2837   1.068   2.785   4.395
  646SOL    HW2 2838   1.083   2.878   4.261
  647SOL     OW 2839   4.993   3.207   0.318
  647SOL    HW1 2840   4.931   3.193   0.241
  647SOL    HW2 2841   5.020   3.118   0.355
  648SOL     OW 2842   4.621   2.649   4.464
  648SOL    HW1 2843   4.584   2.583   4.399
  648SOL    HW2 2844   4.720   2.655   4.454
  649SOL     OW 2845   4.260   4.608   1.809
  649SOL    HW1 2846   4.281   4.538   1.740
  649SOL    HW2 2847   4.336   4.613   1.874
  650SOL     OW 2848   5.006   4.063   0.888
  650SOL    HW1 2849   4.984   4.132   0.957
  650SOL    HW2 2850   4.942   3.986   0.896
  651SOL     OW 2851   0.982   6.023   6.272
  651SOL    HW1 2852   0.937   5.935   6.256
  651SOL    HW2 2853   0.925   6.079   6.332
  652SOL     OW 2854   4.871   1.919   2.539
  652SOL    HW1 2855   4.917   2.007   2.528
  652SOL    HW2 2856   4.927   1.847   2.497
  653SOL     OW 2857   3.764   4.859   2.484
  653SOL    HW1 2858   3.772   4.807   2.399
  653SOL    HW2 2859   3.667   4.880   2.501
  654SOL     OW 2860   6.759   5.840   6.549
  654SOL    HW1 2861   6.732   5.791   6.466
  654SOL    HW2 2862   6.737   5.784   6.629
  655SOL     OW 2863   0.704   1.501   0.022
  655SOL    HW1 2864   0.622   1.506   0.080
  655SOL    HW2 2865   0.786   1.502   0.079
  656SOL     OW 2866   2.395   6.127   1.150
  656SOL    HW1 2867   2.351   6.051   1.103
  656SOL    HW2 2868   2.327   6.196   1.174
  657SOL     OW 2869   3.778   1.555   0.183
  657SOL    HW1 2870   3.826   1.470   0.161
  657SOL    HW2 2871   3.727   1.586   0.102
  658SOL     OW 2872   3.672   5.648   6.283
  658SOL    HW1 2873   3.764   5.642   6.245
  658SOL    HW2 2874   3.606   5.623   6.212
  659SOL     OW 2875   3.709   0.772   5.675
  659SOL    HW1 2876   3.676   0.679   5.657
  659SOL    HW2 2877   3.643   0.820   5.733
  660SOL     OW 2878   3.740   5.727   3.008
  660SOL    HW1 2879   3.817   5.790   3.025
  660SOL    HW2 2880   3.707   5.692   3.095
  661SOL     OW 2881   5.623   5.140   2.785
  661SOL    HW1 2882   5.603   5.152   2.688
  661SOL    HW2 2883   5.699   5.076   2.796
  662SOL     OW 2884   4.052   1.872   0.523
  662SOL    HW1 2885   4.053   1.795   0.587
  662SOL    HW2 2886   4.124   1.859   0.455
  663SOL     OW 2887   1.700   4.532   4.777
  663SOL    HW1 2888   1.638   4.593   4.826
  663SOL    HW2 2889   1.786   4.523   4.828
  664SOL     OW 2890   5.852   0.008   6.670
  664SOL    HW1 2891   5.931   6.983   6.624
  664SOL    HW2 2892   5.876   0.029   6.765
  665SOL     OW 2893   0.853   4.748   1.871
  665SOL    HW1 2894   0.814   4.840   1.883
  665SOL    HW2 2895   0.788   4.691   1.821
  666SOL     OW 2896   4.389   1.320   1.404
  666SOL    HW1 2897   4.326   1.397   1.411
  666SOL    HW2 2898   4.445   1.331   1.322
  667SOL     OW 2899   1.186   0.191   2.162
  667SOL    HW1 2900   1.123   0.261   2.128
  667SOL    HW2 2901   1.158   0.163   2.254
  668SOL     OW 2902   5.864   2.846   0.479
  668SOL    HW1 2903   5.862   2.755   0.436
  668SOL    HW2 2904   5.774   2.889   0.469
  669SOL     OW 2905   5.134   1.608   3.078
  669SOL    HW1 2906   5.059   1.604   3.143
  669SOL    HW2 2907   5.220   1.628   3.126
  670SOL     OW 2908   3.582   1.855   2.584
  670SOL    HW1 2909   3.527   1.786   2.537
  670SOL    HW2 2910   3.527   1.902   2.652
  671SOL     OW 2911   2.083   6.471   2.080
  671SOL    HW1 2912   2.144   6.447   2.155
  671SOL    HW2 2913   2.090   6.569   2.062
  672SOL     OW 2914   0.534   0.180   2.069
  672SOL    HW1 2915   0.575   0.268   2.091
  672SOL    HW2 2916   0.514   0.176   1.971
  673SOL     OW 2917   6.115   6.852   6.748
  673SOL    HW1 2918   6.145   6.932   6.801
  673SOL    HW2 2919   6.139   6.768   6.798
  674SOL     OW 2920   5.312   0.650   4.082
  674SOL    HW1 2921   5.280   0.599   4.002
  674SOL    HW2 2922   5.348   0.739   4.053
  675SOL     OW 2923   0.736   3.551   2.832
  675SOL    HW1 2924   0.637   3.540   2.838
  675SOL    HW2 2925   0.765   3.547   2.737
  676SOL     OW 2926   2.236   6.065   6.257
  676SOL    HW1 2927   2.142   6.076   6.290
  676SOL    HW2 2928   2.237   6.066   6.157
  677SOL     OW 2929   6.073   1.709   1.289
  677SOL    HW1 2930   5.976   1.708   1.268
  677SOL    HW2 2931   6.097   1.628   1.343
  678SOL     OW 2932   0.916   5.239   3.651
  678SOL    HW1 2933   0.954   5.276   3.567
  678SOL    HW2 2934   0.817   5.233   3.643
  679SOL     OW 2935   4.778   2.081   5.195
  679SOL    HW1 2936   4.841   2.008   5.169
  679SOL    HW2 2937   4.826   2.169   5.193
  680SOL     OW 2938   6.444   6.328   3.625
  680SOL    HW1 2939   6.415   6.286   3.711
  680SOL    HW2 2940   6.497   6.410   3.645
  681SOL     OW 2941   4.663   4.633   2.945
  681SOL    HW1 2942   4.578   4.593   2.910
  681SOL    HW2 2943   4.645   4.679   3.032
  682SOL     OW 2944   0.149   1.433   3.244
  682SOL    HW1 2945   0.054   1.405   3.228
  682SOL    HW2 2946   0.197   1.438   3.156
  683SOL     OW 2947   3.436   3.879   1.153
  683SOL    HW1 2948   3.429   3.793   1.203
  683SOL    HW2 2949   3.518   3.928   1.181
  684SOL     OW 2950   6.380   1.313   5.543
  684SOL    HW1 2951   6.381   1.272   5.634
  684SOL    HW2 2952   6.333   1.252   5.480
  685SOL     OW 2953   3.049   6.685   2.978
  685SOL    HW1 2954   3.100   6.745   2.916
  685SOL    HW2 2955   3.064   6.715   3.072
  686SOL     OW 2956   4.347   0.709   5.166
  686SOL    HW1 2957   4.359   0.678   5.260
  686SOL    HW2 2958   4.249   0.723   5.148
  687SOL     OW 2959   6.754   1.255   3.904
  687SOL    HW1 2960   6.740   1.162   3.939
  687SOL    HW2 2961   6.725   1.259   3.808
  688SOL     OW 2962   5.823   1.444   6.953
  688SOL    HW1 2963   5.911   1.460   6.909
  688SOL    HW2 2964   5.785   1.357   6.921
  689SOL     OW 2965   1.874   5.322   6.949
  689SOL    HW1 2966   1.963   5.362   6.967
  689SOL    HW2 2967   1.873   5.227   6.979
  690SOL     OW 2968   5.520   4.003   3.331
  690SOL    HW1 2969   5.537   3.929   3.266
  690SOL    HW2 2970   5.599   4.013   3.392
  691SOL     OW 2971   6.068   1.332   1.316
  691SOL    HW1 2972   6.097   1.273   1.392
  691SOL    HW2 2973   5.988   1.385   1.344
  692SOL     OW 2974   1.841   1.280   4.359
  692SOL    HW1 2975   1.869   1.212   4.291
  692SOL    HW2 2976   1.917   1.341   4.379
  693SOL     OW 2977   5.971   5.014   3.444
  693SOL    HW1 2978   5.918   5.096   3.466
  693SOL    HW2 2979   5.935   4.937   3.496
  694SOL     OW 2980   4.407   5.996   4.602
  694SOL    HW1 2981   4.370   6.088   4.615
  694SOL    HW2 2982   4.336   5.937   4.562
  695SOL     OW 2983   4.927   6.843   3.960
  695SOL    HW1 2984   4.959   6.769   3.901
  695SOL    HW2 2985   4.908   6.925   3.905
  696SOL     OW 2986   5.729   4.245   2.417
  696SOL    HW1 2987   5.778   4.255   2.331
  696SOL    HW2 2988   5.764   4.166   2.467
  697SOL     OW 2989   1.076   6.668   2.133
  697SOL    HW1 2990   1.068   6.615   2.217
  697SOL    HW2 2991   1.130   6.751   2.151
  698SOL     OW 2992   5.555   5.874   6.310
  698SOL    HW1 2993   5.633   5.813   6.297
  698SOL    HW2 2994   5.587   5.968   6.321
  699SOL     OW 2995   3.817   3.710   0.605
  699SOL    HW1 2996   3.726   3.746   0.629
  699SOL    HW2 2997   3.887   3.777   0.629
  700SOL     OW 2998   3.943   6.809   5.148
  700SOL    HW1 2999   4.002   6.888   5.129
  700SOL    HW2 3000   3.899   6.780   5.063
  701SOL     OW 3001   4.315   5.043   1.183
  701SOL    HW1 3002   4.255   4.964   1.168
  701SOL    HW2 3003   4.260   5.126   1.187
  702SOL     OW 3004   4.488   0.672   4.694
  702SOL    HW1 3005   4.393   0.647   4.674
  702SOL    HW2 3006   4.514   0.750   4.638
  703SOL     OW 3007   2.811   2.752   0.098
  703SOL    HW1 3008   2.872   2.725   0.173
  703SOL    HW2 3009   2.743   2.681   0.082
  704SOL     OW 3010   3.438   1.232   6.009
  704SOL    HW1 3011   3.473   1.281   5.929
  704SOL    HW2 3012   3.348   1.194   5.987
  705SOL     OW 3013   0.291   6.229   5.689
  705SOL    HW1 3014   0.265   6.312   5.738
  705SOL    HW2 3015   0.232   6.153   5.718
  706SOL     OW 3016   3.947   0.981   5.276
  706SOL    HW1 3017   3.867   0.958   5.331
  706SOL    HW2 3018   3.930   1.064   5.223
  707SOL     OW 3019   2.565   5.645   4.044
  707SOL    HW1 3020   2.579   5.710   4.119
  707SOL    HW2 3021   2.654   5.612   4.012
  708SOL     OW 3022   4.734   6.092   3.773
  708SOL    HW1 3023   4.638   6.075   3.795
  708SOL    HW2 3024   4.788   6.089   3.857
  709SOL     OW 3025   2.525   0.535   1.588
  709SOL    HW1 3026   2.443   0.480   1.606
  709SOL    HW2 3027   2.583   0.535   1.669
  710SOL     OW 3028   5.218   3.562   2.213
  710SOL    HW1 3029   5.226   3.660   2.194
  710SOL    HW2 3030   5.221   3.510   2.128
  711SOL     OW 3031   0.486   1.920   0.200
  711SOL    HW1 3032   0.526   2.000   0.245
  711SOL    HW2 3033   0.437   1.949   0.118
  712SOL     OW 3034   5.117   3.932   0.038
  712SOL    HW1 3035   5.056   3.946   0.116
  712SOL    HW2 3036   5.164   3.844   0.048
  713SOL     OW 3037   4.295   3.381   5.315
  713SOL    HW1 3038   4.275   3.388   5.413
  713SOL    HW2 3039   4.370   3.444   5.292
  714SOL     OW 3040   5.522   6.126   2.921
  714SOL    HW1 3041   5.594   6.079   2.869
  714SOL    HW2 3042   5.555   6.144   3.014
  715SOL     OW 3043   6.153   4.772   5.485
  715SOL    HW1 3044   6.056   4.779   5.507
  715SOL    HW2 3045   6.204   4.840   5.537
  716SOL     OW 3046   3.157   2.021   3.164
  716SOL    HW1 3047   3.246   1.994   3.199
  716SOL    HW2 3048   3.121   2.096   3.219
  717SOL     OW 3049   5.219   4.841   3.938
  717SOL    HW1 3050   5.241   4.891   3.855
  717SOL    HW2 3051   5.283   4.765   3.950
  718SOL     OW 3052   6.135   2.286   5.241
  718SOL    HW1 3053   6.139   2.188   5.225
  718SOL    HW2 3054   6.214   2.315   5.296
  719SOL     OW 3055   5.071   6.428   3.495
  719SOL    HW1 3056   5.002   6.452   3.563
  719SOL    HW2 3057   5.060   6.486   3.414
  720SOL     OW 3058   2.757   1.097   1.372
  720SOL    HW1 3059   2.738   1.164   1.300
  720SOL    HW2 3060   2.711   1.011   1.350
  721SOL     OW 3061   6.366   3.203   2.046
  721SOL    HW1 3062   6.308   3.226   2.124
  721SOL    HW2 3063   6.386   3.286   1.993
  722SOL     OW 3064   4.790   6.168   0.998
  722SOL    HW1 3065   4.824   6.204   0.912
  722SOL    HW2 3066   4.719   6.229   1.034
  723SOL     OW 3067   2.120   0.643   4.646
  723SOL    HW1 3068   2.028   0.642   4.607
  723SOL    HW2 3069   2.124   0.711   4.720
  724SOL     OW 3070   1.038   1.693   4.612
  724SOL    HW1 3071   1.091   1.633   4.551
  724SOL    HW2 3072   1.030   1.783   4.571
  725SOL     OW 3073   2.112   4.611   3.030
  725SOL    HW1 3074   2.187   4.665   2.991
  725SOL    HW2 3075   2.062   4.565   2.957
  726SOL     OW 3076   1.932   3.913   1.045
  726SOL    HW1 3077   1.850   3.865   1.077
  726SOL    HW2 3078   1.913   4.012   1.041
  727SOL     OW 3079   3.558   5.131   4.853
  727SOL    HW1 3080   3.594   5.082   4.774
  727SOL    HW2 3081   3.467   5.096   4.876
  728SOL     OW 3082   6.724   3.390   3.670
  728SOL    HW1 3083   6.661   3.341   3.731
  728SOL    HW2 3084   6.808   3.412   3.718
  729SOL     OW 3085   0.900   4.040   0.949
  729SOL    HW1 3086   0.954   4.053   0.866
  729SOL    HW2 3087   0.932   4.104   1.019
  730SOL     OW 3088   4.448   1.293   3.158
  730SOL    HW1 3089   4.363   1.241   3.155
  730SOL    HW2 3090   4.508   1.265   3.084
  731SOL     OW 3091   4.517   4.515   4.518
  731SOL    HW1 3092   4.454   4.593   4.511
  731SOL    HW2 3093   4.606   4.547   4.550
  732SOL     OW 3094   3.656   0.928   4.831
  732SOL    HW1 3095   3.597   1.007   4.850
  732SOL    HW2 3096   3.751   0.955   4.842
  733SOL     OW 3097   6.298   5.141   3.845
  733SOL    HW1 3098   6.291   5.198   3.927
  733SOL    HW2 3099   6.207   5.126   3.807
  734SOL     OW 3100   6.605   6.242   2.843
  734SOL    HW1 3101   6.668   6.296   2.787
  734SOL    HW2 3102   6.526   6.215   2.788
  735SOL     OW 3103   4.165   6.936   2.457
  735SOL    HW1 3104   4.078   6.892   2.436
  735SOL    HW2 3105   4.204   6.897   2.540
  736SOL     OW 3106   1.822   1.952   3.722
  736SOL    HW1 3107   1.754   2.009   3.675
  736SOL    HW2 3108   1.909   2.000   3.727
  737SOL     OW 3109   3.931   1.290   6.405
  737SOL    HW1 3110   4.012   1.237   6.429
  737SOL    HW2 3111   3.891   1.254   6.320
  738SOL     OW 3112   2.037   4.771   0.408
  738SOL    HW1 3113   2.126   4.812   0.427
  738SOL    HW2 3114   2.024   4.691   0.468
  739SOL     OW 3115   1.847   6.689   3.680
  739SOL    HW1 3116   1.829   6.773   3.629
  739SOL    HW2 3117   1.883   6.713   3.771
  740SOL     OW 3118   5.237   3.495   3.386
  740SOL    HW1 3119   5.331   3.519   3.362
  740SOL    HW2 3120   5.211   3.411   3.339
  741SOL     OW 3121   2.968   1.186   2.784
  741SOL    HW1 3122   3.010   1.153   2.870
  741SOL    HW2 3123   3.011   1.272   2.758
  742SOL     OW 3124   1.624   6.872   1.893
  742SOL    HW1 3125   1.549   6.918   1.845
  742SOL    HW2 3126   1.697   6.852   1.829
  743SOL     OW 3127   0.758   6.148   2.871
  743SOL    HW1 3128   0.775   6.050   2.862
  743SOL    HW2 3129   0.746   6.189   2.781
  744SOL     OW 3130   5.139   1.532   6.863
  744SOL    HW1 3131   5.160   1.625   6.833
  744SOL    HW2 3132   5.065   1.495   6.808
  745SOL     OW 3133   2.325   6.373   4.891
  745SOL    HW1 3134   2.256   6.370   4.819
  745SOL    HW2 3135   2.410   6.334   4.856
  746SOL     OW 3136   0.141   4.755   4.311
  746SOL    HW1 3137   0.071   4.804   4.361
  746SOL    HW2 3138   0.170   4.810   4.232
  747SOL     OW 3139   4.702   5.321   2.574
  747SOL    HW1 3140   4.660   5.371   2.499
  747SOL    HW2 3141   4.755   5.383   2.631
  748SOL     OW 3142   5.550   4.786   1.255
  748SOL    HW1 3143   5.491   4.850   1.206
  748SOL    HW2 3144   5.617   4.747   1.191
  749SOL     OW 3145   5.207   4.857   5.153
  749SOL    HW1 3146   5.259   4.875   5.069
  749SOL    HW2 3147   5.232   4.924   5.223
  750SOL     OW 3148   2.349   2.125   3.299
  750SOL    HW1 3149   2.316   2.215   3.270
  750SOL    HW2 3150   2.359   2.125   3.399
  751SOL     OW 3151   3.366   1.068   0.740
  751SOL    HW1 3152   3.444   1.006   0.738
  751SOL    HW2 3153   3.283   1.018   0.715
  752SOL     OW 3154   3.817   2.920   5.008
  752SOL    HW1 3155   3.750   2.958   4.944
  752SOL    HW2 3156   3.901   2.897   4.959
  753SOL     OW 3157   3.519   4.137   3.751
  753SOL    HW1 3158   3.544   4.149   3.655
  753SOL    HW2 3159   3.422   4.113   3.757
  754SOL     OW 3160   4.890   0.335   0.039
  754SOL    HW1 3161   4.978   0.289   0.054
  754SOL    HW2 3162   4.865   0.327   6.958
  755SOL     OW 3163   4.511   4.545   5.224
  755SOL    HW1 3164   4.548   4.454   5.204
  755SOL    HW2 3165   4.425   4.558   5.176
  756SOL     OW 3166   2.669   4.942   6.416
  756SOL    HW1 3167   2.689   4.924   6.320
  756SOL    HW2 3168   2.585   4.995   6.424
  757SOL     OW 3169   1.731   6.539   1.814
  757SOL    HW1 3170   1.639   6.552   1.851
  757SOL    HW2 3171   1.772   6.628   1.795
  758SOL     OW 3172   4.814   1.200   4.387
  758SOL    HW1 3173   4.773   1.139   4.454
  758SOL    HW2 3174   4.914   1.196   4.395
  759SOL     OW 3175   0.285   3.910   4.038
  759SOL    HW1 3176   0.224   3.954   3.972
  759SOL    HW2 3177   0.346   3.847   3.990
  760SOL     OW 3178   6.764   5.105   3.353
  760SOL    HW1 3179   6.823   5.044   3.300
  760SOL    HW2 3180   6.717   5.168   3.291
  761SOL     OW 3181   4.967   4.997   6.456
  761SOL    HW1 3182   5.048   4.943   6.479
  761SOL    HW2 3183   4.984   5.048   6.371
  762SOL     OW 3184   4.218   5.554   3.856
  762SOL    HW1 3185   4.290   5.617   3.882
  762SOL    HW2 3186   4.132   5.581   3.900
  763SOL     OW 3187   5.302   0.261   0.399
  763SOL    HW1 3188   5.245   0.185   0.432
  763SOL    HW2 3189   5.349   0.303   0.477
  764SOL     OW 3190   5.429   6.197   5.032
  764SOL    HW1 3191   5.368   6.127   5.069
  764SOL    HW2 3192   5.425   6.278   5.090
  765SOL     OW 3193   6.047   6.493   0.698
  765SOL    HW1 3194   6.110   6.520   0.772
  765SOL    HW2 3195   6.065   6.548   0.617
  766SOL     OW 3196   2.744   1.826   4.585
  766SOL    HW1 3197   2.797   1.808   4.668
  766SOL    HW2 3198   2.798   1.883   4.523
  767SOL     OW 3199   6.774   5.854   3.917
  767SOL    HW1 3200   6.808   5.829   3.826
  767SOL    HW2 3201   6.675   5.867   3.913
  768SOL     OW 3202   2.318   5.466   2.800
  768SOL    HW1 3203   2.377   5.541   2.828
  768SOL    HW2 3204   2.251   5.447   2.871
  769SOL     OW 3205   3.021   2.019   5.385
  769SOL    HW1 3206   3.103   2.076   5.377
  769SOL    HW2 3207   3.007   1.969   5.299
  770SOL     OW 3208   1.530   4.699   5.636
  770SOL    HW1 3209   1.438   4.700   5.675
  770SOL    HW2 3210   1.568   4.607   5.644
  771SOL     OW 3211   1.686   4.887   2.889
  771SOL    HW1 3212   1.744   4.824   2.837
  771SOL    HW2 3213   1.593   4.886   2.851
  772SOL     OW 3214   5.289   4.516   0.273
  772SOL    HW1 3215   5.316   4.532   0.368
  772SOL    HW2 3216   5.352   4.450   0.231
  773SOL     OW 3217   2.336   4.259   3.760
  773SOL    HW1 3218   2.391   4.299   3.833
  773SOL    HW2 3219   2.256   4.317   3.743
  774SOL     OW 3220   2.246   1.338   3.741
  774SOL    HW1 3221   2.200   1.397   3.675
  774SOL    HW2 3222   2.322   1.291   3.697
  775SOL     OW 3223   1.288   4.669   2.760
  775SOL    HW1 3224   1.221   4.681   2.834
  775SOL    HW2 3225   1.304   4.572   2.744
  776SOL     OW 3226   2.328   5.519   6.182
  776SOL    HW1 3227   2.323   5.598   6.121
  776SOL    HW2 3228   2.264   5.449   6.151
  777SOL     OW 3229   2.064   3.744   6.243
  777SOL    HW1 3230   2.062   3.737   6.343
  777SOL    HW2 3231   2.157   3.761   6.212
  778SOL     OW 3232   3.265   5.729   6.732
  778SOL    HW1 3233   3.262   5.803   6.800
  778SOL    HW2 3234   3.176   5.723   6.686
  779SOL     OW 3235   6.138   2.173   2.813
  779SOL    HW1 3236   6.188   2.222   2.884
  779SOL    HW2 3237   6.202   2.125   2.754
  780SOL     OW 3238   6.972   2.466   4.308
  780SOL    HW1 3239   6.904   2.450   4.379
  780SOL    HW2 3240   6.945   2.419   4.224
  781SOL     OW 3241   0.624   4.542   6.719
  781SOL    HW1 3242   0.595   4.570   6.628
  781SOL    HW2 3243   0.668   4.452   6.714
  782SOL     OW 3244   2.000   3.904   5.337
  782SOL    HW1 3245   2.038   3.891   5.428
  782SOL    HW2 3246   2.063   3.868   5.268
  783SOL     OW 3247   6.443   4.991   6.848
  783SOL    HW1 3248   6.528   5.039   6.826
  783SOL    HW2 3249   6.435   4.981   6.947
  784SOL     OW 3250   2.066   6.065   0.778
  784SOL    HW1 3251   2.078   6.164   0.768
  784SOL    HW2 3252   2.156   6.022   0.780
  785SOL     OW 3253   0.239   0.761   4.349
  785SOL    HW1 3254   0.159   0.783   4.405
  785SOL    HW2 3255   0.322   0.776   4.403
  786SOL     OW 3256   6.112   0.795   4.205
  786SOL    HW1 3257   6.053   0.765   4.280
  786SOL    HW2 3258   6.207   0.779   4.230
  787SOL     OW 3259   1.881   6.539   1.347
  787SOL    HW1 3260   1.939   6.517   1.426
  787SOL    HW2 3261   1.787   6.508   1.365
  788SOL     OW 3262   2.188   2.969   2.062
  788SOL    HW1 3263   2.170   2.927   2.150
  788SOL    HW2 3264   2.260   2.919   2.014
  789SOL     OW 3265   4.208   4.800   2.767
  789SOL    HW1 3266   4.184   4.756   2.854
  789SOL    HW2 3267   4.299   4.768   2.738
  790SOL     OW 3268   0.446   3.025   2.472
  790SOL    HW1 3269   0.367   2.968   2.491
  790SOL    HW2 3270   0.433   3.116   2.512
  791SOL     OW 3271   3.225   0.241   3.805
  791SOL    HW1 3272   3.194   0.336   3.802
  791SOL    HW2 3273   3.221   0.207   3.899
  792SOL     OW 3274   2.543   0.457   0.760
  792SOL    HW1 3275   2.518   0.364   0.732
  792SOL    HW2 3276   2.490   0.523   0.707
  793SOL     OW 3277   2.197   6.315   4.662
  793SOL    HW1 3278   2.282   6.333   4.612
  793SOL    HW2 3279   2.123   6.300   4.596
  794SOL     OW 3280   2.924   3.370   2.615
  794SOL    HW1 3281   2.950   3.293   2.673
  794SOL    HW2 3282   2.856   3.427   2.662
  795SOL     OW 3283   4.912   0.795   5.424
  795SOL    HW1 3284   4.910   0.778   5.523
  795SOL    HW2 3285   5.007   0.795   5.392
  796SOL     OW 3286   0.733   1.964   0.077
  796SOL    HW1 3287   0.778   2.043   0.119
  796SOL    HW2 3288   0.661   1.931   0.138
  797SOL     OW 3289   3.454   6.465   1.308
  797SOL    HW1 3290   3.391   6.540   1.327
  797SOL    HW2 3291   3.458   6.403   1.386
  798SOL     OW 3292   5.077   4.731   1.434
  798SOL    HW1 3293   5.080   4.763   1.340
  798SOL    HW2 3294   5.165   4.689   1.458
  799SOL     OW 3295   2.841   2.823   5.786
  799SOL    HW1 3296   2.868   2.886   5.713
  799SOL    HW2 3297   2.753   2.852   5.823
  800SOL     OW 3298   5.811   3.111   3.683
  800SOL    HW1 3299   5.763   3.025   3.698
  800SOL    HW2 3300   5.884   3.098   3.615
  801SOL     OW 3301   1.842   5.879   6.392
  801SOL    HW1 3302   1.748   5.866   6.362
  801SOL    HW2 3303   1.900   5.810   6.349
  802SOL     OW 3304   4.358   2.569   6.442
  802SOL    HW1 3305   4.430   2.555   6.510
  802SOL    HW2 3306   4.378   2.516   6.360
  803SOL     OW 3307   2.414   2.154   3.984
  803SOL    HW1 3308   2.387   2.187   4.074
  803SOL    HW2 3309   2.381   2.061   3.971
  804SOL     OW 3310   5.089   0.307   2.789
  804SOL    HW1 3311   5.146   0.325   2.868
  804SOL    HW2 3312   5.136   0.244   2.727
  805SOL     OW 3313   3.498   0.919   3.937
  805SOL    HW1 3314   3.563   0.994   3.921
  805SOL    HW2 3315   3.544   0.831   3.924
  806SOL     OW 3316   3.185   6.522   5.393
  806SOL    HW1 3317   3.267   6.574   5.419
  806SOL    HW2 3318   3.188   6.504   5.295
  807SOL     OW 3319   0.933   5.953   5.934
  807SOL    HW1 3320   0.901   6.035   5.982
  807SOL    HW2 3321   0.877   5.875   5.962
  808SOL     OW 3322   5.202   2.772   6.216
  808SOL    HW1 3323   5.125   2.720   6.178
  808SOL    HW2 3324   5.288   2.738   6.177
  809SOL     OW 3325   3.048   5.866   6.553
  809SOL    HW1 3326   2.964   5.818   6.579
  809SOL    HW2 3327   3.047   5.958   6.593
  810SOL     OW 3328   3.388   3.608   0.018
  810SOL    HW1 3329   3.380   3.541   6.961
  810SOL    HW2 3330   3.468   3.588   0.074
  811SOL     OW 3331   5.953   5.687   4.411
  811SOL    HW1 3332   5.970   5.773   4.461
  811SOL    HW2 3333   5.874   5.699   4.351
  812SOL     OW 3334   0.919   3.224   1.357
  812SOL    HW1 3335   0.878   3.267   1.277
  812SOL    HW2 3336   1.017   3.246   1.359
  813SOL     OW 3337   1.833   1.166   5.039
  813SOL    HW1 3338   1.922   1.164   5.085
  813SOL    HW2 3339   1.818   1.079   4.992
  814SOL     OW 3340   0.808   4.119   2.080
  814SOL    HW1 3341   0.767   4.143   2.168
  814SOL    HW2 3342   0.758   4.163   2.006
  815SOL     OW 3343   4.830   2.982   4.921
  815SOL    HW1 3344   4.744   2.930   4.916
  815SOL    HW2 3345   4.899   2.928   4.969
  816SOL     OW 3346   5.031   3.615   6.424
  816SOL    HW1 3347   4.979   3.555   6.364
  816SOL    HW2 3348   4.969   3.671   6.479
  817SOL     OW 3349   0.137   4.845   6.458
  817SOL    HW1 3350   0.173   4.757   6.488
  817SOL    HW2 3351   0.173   4.918   6.516
  818SOL     OW 3352   0.263   1.516   5.163
  818SOL    HW1 3353   0.231   1.423   5.143
  818SOL    HW2 3354   0.362   1.515   5.174
  819SOL     OW 3355   5.061   3.022   1.659
  819SOL    HW1 3356   5.011   2.978   1.584
  819SOL    HW2 3357   5.109   2.951   1.712
  820SOL     OW 3358   2.583   1.944   5.237
  820SOL    HW1 3359   2.559   1.965   5.142
  820SOL    HW2 3360   2.593   2.029   5.289
  821SOL     OW 3361   4.990   3.527   6.885
  821SOL    HW1 3362   5.024   3.554   6.975
  821SOL    HW2 3363   4.921   3.592   6.855
  822SOL     OW 3364   0.050   4.994   3.341
  822SOL    HW1 3365   0.072   4.988   3.244
  822SOL    HW2 3366   0.113   5.057   3.386
  823SOL     OW 3367   1.880   2.718   4.415
  823SOL    HW1 3368   1.805   2.773   4.379
  823SOL    HW2 3369   1.915   2.760   4.499
  824SOL     OW 3370   4.966   0.073   6.821
  824SOL    HW1 3371   4.981   0.042   6.915
  824SOL    HW2 3372   4.881   0.126   6.817
  825SOL     OW 3373   6.164   5.961   0.729
  825SOL    HW1 3374   6.082   6.008   0.761
  825SOL    HW2 3375   6.140   5.897   0.656
  826SOL     OW 3376   3.801   1.791   0.310
  826SOL    HW1 3377   3.785   1.701   0.269
  826SOL    HW2 3378   3.831   1.855   0.239
  827SOL     OW 3379   3.207   3.687   4.545
  827SOL    HW1 3380   3.276   3.752   4.514
  827SOL    HW2 3381   3.251   3.613   4.595
  828SOL     OW 3382   6.879   6.732   6.320
  828SOL    HW1 3383   6.893   6.670   6.243
  828SOL    HW2 3384   6.785   6.767   6.318
  829SOL     OW 3385   3.937   3.345   1.850
  829SOL    HW1 3386   4.024   3.343   1.898
  829SOL    HW2 3387   3.865   3.373   1.913
  830SOL     OW 3388   0.170   4.402   6.260
  830SOL    HW1 3389   0.243   4.432   6.199
  830SOL    HW2 3390   0.208   4.344   6.331
  831SOL     OW 3391   5.863   0.968   2.445
  831SOL    HW1 3392   5.781   0.925   2.483
  831SOL    HW2 3393   5.883   0.930   2.355
  832SOL     OW 3394   2.926   1.922   4.329
  832SOL    HW1 3395   2.830   1.924   4.300
  832SOL    HW2 3396   2.936   1.973   4.414
  833SOL     OW 3397   3.827   3.114   6.857
  833SOL    HW1 3398   3.853   3.141   6.764
  833SOL    HW2 3399   3.860   3.182   6.922
  834SOL     OW 3400   5.594   2.967   0.494
  834SOL    HW1 3401   5.556   2.889   0.545
  834SOL    HW2 3402   5.556   2.968   0.402
  835SOL     OW 3403   6.986   0.476   4.558
  835SOL    HW1 3404   6.985   0.376   4.559
  835SOL    HW2 3405   6.896   0.510   4.581
  836SOL     OW 3406   5.205   0.848   4.735
  836SOL    HW1 3407   5.149   0.856   4.817
  836SOL    HW2 3408   5.279   0.915   4.737
  837SOL     OW 3409   1.554   0.433   6.824
  837SOL    HW1 3410   1.555   0.462   6.920
  837SOL    HW2 3411   1.645   0.445   6.785
  838SOL     OW 3412   1.705   6.359   2.996
  838SOL    HW1 3413   1.783   6.408   3.036
  838SOL    HW2 3414   1.620   6.398   3.031
  839SOL     OW 3415   1.288   2.366   0.763
  839SOL    HW1 3416   1.308   2.297   0.693
  839SOL    HW2 3417   1.331   2.340   0.849
  840SOL     OW 3418   4.565   4.998   0.821
  840SOL    HW1 3419   4.613   5.081   0.794
  840SOL    HW2 3420   4.568   4.932   0.746
  841SOL     OW 3421   2.454   5.506   6.426
  841SOL    HW1 3422   2.398   5.513   6.344
  841SOL    HW2 3423   2.407   5.449   6.494
  842SOL     OW 3424   4.079   5.935   0.801
  842SOL    HW1 3425   4.034   5.910   0.887
  842SOL    HW2 3426   4.168   5.891   0.796
  843SOL     OW 3427   1.419   0.471   1.757
  843SOL    HW1 3428   1.405   0.494   1.661
  843SOL    HW2 3429   1.505   0.422   1.768
  844SOL     OW 3430   6.995   0.239   1.697
  844SOL    HW1 3431   6.985   0.254   1.599
  844SOL    HW2 3432   0.017   0.321   1.740
  845SOL     OW 3433   3.492   1.531   2.533
  845SOL    HW1 3434   3.479   1.496   2.626
  845SOL    HW2 3435   3.447   1.470   2.468
  846SOL     OW 3436   2.252   2.152   0.488
  846SOL    HW1 3437   2.339   2.156   0.438
  846SOL    HW2 3438   2.265   2.185   0.581
  847SOL     OW 3439   2.685   3.563   1.574
  847SOL    HW1 3440   2.659   3.624   1.499
  847SOL    HW2 3441   2.782   3.575   1.594
  848SOL     OW 3442   6.407   6.125   0.273
  848SOL    HW1 3443   6.387   6.218   0.303
  848SOL    HW2 3444   6.391   6.061   0.348
  849SOL     OW 3445   5.707   3.198   0.018
  849SOL    HW1 3446   5.769   3.199   6.955
  849SOL    HW2 3447   5.710   3.287   0.064
  850SOL     OW 3448   1.671   1.024   4.246
  850SOL    HW1 3449   1.687   0.929   4.221
  850SOL    HW2 3450   1.645   1.030   4.342
  851SOL     OW 3451   5.261   2.778   6.505
  851SOL    HW1 3452   5.245   2.771   6.407
  851SOL    HW2 3453   5.199   2.847   6.544
  852SOL     OW 3454   6.824   4.252   1.570
  852SOL    HW1 3455   6.816   4.330   1.632
  852SOL    HW2 3456   6.762   4.179   1.600
  853SOL     OW 3457   2.922   3.164   0.830
  853SOL    HW1 3458   3.013   3.156   0.870
  853SOL    HW2 3459   2.854   3.132   0.897
  854SOL     OW 3460   6.529   6.709   5.412
  854SOL    HW1 3461   6.565   6.727   5.503
  854SOL    HW2 3462   6.494   6.615   5.408
  855SOL     OW 3463   5.434   1.691   0.380
  855SOL    HW1 3464   5.360   1.627   0.362
  855SOL    HW2 3465   5.521   1.652   0.349
  856SOL     OW 3466   2.007   5.298   1.841
  856SOL    HW1 3467   1.941   5.231   1.873
  856SOL    HW2 3468   2.087   5.251   1.804
  857SOL     OW 3469   7.013   5.200   4.951
  857SOL    HW1 3470   0.051   5.120   4.979
  857SOL    HW2 3471   6.917   5.173   4.940
  858SOL     OW 3472   4.328   4.177   0.181
  858SOL    HW1 3473   4.229   4.163   0.171
  858SOL    HW2 3474   4.374   4.089   0.185
  859SOL     OW 3475   4.952   5.349   5.361
  859SOL    HW1 3476   4.893   5.416   5.406
  859SOL    HW2 3477   5.046   5.381   5.362
  860SOL     OW 3478   4.452   3.035   6.404
  860SOL    HW1 3479   4.375   3.094   6.429
  860SOL    HW2 3480   4.536   3.071   6.446
  861SOL     OW 3481   1.912   5.382   2.202
  861SOL    HW1 3482   1.935   5.289   2.232
  861SOL    HW2 3483   1.995   5.433   2.183
  862SOL     OW 3484   0.716   3.896   3.782
  862SOL    HW1 3485   0.806   3.881   3.822
  862SOL    HW2 3486   0.709   3.842   3.698
  863SOL     OW 3487   6.253   0.652   1.490
  863SOL    HW1 3488   6.313   0.574   1.507
  863SOL    HW2 3489   6.193   0.666   1.569
  864SOL     OW 3490   5.998   5.870   3.006
  864SOL    HW1 3491   5.950   5.805   3.064
  864SOL    HW2 3492   6.089   5.889   3.045
  865SOL     OW 3493   1.727   5.917   4.975
  865SOL    HW1 3494   1.654   5.852   4.995
  865SOL    HW2 3495   1.809   5.868   4.947
  866SOL     OW 3496   3.325   0.401   1.915
  866SOL    HW1 3497   3.378   0.325   1.954
  866SOL    HW2 3498   3.241   0.413   1.968
  867SOL     OW 3499   5.684   2.757   5.958
  867SOL    HW1 3500   5.723   2.691   6.022
  867SOL    HW2 3501   5.649   2.709   5.878
  868SOL     OW 3502   0.583   2.429   1.710
  868SOL    HW1 3503   0.620   2.522   1.714
  868SOL    HW2 3504   0.657   2.363   1.717
  869SOL     OW 3505   0.026   3.919   2.978
  869SOL    HW1 3506   6.999   3.867   3.052
  869SOL    HW2 3507   6.991   4.005   2.965
  870SOL     OW 3508   3.626   5.250   2.221
  870SOL    HW1 3509   3.553   5.189   2.252
  870SOL    HW2 3510   3.604   5.284   2.129
  871SOL     OW 3511   5.081   1.767   3.454
  871SOL    HW1 3512   5.173   1.760   3.492
  871SOL    HW2 3513   5.013   1.747   3.525
  872SOL     OW 3514   1.157   2.007   4.951
  872SOL    HW1 3515   1.166   1.917   4.910
  872SOL    HW2 3516   1.142   1.997   5.050
  873SOL     OW 3517   4.308   0.171   6.540
  873SOL    HW1 3518   4.223   0.196   6.494
  873SOL    HW2 3519   4.338   0.247   6.598
  874SOL     OW 3520   5.589   3.550   1.893
  874SOL    HW1 3521   5.545   3.523   1.979
  874SOL    HW2 3522   5.612   3.647   1.897
  875SOL     OW 3523   5.033   5.546   1.853
  875SOL    HW1 3524   5.043   5.643   1.876
  875SOL    HW2 3525   5.089   5.525   1.773
  876SOL     OW 3526   6.136   0.034   0.518
  876SOL    HW1 3527   6.067   0.011   0.449
  876SOL    HW2 3528   6.215   0.076   0.474
  877SOL     OW 3529   1.566   4.076   0.042
  877SOL    HW1 3530   1.525   4.167   0.038
  877SOL    HW2 3531   1.560   4.041   0.135
  878SOL     OW 3532   3.965   6.298   4.583
  878SOL    HW1 3533   3.979   6.373   4.648
  878SOL    HW2 3534   3.942   6.337   4.493
  879SOL     OW 3535   5.877   6.480   6.706
  879SOL    HW1 3536   5.918   6.568   6.684
  879SOL    HW2 3537   5.780   6.493   6.730
  880SOL     OW 3538   2.861   3.585   2.805
  880SOL    HW1 3539   2.888   3.677   2.776
  880SOL    HW2 3540   2.893   3.569   2.898
  881SOL     OW 3541   4.827   1.298   0.400
  881SOL    HW1 3542   4.861   1.373   0.455
  881SOL    HW2 3543   4.904   1.251   0.357
  882SOL     OW 3544   1.643   2.677   3.189
  882SOL    HW1 3545   1.644   2.738   3.110
  882SOL    HW2 3546   1.695   2.718   3.264
  883SOL     OW 3547   2.713   0.032   3.506
  883SOL    HW1 3548   2.789   0.066   3.561
  883SOL    HW2 3549   2.728   0.056   3.410
  884SOL     OW 3550   3.663   3.596   5.694
  884SOL    HW1 3551   3.617   3.508   5.679
  884SOL    HW2 3552   3.751   3.597   5.648
  885SOL     OW 3553   4.315   2.805   6.298
  885SOL    HW1 3554   4.380   2.874   6.329
  885SOL    HW2 3555   4.327   2.722   6.353
  886SOL     OW 3556   3.415   1.969   6.827
  886SOL    HW1 3557   3.426   2.061   6.789
  886SOL    HW2 3558   3.358   1.915   6.766
  887SOL     OW 3559   5.114   1.090   5.483
  887SOL    HW1 3560   5.087   1.181   5.515
  887SOL    HW2 3561   5.096   1.023   5.555
  888SOL     OW 3562   0.062   6.162   2.155
  888SOL    HW1 3563   0.103   6.231   2.095
  888SOL    HW2 3564   0.096   6.176   2.248
  889SOL     OW 3565   0.907   3.905   6.983
  889SOL    HW1 3566   0.887   3.817   6.939
  889SOL    HW2 3567   0.923   3.890   0.065
  890SOL     OW 3568   2.564   6.344   4.757
  890SOL    HW1 3569   2.583   6.297   4.843
  890SOL    HW2 3570   2.642   6.334   4.695
  891SOL     OW 3571   5.090   5.239   2.255
  891SOL    HW1 3572   5.113   5.304   2.182
  891SOL    HW2 3573   4.992   5.243   2.274
  892SOL     OW 3574   2.506   4.395   0.704
  892SOL    HW1 3575   2.500   4.493   0.683
  892SOL    HW2 3576   2.464   4.377   0.793
  893SOL     OW 3577   1.834   5.960   2.520
  893SOL    HW1 3578   1.910   5.977   2.457
  893SOL    HW2 3579   1.854   5.880   2.575
  894SOL     OW 3580   1.115   3.713   1.395
  894SOL    HW1 3581   1.089   3.796   1.443
  894SOL    HW2 3582   1.092   3.633   1.451
  895SOL     OW 3583   0.357   5.777   4.095
  895SOL    HW1 3584   0.395   5.862   4.129
  895SOL    HW2 3585   0.259   5.787   4.079
  896SOL     OW 3586   0.508   1.092   6.566
  896SOL    HW1 3587   0.455   1.009   6.580
  896SOL    HW2 3588   0.547   1.092   6.474
  897SOL     OW 3589   4.816   0.674   0.335
  897SOL    HW1 3590   4.861   0.618   0.405
  897SOL    HW2 3591   4.834   0.770   0.354
  898SOL     OW 3592   4.278   0.325   3.288
  898SOL    HW1 3593   4.266   0.226   3.291
  898SOL    HW2 3594   4.190   0.370   3.305
  899SOL     OW 3595   6.886   5.710   0.264
  899SOL    HW1 3596   6.849   5.643   0.328
  899SOL    HW2 3597   6.972   5.748   0.300
  900SOL     OW 3598   5.218   5.348   1.115
  900SOL    HW1 3599   5.124   5.376   1.130
  900SOL    HW2 3600   5.275   5.428   1.096
  901SOL     OW 3601   1.110   0.450   2.992
  901SOL    HW1 3602   1.029   0.441   2.935
  901SOL    HW2 3603   1.102   0.390   3.071
  902SOL     OW 3604   6.007   2.923   1.824
  902SOL    HW1 3605   5.966   2.902   1.736
  902SOL    HW2 3606   6.085   2.862   1.840
  903SOL     OW 3607   6.928   1.780   1.137
  903SOL    HW1 3608   6.888   1.689   1.131
  903SOL    HW2 3609   6.976   1.789   1.224
  904SOL     OW 3610   2.786   1.179   2.235
  904SOL    HW1 3611   2.869   1.189   2.289
  904SOL    HW2 3612   2.788   1.092   2.187
  905SOL     OW 3613   5.589   2.404   6.621
  905SOL    HW1 3614   5.503   2.405   6.569
  905SOL    HW2 3615   5.659   2.356   6.569
  906SOL     OW 3616   5.365   2.852   6.887
  906SOL    HW1 3617   5.336   2.863   6.792
  906SOL    HW2 3618   5.389   2.941   6.925
  907SOL     OW 3619   5.014   4.387   6.875
  907SOL    HW1 3620   4.942   4.364   6.810
  907SOL    HW2 3621   5.076   4.309   6.884
  908SOL     OW 3622   1.248   4.515   3.046
  908SOL    HW1 3623   1.331   4.562   3.076
  908SOL    HW2 3624   1.273   4.432   2.996
  909SOL     OW 3625   5.283   5.267   6.276
  909SOL    HW1 3626   5.328   5.186   6.240
  909SOL    HW2 3627   5.338   5.348   6.255
  910SOL     OW 3628   2.741   4.991   0.887
  910SOL    HW1 3629   2.677   4.926   0.928
  910SOL    HW2 3630   2.820   5.001   0.948
  911SOL     OW 3631   1.117   4.847   6.035
  911SOL    HW1 3632   1.158   4.756   6.025
  911SOL    HW2 3633   1.172   4.901   6.098
  912SOL     OW 3634   5.376   1.794   4.524
  912SOL    HW1 3635   5.319   1.875   4.538
  912SOL    HW2 3636   5.463   1.805   4.573
  913SOL     OW 3637   5.574   6.722   2.746
  913SOL    HW1 3638   5.552   6.673   2.831
  913SOL    HW2 3639   5.653   6.678   2.703
  914SOL     OW 3640   2.675   6.681   6.948
  914SOL    HW1 3641   2.637   6.594   6.977
  914SOL    HW2 3642   2.774   6.682   6.965
  915SOL     OW 3643   5.399   5.844   1.017
  915SOL    HW1 3644   5.361   5.892   1.096
  915SOL    HW2 3645   5.336   5.851   0.941
  916SOL     OW 3646   1.626   3.202   2.799
  916SOL    HW1 3647   1.694   3.265   2.837
  916SOL    HW2 3648   1.536   3.246   2.800
  917SOL     OW 3649   0.277   6.807   0.416
  917SOL    HW1 3650   0.298   6.888   0.470
  917SOL    HW2 3651   0.347   6.738   0.431
  918SOL     OW 3652   2.781   6.060   0.087
  918SOL    HW1 3653   2.802   6.125   0.160
  918SOL    HW2 3654   2.850   6.066   0.015
  919SOL     OW 3655   5.413   1.372   5.905
  919SOL    HW1 3656   5.452   1.463   5.912
  919SOL    HW2 3657   5.367   1.362   5.817
  920SOL     OW 3658   2.813   4.909   2.272
  920SOL    HW1 3659   2.714   4.899   2.281
  920SOL    HW2 3660   2.858   4.858   2.346
  921SOL     OW 3661   5.122   5.595   4.874
  921SOL    HW1 3662   5.024   5.609   4.864
  921SOL    HW2 3663   5.157   5.541   4.797
  922SOL     OW 3664   3.308   2.929   4.010
  922SOL    HW1 3665   3.361   2.956   4.090
  922SOL    HW2 3666   3.370   2.902   3.936
  923SOL     OW 3667   2.180   3.562   5.358
  923SOL    HW1 3668   2.130   3.620   5.422
  923SOL    HW2 3669   2.249   3.617   5.310
  924SOL     OW 3670   6.966   2.945   1.837
  924SOL    HW1 3671   6.956   3.043   1.848
  924SOL    HW2 3672   6.911   2.897   1.906
  925SOL     OW 3673   0.839   1.587   0.276
  925SOL    HW1 3674   0.893   1.670   0.261
  925SOL    HW2 3675   0.810   1.583   0.371
  926SOL     OW 3676   1.892   2.042   1.964
  926SOL    HW1 3677   1.821   2.017   1.899
  926SOL    HW2 3678   1.981   2.047   1.918
  927SOL     OW 3679   6.476   3.502   4.781
  927SOL    HW1 3680   6.377   3.516   4.780
  927SOL    HW2 3681   6.515   3.546   4.862
  928SOL     OW 3682   3.161   4.432   6.006
  928SOL    HW1 3683   3.238   4.425   6.069
  928SOL    HW2 3684   3.076   4.444   6.057
  929SOL     OW 3685   0.127   1.476   4.796
  929SOL    HW1 3686   0.083   1.564   4.778
  929SOL    HW2 3687   0.227   1.488   4.797
  930SOL     OW 3688   4.872   5.360   5.095
  930SOL    HW1 3689   4.884   5.354   5.194
  930SOL    HW2 3690   4.787   5.313   5.069
  931SOL     OW 3691   6.371   0.740   2.868
  931SOL    HW1 3692   6.320   0.668   2.914
  931SOL    HW2 3693   6.456   0.758   2.918
  932SOL     OW 3694   3.710   0.738   3.613
  932SOL    HW1 3695   3.632   0.676   3.620
  932SOL    HW2 3696   3.726   0.781   3.702
  933SOL     OW 3697   1.870   5.882   1.949
  933SOL    HW1 3698   1.871   5.824   2.031
  933SOL    HW2 3699   1.846   5.975   1.974
  934SOL     OW 3700   1.754   3.140   0.473
  934SOL    HW1 3701   1.852   3.145   0.491
  934SOL    HW2 3702   1.722   3.046   0.485
  935SOL     OW 3703   5.876   2.548   5.237
  935SOL    HW1 3704   5.811   2.621   5.256
  935SOL    HW2 3705   5.859   2.470   5.297
  936SOL     OW 3706   1.925   0.204   5.832
  936SOL    HW1 3707   1.852   0.199   5.763
  936SOL    HW2 3708   1.950   0.111   5.861
  937SOL     OW 3709   3.314   1.801   5.645
  937SOL    HW1 3710   3.221   1.775   5.617
  937SOL    HW2 3711   3.320   1.900   5.651
  938SOL     OW 3712   5.647   6.018   4.433
  938SOL    HW1 3713   5.686   6.107   4.459
  938SOL    HW2 3714   5.603   5.977   4.513
  939SOL     OW 3715   1.005   6.575   5.695
  939SOL    HW1 3716   0.985   6.648   5.629
  939SOL    HW2 3717   0.996   6.610   5.788
  940SOL     OW 3718   1.906   5.248   0.329
  940SOL    HW1 3719   1.939   5.205   0.413
  940SOL    HW2 3720   1.901   5.179   0.256
  941SOL     OW 3721   3.319   0.317   0.140
  941SOL    HW1 3722   3.259   0.376   0.193
  941SOL    HW2 3723   3.309   0.222   0.170
  942SOL     OW 3724   6.597   5.010   0.454
  942SOL    HW1 3725   6.553   5.042   0.370
  942SOL    HW2 3726   6.528   4.989   0.523
  943SOL     OW 3727   3.500   5.701   1.331
  943SOL    HW1 3728   3.592   5.734   1.310
  943SOL    HW2 3729   3.464   5.653   1.251
  944SOL     OW 3730   6.795   6.519   3.175
  944SOL    HW1 3731   6.771   6.614   3.155
  944SOL    HW2 3732   6.712   6.464   3.183
  945SOL     OW 3733   0.535   5.165   6.011
  945SOL    HW1 3734   0.454   5.222   6.027
  945SOL    HW2 3735   0.548   5.104   6.089
  946SOL     OW 3736   5.901   1.939   4.436
  946SOL    HW1 3737   5.977   1.928   4.372
  946SOL    HW2 3738   5.923   2.013   4.500
  947SOL     OW 3739   3.665   4.001   3.935
  947SOL    HW1 3740   3.611   4.043   3.861
  947SOL    HW2 3741   3.624   3.913   3.960
  948SOL     OW 3742   3.410   1.109   3.555
  948SOL    HW1 3743   3.444   1.022   3.592
  948SOL    HW2 3744   3.472   1.183   3.582
  949SOL     OW 3745   3.436   0.334   5.726
  949SOL    HW1 3746   3.389   0.403   5.781
  949SOL    HW2 3747   3.370   0.284   5.671
  950SOL     OW 3748   0.184   0.684   2.573
  950SOL    HW1 3749   0.201   0.622   2.649
  950SOL    HW2 3750   0.257   0.678   2.506
  951SOL     OW 3751   1.696   6.873   2.952
  951SOL    HW1 3752   1.766   6.921   3.005
  951SOL    HW2 3753   1.622   6.937   2.929
  952SOL     OW 3754   3.602   1.543   3.185
  952SOL    HW1 3755   3.690   1.574   3.220
  952SOL    HW2 3756   3.529   1.574   3.246
  953SOL     OW 3757   0.243   4.584   6.021
  953SOL    HW1 3758   0.290   4.671   6.013
  953SOL    HW2 3759   0.144   4.599   6.023
  954SOL     OW 3760   4.692   6.227   2.570
  954SOL    HW1 3761   4.717   6.322   2.549
  954SOL    HW2 3762   4.746   6.195   2.648
  955SOL     OW 3763   2.008   5.176   0.976
  955SOL    HW1 3764   2.037   5.204   1.068
  955SOL    HW2 3765   2.087   5.174   0.915
  956SOL     OW 3766   4.507   0.713   1.311
  956SOL    HW1 3767   4.441   0.765   1.256
  956SOL    HW2 3768   4.492   0.616   1.297
  957SOL     OW 3769   6.222   0.544   2.970
  957SOL    HW1 3770   6.248   0.516   3.063
  957SOL    HW2 3771   6.194   0.464   2.918
  958SOL     OW 3772   5.020   6.394   1.401
  958SOL    HW1 3773   5.071   6.335   1.464
  958SOL    HW2 3774   4.970   6.338   1.336
  959SOL     OW 3775   4.888   6.457   2.900
  959SOL    HW1 3776   4.874   6.555   2.890
  959SOL    HW2 3777   4.812   6.408   2.856
  960SOL     OW 3778   1.615   6.588   6.563
  960SOL    HW1 3779   1.682   6.542   6.505
  960SOL    HW2 3780   1.584   6.526   6.634
  961SOL     OW 3781   3.623   1.256   3.186
  961SOL    HW1 3782   3.643   1.272   3.283
  961SOL    HW2 3783   3.572   1.333   3.149
  962SOL     OW 3784   0.375   0.403   4.723
  962SOL    HW1 3785   0.328   0.374   4.806
  962SOL    HW2 3786   0.341   0.492   4.695
  963SOL     OW 3787   5.860   2.799   1.195
  963SOL    HW1 3788   5.810   2.725   1.150
  963SOL    HW2 3789   5.810   2.885   1.183
  964SOL     OW 3790   3.886   5.921   4.790
  964SOL    HW1 3791   3.912   5.895   4.883
  964SOL    HW2 3792   3.870   5.839   4.736
  965SOL     OW 3793   5.886   2.034   3.423
  965SOL    HW1 3794   5.792   2.010   3.444
  965SOL    HW2 3795   5.893   2.062   3.327
  966SOL     OW 3796   4.979   0.821   3.993
  966SOL    HW1 3797   5.062   0.836   4.046
  966SOL    HW2 3798   5.000   0.824   3.895
  967SOL     OW 3799   4.471   4.861   6.464
  967SOL    HW1 3800   4.471   4.773   6.416
  967SOL    HW2 3801   4.559   4.875   6.509
  968SOL     OW 3802   3.503   0.482   1.456
  968SOL    HW1 3803   3.499   0.415   1.382
  968SOL    HW2 3804   3.596   0.517   1.465
  969SOL     OW 3805   2.958   4.104   6.429
  969SOL    HW1 3806   2.980   4.008   6.414
  969SOL    HW2 3807   2.869   4.111   6.475
  970SOL     OW 3808   5.245   6.599   5.999
  970SOL    HW1 3809   5.189   6.682   6.007
  970SOL    HW2 3810   5.238   6.547   6.085
  971SOL     OW 3811   5.481   3.594   3.361
  971SOL    HW1 3812   5.553   3.615   3.428
  971SOL    HW2 3813   5.493   3.653   3.281
  972SOL     OW 3814   0.470   2.854   0.612
  972SOL    HW1 3815   0.398   2.800   0.569
  972SOL    HW2 3816   0.489   2.818   0.704
  973SOL     OW 3817   0.092   2.926   5.400
  973SOL    HW1 3818   0.061   2.836   5.371
  973SOL    HW2 3819   0.181   2.945   5.359
  974SOL     OW 3820   0.761   4.424   2.257
  974SOL    HW1 3821   0.804   4.489   2.195
  974SOL    HW2 3822   0.661   4.427   2.245
  975SOL     OW 3823   2.910   0.589   2.865
  975SOL    HW1 3824   2.962   0.606   2.781
  975SOL    HW2 3825   2.824   0.544   2.842
  976SOL     OW 3826   6.821   3.215   3.463
  976SOL    HW1 3827   6.787   3.272   3.538
  976SOL    HW2 3828   6.919   3.199   3.475
  977SOL     OW 3829   6.401   1.626   1.759
  977SOL    HW1 3830   6.394   1.531   1.728
  977SOL    HW2 3831   6.327   1.679   1.720
  978SOL     OW 3832   5.169   2.970   1.254
  978SOL    HW1 3833   5.243   3.020   1.208
  978SOL    HW2 3834   5.208   2.915   1.329
  979SOL     OW 3835   0.326   4.448   6.830
  979SOL    HW1 3836   0.301   4.352   6.830
  979SOL    HW2 3837   0.425   4.457   6.842
  980SOL     OW 3838   4.131   1.167   4.694
  980SOL    HW1 3839   4.136   1.263   4.721
  980SOL    HW2 3840   4.189   1.112   4.754
  981SOL     OW 3841   0.781   6.514   5.475
  981SOL    HW1 3842   0.840   6.588   5.443
  981SOL    HW2 3843   0.706   6.501   5.411
  982SOL     OW 3844   6.629   1.222   6.186
  982SOL    HW1 3845   6.677   1.247   6.102
  982SOL    HW2 3846   6.568   1.297   6.213
  983SOL     OW 3847   0.717   4.344   3.090
  983SOL    HW1 3848   0.655   4.273   3.126
  983SOL    HW2 3849   0.791   4.300   3.039
  984SOL     OW 3850   0.651   3.544   3.816
  984SOL    HW1 3851   0.729   3.516   3.872
  984SOL    HW2 3852   0.661   3.506   3.724
  985SOL     OW 3853   6.190   5.483   5.109
  985SOL    HW1 3854   6.115   5.432   5.067
  985SOL    HW2 3855   6.247   5.524   5.038
  986SOL     OW 3856   4.586   5.459   1.145
  986SOL    HW1 3857   4.531   5.380   1.118
  986SOL    HW2 3858   4.525   5.537   1.164
  987SOL     OW 3859   4.887   4.639   4.968
  987SOL    HW1 3860   4.836   4.577   4.908
  987SOL    HW2 3861   4.940   4.585   5.034
  988SOL     OW 3862   2.541   4.575   2.133
  988SOL    HW1 3863   2.486   4.497   2.102
  988SOL    HW2 3864   2.626   4.579   2.080
  989SOL     OW 3865   1.073   2.334   1.021
  989SOL    HW1 3866   1.168   2.364   1.033
  989SOL    HW2 3867   1.072   2.243   0.980
  990SOL     OW 3868   3.824   6.770   4.539
  990SOL    HW1 3869   3.789   6.802   4.451
  990SOL    HW2 3870   3.763   6.700   4.576
  991SOL     OW 3871   0.825   5.418   4.028
  991SOL    HW1 3872   0.841   5.494   3.965
  991SOL    HW2 3873   0.730   5.420   4.058
  992SOL     OW 3874   6.804   2.429   6.762
  992SOL    HW1 3875   6.781   2.334   6.783
  992SOL    HW2 3876   6.775   2.488   6.837
  993SOL     OW 3877   1.420   4.987   0.104
  993SOL    HW1 3878   1.381   5.079   0.099
  993SOL    HW2 3879   1.386   4.941   0.186
  994SOL     OW 3880   3.269   6.560   0.447
  994SOL    HW1 3881   3.263   6.495   0.523
  994SOL    HW2 3882   3.300   6.512   0.365
  995SOL     OW 3883   6.165   3.785   5.626
  995SOL    HW1 3884   6.194   3.726   5.701
  995SOL    HW2 3885   6.156   3.879   5.659
  996SOL     OW 3886   4.284   6.647   4.648
  996SOL    HW1 3887   4.383   6.662   4.650
  996SOL    HW2 3888   4.248   6.647   4.741
  997SOL     OW 3889   1.112   6.641   3.307
  997SOL    HW1 3890   1.133   6.550   3.271
  997SOL    HW2 3891   1.170   6.709   3.262
  998SOL     OW 3892   4.546   0.143   6.404
  998SOL    HW1 3893   4.464   0.142   6.461
  998SOL    HW2 3894   4.620   0.095   6.452
  999SOL     OW 3895   5.384   3.075   2.937
  999SOL    HW1 3896   5.455   3.120   2.992
  999SOL    HW2 3897   5.304   3.057   2.994
 1000SOL     OW 3898   5.316   1.717   1.692
 1000SOL    HW1 3899   5.290   1.796   1.747
 1000SOL    HW2 3900   5.284   1.730   1.598
 1001SOL     OW 3901   2.805   6.905   2.676
 1001SOL    HW1 3902   2.730   6.917   2.611
 1001SOL    HW2 3903   2.816   6.808   2.697
 1002SOL     OW 3904   4.192   2.867   1.133
 1002SOL    HW1 3905   4.177   2.912   1.045
 1002SOL    HW2 3906   4.171   2.770   1.125
 1003SOL     OW 3907   1.226   0.282   2.811
 1003SOL    HW1 3908   1.324   0.271   2.828
 1003SOL    HW2 3909   1.188   0.348   2.876
 1004SOL     OW 3910   5.076   1.241   4.680
 1004SOL    HW1 3911   5.055   1.171   4.748
 1004SOL    HW2 3912   5.072   1.201   4.589
 1005SOL     OW 3913   0.824   5.419   2.140
 1005SOL    HW1 3914   0.860   5.326   2.142
 1005SOL    HW2 3915   0.738   5.420   2.088
 1006SOL     OW 3916   2.266   3.886   1.541
 1006SOL    HW1 3917   2.318   3.952   1.487
 1006SOL    HW2 3918   2.326   3.847   1.612
 1007SOL     OW 3919   4.716   0.442   5.993
 1007SOL    HW1 3920   4.669   0.507   5.933
 1007SOL    HW2 3921   4.761   0.372   5.937
 1008SOL     OW 3922   0.856   5.047   5.146
 1008SOL    HW1 3923   0.892   4.972   5.090
 1008SOL    HW2 3924   0.923   5.121   5.148
 1009SOL     OW 3925   6.533   5.706   6.078
 1009SOL    HW1 3926   6.625   5.745   6.085
 1009SOL    HW2 3927   6.472   5.772   6.034
 1010SOL     OW 3928   3.156   3.740   0.537
 1010SOL    HW1 3929   3.206   3.720   0.621
 1010SOL    HW2 3930   3.132   3.655   0.491
 1011SOL     OW 3931   6.576   4.996   2.886
 1011SOL    HW1 3932   6.637   4.956   2.955
 1011SOL    HW2 3933   6.544   5.085   2.917
 1012SOL     OW 3934   5.678   6.298   2.694
 1012SOL    HW1 3935   5.632   6.300   2.783
 1012SOL    HW2 3936   5.672   6.206   2.655
 1013SOL     OW 3937   0.007   6.952   6.038
 1013SOL    HW1 3938   0.028   0.009   6.103
 1013SOL    HW2 3939   7.005   6.866   6.087
 1014SOL     OW 3940   0.997   4.818   5.011
 1014SOL    HW1 3941   1.063   4.797   5.082
 1014SOL    HW2 3942   0.930   4.745   5.004
 1015SOL     OW 3943   1.926   6.364   0.481
 1015SOL    HW1 3944   1.963   6.410   0.400
 1015SOL    HW2 3945   1.827   6.378   0.486
 1016SOL     OW 3946   6.945   3.670   0.666
 1016SOL    HW1 3947   6.968   3.579   0.701
 1016SOL    HW2 3948   7.007   3.693   0.591
 1017SOL     OW 3949   2.401   1.390   2.529
 1017SOL    HW1 3950   2.319   1.361   2.580
 1017SOL    HW2 3951   2.423   1.321   2.460
 1018SOL     OW 3952   6.216   6.490   4.079
 1018SOL    HW1 3953   6.166   6.517   4.161
 1018SOL    HW2 3954   6.205   6.392   4.063
 1019SOL     OW 3955   6.416   4.242   0.912
 1019SOL    HW1 3956   6.470   4.285   0.984
 1019SOL    HW2 3957   6.423   4.296   0.828
 1020SOL     OW 3958   5.125   1.081   1.046
 1020SOL    HW1 3959   5.160   1.060   0.955
 1020SOL    HW2 3960   5.116   1.180   1.056
 1021SOL     OW 3961   0.759   6.630   1.152
 1021SOL    HW1 3962   0.678   6.581   1.118
 1021SOL    HW2 3963   0.779   6.601   1.245
 1022SOL     OW 3964   2.704   5.418   6.526
 1022SOL    HW1 3965   2.636   5.437   6.455
 1022SOL    HW2 3966   2.754   5.502   6.548
 1023SOL     OW 3967   0.821   1.585   2.757
 1023SOL    HW1 3968   0.832   1.486   2.748
 1023SOL    HW2 3969   0.900   1.624   2.804
 1024SOL     OW 3970   1.327   2.208   3.941
 1024SOL    HW1 3971   1.407   2.268   3.941
 1024SOL    HW2 3972   1.355   2.115   3.916
 1025SOL     OW 3973   4.801   4.472   0.671
 1025SOL    HW1 3974   4.732   4.529   0.626
 1025SOL    HW2 3975   4.854   4.423   0.603
 1026SOL     OW 3976   2.900   2.849   1.711
 1026SOL    HW1 3977   2.870   2.934   1.754
 1026SOL    HW2 3978   3.000   2.848   1.704
 1027SOL     OW 3979   0.055   6.858   6.988
 1027SOL    HW1 3980   0.136   6.867   0.030
 1027SOL    HW2 3981   0.081   6.813   6.902
 1028SOL     OW 3982   1.247   5.959   2.554
 1028SOL    HW1 3983   1.299   6.044   2.561
 1028SOL    HW2 3984   1.282   5.894   2.622
 1029SOL     OW 3985   1.125   0.888   5.538
 1029SOL    HW1 3986   1.035   0.902   5.496
 1029SOL    HW2 3987   1.164   0.802   5.506
 1030SOL     OW 3988   3.613   3.563   0.949
 1030SOL    HW1 3989   3.694   3.604   0.991
 1030SOL    HW2 3990   3.592   3.476   0.993
 1031SOL     OW 3991   3.739   3.461   0.691
 1031SOL    HW1 3992   3.793   3.539   0.658
 1031SOL    HW2 3993   3.675   3.492   0.761
 1032SOL     OW 3994   1.946   1.650   0.564
 1032SOL    HW1 3995   1.916   1.581   0.630
 1032SOL    HW2 3996   2.039   1.679   0.587
 1033SOL     OW 3997   0.422   0.944   1.887
 1033SOL    HW1 3998   0.488   0.998   1.835
 1033SOL    HW2 3999   0.333   0.989   1.885
 1034SOL     OW 4000   3.458   1.083   4.898
 1034SOL    HW1 4001   3.474   1.157   4.833
 1034SOL    HW2 4002   3.450   1.120   4.990
 1035SOL     OW 4003   1.751   1.012   0.314
 1035SOL    HW1 4004   1.758   1.109   0.292
 1035SOL    HW2 4005   1.744   0.959   0.230
 1036SOL     OW 4006   4.631   1.284   1.581
 1036SOL    HW1 4007   4.690   1.360   1.610
 1036SOL    HW2 4008   4.555   1.320   1.528
 1037SOL     OW 4009   1.581   3.820   2.104
 1037SOL    HW1 4010   1.544   3.760   2.033
 1037SOL    HW2 4011   1.589   3.913   2.069
 1038SOL     OW 4012   2.109   5.805   0.245
 1038SOL    HW1 4013   2.030   5.746   0.262
 1038SOL    HW2 4014   2.182   5.750   0.203
 1039SOL     OW 4015   3.321   3.751   2.978
 1039SOL    HW1 4016   3.291   3.668   2.929
 1039SOL    HW2 4017   3.336   3.729   3.074
 1040SOL     OW 4018   3.547   1.891   3.066
 1040SOL    HW1 4019   3.623   1.863   3.008
 1040SOL    HW2 4020   3.573   1.974   3.116
 1041SOL     OW 4021   6.361   6.261   6.903
 1041SOL    HW1 4022   6.461   6.253   6.906
 1041SOL    HW2 4023   6.331   6.330   6.968
 1042SOL     OW 4024   5.507   4.505   3.229
 1042SOL    HW1 4025   5.506   4.521   3.328
 1042SOL    HW2 4026   5.491   4.408   3.211
 1043SOL     OW 4027   2.785   1.999   3.999
 1043SOL    HW1 4028   2.748   1.919   3.952
 1043SOL    HW2 4029   2.825   1.971   4.087
 1044SOL     OW 4030   6.061   4.772   2.019
 1044SOL    HW1 4031   5.981   4.749   1.964
 1044SOL    HW2 4032   6.131   4.701   2.009
 1045SOL     OW 4033   2.230   0.763   2.060
 1045SOL    HW1 4034   2.314   0.806   2.026
 1045SOL    HW2 4035   2.165   0.754   1.984
 1046SOL     OW 4036   2.933   2.137   1.415
 1046SOL    HW1 4037   2.984   2.107   1.495
 1046SOL    HW2 4038   2.994   2.140   1.335
 1047SOL     OW 4039   3.630   0.418   3.268
 1047SOL    HW1 4040   3.606   0.431   3.172
 1047SOL    HW2 4041   3.640   0.320   3.286
 1048SOL     OW 4042   0.808   0.348   1.901
 1048SOL    HW1 4043   0.823   0.253   1.874
 1048SOL    HW2 4044   0.751   0.352   1.983
 1049SOL     OW 4045   4.256   6.804   6.235
 1049SOL    HW1 4046   4.275   6.821   6.332
 1049SOL    HW2 4047   4.255   6.705   6.218
 1050SOL     OW 4048   3.276   0.139   4.047
 1050SOL    HW1 4049   3.286   0.218   4.107
 1050SOL    HW2 4050   3.362   0.087   4.045
 1051SOL     OW 4051   1.774   1.440   5.046
 1051SOL    HW1 4052   1.737   1.433   5.138
 1051SOL    HW2 4053   1.785   1.349   5.007
 1052SOL     OW 4054   3.563   1.517   0.446
 1052SOL    HW1 4055   3.537   1.533   0.351
 1052SOL    HW2 4056   3.521   1.431   0.478
 1053SOL     OW 4057   5.197   1.988   4.648
 1053SOL    HW1 4058   5.153   1.986   4.738
 1053SOL    HW2 4059   5.155   2.059   4.592
 1054SOL     OW 4060   4.006   5.239   6.247
 1054SOL    HW1 4061   4.024   5.149   6.209
 1054SOL    HW2 4062   4.062   5.307   6.199
 1055SOL     OW 4063   4.986   5.567   6.660
 1055SOL    HW1 4064   5.013   5.517   6.578
 1055SOL    HW2 4065   4.886   5.577   6.661
 1056SOL     OW 4066   3.386   3.679   6.652
 1056SOL    HW1 4067   3.463   3.673   6.715
 1056SOL    HW2 4068   3.304   3.710   6.700
 1057SOL     OW 4069   3.198   2.867   0.136
 1057SOL    HW1 4070   3.187   2.904   0.044
 1057SOL    HW2 4071   3.150   2.925   0.202
 1058SOL     OW 4072   2.965   2.161   2.158
 1058SOL    HW1 4073   2.924   2.247   2.127
 1058SOL    HW2 4074   2.983   2.102   2.079
 1059SOL     OW 4075   2.244   6.175   2.355
 1059SOL    HW1 4076   2.339   6.151   2.337
 1059SOL    HW2 4077   2.230   6.272   2.336
 1060SOL     OW 4078   6.002   0.724   5.321
 1060SOL    HW1 4079   5.918   0.672   5.313
 1060SOL    HW2 4080   6.075   0.664   5.356
 1061SOL     OW 4081   0.518   3.683   5.846
 1061SOL    HW1 4082   0.511   3.612   5.776
 1061SOL    HW2 4083   0.426   3.708   5.877
 1062SOL     OW 4084   3.288   5.234   4.543
 1062SOL    HW1 4085   3.326   5.141   4.543
 1062SOL    HW2 4086   3.241   5.250   4.629
 1063SOL     OW 4087   3.440   6.461   4.453
 1063SOL    HW1 4088   3.440   6.366   4.482
 1063SOL    HW2 4089   3.397   6.518   4.524
 1064SOL     OW 4090   1.368   2.947   0.569
 1064SOL    HW1 4091   1.323   2.972   0.655
 1064SOL    HW2 4092   1.317   2.874   0.525
 1065SOL     OW 4093   6.092   1.139   4.905
 1065SOL    HW1 4094   6.022   1.126   4.975
 1065SOL    HW2 4095   6.080   1.229   4.862
 1066SOL     OW 4096   4.879   6.634   0.492
 1066SOL    HW1 4097   4.780   6.649   0.481
 1066SOL    HW2 4098   4.908   6.664   0.582
 1067SOL     OW 4099   2.199   1.747   0.155
 1067SOL    HW1 4100   2.264   1.773   0.226
 1067SOL    HW2 4101   2.243   1.750   0.066
 1068SOL     OW 4102   6.666   2.832   1.352
 1068SOL    HW1 4103   6.714   2.796   1.432
 1068SOL    HW2 4104   6.703   2.922   1.329
 1069SOL     OW 4105   6.294   3.213   2.858
 1069SOL    HW1 4106   6.225   3.166   2.803
 1069SOL    HW2 4107   6.371   3.151   2.875
 1070SOL     OW 4108   0.972   0.766   2.011
 1070SOL    HW1 4109   1.006   0.846   1.962
 1070SOL    HW2 4110   0.997   0.773   2.107
 1071SOL     OW 4111   0.463   3.152   6.386
 1071SOL    HW1 4112   0.368   3.181   6.392
 1071SOL    HW2 4113   0.500   3.178   6.297
 1072SOL     OW 4114   1.686   1.540   2.291
 1072SOL    HW1 4115   1.728   1.606   2.353
 1072SOL    HW2 4116   1.731   1.451   2.301
 1073SOL     OW 4117   5.497   2.527   2.869
 1073SOL    HW1 4118   5.533   2.459   2.934
 1073SOL    HW2 4119   5.553   2.610   2.874
 1074SOL     OW 4120   2.829   5.172   1.525
 1074SOL    HW1 4121   2.789   5.257   1.492
 1074SOL    HW2 4122   2.858   5.183   1.620
 1075SOL     OW 4123   6.892   3.946   6.117
 1075SOL    HW1 4124   6.862   4.023   6.172
 1075SOL    HW2 4125   6.833   3.867   6.133
 1076SOL     OW 4126   1.900   4.494   5.210
 1076SOL    HW1 4127   1.952   4.426   5.157
 1076SOL    HW2 4128   1.958   4.574   5.225
 1077SOL     OW 4129   6.816   6.447   0.579
 1077SOL    HW1 4130   6.811   6.468   0.676
 1077SOL    HW2 4131   6.754   6.372   0.558
 1078SOL     OW 4132   6.445   6.295   4.472
 1078SOL    HW1 4133   6.398   6.295   4.560
 1078SOL    HW2 4134   6.522   6.359   4.476
 1079SOL     OW 4135   0.481   6.662   1.461
 1079SOL    HW1 4136   0.519   6.746   1.501
 1079SOL    HW2 4137   0.455   6.679   1.366
 1080SOL     OW 4138   3.659   6.756   0.231
 1080SOL    HW1 4139   3.694   6.682   0.173
 1080SOL    HW2 4140   3.718   6.836   0.223
 1081SOL     OW 4141   6.607   6.370   3.372
 1081SOL    HW1 4142   6.617   6.280   3.329
 1081SOL    HW2 4143   6.512   6.401   3.361
 1082SOL     OW 4144   3.745   0.045   0.542
 1082SOL    HW1 4145   3.691   6.984   0.577
 1082SOL    HW2 4146   3.750   0.040   0.442
 1083SOL     OW 4147   5.877   4.084   2.026
 1083SOL    HW1 4148   5.933   4.011   2.065
 1083SOL    HW2 4149   5.791   4.046   1.993
 1084SOL     OW 4150   5.381   0.411   5.403
 1084SOL    HW1 4151   5.384   0.311   5.400
 1084SOL    HW2 4152   5.288   0.441   5.421
 1085SOL     OW 4153   2.144   3.796   4.580
 1085SOL    HW1 4154   2.137   3.824   4.675
 1085SOL    HW2 4155   2.203   3.860   4.531
 1086SOL     OW 4156   5.415   5.353   0.495
 1086SOL    HW1 4157   5.430   5.451   0.492
 1086SOL    HW2 4158   5.481   5.306   0.436
 1087SOL     OW 4159   4.153   0.006   5.748
 1087SOL    HW1 4160   4.097   0.080   5.787
 1087SOL    HW2 4161   4.118   6.934   5.780
 1088SOL     OW 4162   6.744   5.017   3.997
 1088SOL    HW1 4163   6.802   5.080   3.945
 1088SOL    HW2 4164   6.662   4.995   3.945
 1089SOL     OW 4165   5.481   5.409   4.206
 1089SOL    HW1 4166   5.535   5.444   4.129
 1089SOL    HW2 4167   5.541   5.356   4.267
 1090SOL     OW 4168   5.599   2.128   5.059
 1090SOL    HW1 4169   5.553   2.116   5.147
 1090SOL    HW2 4170   5.691   2.163   5.074
 1091SOL     OW 4171   1.730   3.134   3.252
 1091SOL    HW1 4172   1.661   3.119   3.323
 1091SOL    HW2 4173   1.768   3.226   3.260
 1092SOL     OW 4174   0.378   6.331   0.576
 1092SOL    HW1 4175   0.400   6.242   0.537
 1092SOL    HW2 4176   0.312   6.378   0.516
 1093SOL     OW 4177   1.393   0.572   3.199
 1093SOL    HW1 4178   1.396   0.511   3.278
 1093SOL    HW2 4179   1.425   0.523   3.118
 1094SOL     OW 4180   0.144   0.090   3.061
 1094SOL    HW1 4181   0.234   0.095   3.018
 1094SOL    HW2 4182   0.092   0.014   3.022
 1095SOL     OW 4183   5.572   3.287   0.491
 1095SOL    HW1 4184   5.643   3.341   0.446
 1095SOL    HW2 4185   5.607   3.250   0.576
 1096SOL     OW 4186   1.620   5.386   1.855
 1096SOL    HW1 4187   1.666   5.329   1.923
 1096SOL    HW2 4188   1.647   5.482   1.867
 1097SOL     OW 4189   3.173   6.671   4.328
 1097SOL    HW1 4190   3.100   6.622   4.281
 1097SOL    HW2 4191   3.195   6.624   4.413
 1098SOL     OW 4192   6.768   3.809   0.527
 1098SOL    HW1 4193   6.835   3.756   0.578
 1098SOL    HW2 4194   6.804   3.900   0.508
 1099SOL     OW 4195   4.993   0.535   6.316
 1099SOL    HW1 4196   4.895   0.554   6.320
 1099SOL    HW2 4197   5.007   0.436   6.323
 1100SOL     OW 4198   4.565   2.035   4.604
 1100SOL    HW1 4199   4.552   2.046   4.505
 1100SOL    HW2 4200   4.477   2.012   4.647
 1101SOL     OW 4201   4.700   2.867   6.657
 1101SOL    HW1 4202   4.663   2.955   6.626
 1101SOL    HW2 4203   4.749   2.822   6.582
 1102SOL     OW 4204   2.766   0.696   3.338
 1102SOL    HW1 4205   2.810   0.769   3.391
 1102SOL    HW2 4206   2.801   0.697   3.245
 1103SOL     OW 4207   3.352   6.057   0.805
 1103SOL    HW1 4208   3.348   6.082   0.708
 1103SOL    HW2 4209   3.447   6.047   0.833
 1104SOL     OW 4210   6.597   2.621   3.752
 1104SOL    HW1 4211   6.629   2.633   3.845
 1104SOL    HW2 4212   6.580   2.710   3.710
 1105SOL     OW 4213   5.386   1.670   5.910
 1105SOL    HW1 4214   5.363   1.759   5.872
 1105SOL    HW2 4215   5.480   1.671   5.944
 1106SOL     OW 4216   6.549   1.583   0.794
 1106SOL    HW1 4217   6.604   1.502   0.775
 1106SOL    HW2 4218   6.545   1.640   0.712
 1107SOL     OW 4219   0.857   1.524   6.507
 1107SOL    HW1 4220   0.871   1.484   6.416
 1107SOL    HW2 4221   0.774   1.487   6.548
 1108SOL     OW 4222   2.357   0.865   4.204
 1108SOL    HW1 4223   2.285   0.825   4.261
 1108SOL    HW2 4224   2.369   0.961   4.229
 1109SOL     OW 4225   4.864   2.641   4.969
 1109SOL    HW1 4226   4.785   2.697   4.944
 1109SOL    HW2 4227   4.939   2.700   4.998
 1110SOL     OW 4228   1.906   1.171   2.178
 1110SOL    HW1 4229   1.955   1.087   2.158
 1110SOL    HW2 4230   1.853   1.160   2.262
 1111SOL     OW 4231   5.842   3.733   6.456
 1111SOL    HW1 4232   5.878   3.679   6.532
 1111SOL    HW2 4233   5.777   3.678   6.404
 1112SOL     OW 4234   5.471   0.381   2.653
 1112SOL    HW1 4235   5.493   0.354   2.746
 1112SOL    HW2 4236   5.535   0.338   2.589
 1113SOL     OW 4237   5.946   3.428   2.490
 1113SOL    HW1 4238   5.951   3.387   2.581
 1113SOL    HW2 4239   6.039   3.447   2.457
 1114SOL     OW 4240   3.761   3.969   4.799
 1114SOL    HW1 4241   3.804   3.879   4.795
 1114SOL    HW2 4242   3.781   4.012   4.887
 1115SOL     OW 4243   2.755   4.712   5.719
 1115SOL    HW1 4244   2.780   4.637   5.658
 1115SOL    HW2 4245   2.796   4.797   5.686
 1116SOL     OW 4246   4.146   0.287   0.257
 1116SOL    HW1 4247   4.126   0.194   0.228
 1116SOL    HW2 4248   4.066   0.345   0.241
 1117SOL     OW 4249   2.285   2.437   1.702
 1117SOL    HW1 4250   2.328   2.365   1.756
 1117SOL    HW2 4251   2.331   2.524   1.721
 1118SOL     OW 4252   4.180   6.176   0.133
 1118SOL    HW1 4253   4.271   6.213   0.114
 1118SOL    HW2 4254   4.117   6.204   0.061
 1119SOL     OW 4255   3.284   4.946   3.707
 1119SOL    HW1 4256   3.319   5.004   3.780
 1119SOL    HW2 4257   3.311   4.985   3.618
 1120SOL     OW 4258   6.804   3.057   1.348
 1120SOL    HW1 4259   6.840   3.013   1.430
 1120SOL    HW2 4260   6.819   3.156   1.354
 1121SOL     OW 4261   6.736   4.600   4.855
 1121SOL    HW1 4262   6.809   4.630   4.795
 1121SOL    HW2 4263   6.743   4.648   4.943
 1122SOL     OW 4264   5.826   2.115   1.772
 1122SOL    HW1 4265   5.808   2.188   1.837
 1122SOL    HW2 4266   5.905   2.062   1.803
 1123SOL     OW 4267   3.648   1.470   3.792
 1123SOL    HW1 4268   3.703   1.497   3.713
 1123SOL    HW2 4269   3.699   1.490   3.876
 1124SOL     OW 4270   2.238   2.713   4.200
 1124SOL    HW1 4271   2.163   2.654   4.230
 1124SOL    HW2 4272   2.252   2.785   4.268
 1125SOL     OW 4273   1.678   3.568   3.811
 1125SOL    HW1 4274   1.744   3.597   3.881
 1125SOL    HW2 4275   1.716   3.492   3.759
 1126SOL     OW 4276   4.236   5.061   4.640
 1126SOL    HW1 4277   4.181   4.980   4.662
 1126SOL    HW2 4278   4.313   5.035   4.583
 1127SOL     OW 4279   6.522   6.773   1.942
 1127SOL    HW1 4280   6.529   6.798   2.038
 1127SOL    HW2 4281   6.613   6.752   1.906
 1128SOL     OW 4282   4.592   1.474   4.923
 1128SOL    HW1 4283   4.653   1.534   4.871
 1128SOL    HW2 4284   4.643   1.395   4.956
 1129SOL     OW 4285   1.022   0.536   0.183
 1129SOL    HW1 4286   0.940   0.482   0.167
 1129SOL    HW2 4287   1.065   0.507   0.268
 1130SOL     OW 4288   2.290   4.712   2.041
 1130SOL    HW1 4289   2.227   4.709   1.963
 1130SOL    HW2 4290   2.362   4.644   2.028
 1131SOL     OW 4291   1.968   5.512   3.653
 1131SOL    HW1 4292   1.965   5.416   3.627
 1131SOL    HW2 4293   1.976   5.569   3.570
 1132SOL     OW 4294   1.833   1.702   2.433
 1132SOL    HW1 4295   1.924   1.739   2.418
 1132SOL    HW2 4296   1.767   1.777   2.441
 1133SOL     OW 4297   0.960   6.661   6.038
 1133SOL    HW1 4298   1.047   6.668   5.990
 1133SOL    HW2 4299   0.936   6.750   6.076
 1134SOL     OW 4300   3.394   5.865   1.697
 1134SOL    HW1 4301   3.344   5.787   1.733
 1134SOL    HW2 4302   3.355   5.892   1.609
 1135SOL     OW 4303   1.663   6.261   3.359
 1135SOL    HW1 4304   1.621   6.309   3.282
 1135SOL    HW2 4305   1.761   6.251   3.343
 1136SOL     OW 4306   1.848   5.460   2.637
 1136SOL    HW1 4307   1.831   5.557   2.649
 1136SOL    HW2 4308   1.931   5.447   2.582
 1137SOL     OW 4309   1.069   6.093   4.517
 1137SOL    HW1 4310   1.045   6.093   4.419
 1137SOL    HW2 4311   1.000   6.042   4.567
 1138SOL     OW 4312   1.705   3.953   5.053
 1138SOL    HW1 4313   1.720   4.052   5.059
 1138SOL    HW2 4314   1.728   3.922   4.961
 1139SOL     OW 4315   2.423   5.087   4.947
 1139SOL    HW1 4316   2.514   5.093   4.987
 1139SOL    HW2 4317   2.386   5.179   4.934
 1140SOL     OW 4318   2.029   2.011   1.447
 1140SOL    HW1 4319   2.087   1.939   1.487
 1140SOL    HW2 4320   2.077   2.054   1.371
 1141SOL     OW 4321   0.011   4.510   5.850
 1141SOL    HW1 4322   6.942   4.564   5.857
 1141SOL    HW2 4323   7.011   4.419   5.890
 1142SOL     OW 4324   1.500   6.624   1.965
 1142SOL    HW1 4325   1.489   6.617   2.064
 1142SOL    HW2 4326   1.533   6.715   1.942
 1143SOL     OW 4327   0.651   3.875   2.280
 1143SOL    HW1 4328   0.665   3.972   2.260
 1143SOL    HW2 4329   0.575   3.840   2.225
 1144SOL     OW 4330   5.460   4.336   0.173
 1144SOL    HW1 4331   5.532   4.274   0.142
 1144SOL    HW2 4332   5.442   4.404   0.101
 1145SOL     OW 4333   5.494   6.715   0.894
 1145SOL    HW1 4334   5.504   6.656   0.814
 1145SOL    HW2 4335   5.584   6.732   0.934
 1146SOL     OW 4336   1.202   1.003   1.115
 1146SOL    HW1 4337   1.118   0.949   1.105
 1146SOL    HW2 4338   1.230   1.003   1.211
 1147SOL     OW 4339   1.678   6.546   0.901
 1147SOL    HW1 4340   1.637   6.637   0.905
 1147SOL    HW2 4341   1.641   6.489   0.975
 1148SOL     OW 4342   4.216   5.697   3.095
 1148SOL    HW1 4343   4.244   5.688   3.191
 1148SOL    HW2 4344   4.289   5.662   3.036
 1149SOL     OW 4345   4.901   3.255   1.585
 1149SOL    HW1 4346   4.803   3.257   1.608
 1149SOL    HW2 4347   4.945   3.180   1.635
 1150SOL     OW 4348   1.482   3.496   0.703
 1150SOL    HW1 4349   1.447   3.510   0.796
 1150SOL    HW2 4350   1.547   3.419   0.703
 1151SOL     OW 4351   5.925   5.409   4.377
 1151SOL    HW1 4352   5.993   5.351   4.331
 1151SOL    HW2 4353   5.965   5.499   4.394
 1152SOL     OW 4354   3.433   6.724   6.557
 1152SOL    HW1 4355   3.333   6.716   6.555
 1152SOL    HW2 4356   3.472   6.675   6.479
 1153SOL     OW 4357   5.627   6.618   2.013
 1153SOL    HW1 4358   5.714   6.662   2.038
 1153SOL    HW2 4359   5.551   6.673   2.048
 1154SOL     OW 4360   2.559   2.552   0.376
 1154SOL    HW1 4361   2.616   2.470   0.385
 1154SOL    HW2 4362   2.600   2.626   0.430
 1155SOL     OW 4363   3.697   5.920   4.102
 1155SOL    HW1 4364   3.660   5.972   4.025
 1155SOL    HW2 4365   3.667   5.825   4.097
 1156SOL     OW 4366   2.465   1.624   2.851
 1156SOL    HW1 4367   2.480   1.526   2.846
 1156SOL    HW2 4368   2.507   1.661   2.934
 1157SOL     OW 4369   2.729   1.250   0.676
 1157SOL    HW1 4370   2.781   1.199   0.745
 1157SOL    HW2 4371   2.787   1.320   0.634
 1158SOL     OW 4372   5.888   4.188   3.282
 1158SOL    HW1 4373   5.828   4.264   3.308
 1158SOL    HW2 4374   5.964   4.182   3.346
 1159SOL     OW 4375   6.417   4.964   0.686
 1159SOL    HW1 4376   6.419   5.037   0.754
 1159SOL    HW2 4377   6.323   4.934   0.670
 1160SOL     OW 4378   5.596   2.226   0.168
 1160SOL    HW1 4379   5.521   2.283   0.201
 1160SOL    HW2 4380   5.629   2.167   0.243
 1161SOL     OW 4381   6.646   4.903   0.880
 1161SOL    HW1 4382   6.614   4.906   0.785
 1161SOL    HW2 4383   6.629   4.991   0.923
 1162SOL     OW 4384   2.977   2.040   4.572
 1162SOL    HW1 4385   3.046   2.108   4.598
 1162SOL    HW2 4386   2.940   1.997   4.655
 1163SOL     OW 4387   5.663   2.517   1.249
 1163SOL    HW1 4388   5.722   2.488   1.175
 1163SOL    HW2 4389   5.718   2.557   1.322
 1164SOL     OW 4390   4.078   2.823   6.148
 1164SOL    HW1 4391   4.166   2.812   6.194
 1164SOL    HW2 4392   4.005   2.790   6.207
 1165SOL     OW 4393   4.726   6.660   3.289
 1165SOL    HW1 4394   4.760   6.746   3.249
 1165SOL    HW2 4395   4.655   6.681   3.356
 1166SOL     OW 4396   2.855   4.666   6.361
 1166SOL    HW1 4397   2.838   4.567   6.362
 1166SOL    HW2 4398   2.804   4.707   6.285
 1167SOL     OW 4399   5.018   4.540   2.377
 1167SOL    HW1 4400   4.952   4.483   2.330
 1167SOL    HW2 4401   4.995   4.636   2.364
 1168SOL     OW 4402   6.904   0.083   2.310
 1168SOL    HW1 4403   6.925   7.004   2.285
 1168SOL    HW2 4404   6.850   0.084   2.395
 1169SOL     OW 4405   4.383   1.318   5.267
 1169SOL    HW1 4406   4.322   1.256   5.217
 1169SOL    HW2 4407   4.457   1.265   5.308
 1170SOL     OW 4408   4.812   5.055   2.773
 1170SOL    HW1 4409   4.835   4.958   2.779
 1170SOL    HW2 4410   4.845   5.102   2.855
 1171SOL     OW 4411   0.072   6.394   0.427
 1171SOL    HW1 4412   0.041   6.307   0.389
 1171SOL    HW2 4413   7.016   6.433   0.484
 1172SOL     OW 4414   6.919   3.018   6.460
 1172SOL    HW1 4415   6.980   3.090   6.495
 1172SOL    HW2 4416   6.973   2.951   6.408
 1173SOL     OW 4417   3.985   2.171   0.617
 1173SOL    HW1 4418   4.082   2.161   0.642
 1173SOL    HW2 4419   3.931   2.103   0.666
 1174SOL     OW 4420   1.979   4.552   0.571
 1174SOL    HW1 4421   1.881   4.547   0.593
 1174SOL    HW2 4422   2.032   4.521   0.650
 1175SOL     OW 4423   3.170   3.628   4.280
 1175SOL    HW1 4424   3.237   3.565   4.320
 1175SOL    HW2 4425   3.150   3.701   4.346
 1176SOL     OW 4426   5.157   2.979   6.687
 1176SOL    HW1 4427   5.164   3.069   6.645
 1176SOL    HW2 4428   5.070   2.972   6.737
 1177SOL     OW 4429   1.051   1.844   4.160
 1177SOL    HW1 4430   1.132   1.868   4.214
 1177SOL    HW2 4431   0.991   1.923   4.153
 1178SOL     OW 4432   4.203   5.899   0.060
 1178SOL    HW1 4433   4.160   5.969   0.117
 1178SOL    HW2 4434   4.250   5.833   0.119
 1179SOL     OW 4435   1.150   6.099   0.174
 1179SOL    HW1 4436   1.142   6.058   0.083
 1179SOL    HW2 4437   1.109   6.191   0.172
 1180SOL     OW 4438   3.383   6.213   0.550
 1180SOL    HW1 4439   3.467   6.223   0.496
 1180SOL    HW2 4440   3.332   6.299   0.549
 1181SOL     OW 4441   6.491   6.585   6.943
 1181SOL    HW1 4442   6.439   6.513   6.987
 1181SOL    HW2 4443   6.438   6.670   6.942
 1182SOL     OW 4444   4.646   4.938   2.294
 1182SOL    HW1 4445   4.695   4.971   2.375
 1182SOL    HW2 4446   4.559   4.897   2.323
 1183SOL     OW 4447   1.844   3.946   6.073
 1183SOL    HW1 4448   1.751   3.966   6.043
 1183SOL    HW2 4449   1.867   3.851   6.051
 1184SOL     OW 4450   0.526   6.951   5.584
 1184SOL    HW1 4451   0.458   0.005   5.607
 1184SOL    HW2 4452   0.616   6.981   5.615
 1185SOL     OW 4453   6.809   1.544   6.776
 1185SOL    HW1 4454   6.735   1.543   6.843
 1185SOL    HW2 4455   6.793   1.616   6.708
 1186SOL     OW 4456   6.052   6.271   4.554
 1186SOL    HW1 4457   6.063   6.206   4.629
 1186SOL    HW2 4458   6.045   6.364   4.590
 1187SOL     OW 4459   6.406   1.220   5.817
 1187SOL    HW1 4460   6.316   1.176   5.813
 1187SOL    HW2 4461   6.455   1.189   5.898
 1188SOL     OW 4462   2.938   0.317   6.194
 1188SOL    HW1 4463   2.913   0.233   6.243
 1188SOL    HW2 4464   2.905   0.311   6.099
 1189SOL     OW 4465   5.647   3.605   3.811
 1189SOL    HW1 4466   5.628   3.607   3.909
 1189SOL    HW2 4467   5.645   3.698   3.774
 1190SOL     OW 4468   2.141   6.165   3.788
 1190SOL    HW1 4469   2.226   6.140   3.834
 1190SOL    HW2 4470   2.079   6.087   3.787
 1191SOL     OW 4471   4.070   6.096   2.290
 1191SOL    HW1 4472   4.066   6.158   2.211
 1191SOL    HW2 4473   4.138   6.025   2.272
 1192SOL     OW 4474   5.578   5.963   3.571
 1192SOL    HW1 4475   5.513   5.994   3.501
 1192SOL    HW2 4476   5.530   5.907   3.638
 1193SOL     OW 4477   6.902   5.611   4.049
 1193SOL    HW1 4478   6.870   5.700   4.015
 1193SOL    HW2 4479   6.924   5.619   4.146
 1194SOL     OW 4480   3.713   0.241   1.507
 1194SOL    HW1 4481   3.730   0.338   1.490
 1194SOL    HW2 4482   3.616   0.227   1.526
 1195SOL     OW 4483   5.575   2.464   3.756
 1195SOL    HW1 4484   5.478   2.464   3.731
 1195SOL    HW2 4485   5.626   2.407   3.692
 1196SOL     OW 4486   6.766   6.367   5.084
 1196SOL    HW1 4487   6.823   6.285   5.084
 1196SOL    HW2 4488   6.823   6.447   5.063
 1197SOL     OW 4489   1.943   6.085   0.404
 1197SOL    HW1 4490   1.993   5.999   0.413
 1197SOL    HW2 4491   1.990   6.156   0.456
 1198SOL     OW 4492   1.575   2.803   6.985
 1198SOL    HW1 4493   1.625   2.862   0.033
 1198SOL    HW2 4494   1.528   2.731   0.020
 1199SOL     OW 4495   5.916   4.102   1.620
 1199SOL    HW1 4496   5.936   4.159   1.700
 1199SOL    HW2 4497   5.890   4.010   1.651
 1200SOL     OW 4498   2.840   3.496   2.388
 1200SOL    HW1 4499   2.758   3.549   2.407
 1200SOL    HW2 4500   2.865   3.443   2.469
 1201SOL     OW 4501   1.479   2.070   4.272
 1201SOL    HW1 4502   1.502   2.162   4.305
 1201SOL    HW2 4503   1.524   2.053   4.185
 1202SOL     OW 4504   1.133   5.707   5.325
 1202SOL    HW1 4505   1.201   5.712   5.399
 1202SOL    HW2 4506   1.151   5.626   5.269
 1203SOL     OW 4507   3.905   5.948   5.579
 1203SOL    HW1 4508   3.950   6.007   5.511
 1203SOL    HW2 4509   3.872   5.865   5.535
 1204SOL     OW 4510   2.250   6.761   2.809
 1204SOL    HW1 4511   2.326   6.758   2.874
 1204SOL    HW2 4512   2.230   6.669   2.776
 1205SOL     OW 4513   5.563   4.184   2.098
 1205SOL    HW1 4514   5.625   4.115   2.135
 1205SOL    HW2 4515   5.517   4.231   2.174
 1206SOL     OW 4516   3.253   3.776   4.862
 1206SOL    HW1 4517   3.179   3.801   4.799
 1206SOL    HW2 4518   3.341   3.804   4.823
 1207SOL     OW 4519   1.414   6.199   2.509
 1207SOL    HW1 4520   1.403   6.170   2.414
 1207SOL    HW2 4521   1.510   6.189   2.536
 1208SOL     OW 4522   3.162   3.827   5.786
 1208SOL    HW1 4523   3.187   3.773   5.706
 1208SOL    HW2 4524   3.245   3.855   5.834
 1209SOL     OW 4525   3.746   6.602   5.638
 1209SOL    HW1 4526   3.669   6.612   5.574
 1209SOL    HW2 4527   3.803   6.684   5.634
 1210SOL     OW 4528   3.307   1.067   3.278
 1210SOL    HW1 4529   3.210   1.064   3.305
 1210SOL    HW2 4530   3.364   1.081   3.359
 1211SOL     OW 4531   1.239   3.116   0.227
 1211SOL    HW1 4532   1.303   3.108   0.304
 1211SOL    HW2 4533   1.229   3.212   0.203
 1212SOL     OW 4534   1.140   0.362   6.973
 1212SOL    HW1 4535   1.113   0.424   0.031
 1212SOL    HW2 4536   1.097   0.390   6.887
 1213SOL     OW 4537   5.407   3.073   1.250
 1213SOL    HW1 4538   5.478   3.125   1.296
 1213SOL    HW2 4539   5.449   3.004   1.190
 1214SOL     OW 4540   6.968   2.564   1.757
 1214SOL    HW1 4541   6.933   2.493   1.695
 1214SOL    HW2 4542   0.014   2.625   1.707
 1215SOL     OW 4543   1.655   5.798   3.352
 1215SOL    HW1 4544   1.617   5.771   3.441
 1215SOL    HW2 4545   1.644   5.896   3.340
 1216SOL     OW 4546   3.762   6.791   1.536
 1216SOL    HW1 4547   3.728   6.707   1.495
 1216SOL    HW2 4548   3.754   6.866   1.470
 1217SOL     OW 4549   3.148   4.772   0.303
 1217SOL    HW1 4550   3.212   4.732   0.237
 1217SOL    HW2 4551   3.054   4.745   0.278
 1218SOL     OW 4552   2.216   5.204   3.685
 1218SOL    HW1 4553   2.129   5.223   3.640
 1218SOL    HW2 4554   2.199   5.167   3.777
 1219SOL     OW 4555   4.311   6.303   2.292
 1219SOL    HW1 4556   4.251   6.289   2.213
 1219SOL    HW2 4557   4.401   6.335   2.260
 1220SOL     OW 4558   0.998   4.623   2.648
 1220SOL    HW1 4559   1.006   4.525   2.664
 1220SOL    HW2 4560   1.086   4.668   2.665
 1221SOL     OW 4561   5.052   4.296   6.544
 1221SOL    HW1 4562   5.052   4.256   6.452
 1221SOL    HW2 4563   5.141   4.338   6.562
 1222SOL     OW 4564   6.672   0.592   6.332
 1222SOL    HW1 4565   6.572   0.591   6.328
 1222SOL    HW2 4566   6.704   0.686   6.349
 1223SOL     OW 4567   3.563   6.212   0.996
 1223SOL    HW1 4568   3.614   6.182   0.915
 1223SOL    HW2 4569   3.590   6.305   1.020
 1224SOL     OW 4570   2.781   0.270   2.462
 1224SOL    HW1 4571   2.718   0.288   2.386
 1224SOL    HW2 4572   2.735   0.286   2.549
 1225SOL     OW 4573   2.490   3.846   5.819
 1225SOL    HW1 4574   2.411   3.879   5.871
 1225SOL    HW2 4575   2.462   3.828   5.725
 1226SOL     OW 4576   1.736   4.695   0.793
 1226SOL    HW1 4577   1.812   4.718   0.854
 1226SOL    HW2 4578   1.667   4.768   0.797
 1227SOL     OW 4579   0.911   3.257   5.961
 1227SOL    HW1 4580   1.009   3.273   5.956
 1227SOL    HW2 4581   0.885   3.237   6.056
 1228SOL     OW 4582   3.674   1.991   6.521
 1228SOL    HW1 4583   3.674   1.982   6.620
 1228SOL    HW2 4584   3.583   1.970   6.485
 1229SOL     OW 4585   3.126   4.314   6.381
 1229SOL    HW1 4586   3.070   4.231   6.385
 1229SOL    HW2 4587   3.219   4.293   6.413
 1230SOL     OW 4588   4.613   0.555   3.540
 1230SOL    HW1 4589   4.570   0.565   3.630
 1230SOL    HW2 4590   4.543   0.550   3.469
 1231SOL     OW 4591   1.101   4.657   4.424
 1231SOL    HW1 4592   1.010   4.699   4.419
 1231SOL    HW2 4593   1.166   4.712   4.371
 1232SOL     OW 4594   1.885   2.382   4.161
 1232SOL    HW1 4595   1.906   2.434   4.243
 1232SOL    HW2 4596   1.800   2.417   4.121
 1233SOL     OW 4597   0.561   3.044   4.201
 1233SOL    HW1 4598   0.515   3.071   4.116
 1233SOL    HW2 4599   0.574   3.124   4.259
 1234SOL     OW 4600   6.626   3.627   4.150
 1234SOL    HW1 4601   6.654   3.543   4.102
 1234SOL    HW2 4602   6.606   3.605   4.245
 1235SOL     OW 4603   6.770   5.216   3.810
 1235SOL    HW1 4604   6.807   5.293   3.861
 1235SOL    HW2 4605   6.816   5.209   3.722
 1236SOL     OW 4606   5.231   0.859   6.198
 1236SOL    HW1 4607   5.179   0.892   6.277
 1236SOL    HW2 4608   5.171   0.859   6.117
 1237SOL     OW 4609   3.163   4.784   6.982
 1237SOL    HW1 4610   3.165   4.884   6.978
 1237SOL    HW2 4611   3.084   4.751   6.932
 1238SOL     OW 4612   1.345   1.581   1.131
 1238SOL    HW1 4613   1.399   1.661   1.105
 1238SOL    HW2 4614   1.267   1.610   1.187
 1239SOL     OW 4615   0.945   6.793   5.536
 1239SOL    HW1 4616   0.922   6.886   5.566
 1239SOL    HW2 4617   1.026   6.797   5.478
 1240SOL     OW 4618   4.382   6.154   1.942
 1240SOL    HW1 4619   4.409   6.235   1.891
 1240SOL    HW2 4620   4.311   6.104   1.892
 1241SOL     OW 4621   0.363   2.674   4.246
 1241SOL    HW1 4622   0.335   2.720   4.162
 1241SOL    HW2 4623   0.301   2.698   4.320
 1242SOL     OW 4624   2.185   3.514   6.362
 1242SOL    HW1 4625   2.251   3.534   6.435
 1242SOL    HW2 4626   2.152   3.421   6.372
 1243SOL     OW 4627   2.686   5.298   5.521
 1243SOL    HW1 4628   2.740   5.328   5.600
 1243SOL    HW2 4629   2.592   5.329   5.532
 1244SOL     OW 4630   0.888   0.776   2.943
 1244SOL    HW1 4631   0.899   0.821   2.854
 1244SOL    HW2 4632   0.954   0.702   2.951
 1245SOL     OW 4633   2.920   2.990   6.409
 1245SOL    HW1 4634   2.852   2.931   6.365
 1245SOL    HW2 4635   2.880   3.031   6.491
 1246SOL     OW 4636   1.023   0.017   1.139
 1246SOL    HW1 4637   1.030   0.071   1.223
 1246SOL    HW2 4638   0.929   0.020   1.105
 1247SOL     OW 4639   0.763   6.494   6.943
 1247SOL    HW1 4640   0.725   6.402   6.952
 1247SOL    HW2 4641   0.717   6.557   7.005
 1248SOL     OW 4642   2.004   6.556   3.452
 1248SOL    HW1 4643   1.935   6.527   3.518
 1248SOL    HW2 4644   2.095   6.536   3.489
 1249SOL     OW 4645   6.049   3.103   3.544
 1249SOL    HW1 4646   6.126   3.166   3.551
 1249SOL    HW2 4647   6.079   3.011   3.568
 1250SOL     OW 4648   0.443   3.930   4.317
 1250SOL    HW1 4649   0.539   3.922   4.292
 1250SOL    HW2 4650   0.388   3.954   4.237
 1251SOL     OW 4651   3.399   6.962   6.167
 1251SOL    HW1 4652   3.476   6.975   6.104
 1251SOL    HW2 4653   3.432   6.973   6.261
 1252SOL     OW 4654   3.635   3.426   6.585
 1252SOL    HW1 4655   3.573   3.379   6.522
 1252SOL    HW2 4656   3.688   3.495   6.535
 1253SOL     OW 4657   4.234   6.695   3.184
 1253SOL    HW1 4658   4.180   6.730   3.108
 1253SOL    HW2 4659   4.229   6.595   3.185
 1254SOL     OW 4660   6.711   2.018   2.418
 1254SOL    HW1 4661   6.657   2.094   2.456
 1254SOL    HW2 4662   6.705   1.939   2.479
 1255SOL     OW 4663   6.128   0.529   0.384
 1255SOL    HW1 4664   6.192   0.466   0.428
 1255SOL    HW2 4665   6.177   0.611   0.354
 1256SOL     OW 4666   4.996   2.054   4.081
 1256SOL    HW1 4667   5.016   2.020   4.173
 1256SOL    HW2 4668   4.923   2.121   4.085
 1257SOL     OW 4669   6.334   1.717   4.162
 1257SOL    HW1 4670   6.355   1.805   4.119
 1257SOL    HW2 4671   6.239   1.717   4.192
 1258SOL     OW 4672   0.140   5.909   3.574
 1258SOL    HW1 4673   0.161   5.982   3.509
 1258SOL    HW2 4674   0.181   5.930   3.663
 1259SOL     OW 4675   4.496   2.248   5.570
 1259SOL    HW1 4676   4.400   2.227   5.591
 1259SOL    HW2 4677   4.520   2.210   5.481
 1260SOL     OW 4678   0.918   1.547   5.552
 1260SOL    HW1 4679   0.925   1.452   5.584
 1260SOL    HW2 4680   0.982   1.561   5.476
 1261SOL     OW 4681   6.250   3.485   0.604
 1261SOL    HW1 4682   6.288   3.536   0.527
 1261SOL    HW2 4683   6.261   3.538   0.688
 1262SOL     OW 4684   4.941   6.082   2.398
 1262SOL    HW1 4685   4.915   6.174   2.369
 1262SOL    HW2 4686   5.037   6.081   2.427
 1263SOL     OW 4687   6.524   2.415   3.379
 1263SOL    HW1 4688   6.562   2.488   3.436
 1263SOL    HW2 4689   6.445   2.374   3.425
 1264SOL     OW 4690   1.215   3.091   5.802
 1264SOL    HW1 4691   1.290   3.041   5.845
 1264SOL    HW2 4692   1.203   3.179   5.847
 1265SOL     OW 4693   5.737   6.726   6.074
 1265SOL    HW1 4694   5.757   6.629   6.088
 1265SOL    HW2 4695   5.796   6.762   6.001
 1266SOL     OW 4696   2.227   1.071   5.533
 1266SOL    HW1 4697   2.268   1.080   5.624
 1266SOL    HW2 4698   2.250   1.150   5.477
 1267SOL     OW 4699   3.677   0.297   2.455
 1267SOL    HW1 4700   3.754   0.235   2.435
 1267SOL    HW2 4701   3.635   0.272   2.542
 1268SOL     OW 4702   4.000   2.994   5.609
 1268SOL    HW1 4703   4.057   2.996   5.527
 1268SOL    HW2 4704   4.021   2.911   5.662
 1269SOL     OW 4705   5.882   1.915   3.899
 1269SOL    HW1 4706   5.939   1.869   3.830
 1269SOL    HW2 4707   5.893   1.870   3.987
 1270SOL     OW 4708   6.258   4.869   2.804
 1270SOL    HW1 4709   6.342   4.827   2.771
 1270SOL    HW2 4710   6.269   4.896   2.899
 1271SOL     OW 4711   2.244   1.270   1.066
 1271SOL    HW1 4712   2.276   1.221   0.984
 1271SOL    HW2 4713   2.239   1.368   1.046
 1272SOL     OW 4714   6.119   1.812   0.200
 1272SOL    HW1 4715   6.044   1.763   0.156
 1272SOL    HW2 4716   6.122   1.906   0.167
 1273SOL     OW 4717   1.581   4.428   5.579
 1273SOL    HW1 4718   1.670   4.447   5.621
 1273SOL    HW2 4719   1.519   4.391   5.648
 1274SOL     OW 4720   0.164   4.698   3.423
 1274SOL    HW1 4721   0.200   4.661   3.337
 1274SOL    HW2 4722   0.143   4.795   3.411
 1275SOL     OW 4723   2.090   1.758   2.450
 1275SOL    HW1 4724   2.105   1.836   2.390
 1275SOL    HW2 4725   2.164   1.753   2.517
 1276SOL     OW 4726   5.493   4.784   3.531
 1276SOL    HW1 4727   5.548   4.753   3.609
 1276SOL    HW2 4728   5.554   4.807   3.455
 1277SOL     OW 4729   0.581   6.246   6.970
 1277SOL    HW1 4730   0.500   6.191   6.992
 1277SOL    HW2 4731   0.566   6.294   6.884
 1278SOL     OW 4732   0.544   5.765   2.784
 1278SOL    HW1 4733   0.626   5.815   2.810
 1278SOL    HW2 4734   0.569   5.690   2.723
 1279SOL     OW 4735   2.460   2.863   1.466
 1279SOL    HW1 4736   2.453   2.942   1.526
 1279SOL    HW2 4737   2.418   2.784   1.511
 1280SOL     OW 4738   2.461   2.556   4.186
 1280SOL    HW1 4739   2.382   2.615   4.206
 1280SOL    HW2 4740   2.502   2.583   4.099
 1281SOL     OW 4741   6.352   6.372   4.709
 1281SOL    HW1 4742   6.275   6.340   4.764
 1281SOL    HW2 4743   6.353   6.472   4.708
 1282SOL     OW 4744   0.481   2.942   1.179
 1282SOL    HW1 4745   0.549   2.986   1.121
 1282SOL    HW2 4746   0.528   2.895   1.254
 1283SOL     OW 4747   6.845   1.867   4.584
 1283SOL    HW1 4748   6.866   1.965   4.590
 1283SOL    HW2 4749   6.751   1.856   4.552
 1284SOL     OW 4750   3.920   2.232   1.845
 1284SOL    HW1 4751   3.963   2.211   1.757
 1284SOL    HW2 4752   3.827   2.266   1.830
 1285SOL     OW 4753   4.582   1.102   4.052
 1285SOL    HW1 4754   4.630   1.020   4.020
 1285SOL    HW2 4755   4.633   1.143   4.128
 1286SOL     OW 4756   5.166   1.359   1.016
 1286SOL    HW1 4757   5.220   1.337   0.935
 1286SOL    HW2 4758   5.199   1.443   1.057
 1287SOL     OW 4759   6.070   4.861   5.239
 1287SOL    HW1 4760   6.077   4.779   5.183
 1287SOL    HW2 4761   6.107   4.843   5.330
 1288SOL     OW 4762   4.943   4.751   0.175
 1288SOL    HW1 4763   4.880   4.816   0.218
 1288SOL    HW2 4764   5.036   4.768   0.208
 1289SOL     OW 4765   6.408   0.003   0.842
 1289SOL    HW1 4766   6.430   7.014   0.745
 1289SOL    HW2 4767   6.476   6.967   0.895
 1290SOL     OW 4768   1.380   6.510   5.491
 1290SOL    HW1 4769   1.440   6.483   5.567
 1290SOL    HW2 4770   1.291   6.465   5.501
 1291SOL     OW 4771   6.051   5.341   4.032
 1291SOL    HW1 4772   6.007   5.431   4.040
 1291SOL    HW2 4773   6.149   5.354   4.016
 1292SOL     OW 4774   0.947   0.028   2.079
 1292SOL    HW1 4775   1.044   0.049   2.092
 1292SOL    HW2 4776   0.901   0.024   2.168
 1293SOL     OW 4777   4.862   0.940   0.386
 1293SOL    HW1 4778   4.843   0.904   0.477
 1293SOL    HW2 4779   4.926   1.016   0.393
 1294SOL     OW 4780   2.061   4.705   4.938
 1294SOL    HW1 4781   2.045   4.687   5.035
 1294SOL    HW2 4782   2.022   4.631   4.883
 1295SOL     OW 4783   6.709   4.367   0.587
 1295SOL    HW1 4784   6.725   4.437   0.516
 1295SOL    HW2 4785   6.762   4.390   0.668
 1296SOL     OW 4786   4.801   6.639   5.985
 1296SOL    HW1 4787   4.869   6.575   5.950
 1296SOL    HW2 4788   4.841   6.693   6.060
 1297SOL     OW 4789   6.716   0.172   1.216
 1297SOL    HW1 4790   6.778   0.250   1.220
 1297SOL    HW2 4791   6.706   0.133   1.307
 1298SOL     OW 4792   5.298   0.752   3.113
 1298SOL    HW1 4793   5.210   0.763   3.067
 1298SOL    HW2 4794   5.358   0.695   3.057
 1299SOL     OW 4795   0.927   3.319   4.184
 1299SOL    HW1 4796   0.931   3.252   4.258
 1299SOL    HW2 4797   1.010   3.376   4.186
 1300SOL     OW 4798   0.321   5.882   1.046
 1300SOL    HW1 4799   0.408   5.877   1.095
 1300SOL    HW2 4800   0.333   5.846   0.954
 1301SOL     OW 4801   6.634   0.468   0.228
 1301SOL    HW1 4802   6.703   0.423   0.284
 1301SOL    HW2 4803   6.676   0.540   0.174
 1302SOL     OW 4804   6.375   7.011   5.385
 1302SOL    HW1 4805   6.348   0.004   5.289
 1302SOL    HW2 4806   6.474   0.010   5.393
 1303SOL     OW 4807   3.036   6.405   1.705
 1303SOL    HW1 4808   2.965   6.382   1.773
 1303SOL    HW2 4809   3.107   6.459   1.749
 1304SOL     OW 4810   0.022   0.604   1.011
 1304SOL    HW1 4811   6.994   0.664   1.078
 1304SOL    HW2 4812   0.103   0.562   1.052
 1305SOL     OW 4813   4.028   4.666   6.114
 1305SOL    HW1 4814   4.117   4.700   6.083
 1305SOL    HW2 4815   3.985   4.612   6.042
 1306SOL     OW 4816   3.102   5.699   3.965
 1306SOL    HW1 4817   3.154   5.737   4.041
 1306SOL    HW2 4818   3.084   5.770   3.897
 1307SOL     OW 4819   2.203   3.114   4.127
 1307SOL    HW1 4820   2.251   3.035   4.164
 1307SOL    HW2 4821   2.201   3.187   4.195
 1308SOL     OW 4822   6.644   3.444   6.361
 1308SOL    HW1 4823   6.699   3.483   6.434
 1308SOL    HW2 4824   6.614   3.516   6.299
 1309SOL     OW 4825   5.882   4.080   6.876
 1309SOL    HW1 4826   5.952   4.023   6.833
 1309SOL    HW2 4827   5.792   4.037   6.866
 1310SOL     OW 4828   1.658   4.393   3.363
 1310SOL    HW1 4829   1.641   4.314   3.305
 1310SOL    HW2 4830   1.727   4.452   3.320
 1311SOL     OW 4831   5.417   5.195   6.957
 1311SOL    HW1 4832   5.356   5.247   6.897
 1311SOL    HW2 4833   5.502   5.246   6.970
 1312SOL     OW 4834   2.544   1.079   6.218
 1312SOL    HW1 4835   2.540   1.066   6.119
 1312SOL    HW2 4836   2.637   1.059   6.250
 1313SOL     OW 4837   6.704   5.328   1.443
 1313SOL    HW1 4838   6.662   5.390   1.509
 1313SOL    HW2 4839   6.749   5.381   1.371
 1314SOL     OW 4840   2.501   1.725   3.951
 1314SOL    HW1 4841   2.464   1.634   3.931
 1314SOL    HW2 4842   2.426   1.785   3.980
 1315SOL     OW 4843   6.503   1.263   2.770
 1315SOL    HW1 4844   6.446   1.341   2.799
 1315SOL    HW2 4845   6.473   1.181   2.818
 1316SOL     OW 4846   5.064   0.066   6.565
 1316SOL    HW1 4847   5.160   0.094   6.566
 1316SOL    HW2 4848   5.028   0.065   6.658
 1317SOL     OW 4849   3.162   3.165   5.488
 1317SOL    HW1 4850   3.124   3.113   5.565
 1317SOL    HW2 4851   3.172   3.104   5.409
 1318SOL     OW 4852   2.071   1.480   5.858
 1318SOL    HW1 4853   1.988   1.425   5.845
 1318SOL    HW2 4854   2.128   1.474   5.776
 1319SOL     OW 4855   6.882   0.431   0.415
 1319SOL    HW1 4856   6.982   0.426   0.413
 1319SOL    HW2 4857   6.847   0.370   0.486
 1320SOL     OW 4858   3.245   3.377   6.367
 1320SOL    HW1 4859   3.221   3.464   6.409
 1320SOL    HW2 4860   3.341   3.355   6.389
 1321SOL     OW 4861   0.256   2.725   0.470
 1321SOL    HW1 4862   0.173   2.669   0.476
 1321SOL    HW2 4863   0.318   2.687   0.402
 1322SOL     OW 4864   3.959   2.464   6.900
 1322SOL    HW1 4865   4.035   2.529   6.897
 1322SOL    HW2 4866   3.966   2.407   6.982
 1323SOL     OW 4867   3.826   0.017   1.375
 1323SOL    HW1 4868   3.773   0.093   1.413
 1323SOL    HW2 4869   3.901   0.053   1.319
 1324SOL     OW 4870   2.230   3.926   5.903
 1324SOL    HW1 4871   2.266   3.869   5.977
 1324SOL    HW2 4872   2.141   3.892   5.875
 1325SOL     OW 4873   3.563   5.997   5.064
 1325SOL    HW1 4874   3.537   5.930   4.995
 1325SOL    HW2 4875   3.577   6.086   5.020
 1326SOL     OW 4876   5.243   1.670   4.775
 1326SOL    HW1 4877   5.212   1.689   4.682
 1326SOL    HW2 4878   5.241   1.571   4.791
 1327SOL     OW 4879   4.842   5.500   2.719
 1327SOL    HW1 4880   4.874   5.479   2.811
 1327SOL    HW2 4881   4.759   5.556   2.725
 1328SOL     OW 4882   2.160   1.980   6.166
 1328SOL    HW1 4883   2.088   2.045   6.188
 1328SOL    HW2 4884   2.233   2.027   6.115
 1329SOL     OW 4885   0.638   2.497   3.968
 1329SOL    HW1 4886   0.630   2.587   4.011
 1329SOL    HW2 4887   0.734   2.479   3.945
 1330SOL     OW 4888   5.943   3.273   2.744
 1330SOL    HW1 4889   5.867   3.234   2.796
 1330SOL    HW2 4890   6.021   3.211   2.748
 1331SOL     OW 4891   4.715   2.370   3.419
 1331SOL    HW1 4892   4.642   2.349   3.484
 1331SOL    HW2 4893   4.680   2.361   3.326
 1332SOL     OW 4894   1.958   5.600   0.402
 1332SOL    HW1 4895   1.945   5.647   0.490
 1332SOL    HW2 4896   2.055   5.580   0.389
 1333SOL     OW 4897   3.682   3.786   2.835
 1333SOL    HW1 4898   3.591   3.826   2.833
 1333SOL    HW2 4899   3.749   3.856   2.860
 1334SOL     OW 4900   6.703   3.305   1.666
 1334SOL    HW1 4901   6.795   3.274   1.691
 1334SOL    HW2 4902   6.707   3.400   1.634
 1335SOL     OW 4903   0.597   3.311   3.195
 1335SOL    HW1 4904   0.620   3.406   3.174
 1335SOL    HW2 4905   0.652   3.250   3.138
 1336SOL     OW 4906   2.045   0.123   5.599
 1336SOL    HW1 4907   2.108   0.182   5.648
 1336SOL    HW2 4908   1.980   0.179   5.547
 1337SOL     OW 4909   6.864   6.667   2.616
 1337SOL    HW1 4910   6.766   6.676   2.598
 1337SOL    HW2 4911   6.896   6.744   2.670
 1338SOL     OW 4912   6.574   4.004   5.303
 1338SOL    HW1 4913   6.663   3.971   5.336
 1338SOL    HW2 4914   6.501   3.959   5.354
 1339SOL     OW 4915   6.121   0.468   6.840
 1339SOL    HW1 4916   6.068   0.410   6.902
 1339SOL    HW2 4917   6.217   0.439   6.842
 1340SOL     OW 4918   3.755   2.900   1.474
 1340SOL    HW1 4919   3.841   2.913   1.523
 1340SOL    HW2 4920   3.751   2.807   1.437
 1341SOL     OW 4921   4.916   6.049   6.631
 1341SOL    HW1 4922   4.906   6.034   6.730
 1341SOL    HW2 4923   4.952   5.966   6.589
 1342SOL     OW 4924   1.608   6.245   1.334
 1342SOL    HW1 4925   1.633   6.149   1.339
 1342SOL    HW2 4926   1.668   6.299   1.393
 1343SOL     OW 4927   5.361   5.789   2.910
 1343SOL    HW1 4928   5.460   5.775   2.915
 1343SOL    HW2 4929   5.340   5.849   2.833
 1344SOL     OW 4930   0.962   0.625   4.477
 1344SOL    HW1 4931   1.036   0.623   4.410
 1344SOL    HW2 4932   0.909   0.709   4.466
 1345SOL     OW 4933   0.927   6.734   6.824
 1345SOL    HW1 4934   0.942   6.735   6.923
 1345SOL    HW2 4935   0.830   6.719   6.805
 1346SOL     OW 4936   3.094   5.204   4.319
 1346SOL    HW1 4937   3.098   5.187   4.417
 1346SOL    HW2 4938   3.043   5.130   4.274
 1347SOL     OW 4939   1.585   0.652   6.617
 1347SOL    HW1 4940   1.590   0.620   6.712
 1347SOL    HW2 4941   1.503   0.615   6.573
 1348SOL     OW 4942   0.953   6.228   4.962
 1348SOL    HW1 4943   0.882   6.165   4.931
 1348SOL    HW2 4944   0.931   6.260   5.054
 1349SOL     OW 4945   5.203   3.403   4.104
 1349SOL    HW1 4946   5.298   3.431   4.112
 1349SOL    HW2 4947   5.143   3.474   4.142
 1350SOL     OW 4948   4.560   4.724   6.921
 1350SOL    HW1 4949   4.470   4.690   6.950
 1350SOL    HW2 4950   4.630   4.693   6.986
 1351SOL     OW 4951   0.079   2.691   6.050
 1351SOL    HW1 4952   0.044   2.599   6.029
 1351SOL    HW2 4953   0.102   2.738   5.966
 1352SOL     OW 4954   0.152   0.817   3.137
 1352SOL    HW1 4955   0.223   0.785   3.074
 1352SOL    HW2 4956   0.079   0.749   3.143
 1353SOL     OW 4957   0.058   0.782   0.308
 1353SOL    HW1 4958   0.119   0.811   0.234
 1353SOL    HW2 4959   0.022   0.863   0.355
 1354SOL     OW 4960   4.801   5.259   2.293
 1354SOL    HW1 4961   4.714   5.226   2.254
 1354SOL    HW2 4962   4.810   5.357   2.274
 1355SOL     OW 4963   4.765   3.147   5.370
 1355SOL    HW1 4964   4.741   3.236   5.409
 1355SOL    HW2 4965   4.777   3.157   5.271
 1356SOL     OW 4966   2.700   3.363   0.264
 1356SOL    HW1 4967   2.614   3.397   0.303
 1356SOL    HW2 4968   2.700   3.379   0.165
 1357SOL     OW 4969   1.301   2.764   5.799
 1357SOL    HW1 4970   1.296   2.825   5.878
 1357SOL    HW2 4971   1.394   2.762   5.763
 1358SOL     OW 4972   1.961   6.748   0.050
 1358SOL    HW1 4973   1.920   6.684   7.001
 1358SOL    HW2 4974   1.915   6.837   0.044
 1359SOL     OW 4975   6.245   3.915   1.138
 1359SOL    HW1 4976   6.208   3.949   1.051
 1359SOL    HW2 4977   6.181   3.937   1.212
 1360SOL     OW 4978   2.207   2.810   0.068
 1360SOL    HW1 4979   2.153   2.864   0.132
 1360SOL    HW2 4980   2.240   2.727   0.114
 1361SOL     OW 4981   6.489   4.522   4.860
 1361SOL    HW1 4982   6.582   4.558   4.851
 1361SOL    HW2 4983   6.494   4.426   4.888
 1362SOL     OW 4984   2.977   3.616   3.070
 1362SOL    HW1 4985   2.956   3.709   3.038
 1362SOL    HW2 4986   3.036   3.622   3.150
 1363SOL     OW 4987   1.052   6.386   4.305
 1363SOL    HW1 4988   1.060   6.435   4.392
 1363SOL    HW2 4989   0.992   6.437   4.244
 1364SOL     OW 4990   4.783   4.138   0.668
 1364SOL    HW1 4991   4.700   4.192   0.677
 1364SOL    HW2 4992   4.849   4.166   0.739
 1365SOL     OW 4993   6.273   2.717   6.761
 1365SOL    HW1 4994   6.190   2.768   6.785
 1365SOL    HW2 4995   6.255   2.660   6.681
 1366SOL     OW 4996   2.419   0.207   5.676
 1366SOL    HW1 4997   2.333   0.259   5.673
 1366SOL    HW2 4998   2.486   0.251   5.616
 1367SOL     OW 4999   2.701   1.565   2.028
 1367SOL    HW1 5000   2.763   1.592   1.954
 1367SOL    HW2 5001   2.684   1.643   2.087
 1368SOL     OW 5002   6.012   6.422   3.577
 1368SOL    HW1 5003   6.066   6.380   3.504
 1368SOL    HW2 5004   6.019   6.367   3.660
 1369SOL     OW 5005   1.152   0.487   2.494
 1369SOL    HW1 5006   1.248   0.505   2.518
 1369SOL    HW2 5007   1.132   0.390   2.509
 1370SOL     OW 5008   2.733   1.147   1.890
 1370SOL    HW1 5009   2.692   1.092   1.963
 1370SOL    HW2 5010   2.671   1.222   1.866
 1371SOL     OW 5011   3.642   0.316   6.277
 1371SOL    HW1 5012   3.628   0.254   6.354
 1371SOL    HW2 5013   3.558   0.367   6.260
 1372SOL     OW 5014   2.646   2.488   1.875
 1372SOL    HW1 5015   2.689   2.552   1.811
 1372SOL    HW2 5016   2.715   2.423   1.908
 1373SOL     OW 5017   1.493   5.659   6.741
 1373SOL    HW1 5018   1.440   5.678   6.824
 1373SOL    HW2 5019   1.518   5.562   6.740
 1374SOL     OW 5020   5.273   4.156   0.310
 1374SOL    HW1 5021   5.186   4.194   0.278
 1374SOL    HW2 5022   5.348   4.206   0.267
 1375SOL     OW 5023   1.194   4.437   5.108
 1375SOL    HW1 5024   1.239   4.446   5.019
 1375SOL    HW2 5025   1.227   4.508   5.170
 1376SOL     OW 5026   4.962   0.813   2.620
 1376SOL    HW1 5027   4.914   0.727   2.603
 1376SOL    HW2 5028   4.899   0.878   2.663
 1377SOL     OW 5029   0.813   4.669   4.411
 1377SOL    HW1 5030   0.729   4.684   4.359
 1377SOL    HW2 5031   0.812   4.577   4.451
 1378SOL     OW 5032   2.013   2.778   6.770
 1378SOL    HW1 5033   1.944   2.771   6.842
 1378SOL    HW2 5034   1.996   2.859   6.715
 1379SOL     OW 5035   4.059   6.167   1.233
 1379SOL    HW1 5036   4.097   6.092   1.288
 1379SOL    HW2 5037   3.993   6.218   1.287
 1380SOL     OW 5038   5.936   5.150   2.974
 1380SOL    HW1 5039   5.908   5.173   3.067
 1380SOL    HW2 5040   5.906   5.057   2.952
 1381SOL     OW 5041   5.876   6.721   2.140
 1381SOL    HW1 5042   5.889   6.814   2.174
 1381SOL    HW2 5043   5.965   6.682   2.115
 1382SOL     OW 5044   0.115   4.001   6.346
 1382SOL    HW1 5045   0.126   3.907   6.379
 1382SOL    HW2 5046   0.174   4.015   6.267
 1383SOL     OW 5047   2.440   0.326   0.378
 1383SOL    HW1 5048   2.436   0.262   0.301
 1383SOL    HW2 5049   2.496   0.405   0.353
 1384SOL     OW 5050   2.093   2.240   2.342
 1384SOL    HW1 5051   2.136   2.263   2.430
 1384SOL    HW2 5052   2.069   2.143   2.341
 1385SOL     OW 5053   5.246   3.135   4.048
 1385SOL    HW1 5054   5.219   3.147   3.952
 1385SOL    HW2 5055   5.246   3.224   4.094
 1386SOL     OW 5056   2.140   2.918   3.685
 1386SOL    HW1 5057   2.179   2.924   3.593
 1386SOL    HW2 5058   2.110   2.824   3.702
 1387SOL     OW 5059   3.036   0.337   4.182
 1387SOL    HW1 5060   2.954   0.306   4.133
 1387SOL    HW2 5061   3.026   0.433   4.207
 1388SOL     OW 5062   5.456   1.601   4.126
 1388SOL    HW1 5063   5.519   1.533   4.087
 1388SOL    HW2 5064   5.454   1.682   4.067
 1389SOL     OW 5065   6.763   0.016   3.528
 1389SOL    HW1 5066   6.663   0.024   3.530
 1389SOL    HW2 5067   6.789   6.940   3.556
 1390SOL     OW 5068   4.582   2.607   2.806
 1390SOL    HW1 5069   4.615   2.679   2.745
 1390SOL    HW2 5070   4.615   2.623   2.898
 1391SOL     OW 5071   5.529   0.960   4.536
 1391SOL    HW1 5072   5.522   1.047   4.586
 1391SOL    HW2 5073   5.566   0.890   4.597
 1392SOL     OW 5074   4.126   6.497   5.873
 1392SOL    HW1 5075   4.079   6.469   5.790
 1392SOL    HW2 5076   4.184   6.577   5.854
 1393SOL     OW 5077   4.681   6.971   0.161
 1393SOL    HW1 5078   4.659   0.053   0.173
 1393SOL    HW2 5079   4.596   6.920   0.151
 1394SOL     OW 5080   4.196   0.000   4.096
 1394SOL    HW1 5081   4.100   0.014   4.072
 1394SOL    HW2 5082   4.234   0.085   4.133
 1395SOL     OW 5083   0.039   5.044   2.551
 1395SOL    HW1 5084   0.029   4.960   2.498
 1395SOL    HW2 5085   7.014   5.120   2.501
 1396SOL     OW 5086   0.839   1.960   3.611
 1396SOL    HW1 5087   0.871   2.053   3.628
 1396SOL    HW2 5088   0.915   1.896   3.621
 1397SOL     OW 5089   1.919   5.385   4.926
 1397SOL    HW1 5090   1.831   5.403   4.881
 1397SOL    HW2 5091   1.913   5.412   5.021
 1398SOL     OW 5092   2.195   6.995   6.702
 1398SOL    HW1 5093   2.227   6.900   6.703
 1398SOL    HW2 5094   2.272   0.041   6.719
 1399SOL     OW 5095   3.530   0.535   0.204
 1399SOL    HW1 5096   3.486   0.447   0.188
 1399SOL    HW2 5097   3.607   0.524   0.267
 1400SOL     OW 5098   0.197   0.450   5.550
 1400SOL    HW1 5099   0.266   0.394   5.596
 1400SOL    HW2 5100   0.237   0.538   5.524
 1401SOL     OW 5101   5.578   0.047   2.099
 1401SOL    HW1 5102   5.582   0.125   2.161
 1401SOL    HW2 5103   5.670   0.024   2.067
 1402SOL     OW 5104   6.307   4.687   2.254
 1402SOL    HW1 5105   6.382   4.706   2.190
 1402SOL    HW2 5106   6.249   4.768   2.262
 1403SOL     OW 5107   2.926   3.616   6.285
 1403SOL    HW1 5108   2.949   3.537   6.228
 1403SOL    HW2 5109   2.857   3.672   6.238
 1404SOL     OW 5110   3.750   6.513   0.818
 1404SOL    HW1 5111   3.668   6.480   0.865
 1404SOL    HW2 5112   3.768   6.456   0.739
 1405SOL     OW 5113   0.953   3.439   0.199
 1405SOL    HW1 5114   0.879   3.398   0.146
 1405SOL    HW2 5115   1.041   3.407   0.164
 1406SOL     OW 5116   2.551   2.488   6.823
 1406SOL    HW1 5117   2.500   2.533   6.750
 1406SOL    HW2 5118   2.553   2.546   6.904
 1407SOL     OW 5119   0.380   2.144   0.866
 1407SOL    HW1 5120   0.452   2.200   0.824
 1407SOL    HW2 5121   0.355   2.184   0.954
 1408SOL     OW 5122   4.954   6.380   0.508
 1408SOL    HW1 5123   4.915   6.333   0.429
 1408SOL    HW2 5124   4.941   6.479   0.498
 1409SOL     OW 5125   6.076   1.656   5.636
 1409SOL    HW1 5126   6.070   1.753   5.659
 1409SOL    HW2 5127   6.150   1.642   5.569
 1410SOL     OW 5128   2.825   0.975   0.374
 1410SOL    HW1 5129   2.796   1.059   0.329
 1410SOL    HW2 5130   2.747   0.914   0.385
 1411SOL     OW 5131   3.582   5.337   6.965
 1411SOL    HW1 5132   3.649   5.293   0.010
 1411SOL    HW2 5133   3.624   5.417   6.923
 1412SOL     OW 5134   2.298   2.090   6.709
 1412SOL    HW1 5135   2.214   2.086   6.764
 1412SOL    HW2 5136   2.276   2.070   6.614
 1413SOL     OW 5137   2.561   1.363   5.230
 1413SOL    HW1 5138   2.595   1.355   5.136
 1413SOL    HW2 5139   2.637   1.353   5.293
 1414SOL     OW 5140   0.115   5.022   2.122
 1414SOL    HW1 5141   0.194   4.965   2.145
 1414SOL    HW2 5142   0.127   5.113   2.160
 1415SOL     OW 5143   3.791   1.668   4.958
 1415SOL    HW1 5144   3.715   1.705   4.905
 1415SOL    HW2 5145   3.851   1.742   4.987
 1416SOL     OW 5146   4.675   0.426   4.977
 1416SOL    HW1 5147   4.674   0.339   4.929
 1416SOL    HW2 5148   4.747   0.484   4.940
 1417SOL     OW 5149   3.310   3.437   4.389
 1417SOL    HW1 5150   3.243   3.363   4.396
 1417SOL    HW2 5151   3.359   3.445   4.476
 1418SOL     OW 5152   2.925   3.549   5.107
 1418SOL    HW1 5153   2.952   3.468   5.160
 1418SOL    HW2 5154   2.914   3.627   5.168
 1419SOL     OW 5155   0.956   6.160   2.146
 1419SOL    HW1 5156   1.019   6.112   2.085
 1419SOL    HW2 5157   0.966   6.124   2.239
 1420SOL     OW 5158   2.913   6.020   3.157
 1420SOL    HW1 5159   2.971   6.077   3.214
 1420SOL    HW2 5160   2.969   5.965   3.096
 1421SOL     OW 5161   1.745   5.462   0.293
 1421SOL    HW1 5162   1.779   5.543   0.341
 1421SOL    HW2 5163   1.804   5.384   0.314
 1422SOL     OW 5164   1.896   3.710   0.110
 1422SOL    HW1 5165   1.929   3.764   0.033
 1422SOL    HW2 5166   1.835   3.766   0.167
 1423SOL     OW 5167   4.590   1.049   4.599
 1423SOL    HW1 5168   4.543   1.073   4.684
 1423SOL    HW2 5169   4.524   1.016   4.531
 1424SOL     OW 5170   6.117   2.651   1.557
 1424SOL    HW1 5171   6.178   2.676   1.632
 1424SOL    HW2 5172   6.172   2.637   1.474
 1425SOL     OW 5173   5.820   6.990   3.412
 1425SOL    HW1 5174   5.864   0.052   3.368
 1425SOL    HW2 5175   5.720   7.004   3.411
 1426SOL     OW 5176   3.771   1.206   0.786
 1426SOL    HW1 5177   3.839   1.191   0.857
 1426SOL    HW2 5178   3.778   1.134   0.717
 1427SOL     OW 5179   1.137   0.560   4.285
 1427SOL    HW1 5180   1.102   0.512   4.205
 1427SOL    HW2 5181   1.233   0.535   4.299
 1428SOL     OW 5182   2.163   3.805   3.605
 1428SOL    HW1 5183   2.154   3.826   3.702
 1428SOL    HW2 5184   2.249   3.843   3.570
 1429SOL     OW 5185   6.012   0.241   2.369
 1429SOL    HW1 5186   6.008   0.278   2.462
 1429SOL    HW2 5187   5.946   0.289   2.311
 1430SOL     OW 5188   2.136   4.052   4.399
 1430SOL    HW1 5189   2.081   3.978   4.362
 1430SOL    HW2 5190   2.100   4.140   4.368
 1431SOL     OW 5191   3.299   1.958   0.605
 1431SOL    HW1 5192   3.212   1.912   0.588
 1431SOL    HW2 5193   3.300   1.997   0.697
 1432SOL     OW 5194   4.686   0.365   3.087
 1432SOL    HW1 5195   4.685   0.361   2.987
 1432SOL    HW2 5196   4.600   0.403   3.120
 1433SOL     OW 5197   2.937   2.037   3.760
 1433SOL    HW1 5198   2.906   2.003   3.849
 1433SOL    HW2 5199   3.028   2.079   3.770
 1434SOL     OW 5200   5.218   3.641   0.849
 1434SOL    HW1 5201   5.243   3.734   0.876
 1434SOL    HW2 5202   5.293   3.578   0.872
 1435SOL     OW 5203   0.462   6.363   4.211
 1435SOL    HW1 5204   0.498   6.312   4.289
 1435SOL    HW2 5205   0.467   6.307   4.129
 1436SOL     OW 5206   5.132   0.403   0.231
 1436SOL    HW1 5207   5.122   0.502   0.228
 1436SOL    HW2 5208   5.222   0.379   0.268
 1437SOL     OW 5209   4.341   1.015   0.296
 1437SOL    HW1 5210   4.420   1.071   0.319
 1437SOL    HW2 5211   4.358   0.968   0.209
 1438SOL     OW 5212   2.297   0.179   2.749
 1438SOL    HW1 5213   2.265   0.273   2.758
 1438SOL    HW2 5214   2.287   0.149   2.654
 1439SOL     OW 5215   0.697   5.499   5.276
 1439SOL    HW1 5216   0.739   5.479   5.187
 1439SOL    HW2 5217   0.711   5.596   5.298
 1440SOL     OW 5218   3.886   2.941   2.278
 1440SOL    HW1 5219   3.858   2.939   2.182
 1440SOL    HW2 5220   3.877   2.850   2.318
 1441SOL     OW 5221   6.576   2.075   5.790
 1441SOL    HW1 5222   6.656   2.073   5.850
 1441SOL    HW2 5223   6.498   2.033   5.837
 1442SOL     OW 5224   4.833   6.219   0.281
 1442SOL    HW1 5225   4.737   6.221   0.255
 1442SOL    HW2 5226   4.888   6.262   0.209
 1443SOL     OW 5227   1.397   2.779   3.562
 1443SOL    HW1 5228   1.421   2.801   3.657
 1443SOL    HW2 5229   1.401   2.863   3.507
 1444SOL     OW 5230   5.347   6.279   4.772
 1444SOL    HW1 5231   5.378   6.250   4.863
 1444SOL    HW2 5232   5.260   6.235   4.750
 1445SOL     OW 5233   6.793   2.106   6.838
 1445SOL    HW1 5234   6.695   2.096   6.853
 1445SOL    HW2 5235   6.841   2.026   6.875
 1446SOL     OW 5236   3.796   5.911   1.761
 1446SOL    HW1 5237   3.724   5.847   1.787
 1446SOL    HW2 5238   3.825   5.892   1.667
 1447SOL     OW 5239   6.930   0.739   4.732
 1447SOL    HW1 5240   7.000   0.804   4.759
 1447SOL    HW2 5241   6.890   0.697   4.814
 1448SOL     OW 5242   5.239   0.633   0.020
 1448SOL    HW1 5243   5.144   0.630   7.005
 1448SOL    HW2 5244   5.299   0.614   6.958
 1449SOL     OW 5245   4.318   5.693   0.201
 1449SOL    HW1 5246   4.224   5.692   0.237
 1449SOL    HW2 5247   4.357   5.601   0.211
 1450SOL     OW 5248   5.928   1.527   3.980
 1450SOL    HW1 5249   6.019   1.491   4.003
 1450SOL    HW2 5250   5.917   1.618   4.018
 1451SOL     OW 5251   0.994   6.765   1.850
 1451SOL    HW1 5252   1.068   6.809   1.900
 1451SOL    HW2 5253   0.996   6.795   1.755
 1452SOL     OW 5254   3.303   0.515   5.920
 1452SOL    HW1 5255   3.373   0.570   5.966
 1452SOL    HW2 5256   3.284   0.433   5.975
 1453SOL     OW 5257   5.143   4.345   4.308
 1453SOL    HW1 5258   5.190   4.258   4.294
 1453SOL    HW2 5259   5.204   4.420   4.281
 1454SOL     OW 5260   5.282   3.666   1.247
 1454SOL    HW1 5261   5.356   3.725   1.280
 1454SOL    HW2 5262   5.246   3.702   1.161
 1455SOL     OW 5263   1.753   2.086   1.378
 1455SOL    HW1 5264   1.725   2.160   1.439
 1455SOL    HW2 5265   1.846   2.057   1.402
 1456SOL     OW 5266   5.895   5.607   5.391
 1456SOL    HW1 5267   5.823   5.611   5.460
 1456SOL    HW2 5268   5.860   5.562   5.309
 1457SOL     OW 5269   1.956   0.688   4.125
 1457SOL    HW1 5270   1.957   0.732   4.035
 1457SOL    HW2 5271   1.871   0.638   4.137
 1458SOL     OW 5272   0.565   5.301   6.845
 1458SOL    HW1 5273   0.522   5.363   6.779
 1458SOL    HW2 5274   0.651   5.267   6.807
 1459SOL     OW 5275   2.708   6.981   1.574
 1459SOL    HW1 5276   2.758   6.918   1.634
 1459SOL    HW2 5277   2.770   0.004   1.507
 1460SOL     OW 5278   0.270   6.994   6.674
 1460SOL    HW1 5279   0.183   0.019   6.699
 1460SOL    HW2 5280   0.303   0.019   6.588
 1461SOL     OW 5281   4.891   5.520   2.242
 1461SOL    HW1 5282   4.945   5.568   2.173
 1461SOL    HW2 5283   4.938   5.523   2.330
 1462SOL     OW 5284   5.473   0.098   5.086
 1462SOL    HW1 5285   5.533   0.112   5.165
 1462SOL    HW2 5286   5.477   0.002   5.057
 1463SOL     OW 5287   0.873   2.567   5.884
 1463SOL    HW1 5288   0.775   2.553   5.903
 1463SOL    HW2 5289   0.884   2.645   5.822
 1464SOL     OW 5290   0.783   0.847   1.286
 1464SOL    HW1 5291   0.694   0.825   1.248
 1464SOL    HW2 5292   0.789   0.815   1.380
 1465SOL     OW 5293   1.002   0.782   3.611
 1465SOL    HW1 5294   1.021   0.827   3.524
 1465SOL    HW2 5295   1.021   0.846   3.686
 1466SOL     OW 5296   5.764   5.422   4.736
 1466SOL    HW1 5297   5.859   5.389   4.729
 1466SOL    HW2 5298   5.758   5.516   4.702
 1467SOL     OW 5299   6.136   4.053   4.191
 1467SOL    HW1 5300   6.188   3.969   4.207
 1467SOL    HW2 5301   6.155   4.087   4.099
 1468SOL     OW 5302   4.519   0.189   2.559
 1468SOL    HW1 5303   4.583   0.127   2.513
 1468SOL    HW2 5304   4.425   0.165   2.534
 1469SOL     OW 5305   0.695   0.700   2.007
 1469SOL    HW1 5306   0.793   0.717   2.007
 1469SOL    HW2 5307   0.660   0.707   1.914
 1470SOL     OW 5308   6.925   6.913   2.721
 1470SOL    HW1 5309   7.006   6.970   2.733
 1470SOL    HW2 5310   6.851   6.967   2.682
 1471SOL     OW 5311   5.635   1.083   1.046
 1471SOL    HW1 5312   5.562   1.045   0.989
 1471SOL    HW2 5313   5.633   1.039   1.136
 1472SOL     OW 5314   4.711   5.317   4.761
 1472SOL    HW1 5315   4.811   5.321   4.759
 1472SOL    HW2 5316   4.679   5.329   4.855
 1473SOL     OW 5317   6.209   3.569   3.614
 1473SOL    HW1 5318   6.302   3.605   3.603
 1473SOL    HW2 5319   6.204   3.516   3.698
 1474SOL     OW 5320   4.560   5.276   3.083
 1474SOL    HW1 5321   4.602   5.334   3.153
 1474SOL    HW2 5322   4.584   5.180   3.101
 1475SOL     OW 5323   6.363   6.537   3.289
 1475SOL    HW1 5324   6.307   6.619   3.296
 1475SOL    HW2 5325   6.435   6.551   3.221
 1476SOL     OW 5326   0.635   2.613   1.057
 1476SOL    HW1 5327   0.701   2.641   1.127
 1476SOL    HW2 5328   0.562   2.559   1.100
 1477SOL     OW 5329   3.018   6.452   4.235
 1477SOL    HW1 5330   3.001   6.419   4.142
 1477SOL    HW2 5331   3.046   6.375   4.292
 1478SOL     OW 5332   6.683   3.408   1.315
 1478SOL    HW1 5333   6.696   3.507   1.315
 1478SOL    HW2 5334   6.601   3.385   1.367
 1479SOL     OW 5335   1.183   5.334   0.461
 1479SOL    HW1 5336   1.252   5.271   0.498
 1479SOL    HW2 5337   1.119   5.283   0.404
 1480SOL     OW 5338   2.316   1.064   6.904
 1480SOL    HW1 5339   2.296   0.975   6.946
 1480SOL    HW2 5340   2.287   1.137   6.965
 1481SOL     OW 5341   0.919   3.642   6.891
 1481SOL    HW1 5342   0.831   3.594   6.887
 1481SOL    HW2 5343   0.970   3.624   6.807
 1482SOL     OW 5344   5.571   0.289   6.288
 1482SOL    HW1 5345   5.631   0.258   6.362
 1482SOL    HW2 5346   5.478   0.257   6.306
 1483SOL     OW 5347   6.300   1.942   6.396
 1483SOL    HW1 5348   6.355   1.991   6.463
 1483SOL    HW2 5349   6.257   2.007   6.333
 1484SOL     OW 5350   6.383   6.516   2.765
 1484SOL    HW1 5351   6.316   6.535   2.837
 1484SOL    HW2 5352   6.370   6.423   2.732
 1485SOL     OW 5353   5.628   3.301   4.067
 1485SOL    HW1 5354   5.596   3.211   4.036
 1485SOL    HW2 5355   5.557   3.345   4.122
 1486SOL     OW 5356   5.110   2.222   2.157
 1486SOL    HW1 5357   5.138   2.129   2.134
 1486SOL    HW2 5358   5.015   2.236   2.131
 1487SOL     OW 5359   6.850   0.163   5.616
 1487SOL    HW1 5360   6.903   0.080   5.597
 1487SOL    HW2 5361   6.835   0.170   5.715
 1488SOL     OW 5362   5.298   1.882   4.270
 1488SOL    HW1 5363   5.262   1.970   4.303
 1488SOL    HW2 5364   5.299   1.816   4.345
 1489SOL     OW 5365   3.917   5.209   4.514
 1489SOL    HW1 5366   3.908   5.112   4.536
 1489SOL    HW2 5367   3.855   5.262   4.571
 1490SOL     OW 5368   2.423   2.261   1.309
 1490SOL    HW1 5369   2.519   2.266   1.279
 1490SOL    HW2 5370   2.399   2.346   1.355
 1491SOL     OW 5371   0.309   2.244   5.143
 1491SOL    HW1 5372   0.328   2.151   5.173
 1491SOL    HW2 5373   0.320   2.250   5.043
 1492SOL     OW 5374   0.078   2.150   1.159
 1492SOL    HW1 5375   0.174   2.172   1.142
 1492SOL    HW2 5376   0.030   2.136   1.072
 1493SOL     OW 5377   5.821   2.326   5.400
 1493SOL    HW1 5378   5.867   2.313   5.487
 1493SOL    HW2 5379   5.722   2.331   5.414
 1494SOL     OW 5380   5.570   1.599   4.383
 1494SOL    HW1 5381   5.552   1.611   4.285
 1494SOL    HW2 5382   5.547   1.506   4.410
 1495SOL     OW 5383   1.288   3.788   2.227
 1495SOL    HW1 5384   1.292   3.830   2.136
 1495SOL    HW2 5385   1.348   3.708   2.229
 1496SOL     OW 5386   1.056   0.408   2.027
 1496SOL    HW1 5387   1.042   0.489   2.084
 1496SOL    HW2 5388   0.972   0.388   1.977
 1497SOL     OW 5389   5.395   5.420   5.730
 1497SOL    HW1 5390   5.350   5.473   5.658
 1497SOL    HW2 5391   5.334   5.348   5.763
 1498SOL     OW 5392   2.236   5.597   0.442
 1498SOL    HW1 5393   2.300   5.575   0.369
 1498SOL    HW2 5394   2.286   5.625   0.524
 1499SOL     OW 5395   0.832   4.107   4.514
 1499SOL    HW1 5396   0.780   4.031   4.552
 1499SOL    HW2 5397   0.929   4.094   4.535
 1500SOL     OW 5398   4.024   6.810   5.387
 1500SOL    HW1 5399   3.996   6.792   5.293
 1500SOL    HW2 5400   4.121   6.788   5.398
 1501SOL     OW 5401   3.721   0.857   0.987
 1501SOL    HW1 5402   3.717   0.938   1.047
 1501SOL    HW2 5403   3.665   0.784   1.026
 1502SOL     OW 5404   0.387   6.131   6.000
 1502SOL    HW1 5405   0.368   6.183   6.083
 1502SOL    HW2 5406   0.459   6.178   5.947
 1503SOL     OW 5407   3.371   4.147   5.682
 1503SOL    HW1 5408   3.363   4.125   5.585
 1503SOL    HW2 5409   3.301   4.215   5.707
 1504SOL     OW 5410   2.853   6.649   4.016
 1504SOL    HW1 5411   2.795   6.577   4.052
 1504SOL    HW2 5412   2.800   6.734   4.008
 1505SOL     OW 5413   4.922   0.311   2.555
 1505SOL    HW1 5414   4.986   0.323   2.631
 1505SOL    HW2 5415   4.972   0.277   2.475
 1506SOL     OW 5416   0.750   6.603   3.332
 1506SOL    HW1 5417   0.789   6.564   3.415
 1506SOL    HW2 5418   0.733   6.701   3.346
 1507SOL     OW 5419   1.972   2.291   6.774
 1507SOL    HW1 5420   2.050   2.353   6.780
 1507SOL    HW2 5421   1.978   2.237   6.690
 1508SOL     OW 5422   4.641   6.755   1.378
 1508SOL    HW1 5423   4.642   6.773   1.477
 1508SOL    HW2 5424   4.601   6.832   1.330
 1509SOL     OW 5425   5.487   1.754   6.378
 1509SOL    HW1 5426   5.576   1.713   6.399
 1509SOL    HW2 5427   5.496   1.818   6.302
 1510SOL     OW 5428   6.750   1.377   2.829
 1510SOL    HW1 5429   6.727   1.473   2.848
 1510SOL    HW2 5430   6.667   1.329   2.800
 1511SOL     OW 5431   1.560   2.649   0.237
 1511SOL    HW1 5432   1.547   2.613   0.329
 1511SOL    HW2 5433   1.601   2.740   0.242
 1512SOL     OW 5434   7.007   1.313   1.671
 1512SOL    HW1 5435   6.955   1.236   1.708
 1512SOL    HW2 5436   7.007   1.388   1.738
 1513SOL     OW 5437   2.885   0.786   3.116
 1513SOL    HW1 5438   2.867   0.776   3.018
 1513SOL    HW2 5439   2.928   0.875   3.132
 1514SOL     OW 5440   4.733   0.178   6.127
 1514SOL    HW1 5441   4.797   0.179   6.203
 1514SOL    HW2 5442   4.697   0.270   6.114
 1515SOL     OW 5443   5.494   4.959   5.589
 1515SOL    HW1 5444   5.521   5.055   5.586
 1515SOL    HW2 5445   5.439   4.942   5.671
 1516SOL     OW 5446   0.180   1.449   0.897
 1516SOL    HW1 5447   0.113   1.505   0.850
 1516SOL    HW2 5448   0.272   1.476   0.870
 1517SOL     OW 5449   3.038   5.589   2.954
 1517SOL    HW1 5450   2.978   5.510   2.970
 1517SOL    HW2 5451   3.082   5.580   2.864
 1518SOL     OW 5452   0.139   4.743   0.651
 1518SOL    HW1 5453   0.184   4.732   0.562
 1518SOL    HW2 5454   0.180   4.820   0.699
 1519SOL     OW 5455   0.617   3.945   0.938
 1519SOL    HW1 5456   0.715   3.961   0.929
 1519SOL    HW2 5457   0.568   4.032   0.937
 1520SOL     OW 5458   1.609   2.819   2.922
 1520SOL    HW1 5459   1.703   2.806   2.891
 1520SOL    HW2 5460   1.554   2.855   2.846
 1521SOL     OW 5461   2.511   4.572   5.071
 1521SOL    HW1 5462   2.460   4.488   5.050
 1521SOL    HW2 5463   2.599   4.570   5.023
 1522SOL     OW 5464   1.685   1.820   6.180
 1522SOL    HW1 5465   1.730   1.815   6.269
 1522SOL    HW2 5466   1.591   1.785   6.188
 1523SOL     OW 5467   5.804   1.688   1.260
 1523SOL    HW1 5468   5.763   1.649   1.177
 1523SOL    HW2 5469   5.805   1.618   1.332
 1524SOL     OW 5470   0.174   1.333   1.488
 1524SOL    HW1 5471   0.110   1.313   1.562
 1524SOL    HW2 5472   0.171   1.259   1.420
 1525SOL     OW 5473   4.634   1.642   6.139
 1525SOL    HW1 5474   4.596   1.653   6.047
 1525SOL    HW2 5475   4.565   1.599   6.198
 1526SOL     OW 5476   6.047   1.170   0.204
 1526SOL    HW1 5477   6.031   1.245   0.269
 1526SOL    HW2 5478   6.123   1.193   0.144
 1527SOL     OW 5479   3.227   1.699   6.148
 1527SOL    HW1 5480   3.150   1.685   6.086
 1527SOL    HW2 5481   3.266   1.611   6.173
 1528SOL     OW 5482   5.457   5.224   3.966
 1528SOL    HW1 5483   5.414   5.315   3.965
 1528SOL    HW2 5484   5.549   5.230   3.927
 1529SOL     OW 5485   2.124   6.887   5.630
 1529SOL    HW1 5486   2.165   6.883   5.721
 1529SOL    HW2 5487   2.103   6.982   5.607
 1530SOL     OW 5488   2.956   6.550   1.461
 1530SOL    HW1 5489   3.008   6.495   1.395
 1530SOL    HW2 5490   2.962   6.508   1.551
 1531SOL     OW 5491   5.760   0.512   6.288
 1531SOL    HW1 5492   5.794   0.420   6.307
 1531SOL    HW2 5493   5.667   0.507   6.252
 1532SOL     OW 5494   2.886   2.385   5.505
 1532SOL    HW1 5495   2.915   2.295   5.536
 1532SOL    HW2 5496   2.917   2.399   5.411
 1533SOL     OW 5497   4.590   2.818   0.202
 1533SOL    HW1 5498   4.617   2.732   0.159
 1533SOL    HW2 5499   4.508   2.853   0.156
 1534SOL     OW 5500   6.740   0.461   1.425
 1534SOL    HW1 5501   6.699   0.439   1.514
 1534SOL    HW2 5502   6.785   0.550   1.430
 1535SOL     OW 5503   5.107   4.528   4.681
 1535SOL    HW1 5504   5.052   4.457   4.637
 1535SOL    HW2 5505   5.096   4.614   4.632
 1536SOL     OW 5506   3.306   6.415   3.296
 1536SOL    HW1 5507   3.300   6.419   3.196
 1536SOL    HW2 5508   3.243   6.481   3.336
 1537SOL     OW 5509   3.139   5.580   4.623
 1537SOL    HW1 5510   3.180   5.538   4.703
 1537SOL    HW2 5511   3.210   5.627   4.570
 1538SOL     OW 5512   2.820   5.390   6.819
 1538SOL    HW1 5513   2.766   5.334   6.756
 1538SOL    HW2 5514   2.803   5.487   6.800
 1539SOL     OW 5515   2.852   6.359   1.898
 1539SOL    HW1 5516   2.824   6.264   1.879
 1539SOL    HW2 5517   2.771   6.415   1.912
 1540SOL     OW 5518   5.828   6.836   5.083
 1540SOL    HW1 5519   5.777   6.886   5.014
 1540SOL    HW2 5520   5.765   6.780   5.137
 1541SOL     OW 5521   5.219   1.615   1.200
 1541SOL    HW1 5522   5.276   1.659   1.131
 1541SOL    HW2 5523   5.127   1.655   1.199
 1542SOL     OW 5524   0.066   6.345   1.303
 1542SOL    HW1 5525   0.107   6.310   1.387
 1542SOL    HW2 5526   0.130   6.404   1.255
 1543SOL     OW 5527   3.637   3.411   3.374
 1543SOL    HW1 5528   3.604   3.503   3.353
 1543SOL    HW2 5529   3.572   3.343   3.339
 1544SOL     OW 5530   3.537   3.809   2.324
 1544SOL    HW1 5531   3.522   3.720   2.367
 1544SOL    HW2 5532   3.471   3.823   2.250
 1545SOL     OW 5533   0.005   0.272   4.894
 1545SOL    HW1 5534   0.018   0.176   4.920
 1545SOL    HW2 5535   0.001   0.279   4.794
 1546SOL     OW 5536   6.112   6.507   6.402
 1546SOL    HW1 5537   6.069   6.577   6.459
 1546SOL    HW2 5538   6.181   6.458   6.455
 1547SOL     OW 5539   3.161   5.520   7.009
 1547SOL    HW1 5540   3.221   5.459   0.046
 1547SOL    HW2 5541   3.146   5.481   6.918
 1548SOL     OW 5542   6.613   3.844   3.338
 1548SOL    HW1 5543   6.674   3.921   3.318
 1548SOL    HW2 5544   6.663   3.775   3.391
 1549SOL     OW 5545   6.973   2.239   0.613
 1549SOL    HW1 5546   6.896   2.175   0.601
 1549SOL    HW2 5547   6.937   2.328   0.642
 1550SOL     OW 5548   2.900   4.971   2.612
 1550SOL    HW1 5549   2.801   4.958   2.618
 1550SOL    HW2 5550   2.919   5.053   2.559
 1551SOL     OW 5551   0.442   2.512   1.210
 1551SOL    HW1 5552   0.454   2.470   1.299
 1551SOL    HW2 5553   0.381   2.590   1.218
 1552SOL     OW 5554   1.115   6.521   2.363
 1552SOL    HW1 5555   1.180   6.563   2.426
 1552SOL    HW2 5556   1.061   6.452   2.411
 1553SOL     OW 5557   5.558   1.124   5.857
 1553SOL    HW1 5558   5.507   1.210   5.857
 1553SOL    HW2 5559   5.557   1.085   5.949
 1554SOL     OW 5560   2.963   2.581   0.781
 1554SOL    HW1 5561   2.976   2.567   0.879
 1554SOL    HW2 5562   2.979   2.495   0.733
 1555SOL     OW 5563   4.061   1.156   0.467
 1555SOL    HW1 5564   4.035   1.163   0.371
 1555SOL    HW2 5565   4.097   1.244   0.498
 1556SOL     OW 5566   3.601   2.281   0.326
 1556SOL    HW1 5567   3.590   2.380   0.336
 1556SOL    HW2 5568   3.608   2.259   0.229
 1557SOL     OW 5569   1.851   2.844   0.415
 1557SOL    HW1 5570   1.769   2.892   0.444
 1557SOL    HW2 5571   1.827   2.768   0.355
 1558SOL     OW 5572   4.967   2.490   6.595
 1558SOL    HW1 5573   4.923   2.427   6.531
 1558SOL    HW2 5574   4.937   2.469   6.688
 1559SOL     OW 5575   2.717   6.319   3.762
 1559SOL    HW1 5576   2.673   6.400   3.801
 1559SOL    HW2 5577   2.698   6.315   3.664
 1560SOL     OW 5578   4.328   3.166   1.300
 1560SOL    HW1 5579   4.331   3.245   1.239
 1560SOL    HW2 5580   4.235   3.127   1.300
 1561SOL     OW 5581   5.399   6.186   0.780
 1561SOL    HW1 5582   5.317   6.179   0.837
 1561SOL    HW2 5583   5.398   6.114   0.711
 1562SOL     OW 5584   2.350   0.426   2.333
 1562SOL    HW1 5585   2.314   0.344   2.289
 1562SOL    HW2 5586   2.305   0.440   2.421
 1563SOL     OW 5587   1.906   3.359   3.784
 1563SOL    HW1 5588   1.893   3.303   3.703
 1563SOL    HW2 5589   1.965   3.310   3.849
 1564SOL     OW 5590   0.673   1.793   2.882
 1564SOL    HW1 5591   0.724   1.735   2.818
 1564SOL    HW2 5592   0.734   1.825   2.954
 1565SOL     OW 5593   4.655   1.745   5.561
 1565SOL    HW1 5594   4.734   1.795   5.596
 1565SOL    HW2 5595   4.687   1.664   5.511
 1566SOL     OW 5596   0.591   3.590   3.511
 1566SOL    HW1 5597   0.523   3.583   3.438
 1566SOL    HW2 5598   0.636   3.679   3.506
 1567SOL     OW 5599   5.535   0.346   4.938
 1567SOL    HW1 5600   5.525   0.250   4.964
 1567SOL    HW2 5601   5.526   0.404   5.020
 1568SOL     OW 5602   2.375   4.395   0.944
 1568SOL    HW1 5603   2.371   4.330   1.021
 1568SOL    HW2 5604   2.446   4.463   0.962
 1569SOL     OW 5605   2.174   1.309   2.645
 1569SOL    HW1 5606   2.121   1.341   2.724
 1569SOL    HW2 5607   2.112   1.298   2.566
 1570SOL     OW 5608   2.517   5.887   6.507
 1570SOL    HW1 5609   2.562   5.814   6.455
 1570SOL    HW2 5610   2.522   5.865   6.605
 1571SOL     OW 5611   6.676   2.657   4.022
 1571SOL    HW1 5612   6.607   2.594   4.058
 1571SOL    HW2 5613   6.767   2.628   4.052
 1572SOL     OW 5614   2.392   6.262   3.118
 1572SOL    HW1 5615   2.348   6.352   3.122
 1572SOL    HW2 5616   2.470   6.260   3.180
 1573SOL     OW 5617   5.158   5.469   0.329
 1573SOL    HW1 5618   5.248   5.430   0.349
 1573SOL    HW2 5619   5.148   5.481   0.230
 1574SOL     OW 5620   0.905   4.186   2.919
 1574SOL    HW1 5621   0.846   4.157   2.844
 1574SOL    HW2 5622   0.993   4.215   2.883
 1575SOL     OW 5623   6.780   2.459   0.434
 1575SOL    HW1 5624   6.780   2.447   0.533
 1575SOL    HW2 5625   6.872   2.484   0.403
 1576SOL     OW 5626   1.775   6.033   1.572
 1576SOL    HW1 5627   1.848   6.083   1.618
 1576SOL    HW2 5628   1.688   6.051   1.619
 1577SOL     OW 5629   4.747   5.629   3.811
 1577SOL    HW1 5630   4.812   5.673   3.874
 1577SOL    HW2 5631   4.789   5.547   3.772
 1578SOL     OW 5632   5.202   2.098   1.406
 1578SOL    HW1 5633   5.225   2.193   1.425
 1578SOL    HW2 5634   5.158   2.092   1.317
 1579SOL     OW 5635   1.774   3.173   2.078
 1579SOL    HW1 5636   1.817   3.259   2.052
 1579SOL    HW2 5637   1.792   3.152   2.174
 1580SOL     OW 5638   3.102   3.926   3.232
 1580SOL    HW1 5639   3.045   3.909   3.151
 1580SOL    HW2 5640   3.163   4.003   3.213
 1581SOL     OW 5641   5.633   4.410   4.742
 1581SOL    HW1 5642   5.574   4.366   4.809
 1581SOL    HW2 5643   5.580   4.476   4.689
 1582SOL     OW 5644   4.354   5.951   4.956
 1582SOL    HW1 5645   4.324   6.046   4.960
 1582SOL    HW2 5646   4.390   5.924   5.045
 1583SOL     OW 5647   1.453   5.137   5.533
 1583SOL    HW1 5648   1.499   5.222   5.508
 1583SOL    HW2 5649   1.512   5.060   5.509
 1584SOL     OW 5650   0.150   4.015   0.017
 1584SOL    HW1 5651   0.081   3.979   0.080
 1584SOL    HW2 5652   0.230   4.043   0.069
 1585SOL     OW 5653   5.324   6.674   4.192
 1585SOL    HW1 5654   5.309   6.605   4.122
 1585SOL    HW2 5655   5.241   6.728   4.205
 1586SOL     OW 5656   2.648   5.796   3.352
 1586SOL    HW1 5657   2.593   5.819   3.432
 1586SOL    HW2 5658   2.733   5.849   3.353
 1587SOL     OW 5659   3.037   6.472   6.766
 1587SOL    HW1 5660   2.958   6.459   6.706
 1587SOL    HW2 5661   3.023   6.420   6.851
 1588SOL     OW 5662   6.343   2.121   3.185
 1588SOL    HW1 5663   6.372   2.213   3.160
 1588SOL    HW2 5664   6.249   2.106   3.152
 1589SOL     OW 5665   0.139   2.793   4.833
 1589SOL    HW1 5666   0.082   2.801   4.915
 1589SOL    HW2 5667   0.215   2.857   4.839
 1590SOL     OW 5668   5.618   0.867   3.453
 1590SOL    HW1 5669   5.554   0.807   3.404
 1590SOL    HW2 5670   5.595   0.867   3.551
 1591SOL     OW 5671   0.651   5.677   0.515
 1591SOL    HW1 5672   0.578   5.658   0.448
 1591SOL    HW2 5673   0.736   5.635   0.484
 1592SOL     OW 5674   0.007   3.918   5.253
 1592SOL    HW1 5675   0.098   3.876   5.247
 1592SOL    HW2 5676   0.016   4.017   5.257
 1593SOL     OW 5677   3.944   6.078   1.563
 1593SOL    HW1 5678   3.894   6.090   1.477
 1593SOL    HW2 5679   4.034   6.039   1.544
 1594SOL     OW 5680   5.024   1.010   2.870
 1594SOL    HW1 5681   5.007   1.101   2.908
 1594SOL    HW2 5682   5.011   1.012   2.771
 1595SOL     OW 5683   0.909   3.130   6.474
 1595SOL    HW1 5684   0.961   3.068   6.533
 1595SOL    HW2 5685   0.814   3.134   6.506
 1596SOL     OW 5686   4.750   4.108   4.072
 1596SOL    HW1 5687   4.847   4.129   4.083
 1596SOL    HW2 5688   4.736   4.064   3.983
 1597SOL     OW 5689   3.408   5.666   0.114
 1597SOL    HW1 5690   3.358   5.580   0.108
 1597SOL    HW2 5691   3.440   5.680   0.208
 1598SOL     OW 5692   1.237   4.632   6.340
 1598SOL    HW1 5693   1.218   4.615   6.244
 1598SOL    HW2 5694   1.270   4.726   6.351
 1599SOL     OW 5695   4.816   5.338   3.718
 1599SOL    HW1 5696   4.722   5.323   3.686
 1599SOL    HW2 5697   4.828   5.298   3.808
 1600SOL     OW 5698   4.493   0.442   1.914
 1600SOL    HW1 5699   4.411   0.402   1.873
 1600SOL    HW2 5700   4.560   0.459   1.842
 1601SOL     OW 5701   6.513   0.925   4.798
 1601SOL    HW1 5702   6.500   0.835   4.755
 1601SOL    HW2 5703   6.541   0.991   4.728
 1602SOL     OW 5704   4.478   5.458   3.453
 1602SOL    HW1 5705   4.540   5.465   3.375
 1602SOL    HW2 5706   4.498   5.375   3.505
 1603SOL     OW 5707   3.251   4.897   2.145
 1603SOL    HW1 5708   3.186   4.932   2.212
 1603SOL    HW2 5709   3.201   4.859   2.067
 1604SOL     OW 5710   4.334   5.090   2.662
 1604SOL    HW1 5711   4.356   5.146   2.583
 1604SOL    HW2 5712   4.413   5.087   2.724
 1605SOL     OW 5713   4.672   5.237   0.209
 1605SOL    HW1 5714   4.711   5.260   0.120
 1605SOL    HW2 5715   4.730   5.275   0.281
 1606SOL     OW 5716   2.930   5.898   4.973
 1606SOL    HW1 5717   3.008   5.837   4.954
 1606SOL    HW2 5718   2.854   5.844   5.009
 1607SOL     OW 5719   4.750   4.091   3.797
 1607SOL    HW1 5720   4.697   4.160   3.746
 1607SOL    HW2 5721   4.792   4.028   3.732
 1608SOL     OW 5722   5.780   2.639   3.682
 1608SOL    HW1 5723   5.761   2.737   3.685
 1608SOL    HW2 5724   5.711   2.590   3.735
 1609SOL     OW 5725   1.745   0.259   0.707
 1609SOL    HW1 5726   1.808   0.288   0.779
 1609SOL    HW2 5727   1.741   0.330   0.636
 1610SOL     OW 5728   5.556   6.580   0.647
 1610SOL    HW1 5729   5.592   6.490   0.673
 1610SOL    HW2 5730   5.477   6.568   0.587
 1611SOL     OW 5731   1.119   4.208   0.127
 1611SOL    HW1 5732   1.138   4.117   0.166
 1611SOL    HW2 5733   1.193   4.271   0.151
 1612SOL     OW 5734   4.644   1.197   2.335
 1612SOL    HW1 5735   4.610   1.111   2.296
 1612SOL    HW2 5736   4.712   1.177   2.405
 1613SOL     OW 5737   0.178   5.783   2.775
 1613SOL    HW1 5738   0.158   5.760   2.680
 1613SOL    HW2 5739   0.273   5.811   2.784
 1614SOL     OW 5740   6.674   1.289   5.543
 1614SOL    HW1 5741   6.579   1.309   5.566
 1614SOL    HW2 5742   6.679   1.259   5.447
 1615SOL     OW 5743   0.004   3.769   5.693
 1615SOL    HW1 5744   0.085   3.712   5.680
 1615SOL    HW2 5745   0.028   3.849   5.748
 1616SOL     OW 5746   0.560   1.081   3.582
 1616SOL    HW1 5747   0.552   0.986   3.611
 1616SOL    HW2 5748   0.473   1.128   3.599
 1617SOL     OW 5749   6.612   5.410   3.716
 1617SOL    HW1 5750   6.658   5.321   3.721
 1617SOL    HW2 5751   6.643   5.459   3.635
 1618SOL     OW 5752   3.407   5.649   2.896
 1618SOL    HW1 5753   3.388   5.593   2.977
 1618SOL    HW2 5754   3.501   5.682   2.900
 1619SOL     OW 5755   0.982   3.981   6.568
 1619SOL    HW1 5756   1.060   3.929   6.602
 1619SOL    HW2 5757   1.005   4.023   6.480
 1620SOL     OW 5758   3.485   6.796   4.234
 1620SOL    HW1 5759   3.462   6.741   4.155
 1620SOL    HW2 5760   3.402   6.823   4.283
 1621SOL     OW 5761   4.641   5.526   0.778
 1621SOL    HW1 5762   4.741   5.527   0.783
 1621SOL    HW2 5763   4.612   5.554   0.686
 1622SOL     OW 5764   6.248   4.453   4.262
 1622SOL    HW1 5765   6.287   4.542   4.286
 1622SOL    HW2 5766   6.232   4.449   4.164
 1623SOL     OW 5767   0.378   2.632   3.702
 1623SOL    HW1 5768   0.470   2.597   3.723
 1623SOL    HW2 5769   0.312   2.557   3.705
 1624SOL     OW 5770   3.467   3.188   0.470
 1624SOL    HW1 5771   3.465   3.176   0.569
 1624SOL    HW2 5772   3.501   3.280   0.449
 1625SOL     OW 5773   0.607   6.503   0.264
 1625SOL    HW1 5774   0.521   6.491   0.215
 1625SOL    HW2 5775   0.633   6.417   0.308
 1626SOL     OW 5776   2.676   1.942   1.600
 1626SOL    HW1 5777   2.671   2.012   1.671
 1626SOL    HW2 5778   2.768   1.903   1.598
 1627SOL     OW 5779   3.924   2.037   5.561
 1627SOL    HW1 5780   4.020   2.015   5.580
 1627SOL    HW2 5781   3.895   1.990   5.478
 1628SOL     OW 5782   5.234   6.630   0.869
 1628SOL    HW1 5783   5.327   6.664   0.885
 1628SOL    HW2 5784   5.234   6.573   0.786
 1629SOL     OW 5785   1.723   6.899   3.532
 1629SOL    HW1 5786   1.746   6.976   3.471
 1629SOL    HW2 5787   1.659   6.929   3.602
 1630SOL     OW 5788   0.460   3.482   5.685
 1630SOL    HW1 5789   0.509   3.404   5.724
 1630SOL    HW2 5790   0.518   3.526   5.616
 1631SOL     OW 5791   5.770   2.879   0.743
 1631SOL    HW1 5792   5.820   2.890   0.656
 1631SOL    HW2 5793   5.789   2.788   0.780
 1632SOL     OW 5794   6.466   6.035   2.219
 1632SOL    HW1 5795   6.376   6.004   2.248
 1632SOL    HW2 5796   6.516   6.070   2.298
 1633SOL     OW 5797   5.297   3.710   4.766
 1633SOL    HW1 5798   5.237   3.630   4.755
 1633SOL    HW2 5799   5.362   3.693   4.839
 1634SOL     OW 5800   1.185   3.435   5.631
 1634SOL    HW1 5801   1.276   3.443   5.670
 1634SOL    HW2 5802   1.151   3.342   5.643
 1635SOL     OW 5803   3.166   0.510   3.775
 1635SOL    HW1 5804   3.167   0.539   3.679
 1635SOL    HW2 5805   3.193   0.587   3.833
 1636SOL     OW 5806   6.502   5.943   1.400
 1636SOL    HW1 5807   6.549   5.891   1.470
 1636SOL    HW2 5808   6.447   6.015   1.442
 1637SOL     OW 5809   1.667   1.404   2.758
 1637SOL    HW1 5810   1.586   1.436   2.708
 1637SOL    HW2 5811   1.748   1.453   2.725
 1638SOL     OW 5812   5.218   2.239   3.202
 1638SOL    HW1 5813   5.205   2.140   3.208
 1638SOL    HW2 5814   5.132   2.285   3.223
 1639SOL     OW 5815   4.637   2.292   2.044
 1639SOL    HW1 5816   4.551   2.242   2.046
 1639SOL    HW2 5817   4.627   2.377   2.096
 1640SOL     OW 5818   6.042   0.614   6.612
 1640SOL    HW1 5819   6.054   0.561   6.697
 1640SOL    HW2 5820   6.061   0.711   6.631
 1641SOL     OW 5821   6.303   1.508   3.080
 1641SOL    HW1 5822   6.306   1.452   3.163
 1641SOL    HW2 5823   6.339   1.599   3.099
 1642SOL     OW 5824   6.929   3.636   6.346
 1642SOL    HW1 5825   6.926   3.581   6.262
 1642SOL    HW2 5826   6.895   3.582   6.423
 1643SOL     OW 5827   1.687   5.381   3.548
 1643SOL    HW1 5828   1.638   5.303   3.586
 1643SOL    HW2 5829   1.632   5.423   3.474
 1644SOL     OW 5830   6.252   1.807   1.603
 1644SOL    HW1 5831   6.153   1.809   1.614
 1644SOL    HW2 5832   6.275   1.788   1.508
 1645SOL     OW 5833   2.465   0.837   4.851
 1645SOL    HW1 5834   2.539   0.903   4.866
 1645SOL    HW2 5835   2.502   0.744   4.855
 1646SOL     OW 5836   0.847   5.050   1.059
 1646SOL    HW1 5837   0.848   4.958   1.098
 1646SOL    HW2 5838   0.790   5.110   1.116
 1647SOL     OW 5839   6.074   3.171   4.842
 1647SOL    HW1 5840   6.166   3.207   4.828
 1647SOL    HW2 5841   6.034   3.210   4.924
 1648SOL     OW 5842   5.793   6.098   1.561
 1648SOL    HW1 5843   5.828   6.114   1.468
 1648SOL    HW2 5844   5.707   6.148   1.573
 1649SOL     OW 5845   3.780   1.518   2.911
 1649SOL    HW1 5846   3.820   1.468   2.834
 1649SOL    HW2 5847   3.805   1.474   2.997
 1650SOL     OW 5848   2.824   2.677   5.350
 1650SOL    HW1 5849   2.801   2.766   5.390
 1650SOL    HW2 5850   2.921   2.676   5.324
 1651SOL     OW 5851   0.902   2.052   4.097
 1651SOL    HW1 5852   0.829   1.995   4.060
 1651SOL    HW2 5853   0.959   2.087   4.023
 1652SOL     OW 5854   0.292   3.692   1.539
 1652SOL    HW1 5855   0.220   3.642   1.489
 1652SOL    HW2 5856   0.381   3.670   1.499
 1653SOL     OW 5857   0.226   4.187   1.637
 1653SOL    HW1 5858   0.258   4.118   1.572
 1653SOL    HW2 5859   0.300   4.250   1.659
 1654SOL     OW 5860   0.350   4.000   1.502
 1654SOL    HW1 5861   0.347   4.037   1.409
 1654SOL    HW2 5862   0.322   3.904   1.500
 1655SOL     OW 5863   0.308   0.811   5.730
 1655SOL    HW1 5864   0.276   0.837   5.821
 1655SOL    HW2 5865   0.263   0.867   5.661
 1656SOL     OW 5866   2.132   4.250   3.351
 1656SOL    HW1 5867   2.227   4.279   3.349
 1656SOL    HW2 5868   2.075   4.320   3.308
 1657SOL     OW 5869   0.738   0.324   6.034
 1657SOL    HW1 5870   0.761   0.403   5.977
 1657SOL    HW2 5871   0.773   0.339   6.126
 1658SOL     OW 5872   5.217   6.439   6.219
 1658SOL    HW1 5873   5.204   6.340   6.213
 1658SOL    HW2 5874   5.198   6.470   6.312
 1659SOL     OW 5875   4.040   6.779   5.794
 1659SOL    HW1 5876   3.999   6.734   5.873
 1659SOL    HW2 5877   3.968   6.826   5.742
 1660SOL     OW 5878   2.440   0.779   1.902
 1660SOL    HW1 5879   2.403   0.849   1.842
 1660SOL    HW2 5880   2.527   0.745   1.865
 1661SOL     OW 5881   4.612   4.307   2.810
 1661SOL    HW1 5882   4.695   4.350   2.843
 1661SOL    HW2 5883   4.604   4.321   2.711
 1662SOL     OW 5884   6.990   1.981   3.867
 1662SOL    HW1 5885   0.041   1.918   3.828
 1662SOL    HW2 5886   6.899   1.960   3.831
 1663SOL     OW 5887   5.441   3.998   1.206
 1663SOL    HW1 5888   5.413   3.948   1.288
 1663SOL    HW2 5889   5.532   4.036   1.219
 1664SOL     OW 5890   1.365   0.676   6.269
 1664SOL    HW1 5891   1.414   0.660   6.355
 1664SOL    HW2 5892   1.411   0.626   6.195
 1665SOL     OW 5893   2.597   4.023   6.503
 1665SOL    HW1 5894   2.651   3.943   6.528
 1665SOL    HW2 5895   2.647   4.077   6.436
 1666SOL     OW 5896   5.320   6.016   6.736
 1666SOL    HW1 5897   5.414   6.042   6.754
 1666SOL    HW2 5898   5.318   5.932   6.681
 1667SOL     OW 5899   0.228   5.523   0.450
 1667SOL    HW1 5900   0.192   5.458   0.382
 1667SOL    HW2 5901   0.161   5.534   0.523
 1668SOL     OW 5902   5.913   3.191   2.227
 1668SOL    HW1 5903   5.905   3.175   2.325
 1668SOL    HW2 5904   5.908   3.104   2.178
 1669SOL     OW 5905   6.608   2.711   5.878
 1669SOL    HW1 5906   6.705   2.736   5.874
 1669SOL    HW2 5907   6.560   2.753   5.801
 1670SOL     OW 5908   3.331   4.582   5.726
 1670SOL    HW1 5909   3.405   4.515   5.719
 1670SOL    HW2 5910   3.243   4.534   5.733
 1671SOL     OW 5911   5.868   2.275   0.498
 1671SOL    HW1 5912   5.769   2.284   0.487
 1671SOL    HW2 5913   5.888   2.226   0.582
 1672SOL     OW 5914   0.450   2.381   1.466
 1672SOL    HW1 5915   0.513   2.394   1.543
 1672SOL    HW2 5916   0.431   2.283   1.455
 1673SOL     OW 5917   1.506   0.618   4.445
 1673SOL    HW1 5918   1.435   0.550   4.425
 1673SOL    HW2 5919   1.528   0.616   4.542
 1674SOL     OW 5920   4.709   1.988   3.365
 1674SOL    HW1 5921   4.713   1.911   3.302
 1674SOL    HW2 5922   4.744   1.961   3.454
 1675SOL     OW 5923   5.563   0.312   1.868
 1675SOL    HW1 5924   5.545   0.301   1.965
 1675SOL    HW2 5925   5.493   0.370   1.827
 1676SOL     OW 5926   0.685   2.204   3.747
 1676SOL    HW1 5927   0.754   2.175   3.813
 1676SOL    HW2 5928   0.599   2.223   3.795
 1677SOL     OW 5929   3.227   3.305   3.094
 1677SOL    HW1 5930   3.197   3.253   3.174
 1677SOL    HW2 5931   3.148   3.348   3.050
 1678SOL     OW 5932   0.671   6.706   0.085
 1678SOL    HW1 5933   0.766   6.737   0.086
 1678SOL    HW2 5934   0.653   6.651   0.167
 1679SOL     OW 5935   6.270   1.281   0.036
 1679SOL    HW1 5936   6.318   1.354   0.087
 1679SOL    HW2 5937   6.239   1.317   6.964
 1680SOL     OW 5938   6.052   2.830   2.807
 1680SOL    HW1 5939   6.105   2.823   2.891
 1680SOL    HW2 5940   5.981   2.760   2.807
 1681SOL     OW 5941   3.537   6.188   4.574
 1681SOL    HW1 5942   3.609   6.193   4.643
 1681SOL    HW2 5943   3.564   6.124   4.502
 1682SOL     OW 5944   4.233   0.531   4.669
 1682SOL    HW1 5945   4.264   0.474   4.744
 1682SOL    HW2 5946   4.287   0.512   4.587
 1683SOL     OW 5947   6.799   2.724   3.077
 1683SOL    HW1 5948   6.894   2.729   3.107
 1683SOL    HW2 5949   6.789   2.652   3.008
 1684SOL     OW 5950   2.517   5.778   1.156
 1684SOL    HW1 5951   2.515   5.726   1.070
 1684SOL    HW2 5952   2.433   5.761   1.207
 1685SOL     OW 5953   0.058   1.175   5.384
 1685SOL    HW1 5954   0.002   1.092   5.386
 1685SOL    HW2 5955   0.116   1.174   5.302
 1686SOL     OW 5956   3.634   5.342   1.951
 1686SOL    HW1 5957   3.719   5.289   1.955
 1686SOL    HW2 5958   3.651   5.435   1.983
 1687SOL     OW 5959   5.126   4.009   1.240
 1687SOL    HW1 5960   5.162   3.975   1.327
 1687SOL    HW2 5961   5.099   4.105   1.251
 1688SOL     OW 5962   2.050   0.280   3.391
 1688SOL    HW1 5963   2.090   0.342   3.324
 1688SOL    HW2 5964   2.122   0.237   3.445
 1689SOL     OW 5965   3.741   0.605   1.892
 1689SOL    HW1 5966   3.667   0.582   1.829
 1689SOL    HW2 5967   3.703   0.629   1.981
 1690SOL     OW 5968   6.313   4.732   4.267
 1690SOL    HW1 5969   6.403   4.713   4.228
 1690SOL    HW2 5970   6.259   4.785   4.201
 1691SOL     OW 5971   4.130   2.779   5.383
 1691SOL    HW1 5972   4.167   2.868   5.357
 1691SOL    HW2 5973   4.154   2.711   5.314
 1692SOL     OW 5974   5.490   5.230   1.301
 1692SOL    HW1 5975   5.561   5.189   1.357
 1692SOL    HW2 5976   5.491   5.329   1.312
 1693SOL     OW 5977   5.110   6.834   5.980
 1693SOL    HW1 5978   5.099   6.931   5.961
 1693SOL    HW2 5979   5.107   6.782   5.894
 1694SOL     OW 5980   4.607   1.339   6.582
 1694SOL    HW1 5981   4.654   1.362   6.496
 1694SOL    HW2 5982   4.557   1.254   6.571
 1695SOL     OW 5983   4.156   0.606   5.656
 1695SOL    HW1 5984   4.154   0.506   5.646
 1695SOL    HW2 5985   4.190   0.647   5.572
 1696SOL     OW 5986   4.305   0.170   0.852
 1696SOL    HW1 5987   4.386   0.182   0.794
 1696SOL    HW2 5988   4.329   0.188   0.947
 1697SOL     OW 5989   4.678   2.740   1.853
 1697SOL    HW1 5990   4.683   2.838   1.873
 1697SOL    HW2 5991   4.691   2.724   1.755
 1698SOL     OW 5992   4.061   1.648   1.611
 1698SOL    HW1 5993   4.032   1.688   1.698
 1698SOL    HW2 5994   3.980   1.622   1.558
 1699SOL     OW 5995   1.889   0.668   0.670
 1699SOL    HW1 5996   1.976   0.699   0.632
 1699SOL    HW2 5997   1.829   0.746   0.685
 1700SOL     OW 5998   4.900   3.309   2.833
 1700SOL    HW1 5999   4.906   3.249   2.913
 1700SOL    HW2 6000   4.990   3.315   2.789
 1701SOL     OW 6001   0.977   5.663   4.611
 1701SOL    HW1 6002   0.915   5.585   4.612
 1701SOL    HW2 6003   1.060   5.639   4.561
 1702SOL     OW 6004   2.362   3.002   6.497
 1702SOL    HW1 6005   2.337   2.935   6.427
 1702SOL    HW2 6006   2.457   3.030   6.484
 1703SOL     OW 6007   1.404   2.328   1.946
 1703SOL    HW1 6008   1.496   2.319   1.908
 1703SOL    HW2 6009   1.348   2.250   1.918
 1704SOL     OW 6010   2.676   2.824   6.655
 1704SOL    HW1 6011   2.723   2.791   6.573
 1704SOL    HW2 6012   2.743   2.838   6.728
 1705SOL     OW 6013   5.025   3.105   0.939
 1705SOL    HW1 6014   5.121   3.131   0.953
 1705SOL    HW2 6015   4.982   3.171   0.877
 1706SOL     OW 6016   5.701   1.565   6.417
 1706SOL    HW1 6017   5.784   1.594   6.464
 1706SOL    HW2 6018   5.716   1.565   6.318
 1707SOL     OW 6019   4.068   1.298   2.323
 1707SOL    HW1 6020   4.105   1.225   2.265
 1707SOL    HW2 6021   4.112   1.294   2.413
 1708SOL     OW 6022   2.549   4.672   1.817
 1708SOL    HW1 6023   2.624   4.651   1.880
 1708SOL    HW2 6024   2.586   4.686   1.725
 1709SOL     OW 6025   5.121   5.096   1.108
 1709SOL    HW1 6026   5.028   5.114   1.140
 1709SOL    HW2 6027   5.136   5.143   1.021
 1710SOL     OW 6028   4.844   2.914   2.214
 1710SOL    HW1 6029   4.780   2.948   2.145
 1710SOL    HW2 6030   4.924   2.975   2.218
 1711SOL     OW 6031   3.792   5.761   0.226
 1711SOL    HW1 6032   3.769   5.774   0.129
 1711SOL    HW2 6033   3.734   5.689   0.264
 1712SOL     OW 6034   0.069   1.925   1.918
 1712SOL    HW1 6035   7.005   1.884   1.963
 1712SOL    HW2 6036   0.146   1.862   1.922
 1713SOL     OW 6037   2.410   1.821   2.449
 1713SOL    HW1 6038   2.481   1.891   2.443
 1713SOL    HW2 6039   2.396   1.779   2.360
 1714SOL     OW 6040   2.643   4.146   1.175
 1714SOL    HW1 6041   2.551   4.162   1.141
 1714SOL    HW2 6042   2.657   4.198   1.260
 1715SOL     OW 6043   0.807   5.755   0.895
 1715SOL    HW1 6044   0.900   5.793   0.894
 1715SOL    HW2 6045   0.813   5.655   0.904
 1716SOL     OW 6046   4.944   1.724   2.892
 1716SOL    HW1 6047   5.031   1.695   2.930
 1716SOL    HW2 6048   4.950   1.724   2.792
 1717SOL     OW 6049   4.087   6.193   3.789
 1717SOL    HW1 6050   4.075   6.118   3.855
 1717SOL    HW2 6051   4.012   6.192   3.724
 1718SOL     OW 6052   1.816   3.482   1.630
 1718SOL    HW1 6053   1.799   3.519   1.722
 1718SOL    HW2 6054   1.899   3.522   1.593
 1719SOL     OW 6055   1.667   5.565   2.969
 1719SOL    HW1 6056   1.644   5.484   2.916
 1719SOL    HW2 6057   1.643   5.647   2.916
 1720SOL     OW 6058   0.888   3.005   5.388
 1720SOL    HW1 6059   0.962   3.043   5.444
 1720SOL    HW2 6060   0.848   2.927   5.435
 1721SOL     OW 6061   2.256   2.449   0.032
 1721SOL    HW1 6062   2.279   2.487   0.122
 1721SOL    HW2 6063   2.322   2.377   0.010
 1722SOL     OW 6064   2.428   2.638   3.549
 1722SOL    HW1 6065   2.497   2.660   3.618
 1722SOL    HW2 6066   2.341   2.617   3.594
 1723SOL     OW 6067   5.569   4.432   1.084
 1723SOL    HW1 6068   5.599   4.462   1.175
 1723SOL    HW2 6069   5.511   4.351   1.093
 1724SOL     OW 6070   5.343   2.750   1.136
 1724SOL    HW1 6071   5.287   2.801   1.202
 1724SOL    HW2 6072   5.380   2.668   1.181
 1725SOL     OW 6073   2.302   6.640   5.944
 1725SOL    HW1 6074   2.206   6.614   5.953
 1725SOL    HW2 6075   2.359   6.571   5.988
 1726SOL     OW 6076   4.664   4.236   3.398
 1726SOL    HW1 6077   4.760   4.216   3.416
 1726SOL    HW2 6078   4.640   4.205   3.306
 1727SOL     OW 6079   3.639   3.545   2.756
 1727SOL    HW1 6080   3.695   3.483   2.812
 1727SOL    HW2 6081   3.651   3.639   2.789
 1728SOL     OW 6082   5.623   2.061   4.126
 1728SOL    HW1 6083   5.566   2.138   4.154
 1728SOL    HW2 6084   5.650   2.010   4.208
 1729SOL     OW 6085   1.214   2.465   2.721
 1729SOL    HW1 6086   1.234   2.474   2.819
 1729SOL    HW2 6087   1.252   2.379   2.687
 1730SOL     OW 6088   2.591   6.681   5.072
 1730SOL    HW1 6089   2.641   6.678   5.158
 1730SOL    HW2 6090   2.532   6.761   5.070
 1731SOL     OW 6091   4.940   4.352   4.064
 1731SOL    HW1 6092   4.959   4.357   4.162
 1731SOL    HW2 6093   4.947   4.444   4.024
 1732SOL     OW 6094   3.618   3.810   5.036
 1732SOL    HW1 6095   3.694   3.781   4.978
 1732SOL    HW2 6096   3.554   3.865   4.983
 1733SOL     OW 6097   1.652   2.380   6.480
 1733SOL    HW1 6098   1.561   2.419   6.470
 1733SOL    HW2 6099   1.715   2.450   6.515
 1734SOL     OW 6100   0.245   3.715   0.864
 1734SOL    HW1 6101   0.191   3.696   0.782
 1734SOL    HW2 6102   0.206   3.666   0.942
 1735SOL     OW 6103   3.030   5.249   6.310
 1735SOL    HW1 6104   3.002   5.339   6.276
 1735SOL    HW2 6105   2.964   5.216   6.378
 1736SOL     OW 6106   4.860   2.301   6.431
 1736SOL    HW1 6107   4.784   2.256   6.477
 1736SOL    HW2 6108   4.940   2.242   6.432
 1737SOL     OW 6109   2.931   0.819   5.884
 1737SOL    HW1 6110   2.831   0.817   5.885
 1737SOL    HW2 6111   2.962   0.874   5.806
 1738SOL     OW 6112   1.478   4.170   2.111
 1738SOL    HW1 6113   1.558   4.147   2.056
 1738SOL    HW2 6114   1.496   4.149   2.207
 1739SOL     OW 6115   4.897   5.502   2.993
 1739SOL    HW1 6116   4.966   5.562   2.951
 1739SOL    HW2 6117   4.908   5.503   3.092
 1740SOL     OW 6118   0.302   2.905   5.133
 1740SOL    HW1 6119   0.210   2.944   5.133
 1740SOL    HW2 6120   0.298   2.808   5.153
 1741SOL     OW 6121   0.955   2.997   4.982
 1741SOL    HW1 6122   0.906   3.071   4.937
 1741SOL    HW2 6123   0.900   2.961   5.058
 1742SOL     OW 6124   6.348   6.819   6.939
 1742SOL    HW1 6125   6.263   6.843   6.988
 1742SOL    HW2 6126   6.395   6.903   6.912
 1743SOL     OW 6127   1.556   2.387   1.519
 1743SOL    HW1 6128   1.494   2.311   1.540
 1743SOL    HW2 6129   1.507   2.473   1.525
 1744SOL     OW 6130   3.165   2.254   5.444
 1744SOL    HW1 6131   3.160   2.348   5.479
 1744SOL    HW2 6132   3.166   2.256   5.344
 1745SOL     OW 6133   6.723   6.919   0.722
 1745SOL    HW1 6134   6.674   6.956   0.642
 1745SOL    HW2 6135   6.665   6.854   0.770
 1746SOL     OW 6136   2.502   4.854   3.120
 1746SOL    HW1 6137   2.433   4.838   3.191
 1746SOL    HW2 6138   2.522   4.951   3.113
 1747SOL     OW 6139   3.840   0.086   2.449
 1747SOL    HW1 6140   3.934   0.119   2.441
 1747SOL    HW2 6141   3.825   0.012   2.383
 1748SOL     OW 6142   6.812   2.029   4.265
 1748SOL    HW1 6143   6.748   2.073   4.201
 1748SOL    HW2 6144   6.772   1.943   4.297
 1749SOL     OW 6145   6.462   5.020   1.905
 1749SOL    HW1 6146   6.532   5.086   1.879
 1749SOL    HW2 6147   6.395   5.065   1.965
 1750SOL     OW 6148   3.095   0.963   0.723
 1750SOL    HW1 6149   3.076   1.033   0.655
 1750SOL    HW2 6150   3.084   1.001   0.815
 1751SOL     OW 6151   5.308   4.116   5.004
 1751SOL    HW1 6152   5.213   4.135   4.982
 1751SOL    HW2 6153   5.312   4.044   5.074
 1752SOL     OW 6154   6.796   0.763   2.281
 1752SOL    HW1 6155   6.820   0.668   2.303
 1752SOL    HW2 6156   6.697   0.770   2.264
 1753SOL     OW 6157   6.789   2.090   1.636
 1753SOL    HW1 6158   6.760   2.097   1.541
 1753SOL    HW2 6159   6.763   2.000   1.672
 1754SOL     OW 6160   3.094   5.461   3.828
 1754SOL    HW1 6161   3.093   5.549   3.877
 1754SOL    HW2 6162   3.169   5.460   3.762
 1755SOL     OW 6163   6.580   0.314   5.258
 1755SOL    HW1 6164   6.570   0.298   5.356
 1755SOL    HW2 6165   6.646   0.250   5.220
 1756SOL     OW 6166   4.534   5.979   1.413
 1756SOL    HW1 6167   4.494   5.927   1.488
 1756SOL    HW2 6168   4.462   6.029   1.365
 1757SOL     OW 6169   2.707   4.812   5.261
 1757SOL    HW1 6170   2.636   4.751   5.297
 1757SOL    HW2 6171   2.745   4.773   5.178
 1758SOL     OW 6172   1.024   6.181   3.685
 1758SOL    HW1 6173   1.051   6.186   3.782
 1758SOL    HW2 6174   1.105   6.187   3.628
 1759SOL     OW 6175   1.078   5.330   6.884
 1759SOL    HW1 6176   1.034   5.380   6.810
 1759SOL    HW2 6177   1.011   5.268   6.926
 1760SOL     OW 6178   6.449   1.752   4.659
 1760SOL    HW1 6179   6.369   1.694   4.645
 1760SOL    HW2 6180   6.478   1.747   4.755
 1761SOL     OW 6181   5.251   1.349   3.354
 1761SOL    HW1 6182   5.318   1.276   3.367
 1761SOL    HW2 6183   5.289   1.420   3.296
 1762SOL     OW 6184   1.201   1.503   5.858
 1762SOL    HW1 6185   1.116   1.556   5.851
 1762SOL    HW2 6186   1.253   1.512   5.774
 1763SOL     OW 6187   1.594   5.243   3.197
 1763SOL    HW1 6188   1.680   5.226   3.148
 1763SOL    HW2 6189   1.612   5.301   3.276
 1764SOL     OW 6190   0.886   6.004   3.247
 1764SOL    HW1 6191   0.952   6.050   3.188
 1764SOL    HW2 6192   0.806   6.062   3.262
 1765SOL     OW 6193   5.497   4.333   2.306
 1765SOL    HW1 6194   5.586   4.334   2.352
 1765SOL    HW2 6195   5.431   4.385   2.360
 1766SOL     OW 6196   4.785   4.594   4.234
 1766SOL    HW1 6197   4.696   4.564   4.268
 1766SOL    HW2 6198   4.834   4.642   4.307
 1767SOL     OW 6199   0.603   4.821   1.641
 1767SOL    HW1 6200   0.529   4.809   1.707
 1767SOL    HW2 6201   0.612   4.739   1.585
 1768SOL     OW 6202   4.315   4.601   2.377
 1768SOL    HW1 6203   4.226   4.555   2.377
 1768SOL    HW2 6204   4.366   4.575   2.460
 1769SOL     OW 6205   5.150   0.216   1.293
 1769SOL    HW1 6206   5.196   0.158   1.360
 1769SOL    HW2 6207   5.109   0.295   1.338
 1770SOL     OW 6208   1.764   5.144   0.622
 1770SOL    HW1 6209   1.740   5.060   0.573
 1770SOL    HW2 6210   1.864   5.154   0.622
 1771SOL     OW 6211   1.726   2.803   6.474
 1771SOL    HW1 6212   1.756   2.893   6.443
 1771SOL    HW2 6213   1.689   2.810   6.567
 1772SOL     OW 6214   1.896   4.170   3.137
 1772SOL    HW1 6215   1.943   4.092   3.179
 1772SOL    HW2 6216   1.942   4.195   3.052
 1773SOL     OW 6217   2.224   6.215   5.072
 1773SOL    HW1 6218   2.206   6.273   5.151
 1773SOL    HW2 6219   2.251   6.272   4.994
 1774SOL     OW 6220   5.547   5.773   1.675
 1774SOL    HW1 6221   5.626   5.713   1.683
 1774SOL    HW2 6222   5.549   5.841   1.749
 1775SOL     OW 6223   1.033   6.228   0.507
 1775SOL    HW1 6224   0.939   6.196   0.522
 1775SOL    HW2 6225   1.085   6.156   0.461
 1776SOL     OW 6226   4.441   3.548   6.025
 1776SOL    HW1 6227   4.407   3.634   5.986
 1776SOL    HW2 6228   4.399   3.533   6.114
 1777SOL     OW 6229   4.387   6.301   6.978
 1777SOL    HW1 6230   4.323   6.377   6.971
 1777SOL    HW2 6231   4.436   6.289   6.891
 1778SOL     OW 6232   6.437   0.129   3.675
 1778SOL    HW1 6233   6.492   0.129   3.759
 1778SOL    HW2 6234   6.391   0.217   3.666
 1779SOL     OW 6235   6.055   0.522   4.349
 1779SOL    HW1 6236   6.054   0.477   4.259
 1779SOL    HW2 6237   5.990   0.598   4.349
 1780SOL     OW 6238   2.940   6.155   4.822
 1780SOL    HW1 6239   2.954   6.239   4.875
 1780SOL    HW2 6240   2.863   6.104   4.861
 1781SOL     OW 6241   4.179   1.079   5.852
 1781SOL    HW1 6242   4.253   1.097   5.788
 1781SOL    HW2 6243   4.091   1.081   5.803
 1782SOL     OW 6244   5.196   0.678   2.604
 1782SOL    HW1 6245   5.160   0.609   2.668
 1782SOL    HW2 6246   5.125   0.746   2.585
 1783SOL     OW 6247   1.803   3.937   6.633
 1783SOL    HW1 6248   1.738   3.932   6.709
 1783SOL    HW2 6249   1.851   4.025   6.636
 1784SOL     OW 6250   2.496   6.179   1.414
 1784SOL    HW1 6251   2.572   6.242   1.429
 1784SOL    HW2 6252   2.470   6.180   1.317
 1785SOL     OW 6253   1.727   5.999   4.348
 1785SOL    HW1 6254   1.677   6.081   4.322
 1785SOL    HW2 6255   1.767   6.012   4.439
 1786SOL     OW 6256   0.823   5.984   1.505
 1786SOL    HW1 6257   0.821   5.971   1.406
 1786SOL    HW2 6258   0.843   6.079   1.526
 1787SOL     OW 6259   2.082   2.378   5.494
 1787SOL    HW1 6260   2.130   2.290   5.491
 1787SOL    HW2 6261   2.141   2.448   5.454
 1788SOL     OW 6262   3.901   4.046   0.453
 1788SOL    HW1 6263   3.808   4.067   0.483
 1788SOL    HW2 6264   3.899   3.966   0.393
 1789SOL     OW 6265   5.612   2.994   1.963
 1789SOL    HW1 6266   5.585   2.905   2.000
 1789SOL    HW2 6267   5.707   3.013   1.987
 1790SOL     OW 6268   2.170   2.020   4.858
 1790SOL    HW1 6269   2.174   1.958   4.936
 1790SOL    HW2 6270   2.234   2.095   4.872
 1791SOL     OW 6271   5.642   0.393   3.724
 1791SOL    HW1 6272   5.561   0.443   3.694
 1791SOL    HW2 6273   5.636   0.375   3.822
 1792SOL     OW 6274   6.683   2.437   6.432
 1792SOL    HW1 6275   6.783   2.429   6.431
 1792SOL    HW2 6276   6.656   2.513   6.491
 1793SOL     OW 6277   0.073   1.214   4.641
 1793SOL    HW1 6278   0.086   1.310   4.665
 1793SOL    HW2 6279   0.154   1.181   4.593
 1794SOL     OW 6280   0.460   1.707   6.312
 1794SOL    HW1 6281   0.448   1.757   6.398
 1794SOL    HW2 6282   0.532   1.751   6.258
 1795SOL     OW 6283   5.492   4.747   0.680
 1795SOL    HW1 6284   5.538   4.680   0.738
 1795SOL    HW2 6285   5.452   4.819   0.736
 1796SOL     OW 6286   5.930   6.852   0.881
 1796SOL    HW1 6287   5.883   6.940   0.872
 1796SOL    HW2 6288   6.020   6.866   0.921
 1797SOL     OW 6289   3.037   6.034   5.805
 1797SOL    HW1 6290   2.993   6.107   5.752
 1797SOL    HW2 6291   3.126   6.066   5.838
 1798SOL     OW 6292   2.149   3.582   5.795
 1798SOL    HW1 6293   2.245   3.598   5.771
 1798SOL    HW2 6294   2.098   3.668   5.786
 1799SOL     OW 6295   3.514   1.383   2.117
 1799SOL    HW1 6296   3.527   1.287   2.144
 1799SOL    HW2 6297   3.591   1.438   2.149
 1800SOL     OW 6298   6.185   2.748   6.068
 1800SOL    HW1 6299   6.158   2.699   5.986
 1800SOL    HW2 6300   6.283   2.767   6.066
 1801SOL     OW 6301   0.300   1.476   2.592
 1801SOL    HW1 6302   0.245   1.403   2.631
 1801SOL    HW2 6303   0.385   1.486   2.645
 1802SOL     OW 6304   5.882   4.852   4.216
 1802SOL    HW1 6305   5.946   4.838   4.140
 1802SOL    HW2 6306   5.933   4.862   4.301
 1803SOL     OW 6307   0.181   0.010   4.512
 1803SOL    HW1 6308   0.255   0.075   4.491
 1803SOL    HW2 6309   0.117   0.006   4.436
 1804SOL     OW 6310   1.151   2.646   6.592
 1804SOL    HW1 6311   1.105   2.735   6.597
 1804SOL    HW2 6312   1.245   2.656   6.625
 1805SOL     OW 6313   6.097   4.602   7.011
 1805SOL    HW1 6314   6.106   4.589   6.912
 1805SOL    HW2 6315   6.103   4.513   0.042
 1806SOL     OW 6316   0.671   1.932   1.434
 1806SOL    HW1 6317   0.622   1.903   1.352
 1806SOL    HW2 6318   0.769   1.925   1.418
 1807SOL     OW 6319   6.126   3.059   2.700
 1807SOL    HW1 6320   6.092   2.973   2.738
 1807SOL    HW2 6321   6.213   3.043   2.655
 1808SOL     OW 6322   5.617   0.778   6.144
 1808SOL    HW1 6323   5.586   0.871   6.167
 1808SOL    HW2 6324   5.557   0.711   6.188
 1809SOL     OW 6325   5.126   0.082   5.476
 1809SOL    HW1 6326   5.118   0.143   5.554
 1809SOL    HW2 6327   5.072   7.015   5.493
 1810SOL     OW 6328   1.383   1.150   4.384
 1810SOL    HW1 6329   1.283   1.152   4.386
 1810SOL    HW2 6330   1.416   1.089   4.457
 1811SOL     OW 6331   3.134   5.770   2.458
 1811SOL    HW1 6332   3.073   5.810   2.390
 1811SOL    HW2 6333   3.229   5.783   2.429
 1812SOL     OW 6334   4.072   0.230   6.421
 1812SOL    HW1 6335   4.030   0.169   6.354
 1812SOL    HW2 6336   4.076   0.322   6.384
 1813SOL     OW 6337   5.177   3.648   1.877
 1813SOL    HW1 6338   5.164   3.571   1.814
 1813SOL    HW2 6339   5.097   3.655   1.937
 1814SOL     OW 6340   6.460   5.738   0.683
 1814SOL    HW1 6341   6.545   5.776   0.647
 1814SOL    HW2 6342   6.420   5.802   0.748
 1815SOL     OW 6343   6.245   5.211   0.995
 1815SOL    HW1 6344   6.218   5.263   0.914
 1815SOL    HW2 6345   6.265   5.275   1.070
 1816SOL     OW 6346   4.166   5.122   4.265
 1816SOL    HW1 6347   4.076   5.147   4.229
 1816SOL    HW2 6348   4.179   5.164   4.355
 1817SOL     OW 6349   6.573   2.853   3.626
 1817SOL    HW1 6350   6.672   2.863   3.624
 1817SOL    HW2 6351   6.529   2.940   3.604
 1818SOL     OW 6352   2.507   1.352   0.837
 1818SOL    HW1 6353   2.436   1.283   0.822
 1818SOL    HW2 6354   2.588   1.328   0.784
 1819SOL     OW 6355   1.001   4.068   1.579
 1819SOL    HW1 6356   0.916   4.101   1.621
 1819SOL    HW2 6357   0.997   4.082   1.481
 1820SOL     OW 6358   4.242   0.185   5.147
 1820SOL    HW1 6359   4.315   0.135   5.100
 1820SOL    HW2 6360   4.282   0.249   5.212
 1821SOL     OW 6361   4.245   1.307   2.838
 1821SOL    HW1 6362   4.313   1.379   2.851
 1821SOL    HW2 6363   4.229   1.292   2.741
 1822SOL     OW 6364   1.870   3.910   4.060
 1822SOL    HW1 6365   1.796   3.973   4.085
 1822SOL    HW2 6366   1.913   3.942   3.975
 1823SOL     OW 6367   3.785   6.863   3.297
 1823SOL    HW1 6368   3.692   6.888   3.323
 1823SOL    HW2 6369   3.849   6.933   3.329
 1824SOL     OW 6370   4.611   3.212   1.629
 1824SOL    HW1 6371   4.560   3.298   1.629
 1824SOL    HW2 6372   4.606   3.171   1.720
 1825SOL     OW 6373   1.192   3.624   6.956
 1825SOL    HW1 6374   1.100   3.650   6.928
 1825SOL    HW2 6375   1.193   3.529   6.987
 1826SOL     OW 6376   3.690   2.787   0.665
 1826SOL    HW1 6377   3.598   2.819   0.648
 1826SOL    HW2 6378   3.756   2.854   0.632
 1827SOL     OW 6379   5.029   4.478   0.449
 1827SOL    HW1 6380   5.013   4.426   0.365
 1827SOL    HW2 6381   5.127   4.480   0.468
 1828SOL     OW 6382   2.640   4.595   4.675
 1828SOL    HW1 6383   2.705   4.530   4.715
 1828SOL    HW2 6384   2.615   4.663   4.744
 1829SOL     OW 6385   2.339   6.120   2.068
 1829SOL    HW1 6386   2.416   6.118   2.132
 1829SOL    HW2 6387   2.298   6.029   2.062
 1830SOL     OW 6388   4.511   1.279   6.275
 1830SOL    HW1 6389   4.445   1.215   6.235
 1830SOL    HW2 6390   4.603   1.242   6.266
 1831SOL     OW 6391   3.640   4.521   0.360
 1831SOL    HW1 6392   3.616   4.500   0.265
 1831SOL    HW2 6393   3.739   4.511   0.372
 1832SOL     OW 6394   1.873   3.698   5.116
 1832SOL    HW1 6395   1.918   3.729   5.200
 1832SOL    HW2 6396   1.790   3.752   5.100
 1833SOL     OW 6397   5.671   0.669   0.027
 1833SOL    HW1 6398   5.766   0.690   0.005
 1833SOL    HW2 6399   5.640   0.727   0.102
 1834SOL     OW 6400   1.475   3.693   6.789
 1834SOL    HW1 6401   1.385   3.732   6.770
 1834SOL    HW2 6402   1.528   3.689   6.704
 1835SOL     OW 6403   6.531   6.283   1.119
 1835SOL    HW1 6404   6.582   6.350   1.175
 1835SOL    HW2 6405   6.555   6.191   1.148
 1836SOL     OW 6406   5.926   1.986   2.743
 1836SOL    HW1 6407   5.863   1.966   2.819
 1836SOL    HW2 6408   5.987   2.060   2.770
 1837SOL     OW 6409   1.828   2.154   0.002
 1837SOL    HW1 6410   1.782   2.200   6.941
 1837SOL    HW2 6411   1.766   2.147   0.079
 1838SOL     OW 6412   4.695   0.386   0.863
 1838SOL    HW1 6413   4.596   0.401   0.867
 1838SOL    HW2 6414   4.720   0.310   0.922
 1839SOL     OW 6415   6.622   0.679   6.757
 1839SOL    HW1 6416   6.673   0.741   6.817
 1839SOL    HW2 6417   6.581   0.731   6.682
 1840SOL     OW 6418   4.041   0.009   5.019
 1840SOL    HW1 6419   3.973   0.071   4.980
 1840SOL    HW2 6420   4.118   0.062   5.055
 1841SOL     OW 6421   1.748   0.965   1.641
 1841SOL    HW1 6422   1.845   0.968   1.616
 1841SOL    HW2 6423   1.696   1.022   1.577
 1842SOL     OW 6424   0.053   5.146   1.170
 1842SOL    HW1 6425   0.028   5.096   1.087
 1842SOL    HW2 6426   6.986   5.178   1.215
 1843SOL     OW 6427   2.587   1.305   6.851
 1843SOL    HW1 6428   2.522   1.351   6.911
 1843SOL    HW2 6429   2.581   1.343   6.759
 1844SOL     OW 6430   5.382   2.983   0.215
 1844SOL    HW1 6431   5.332   3.014   0.296
 1844SOL    HW2 6432   5.341   2.898   0.182
 1845SOL     OW 6433   1.011   2.602   4.129
 1845SOL    HW1 6434   1.047   2.509   4.136
 1845SOL    HW2 6435   1.053   2.659   4.198
 1846SOL     OW 6436   3.528   1.455   1.856
 1846SOL    HW1 6437   3.513   1.449   1.954
 1846SOL    HW2 6438   3.460   1.516   1.815
 1847SOL     OW 6439   2.142   6.349   6.496
 1847SOL    HW1 6440   2.113   6.259   6.527
 1847SOL    HW2 6441   2.125   6.416   6.568
 1848SOL     OW 6442   4.094   6.422   3.494
 1848SOL    HW1 6443   4.029   6.497   3.484
 1848SOL    HW2 6444   4.154   6.440   3.571
 1849SOL     OW 6445   4.933   2.873   3.015
 1849SOL    HW1 6446   5.024   2.893   3.050
 1849SOL    HW2 6447   4.939   2.851   2.917
 1850SOL     OW 6448   4.425   1.521   0.845
 1850SOL    HW1 6449   4.358   1.574   0.897
 1850SOL    HW2 6450   4.482   1.583   0.792
 1851SOL     OW 6451   0.588   5.121   4.129
 1851SOL    HW1 6452   0.565   5.079   4.217
 1851SOL    HW2 6453   0.670   5.078   4.092
 1852SOL     OW 6454   0.472   6.573   3.552
 1852SOL    HW1 6455   0.377   6.549   3.532
 1852SOL    HW2 6456   0.477   6.668   3.583
 1853SOL     OW 6457   1.185   1.882   5.914
 1853SOL    HW1 6458   1.225   1.908   6.002
 1853SOL    HW2 6459   1.196   1.958   5.849
 1854SOL     OW 6460   0.353   0.196   4.412
 1854SOL    HW1 6461   0.449   0.192   4.438
 1854SOL    HW2 6462   0.341   0.263   4.338
 1855SOL     OW 6463   6.573   1.914   5.001
 1855SOL    HW1 6464   6.583   1.823   4.960
 1855SOL    HW2 6465   6.477   1.942   4.995
 1856SOL     OW 6466   4.986   3.940   6.760
 1856SOL    HW1 6467   5.046   3.994   6.700
 1856SOL    HW2 6468   4.937   4.002   6.822
 1857SOL     OW 6469   3.984   1.495   6.810
 1857SOL    HW1 6470   4.039   1.428   6.859
 1857SOL    HW2 6471   4.042   1.544   6.745
 1858SOL     OW 6472   5.462   1.676   5.278
 1858SOL    HW1 6473   5.451   1.638   5.186
 1858SOL    HW2 6474   5.557   1.702   5.293
 1859SOL     OW 6475   6.559   6.634   2.618
 1859SOL    HW1 6476   6.541   6.616   2.522
 1859SOL    HW2 6477   6.502   6.576   2.675
 1860SOL     OW 6478   2.793   1.063   6.287
 1860SOL    HW1 6479   2.783   1.067   6.387
 1860SOL    HW2 6480   2.863   0.996   6.264
 1861SOL     OW 6481   6.394   6.435   5.375
 1861SOL    HW1 6482   6.319   6.391   5.425
 1861SOL    HW2 6483   6.423   6.376   5.299
 1862SOL     OW 6484   2.938   5.878   6.299
 1862SOL    HW1 6485   3.013   5.848   6.358
 1862SOL    HW2 6486   2.973   5.937   6.226
 1863SOL     OW 6487   0.048   1.676   1.720
 1863SOL    HW1 6488   0.137   1.681   1.765
 1863SOL    HW2 6489   0.060   1.686   1.621
 1864SOL     OW 6490   2.210   6.720   2.030
 1864SOL    HW1 6491   2.136   6.772   1.987
 1864SOL    HW2 6492   2.206   6.732   2.129
 1865SOL     OW 6493   6.090   2.350   6.071
 1865SOL    HW1 6494   6.160   2.312   6.131
 1865SOL    HW2 6495   6.081   2.293   5.989
 1866SOL     OW 6496   6.995   4.408   3.760
 1866SOL    HW1 6497   0.051   4.443   3.698
 1866SOL    HW2 6498   6.905   4.434   3.724
 1867SOL     OW 6499   1.400   1.441   1.990
 1867SOL    HW1 6500   1.382   1.405   1.898
 1867SOL    HW2 6501   1.498   1.454   2.003
 1868SOL     OW 6502   4.975   4.064   6.051
 1868SOL    HW1 6503   5.056   4.121   6.043
 1868SOL    HW2 6504   4.987   3.999   6.126
 1869SOL     OW 6505   5.033   0.540   5.346
 1869SOL    HW1 6506   5.071   0.448   5.336
 1869SOL    HW2 6507   5.037   0.587   5.258
 1870SOL     OW 6508   5.940   0.283   6.272
 1870SOL    HW1 6509   5.902   0.235   6.351
 1870SOL    HW2 6510   5.946   0.221   6.194
 1871SOL     OW 6511   0.930   5.879   6.671
 1871SOL    HW1 6512   0.885   5.855   6.585
 1871SOL    HW2 6513   0.881   5.837   6.747
 1872SOL     OW 6514   2.465   3.120   1.132
 1872SOL    HW1 6515   2.447   3.024   1.150
 1872SOL    HW2 6516   2.378   3.168   1.116
 1873SOL     OW 6517   5.899   1.452   2.321
 1873SOL    HW1 6518   5.960   1.461   2.242
 1873SOL    HW2 6519   5.875   1.356   2.334
 1874SOL     OW 6520   1.293   6.239   6.274
 1874SOL    HW1 6521   1.246   6.158   6.239
 1874SOL    HW2 6522   1.392   6.225   6.267
 1875SOL     OW 6523   0.713   6.494   2.465
 1875SOL    HW1 6524   0.671   6.428   2.402
 1875SOL    HW2 6525   0.791   6.452   2.510
 1876SOL     OW 6526   0.637   4.541   0.410
 1876SOL    HW1 6527   0.686   4.620   0.372
 1876SOL    HW2 6528   0.611   4.560   0.504
 1877SOL     OW 6529   1.283   0.901   2.943
 1877SOL    HW1 6530   1.371   0.943   2.920
 1877SOL    HW2 6531   1.210   0.948   2.893
 1878SOL     OW 6532   5.318   3.852   4.334
 1878SOL    HW1 6533   5.250   3.868   4.405
 1878SOL    HW2 6534   5.368   3.768   4.355
 1879SOL     OW 6535   4.247   6.420   5.268
 1879SOL    HW1 6536   4.175   6.409   5.200
 1879SOL    HW2 6537   4.319   6.479   5.231
 1880SOL     OW 6538   1.319   2.718   4.126
 1880SOL    HW1 6539   1.275   2.741   4.039
 1880SOL    HW2 6540   1.265   2.754   4.201
 1881SOL     OW 6541   2.040   1.207   4.029
 1881SOL    HW1 6542   2.030   1.304   4.008
 1881SOL    HW2 6543   2.017   1.153   3.948
 1882SOL     OW 6544   3.112   5.456   0.748
 1882SOL    HW1 6545   3.045   5.386   0.772
 1882SOL    HW2 6546   3.133   5.511   0.829
 1883SOL     OW 6547   1.830   3.065   2.662
 1883SOL    HW1 6548   1.751   3.119   2.691
 1883SOL    HW2 6549   1.901   3.125   2.627
 1884SOL     OW 6550   4.640   0.362   0.412
 1884SOL    HW1 6551   4.724   0.369   0.465
 1884SOL    HW2 6552   4.661   0.332   0.319
 1885SOL     OW 6553   0.070   1.383   0.579
 1885SOL    HW1 6554   0.013   1.394   0.498
 1885SOL    HW2 6555   0.156   1.337   0.554
 1886SOL     OW 6556   3.720   2.895   5.640
 1886SOL    HW1 6557   3.727   2.799   5.612
 1886SOL    HW2 6558   3.800   2.945   5.610
 1887SOL     OW 6559   0.780   6.024   4.892
 1887SOL    HW1 6560   0.701   6.082   4.872
 1887SOL    HW2 6561   0.818   5.990   4.806
 1888SOL     OW 6562   1.601   1.696   5.923
 1888SOL    HW1 6563   1.654   1.724   6.003
 1888SOL    HW2 6564   1.522   1.642   5.953
 1889SOL     OW 6565   3.807   2.738   6.888
 1889SOL    HW1 6566   3.779   2.792   6.968
 1889SOL    HW2 6567   3.829   2.645   6.916
 1890SOL     OW 6568   6.342   5.676   6.449
 1890SOL    HW1 6569   6.426   5.680   6.394
 1890SOL    HW2 6570   6.300   5.586   6.440
 1891SOL     OW 6571   5.177   3.391   0.191
 1891SOL    HW1 6572   5.114   3.336   0.246
 1891SOL    HW2 6573   5.127   3.466   0.148
 1892SOL     OW 6574   3.950   0.624   3.151
 1892SOL    HW1 6575   3.990   0.710   3.121
 1892SOL    HW2 6576   3.922   0.570   3.071
 1893SOL     OW 6577   2.687   0.799   6.571
 1893SOL    HW1 6578   2.694   0.747   6.486
 1893SOL    HW2 6579   2.742   0.882   6.564
 1894SOL     OW 6580   4.885   2.921   0.523
 1894SOL    HW1 6581   4.870   2.924   0.424
 1894SOL    HW2 6582   4.798   2.904   0.569
 1895SOL     OW 6583   4.906   5.497   3.282
 1895SOL    HW1 6584   4.999   5.477   3.252
 1895SOL    HW2 6585   4.904   5.503   3.382
 1896SOL     OW 6586   6.772   1.903   5.217
 1896SOL    HW1 6587   6.724   1.923   5.132
 1896SOL    HW2 6588   6.835   1.978   5.237
 1897SOL     OW 6589   4.886   4.913   3.363
 1897SOL    HW1 6590   4.967   4.880   3.412
 1897SOL    HW2 6591   4.819   4.946   3.429
 1898SOL     OW 6592   5.489   6.558   0.043
 1898SOL    HW1 6593   5.552   6.543   0.119
 1898SOL    HW2 6594   5.437   6.642   0.059
 1899SOL     OW 6595   2.131   3.046   3.191
 1899SOL    HW1 6596   2.040   3.008   3.210
 1899SOL    HW2 6597   2.139   3.066   3.093
 1900SOL     OW 6598   2.042   5.511   1.681
 1900SOL    HW1 6599   2.015   5.459   1.762
 1900SOL    HW2 6600   1.965   5.516   1.618
 1901SOL     OW 6601   1.910   0.578   5.199
 1901SOL    HW1 6602   1.909   0.661   5.143
 1901SOL    HW2 6603   1.998   0.531   5.187
 1902SOL     OW 6604   0.970   3.072   3.861
 1902SOL    HW1 6605   0.980   3.156   3.808
 1902SOL    HW2 6606   0.875   3.041   3.857
 1903SOL     OW 6607   6.609   4.768   3.717
 1903SOL    HW1 6608   6.534   4.761   3.651
 1903SOL    HW2 6609   6.615   4.862   3.751
 1904SOL     OW 6610   0.707   0.357   4.053
 1904SOL    HW1 6611   0.715   0.352   4.152
 1904SOL    HW2 6612   0.628   0.413   4.028
 1905SOL     OW 6613   6.481   2.655   5.260
 1905SOL    HW1 6614   6.457   2.703   5.175
 1905SOL    HW2 6615   6.460   2.558   5.251
 1906SOL     OW 6616   2.477   6.764   5.458
 1906SOL    HW1 6617   2.389   6.717   5.458
 1906SOL    HW2 6618   2.482   6.827   5.535
 1907SOL     OW 6619   4.300   6.931   3.375
 1907SOL    HW1 6620   4.228   6.869   3.347
 1907SOL    HW2 6621   4.261   7.006   3.428
 1908SOL     OW 6622   4.709   5.887   1.013
 1908SOL    HW1 6623   4.742   5.981   0.997
 1908SOL    HW2 6624   4.691   5.874   1.110
 1909SOL     OW 6625   5.103   5.229   3.826
 1909SOL    HW1 6626   5.042   5.151   3.840
 1909SOL    HW2 6627   5.140   5.226   3.733
 1910SOL     OW 6628   5.080   3.224   4.514
 1910SOL    HW1 6629   5.049   3.212   4.608
 1910SOL    HW2 6630   5.058   3.142   4.461
 1911SOL     OW 6631   0.593   2.806   5.844
 1911SOL    HW1 6632   0.579   2.707   5.839
 1911SOL    HW2 6633   0.610   2.832   5.939
 1912SOL     OW 6634   3.519   6.210   3.120
 1912SOL    HW1 6635   3.571   6.259   3.049
 1912SOL    HW2 6636   3.431   6.256   3.134
 1913SOL     OW 6637   2.309   4.144   5.638
 1913SOL    HW1 6638   2.362   4.120   5.556
 1913SOL    HW2 6639   2.364   4.203   5.697
 1914SOL     OW 6640   4.337   1.693   4.778
 1914SOL    HW1 6641   4.326   1.789   4.752
 1914SOL    HW2 6642   4.265   1.668   4.843
 1915SOL     OW 6643   3.262   0.254   5.535
 1915SOL    HW1 6644   3.179   0.203   5.557
 1915SOL    HW2 6645   3.269   0.263   5.435
 1916SOL     OW 6646   3.444   6.254   2.664
 1916SOL    HW1 6647   3.374   6.198   2.709
 1916SOL    HW2 6648   3.472   6.327   2.726
 1917SOL     OW 6649   3.498   3.864   4.232
 1917SOL    HW1 6650   3.441   3.940   4.200
 1917SOL    HW2 6651   3.508   3.797   4.159
 1918SOL     OW 6652   6.799   6.356   5.502
 1918SOL    HW1 6653   6.836   6.302   5.426
 1918SOL    HW2 6654   6.870   6.369   5.571
 1919SOL     OW 6655   6.515   0.813   2.629
 1919SOL    HW1 6656   6.495   0.825   2.726
 1919SOL    HW2 6657   6.536   0.717   2.611
 1920SOL     OW 6658   6.578   6.180   4.804
 1920SOL    HW1 6659   6.483   6.197   4.777
 1920SOL    HW2 6660   6.633   6.261   4.783
 1921SOL     OW 6661   2.046   6.546   6.698
 1921SOL    HW1 6662   2.131   6.598   6.706
 1921SOL    HW2 6663   1.971   6.608   6.675
 1922SOL     OW 6664   3.798   4.471   0.708
 1922SOL    HW1 6665   3.729   4.412   0.749
 1922SOL    HW2 6666   3.787   4.564   0.743
 1923SOL     OW 6667   1.469   2.619   0.860
 1923SOL    HW1 6668   1.565   2.629   0.836
 1923SOL    HW2 6669   1.420   2.576   0.784
 1924SOL     OW 6670   0.884   3.628   1.232
 1924SOL    HW1 6671   0.956   3.663   1.292
 1924SOL    HW2 6672   0.905   3.652   1.137
 1925SOL     OW 6673   2.987   4.408   0.277
 1925SOL    HW1 6674   2.943   4.465   0.347
 1925SOL    HW2 6675   3.027   4.327   0.321
 1926SOL     OW 6676   0.428   0.491   3.735
 1926SOL    HW1 6677   0.390   0.561   3.674
 1926SOL    HW2 6678   0.487   0.536   3.802
 1927SOL     OW 6679   5.098   3.464   1.659
 1927SOL    HW1 6680   5.139   3.385   1.705
 1927SOL    HW2 6681   5.001   3.446   1.641
 1928SOL     OW 6682   6.926   5.569   4.353
 1928SOL    HW1 6683   6.869   5.640   4.396
 1928SOL    HW2 6684   6.922   5.486   4.408
 1929SOL     OW 6685   1.556   5.786   2.834
 1929SOL    HW1 6686   1.538   5.878   2.869
 1929SOL    HW2 6687   1.481   5.758   2.774
 1930SOL     OW 6688   6.984   5.430   6.332
 1930SOL    HW1 6689   6.955   5.484   6.411
 1930SOL    HW2 6690   6.981   5.333   6.355
 1931SOL     OW 6691   0.899   2.491   4.551
 1931SOL    HW1 6692   0.835   2.431   4.503
 1931SOL    HW2 6693   0.904   2.466   4.647
 1932SOL     OW 6694   5.919   3.515   2.842
 1932SOL    HW1 6695   5.952   3.422   2.828
 1932SOL    HW2 6696   5.830   3.526   2.797
 1933SOL     OW 6697   2.832   5.060   0.298
 1933SOL    HW1 6698   2.928   5.034   0.309
 1933SOL    HW2 6699   2.792   5.080   0.387
 1934SOL     OW 6700   6.860   6.159   2.999
 1934SOL    HW1 6701   6.780   6.188   3.051
 1934SOL    HW2 6702   6.892   6.071   3.032
 1935SOL     OW 6703   1.922   1.369   3.311
 1935SOL    HW1 6704   1.873   1.455   3.322
 1935SOL    HW2 6705   1.861   1.300   3.271
 1936SOL     OW 6706   6.861   5.907   5.214
 1936SOL    HW1 6707   6.932   5.892   5.283
 1936SOL    HW2 6708   6.791   5.967   5.251
 1937SOL     OW 6709   4.214   1.118   3.079
 1937SOL    HW1 6710   4.234   1.156   2.989
 1937SOL    HW2 6711   4.134   1.164   3.118
 1938SOL     OW 6712   5.829   0.848   4.641
 1938SOL    HW1 6713   5.899   0.786   4.676
 1938SOL    HW2 6714   5.754   0.855   4.707
 1939SOL     OW 6715   3.105   0.744   4.721
 1939SOL    HW1 6716   3.038   0.802   4.676
 1939SOL    HW2 6717   3.078   0.730   4.817
 1940SOL     OW 6718   6.079   6.068   6.329
 1940SOL    HW1 6719   6.016   6.003   6.286
 1940SOL    HW2 6720   6.065   6.159   6.287
 1941SOL     OW 6721   4.808   5.059   2.471
 1941SOL    HW1 6722   4.828   5.149   2.434
 1941SOL    HW2 6723   4.797   5.065   2.571
 1942SOL     OW 6724   0.393   3.760   3.112
 1942SOL    HW1 6725   0.316   3.724   3.059
 1942SOL    HW2 6726   0.385   3.860   3.119
 1943SOL     OW 6727   2.964   5.813   3.381
 1943SOL    HW1 6728   3.036   5.764   3.331
 1943SOL    HW2 6729   2.928   5.887   3.324
 1944SOL     OW 6730   6.935   6.609   2.003
 1944SOL    HW1 6731   0.005   6.630   2.051
 1944SOL    HW2 6732   6.858   6.632   2.063
 1945SOL     OW 6733   3.417   4.955   3.120
 1945SOL    HW1 6734   3.347   5.017   3.156
 1945SOL    HW2 6735   3.384   4.911   3.037
 1946SOL     OW 6736   1.213   6.811   6.809
 1946SOL    HW1 6737   1.130   6.758   6.796
 1946SOL    HW2 6738   1.233   6.864   6.727
 1947SOL     OW 6739   4.875   0.030   3.769
 1947SOL    HW1 6740   4.881   6.979   3.695
 1947SOL    HW2 6741   4.808   0.100   3.746
 1948SOL     OW 6742   6.526   3.874   5.056
 1948SOL    HW1 6743   6.549   3.928   5.137
 1948SOL    HW2 6744   6.523   3.934   4.976
 1949SOL     OW 6745   4.409   4.561   6.566
 1949SOL    HW1 6746   4.329   4.622   6.568
 1949SOL    HW2 6747   4.381   4.470   6.597
 1950SOL     OW 6748   3.507   5.179   1.073
 1950SOL    HW1 6749   3.531   5.092   1.030
 1950SOL    HW2 6750   3.588   5.236   1.083
 1951SOL     OW 6751   6.601   2.659   0.723
 1951SOL    HW1 6752   6.530   2.715   0.682
 1951SOL    HW2 6753   6.616   2.578   0.667
 1952SOL     OW 6754   3.400   2.950   4.762
 1952SOL    HW1 6755   3.334   3.001   4.818
 1952SOL    HW2 6756   3.359   2.932   4.672
 1953SOL     OW 6757   0.590   2.778   4.738
 1953SOL    HW1 6758   0.645   2.824   4.669
 1953SOL    HW2 6759   0.551   2.694   4.698
 1954SOL     OW 6760   2.842   2.041   3.480
 1954SOL    HW1 6761   2.869   2.002   3.568
 1954SOL    HW2 6762   2.764   2.102   3.492
 1955SOL     OW 6763   5.969   5.559   1.631
 1955SOL    HW1 6764   5.897   5.613   1.673
 1955SOL    HW2 6765   5.935   5.467   1.611
 1956SOL     OW 6766   5.264   5.694   2.540
 1956SOL    HW1 6767   5.351   5.737   2.519
 1956SOL    HW2 6768   5.205   5.759   2.588
 1957SOL     OW 6769   1.498   6.613   4.460
 1957SOL    HW1 6770   1.445   6.616   4.545
 1957SOL    HW2 6771   1.506   6.706   4.423
 1958SOL     OW 6772   4.119   3.569   5.827
 1958SOL    HW1 6773   4.061   3.642   5.790
 1958SOL    HW2 6774   4.191   3.609   5.884
 1959SOL     OW 6775   2.314   1.027   0.536
 1959SOL    HW1 6776   2.346   1.069   0.450
 1959SOL    HW2 6777   2.391   0.985   0.583
 1960SOL     OW 6778   5.747   5.645   2.445
 1960SOL    HW1 6779   5.777   5.704   2.520
 1960SOL    HW2 6780   5.820   5.638   2.377
 1961SOL     OW 6781   5.923   5.106   5.151
 1961SOL    HW1 6782   5.966   5.016   5.159
 1961SOL    HW2 6783   5.900   5.140   5.242
 1962SOL     OW 6784   6.806   6.769   3.850
 1962SOL    HW1 6785   6.804   6.678   3.891
 1962SOL    HW2 6786   6.884   6.820   3.888
 1963SOL     OW 6787   2.511   0.804   3.357
 1963SOL    HW1 6788   2.456   0.825   3.276
 1963SOL    HW2 6789   2.599   0.765   3.329
 1964SOL     OW 6790   5.714   3.376   2.371
 1964SOL    HW1 6791   5.799   3.371   2.423
 1964SOL    HW2 6792   5.709   3.297   2.309
 1965SOL     OW 6793   2.140   6.082   3.336
 1965SOL    HW1 6794   2.091   6.112   3.254
 1965SOL    HW2 6795   2.199   6.005   3.313
 1966SOL     OW 6796   6.141   6.886   0.102
 1966SOL    HW1 6797   6.103   6.895   0.194
 1966SOL    HW2 6798   6.157   6.977   0.064
 1967SOL     OW 6799   5.125   3.737   5.167
 1967SOL    HW1 6800   5.085   3.772   5.083
 1967SOL    HW2 6801   5.083   3.649   5.189
 1968SOL     OW 6802   3.896   5.146   4.828
 1968SOL    HW1 6803   3.947   5.060   4.821
 1968SOL    HW2 6804   3.808   5.129   4.871
 1969SOL     OW 6805   6.713   1.414   1.940
 1969SOL    HW1 6806   6.687   1.502   1.980
 1969SOL    HW2 6807   6.809   1.394   1.961
 1970SOL     OW 6808   1.827   0.664   3.462
 1970SOL    HW1 6809   1.738   0.633   3.429
 1970SOL    HW2 6810   1.819   0.759   3.493
 1971SOL     OW 6811   0.219   1.226   6.082
 1971SOL    HW1 6812   0.282   1.298   6.113
 1971SOL    HW2 6813   0.263   1.172   6.010
 1972SOL     OW 6814   1.611   0.460   3.455
 1972SOL    HW1 6815   1.548   0.456   3.533
 1972SOL    HW2 6816   1.595   0.381   3.396
 1973SOL     OW 6817   2.544   3.518   0.437
 1973SOL    HW1 6818   2.625   3.577   0.438
 1973SOL    HW2 6819   2.467   3.567   0.397
 1974SOL     OW 6820   5.927   6.979   4.402
 1974SOL    HW1 6821   5.919   6.952   4.306
 1974SOL    HW2 6822   5.890   0.056   4.414
 1975SOL     OW 6823   2.872   0.230   3.621
 1975SOL    HW1 6824   2.816   0.256   3.700
 1975SOL    HW2 6825   2.863   0.300   3.550
 1976SOL     OW 6826   6.348   3.695   6.383
 1976SOL    HW1 6827   6.364   3.787   6.419
 1976SOL    HW2 6828   6.355   3.628   6.457
 1977SOL     OW 6829   2.889   2.104   5.603
 1977SOL    HW1 6830   2.942   2.074   5.682
 1977SOL    HW2 6831   2.940   2.084   5.519
 1978SOL     OW 6832   0.062   2.121   5.414
 1978SOL    HW1 6833   6.988   2.085   5.440
 1978SOL    HW2 6834   0.134   2.067   5.457
 1979SOL     OW 6835   6.390   4.250   2.261
 1979SOL    HW1 6836   6.394   4.332   2.318
 1979SOL    HW2 6837   6.309   4.255   2.201
 1980SOL     OW 6838   3.006   1.187   1.893
 1980SOL    HW1 6839   3.035   1.199   1.989
 1980SOL    HW2 6840   2.909   1.212   1.885
 1981SOL     OW 6841   5.254   3.360   2.015
 1981SOL    HW1 6842   5.308   3.296   1.961
 1981SOL    HW2 6843   5.157   3.344   1.998
 1982SOL     OW 6844   6.785   6.637   5.335
 1982SOL    HW1 6845   6.779   6.538   5.348
 1982SOL    HW2 6846   6.694   6.677   5.344
 1983SOL     OW 6847   0.518   4.512   2.418
 1983SOL    HW1 6848   0.470   4.598   2.398
 1983SOL    HW2 6849   0.612   4.532   2.445
 1984SOL     OW 6850   4.679   0.737   4.871
 1984SOL    HW1 6851   4.763   0.729   4.817
 1984SOL    HW2 6852   4.600   0.717   4.814
 1985SOL     OW 6853   1.553   6.407   1.136
 1985SOL    HW1 6854   1.571   6.344   1.212
 1985SOL    HW2 6855   1.477   6.467   1.160
 1986SOL     OW 6856   0.227   2.382   6.953
 1986SOL    HW1 6857   0.151   2.318   6.965
 1986SOL    HW2 6858   0.206   2.468   7.000
 1987SOL     OW 6859   2.717   4.660   0.063
 1987SOL    HW1 6860   2.723   4.653   6.979
 1987SOL    HW2 6861   2.718   4.568   0.103
 1988SOL     OW 6862   4.485   3.402   0.348
 1988SOL    HW1 6863   4.412   3.463   0.379
 1988SOL    HW2 6864   4.527   3.358   0.428
 1989SOL     OW 6865   2.074   1.891   4.233
 1989SOL    HW1 6866   2.008   1.815   4.235
 1989SOL    HW2 6867   2.025   1.976   4.212
 1990SOL     OW 6868   1.585   0.545   2.932
 1990SOL    HW1 6869   1.667   0.602   2.929
 1990SOL    HW2 6870   1.506   0.599   2.901
 1991SOL     OW 6871   4.486   5.571   3.018
 1991SOL    HW1 6872   4.516   5.477   3.030
 1991SOL    HW2 6873   4.520   5.627   3.094
 1992SOL     OW 6874   2.554   6.277   5.242
 1992SOL    HW1 6875   2.645   6.298   5.277
 1992SOL    HW2 6876   2.485   6.319   5.301
 1993SOL     OW 6877   3.177   3.674   4.003
 1993SOL    HW1 6878   3.272   3.684   3.975
 1993SOL    HW2 6879   3.173   3.645   4.099
 1994SOL     OW 6880   6.376   2.457   1.926
 1994SOL    HW1 6881   6.456   2.479   1.871
 1994SOL    HW2 6882   6.318   2.392   1.877
 1995SOL     OW 6883   4.129   2.297   1.367
 1995SOL    HW1 6884   4.168   2.209   1.393
 1995SOL    HW2 6885   4.201   2.366   1.363
 1996SOL     OW 6886   2.895   4.129   5.270
 1996SOL    HW1 6887   2.989   4.098   5.277
 1996SOL    HW2 6888   2.833   4.052   5.285
 1997SOL     OW 6889   5.735   6.503   3.474
 1997SOL    HW1 6890   5.715   6.585   3.529
 1997SOL    HW2 6891   5.809   6.451   3.517
 1998SOL     OW 6892   3.295   5.140   4.976
 1998SOL    HW1 6893   3.290   5.040   4.973
 1998SOL    HW2 6894   3.292   5.171   5.071
 1999SOL     OW 6895   2.538   1.418   1.706
 1999SOL    HW1 6896   2.542   1.403   1.805
 1999SOL    HW2 6897   2.506   1.334   1.661
 2000SOL     OW 6898   3.422   1.555   5.032
 2000SOL    HW1 6899   3.377   1.633   4.988
 2000SOL    HW2 6900   3.480   1.509   4.965
 2001SOL     OW 6901   2.296   3.771   0.104
 2001SOL    HW1 6902   2.237   3.701   0.062
 2001SOL    HW2 6903   2.244   3.856   0.113
 2002SOL     OW 6904   1.611   5.348   4.811
 2002SOL    HW1 6905   1.536   5.320   4.873
 2002SOL    HW2 6906   1.628   5.275   4.745
 2003SOL     OW 6907   6.704   4.346   2.975
 2003SOL    HW1 6908   6.773   4.303   2.917
 2003SOL    HW2 6909   6.666   4.279   3.038
 2004SOL     OW 6910   2.956   0.073   6.745
 2004SOL    HW1 6911   2.947   6.998   6.703
 2004SOL    HW2 6912   2.913   0.074   6.835
 2005SOL     OW 6913   2.885   6.851   5.208
 2005SOL    HW1 6914   2.812   6.821   5.270
 2005SOL    HW2 6915   2.954   6.901   5.259
 2006SOL     OW 6916   5.217   6.557   3.133
 2006SOL    HW1 6917   5.126   6.576   3.170
 2006SOL    HW2 6918   5.210   6.485   3.064
 2007SOL     OW 6919   6.687   5.466   0.138
 2007SOL    HW1 6920   6.736   5.518   0.068
 2007SOL    HW2 6921   6.666   5.375   0.104
 2008SOL     OW 6922   6.928   6.202   5.295
 2008SOL    HW1 6923   6.925   6.177   5.198
 2008SOL    HW2 6924   6.958   6.123   5.348
 2009SOL     OW 6925   0.902   0.651   6.927
 2009SOL    HW1 6926   0.864   0.565   6.961
 2009SOL    HW2 6927   0.908   0.717   7.002
 2010SOL     OW 6928   1.681   0.697   1.158
 2010SOL    HW1 6929   1.773   0.733   1.144
 2010SOL    HW2 6930   1.648   0.658   1.072
 2011SOL     OW 6931   0.301   1.992   5.227
 2011SOL    HW1 6932   0.271   1.992   5.323
 2011SOL    HW2 6933   0.267   1.910   5.182
 2012SOL     OW 6934   6.600   3.208   1.020
 2012SOL    HW1 6935   6.647   3.153   0.951
 2012SOL    HW2 6936   6.578   3.151   1.099
 2013SOL     OW 6937   4.105   2.102   2.048
 2013SOL    HW1 6938   4.023   2.134   2.000
 2013SOL    HW2 6939   4.117   2.155   2.132
 2014SOL     OW 6940   3.125   5.880   3.727
 2014SOL    HW1 6941   3.207   5.831   3.698
 2014SOL    HW2 6942   3.135   5.977   3.704
 2015SOL     OW 6943   2.904   6.356   0.246
 2015SOL    HW1 6944   2.812   6.390   0.224
 2015SOL    HW2 6945   2.911   6.338   0.344
 2016SOL     OW 6946   6.453   5.643   4.066
 2016SOL    HW1 6947   6.444   5.676   3.973
 2016SOL    HW2 6948   6.365   5.647   4.112
 2017SOL     OW 6949   2.268   5.068   1.989
 2017SOL    HW1 6950   2.338   5.001   1.966
 2017SOL    HW2 6951   2.235   5.112   1.906
 2018SOL     OW 6952   0.577   3.944   5.915
 2018SOL    HW1 6953   0.557   3.846   5.905
 2018SOL    HW2 6954   0.528   3.995   5.844
 2019SOL     OW 6955   5.883   1.660   3.101
 2019SOL    HW1 6956   5.948   1.704   3.162
 2019SOL    HW2 6957   5.928   1.586   3.051
 2020SOL     OW 6958   1.949   5.586   2.928
 2020SOL    HW1 6959   1.854   5.557   2.935
 2020SOL    HW2 6960   1.957   5.683   2.950
 2021SOL     OW 6961   2.337   0.357   1.655
 2021SOL    HW1 6962   2.260   0.327   1.599
 2021SOL    HW2 6963   2.418   0.304   1.632
 2022SOL     OW 6964   2.596   4.794   1.038
 2022SOL    HW1 6965   2.688   4.789   1.078
 2022SOL    HW2 6966   2.528   4.770   1.107
 2023SOL     OW 6967   6.030   1.318   6.480
 2023SOL    HW1 6968   6.053   1.268   6.397
 2023SOL    HW2 6969   5.952   1.273   6.525
 2024SOL     OW 6970   6.173   0.388   2.751
 2024SOL    HW1 6971   6.235   0.314   2.725
 2024SOL    HW2 6972   6.205   0.474   2.710
 2025SOL     OW 6973   6.013   0.888   1.132
 2025SOL    HW1 6974   5.975   0.962   1.075
 2025SOL    HW2 6975   5.939   0.845   1.184
 2026SOL     OW 6976   1.530   1.983   4.903
 2026SOL    HW1 6977   1.621   1.944   4.887
 2026SOL    HW2 6978   1.491   2.011   4.815
 2027SOL     OW 6979   0.705   0.975   2.472
 2027SOL    HW1 6980   0.797   0.978   2.510
 2027SOL    HW2 6981   0.675   1.068   2.450
 2028SOL     OW 6982   3.800   4.125   5.812
 2028SOL    HW1 6983   3.728   4.072   5.856
 2028SOL    HW2 6984   3.868   4.153   5.880
 2029SOL     OW 6985   1.683   0.634   0.295
 2029SOL    HW1 6986   1.659   0.730   0.281
 2029SOL    HW2 6987   1.628   0.597   0.370
 2030SOL     OW 6988   1.903   2.918   3.255
 2030SOL    HW1 6989   1.885   2.858   3.333
 2030SOL    HW2 6990   1.819   2.967   3.230
 2031SOL     OW 6991   5.603   0.005   2.767
 2031SOL    HW1 6992   5.519   6.996   2.720
 2031SOL    HW2 6993   5.681   7.010   2.704
 2032SOL     OW 6994   4.704   6.056   1.796
 2032SOL    HW1 6995   4.664   6.145   1.773
 2032SOL    HW2 6996   4.632   5.994   1.827
 2033SOL     OW 6997   0.128   5.074   6.755
 2033SOL    HW1 6998   0.074   5.045   6.834
 2033SOL    HW2 6999   0.225   5.059   6.774
 2034SOL     OW 7000   2.270   6.517   3.526
 2034SOL    HW1 7001   2.365   6.521   3.496
 2034SOL    HW2 7002   2.266   6.490   3.622
 2035SOL     OW 7003   0.177   2.235   1.701
 2035SOL    HW1 7004   0.187   2.319   1.648
 2035SOL    HW2 7005   0.080   2.219   1.720
 2036SOL     OW 7006   0.428   4.196   0.854
 2036SOL    HW1 7007   0.373   4.115   0.872
 2036SOL    HW2 7008   0.395   4.242   0.772
 2037SOL     OW 7009   0.447   1.965   6.475
 2037SOL    HW1 7010   0.480   2.058   6.461
 2037SOL    HW2 7011   0.349   1.962   6.459
 2038SOL     OW 7012   1.142   0.058   4.907
 2038SOL    HW1 7013   1.166   0.153   4.928
 2038SOL    HW2 7014   1.137   0.005   4.992
 2039SOL     OW 7015   1.399   5.916   1.978
 2039SOL    HW1 7016   1.398   5.862   2.062
 2039SOL    HW2 7017   1.329   5.987   1.983
 2040SOL     OW 7018   3.933   4.025   4.279
 2040SOL    HW1 7019   3.836   4.033   4.257
 2040SOL    HW2 7020   3.944   3.972   4.363
 2041SOL     OW 7021   5.754   2.969   0.178
 2041SOL    HW1 7022   5.727   3.049   0.124
 2041SOL    HW2 7023   5.843   2.985   0.220
 2042SOL     OW 7024   3.285   5.849   0.505
 2042SOL    HW1 7025   3.327   5.811   0.587
 2042SOL    HW2 7026   3.354   5.858   0.433
 2043SOL     OW 7027   4.433   5.206   2.431
 2043SOL    HW1 7028   4.413   5.133   2.366
 2043SOL    HW2 7029   4.449   5.291   2.380
 2044SOL     OW 7030   6.555   0.908   2.011
 2044SOL    HW1 7031   6.542   0.856   2.096
 2044SOL    HW2 7032   6.502   0.866   1.938
 2045SOL     OW 7033   2.596   6.322   6.186
 2045SOL    HW1 7034   2.561   6.247   6.241
 2045SOL    HW2 7035   2.520   6.380   6.155
 2046SOL     OW 7036   6.178   0.176   5.171
 2046SOL    HW1 7037   6.144   0.210   5.083
 2046SOL    HW2 7038   6.190   0.252   5.234
 2047SOL     OW 7039   5.017   2.548   0.163
 2047SOL    HW1 7040   4.936   2.554   0.106
 2047SOL    HW2 7041   5.078   2.477   0.128
 2048SOL     OW 7042   4.607   6.165   5.452
 2048SOL    HW1 7043   4.609   6.200   5.358
 2048SOL    HW2 7044   4.547   6.085   5.456
 2049SOL     OW 7045   4.570   6.285   0.247
 2049SOL    HW1 7046   4.545   6.382   0.242
 2049SOL    HW2 7047   4.552   6.242   0.159
 2050SOL     OW 7048   5.572   0.602   4.185
 2050SOL    HW1 7049   5.475   0.602   4.163
 2050SOL    HW2 7050   5.599   0.693   4.218
 2051SOL     OW 7051   2.371   5.235   1.102
 2051SOL    HW1 7052   2.281   5.261   1.137
 2051SOL    HW2 7053   2.361   5.196   1.011
 2052SOL     OW 7054   1.483   2.869   1.024
 2052SOL    HW1 7055   1.492   2.963   0.994
 2052SOL    HW2 7056   1.518   2.807   0.953
 2053SOL     OW 7057   5.366   0.973   0.346
 2053SOL    HW1 7058   5.308   0.922   0.282
 2053SOL    HW2 7059   5.358   1.071   0.327
 2054SOL     OW 7060   0.112   3.468   1.439
 2054SOL    HW1 7061   0.053   3.414   1.379
 2054SOL    HW2 7062   0.070   3.476   1.529
 2055SOL     OW 7063   6.375   1.996   4.053
 2055SOL    HW1 7064   6.368   2.073   4.117
 2055SOL    HW2 7065   6.358   2.028   3.960
 2056SOL     OW 7066   0.793   0.197   1.586
 2056SOL    HW1 7067   0.779   0.175   1.683
 2056SOL    HW2 7068   0.719   0.157   1.532
 2057SOL     OW 7069   6.118   2.315   4.219
 2057SOL    HW1 7070   6.058   2.237   4.228
 2057SOL    HW2 7071   6.125   2.363   4.306
 2058SOL     OW 7072   0.800   1.832   2.206
 2058SOL    HW1 7073   0.824   1.833   2.108
 2058SOL    HW2 7074   0.842   1.752   2.249
 2059SOL     OW 7075   1.544   0.406   6.414
 2059SOL    HW1 7076   1.465   0.452   6.455
 2059SOL    HW2 7077   1.512   0.335   6.352
 2060SOL     OW 7078   0.344   5.518   1.953
 2060SOL    HW1 7079   0.398   5.532   1.870
 2060SOL    HW2 7080   0.388   5.566   2.029
 2061SOL     OW 7081   0.765   1.165   1.312
 2061SOL    HW1 7082   0.719   1.140   1.227
 2061SOL    HW2 7083   0.862   1.181   1.295
 2062SOL     OW 7084   4.160   0.332   3.700
 2062SOL    HW1 7085   4.067   0.356   3.671
 2062SOL    HW2 7086   4.217   0.414   3.699
 2063SOL     OW 7087   2.219   1.883   0.574
 2063SOL    HW1 7088   2.225   1.972   0.529
 2063SOL    HW2 7089   2.268   1.887   0.661
 2064SOL     OW 7090   0.971   1.818   0.194
 2064SOL    HW1 7091   0.905   1.839   0.123
 2064SOL    HW2 7092   1.009   1.903   0.230
 2065SOL     OW 7093   6.508   3.188   2.478
 2065SOL    HW1 7094   6.485   3.155   2.386
 2065SOL    HW2 7095   6.598   3.153   2.504
 2066SOL     OW 7096   1.534   6.788   3.227
 2066SOL    HW1 7097   1.630   6.773   3.252
 2066SOL    HW2 7098   1.479   6.798   3.310
 2067SOL     OW 7099   6.932   0.055   0.662
 2067SOL    HW1 7100   6.868   6.997   0.687
 2067SOL    HW2 7101   6.974   0.092   0.745
 2068SOL     OW 7102   2.201   1.423   4.961
 2068SOL    HW1 7103   2.182   1.451   4.867
 2068SOL    HW2 7104   2.244   1.332   4.961
 2069SOL     OW 7105   1.190   1.917   2.011
 2069SOL    HW1 7106   1.150   1.961   2.092
 2069SOL    HW2 7107   1.256   1.847   2.040
 2070SOL     OW 7108   0.942   0.907   2.619
 2070SOL    HW1 7109   0.950   0.808   2.610
 2070SOL    HW2 7110   1.026   0.943   2.660
 2071SOL     OW 7111   1.942   6.330   4.877
 2071SOL    HW1 7112   1.856   6.282   4.890
 2071SOL    HW2 7113   2.009   6.269   4.835
 2072SOL     OW 7114   4.816   4.846   2.090
 2072SOL    HW1 7115   4.731   4.821   2.045
 2072SOL    HW2 7116   4.801   4.857   2.188
 2073SOL     OW 7117   3.422   6.201   5.301
 2073SOL    HW1 7118   3.388   6.198   5.207
 2073SOL    HW2 7119   3.346   6.195   5.365
 2074SOL     OW 7120   6.240   2.249   2.158
 2074SOL    HW1 7121   6.151   2.255   2.112
 2074SOL    HW2 7122   6.313   2.249   2.089
 2075SOL     OW 7123   3.857   3.737   6.156
 2075SOL    HW1 7124   3.845   3.740   6.057
 2075SOL    HW2 7125   3.781   3.784   6.201
 2076SOL     OW 7126   4.757   0.125   1.277
 2076SOL    HW1 7127   4.675   0.068   1.285
 2076SOL    HW2 7128   4.795   0.116   1.185
 2077SOL     OW 7129   5.014   1.374   3.690
 2077SOL    HW1 7130   4.972   1.464   3.701
 2077SOL    HW2 7131   5.043   1.339   3.779
 2078SOL     OW 7132   4.172   5.587   5.000
 2078SOL    HW1 7133   4.092   5.532   4.976
 2078SOL    HW2 7134   4.194   5.649   4.925
 2079SOL     OW 7135   5.733   0.551   3.408
 2079SOL    HW1 7136   5.669   0.616   3.367
 2079SOL    HW2 7137   5.807   0.601   3.453
 2080SOL     OW 7138   2.845   2.270   4.240
 2080SOL    HW1 7139   2.937   2.233   4.223
 2080SOL    HW2 7140   2.802   2.292   4.152
 2081SOL     OW 7141   1.041   6.124   4.241
 2081SOL    HW1 7142   0.961   6.097   4.187
 2081SOL    HW2 7143   1.043   6.224   4.250
 2082SOL     OW 7144   4.943   0.517   2.278
 2082SOL    HW1 7145   4.919   0.567   2.361
 2082SOL    HW2 7146   4.865   0.518   2.215
 2083SOL     OW 7147   3.240   5.122   5.794
 2083SOL    HW1 7148   3.194   5.150   5.710
 2083SOL    HW2 7149   3.209   5.030   5.820
 2084SOL     OW 7150   0.068   2.642   2.406
 2084SOL    HW1 7151   0.069   2.553   2.451
 2084SOL    HW2 7152   0.150   2.651   2.350
 2085SOL     OW 7153   5.554   6.130   6.858
 2085SOL    HW1 7154   5.503   6.193   6.916
 2085SOL    HW2 7155   5.630   6.178   6.815
 2086SOL     OW 7156   3.402   5.337   0.363
 2086SOL    HW1 7157   3.317   5.389   0.362
 2086SOL    HW2 7158   3.431   5.322   0.458
 2087SOL     OW 7159   5.936   5.695   3.422
 2087SOL    HW1 7160   5.896   5.786   3.426
 2087SOL    HW2 7161   5.878   5.630   3.471
 2088SOL     OW 7162   2.325   7.013   0.896
 2088SOL    HW1 7163   2.257   6.947   0.865
 2088SOL    HW2 7164   2.326   0.076   0.835
 2089SOL     OW 7165   2.856   1.074   6.752
 2089SOL    HW1 7166   2.954   1.065   6.768
 2089SOL    HW2 7167   2.807   1.068   6.839
 2090SOL     OW 7168   3.127   3.027   3.819
 2090SOL    HW1 7169   3.162   2.965   3.890
 2090SOL    HW2 7170   3.130   3.121   3.853
 2091SOL     OW 7171   1.886   5.415   0.804
 2091SOL    HW1 7172   1.959   5.484   0.803
 2091SOL    HW2 7173   1.905   5.348   0.875
 2092SOL     OW 7174   0.206   6.272   1.517
 2092SOL    HW1 7175   0.237   6.177   1.524
 2092SOL    HW2 7176   0.248   6.326   1.590
 2093SOL     OW 7177   0.876   2.697   1.621
 2093SOL    HW1 7178   0.917   2.779   1.582
 2093SOL    HW2 7179   0.910   2.616   1.574
 2094SOL     OW 7180   6.305   0.502   1.942
 2094SOL    HW1 7181   6.359   0.419   1.926
 2094SOL    HW2 7182   6.279   0.507   2.038
 2095SOL     OW 7183   6.907   4.721   4.680
 2095SOL    HW1 7184   6.847   4.683   4.610
 2095SOL    HW2 7185   6.984   4.768   4.637
 2096SOL     OW 7186   5.131   3.728   3.342
 2096SOL    HW1 7187   5.174   3.795   3.402
 2096SOL    HW2 7188   5.160   3.636   3.367
 2097SOL     OW 7189   6.145   3.611   0.025
 2097SOL    HW1 7190   6.210   3.617   6.965
 2097SOL    HW2 7191   6.163   3.529   0.078
 2098SOL     OW 7192   4.550   0.277   4.227
 2098SOL    HW1 7193   4.545   0.343   4.153
 2098SOL    HW2 7194   4.635   0.226   4.220
 2099SOL     OW 7195   2.890   2.222   2.823
 2099SOL    HW1 7196   2.977   2.232   2.872
 2099SOL    HW2 7197   2.864   2.126   2.820
 2100SOL     OW 7198   3.570   4.497   6.448
 2100SOL    HW1 7199   3.536   4.482   6.355
 2100SOL    HW2 7200   3.540   4.587   6.480
 2101SOL     OW 7201   0.394   0.668   2.404
 2101SOL    HW1 7202   0.439   0.580   2.394
 2101SOL    HW2 7203   0.429   0.732   2.335
 2102SOL     OW 7204   0.091   4.716   1.821
 2102SOL    HW1 7205   0.001   4.678   1.847
 2102SOL    HW2 7206   0.086   4.815   1.822
 2103SOL     OW 7207   2.703   3.343   6.282
 2103SOL    HW1 7208   2.689   3.386   6.371
 2103SOL    HW2 7209   2.801   3.335   6.264
 2104SOL     OW 7210   1.269   3.886   5.462
 2104SOL    HW1 7211   1.233   3.979   5.465
 2104SOL    HW2 7212   1.237   3.840   5.379
 2105SOL     OW 7213   6.199   5.858   1.557
 2105SOL    HW1 7214   6.184   5.957   1.561
 2105SOL    HW2 7215   6.237   5.834   1.468
 2106SOL     OW 7216   5.734   5.266   6.766
 2106SOL    HW1 7217   5.747   5.365   6.773
 2106SOL    HW2 7218   5.752   5.224   6.855
 2107SOL     OW 7219   2.855   4.789   0.269
 2107SOL    HW1 7220   2.829   4.885   0.275
 2107SOL    HW2 7221   2.779   4.736   0.231
 2108SOL     OW 7222   5.483   4.498   5.869
 2108SOL    HW1 7223   5.451   4.542   5.785
 2108SOL    HW2 7224   5.553   4.430   5.847
 2109SOL     OW 7225   5.712   6.008   2.758
 2109SOL    HW1 7226   5.695   6.028   2.661
 2109SOL    HW2 7227   5.811   6.009   2.775
 2110SOL     OW 7228   2.142   4.934   4.797
 2110SOL    HW1 7229   2.117   4.860   4.860
 2110SOL    HW2 7230   2.126   5.022   4.841
 2111SOL     OW 7231   1.914   2.765   7.008
 2111SOL    HW1 7232   1.877   2.714   0.070
 2111SOL    HW2 7233   2.010   2.788   0.010
 2112SOL     OW 7234   5.784   3.266   1.146
 2112SOL    HW1 7235   5.858   3.216   1.100
 2112SOL    HW2 7236   5.759   3.346   1.091
 2113SOL     OW 7237   6.601   1.725   3.149
 2113SOL    HW1 7238   6.687   1.686   3.181
 2113SOL    HW2 7239   6.604   1.738   3.050
 2114SOL     OW 7240   1.758   3.422   0.442
 2114SOL    HW1 7241   1.735   3.327   0.463
 2114SOL    HW2 7242   1.679   3.468   0.403
 2115SOL     OW 7243   2.876   5.647   1.887
 2115SOL    HW1 7244   2.930   5.715   1.838
 2115SOL    HW2 7245   2.934   5.570   1.913
 2116SOL     OW 7246   0.402   4.123   3.217
 2116SOL    HW1 7247   0.368   4.174   3.138
 2116SOL    HW2 7248   0.499   4.104   3.206
 2117SOL     OW 7249   0.343   5.836   6.455
 2117SOL    HW1 7250   0.369   5.760   6.395
 2117SOL    HW2 7251   0.417   5.903   6.458
 2118SOL     OW 7252   6.747   3.527   2.110
 2118SOL    HW1 7253   6.807   3.474   2.171
 2118SOL    HW2 7254   6.779   3.622   2.106
 2119SOL     OW 7255   3.594   5.941   0.828
 2119SOL    HW1 7256   3.557   5.848   0.827
 2119SOL    HW2 7257   3.689   5.940   0.798
 2120SOL     OW 7258   6.675   4.582   2.273
 2120SOL    HW1 7259   6.730   4.628   2.344
 2120SOL    HW2 7260   6.632   4.501   2.312
 2121SOL     OW 7261   0.705   3.886   4.629
 2121SOL    HW1 7262   0.765   3.815   4.666
 2121SOL    HW2 7263   0.637   3.843   4.569
 2122SOL     OW 7264   4.493   4.641   5.786
 2122SOL    HW1 7265   4.512   4.545   5.766
 2122SOL    HW2 7266   4.578   4.688   5.810
 2123SOL     OW 7267   4.369   4.558   3.660
 2123SOL    HW1 7268   4.292   4.506   3.697
 2123SOL    HW2 7269   4.454   4.527   3.701
 2124SOL     OW 7270   2.922   1.840   1.681
 2124SOL    HW1 7271   2.953   1.797   1.766
 2124SOL    HW2 7272   2.979   1.920   1.662
 2125SOL     OW 7273   3.640   6.841   0.641
 2125SOL    HW1 7274   3.643   6.852   0.741
 2125SOL    HW2 7275   3.549   6.810   0.614
 2126SOL     OW 7276   2.822   0.653   1.974
 2126SOL    HW1 7277   2.777   0.574   1.933
 2126SOL    HW2 7278   2.813   0.648   2.074
 2127SOL     OW 7279   5.875   2.949   4.906
 2127SOL    HW1 7280   5.906   2.943   5.001
 2127SOL    HW2 7281   5.925   2.882   4.851
 2128SOL     OW 7282   0.603   4.215   4.019
 2128SOL    HW1 7283   0.555   4.180   3.939
 2128SOL    HW2 7284   0.632   4.309   4.001
 2129SOL     OW 7285   4.218   2.213   5.506
 2129SOL    HW1 7286   4.191   2.121   5.532
 2129SOL    HW2 7287   4.201   2.227   5.408
 2130SOL     OW 7288   4.782   0.683   3.402
 2130SOL    HW1 7289   4.746   0.604   3.451
 2130SOL    HW2 7290   4.822   0.654   3.315
 2131SOL     OW 7291   5.305   1.769   6.770
 2131SOL    HW1 7292   5.391   1.721   6.787
 2131SOL    HW2 7293   5.296   1.788   6.672
 2132SOL     OW 7294   1.830   3.445   0.942
 2132SOL    HW1 7295   1.846   3.462   0.845
 2132SOL    HW2 7296   1.841   3.530   0.993
 2133SOL     OW 7297   2.453   3.491   5.726
 2133SOL    HW1 7298   2.401   3.406   5.730
 2133SOL    HW2 7299   2.514   3.496   5.806
 2134SOL     OW 7300   0.246   6.885   1.066
 2134SOL    HW1 7301   0.158   6.926   1.041
 2134SOL    HW2 7302   0.287   6.844   0.985
 2135SOL     OW 7303   6.787   4.401   5.498
 2135SOL    HW1 7304   6.869   4.360   5.536
 2135SOL    HW2 7305   6.713   4.334   5.498
 2136SOL     OW 7306   0.546   4.600   0.651
 2136SOL    HW1 7307   0.508   4.692   0.647
 2136SOL    HW2 7308   0.549   4.569   0.746
 2137SOL     OW 7309   1.403   6.268   3.992
 2137SOL    HW1 7310   1.422   6.217   4.076
 2137SOL    HW2 7311   1.487   6.310   3.958
 2138SOL     OW 7312   5.180   1.961   1.803
 2138SOL    HW1 7313   5.113   1.892   1.829
 2138SOL    HW2 7314   5.134   2.048   1.784
 2139SOL     OW 7315   2.913   0.140   5.275
 2139SOL    HW1 7316   2.946   0.130   5.181
 2139SOL    HW2 7317   2.912   0.237   5.300
 2140SOL     OW 7318   2.647   1.598   4.404
 2140SOL    HW1 7319   2.694   1.669   4.457
 2140SOL    HW2 7320   2.621   1.636   4.315
 2141SOL     OW 7321   6.626   3.089   3.316
 2141SOL    HW1 7322   6.641   2.990   3.312
 2141SOL    HW2 7323   6.682   3.128   3.389
 2142SOL     OW 7324   1.540   2.389   2.436
 2142SOL    HW1 7325   1.581   2.323   2.499
 2142SOL    HW2 7326   1.611   2.452   2.403
 2143SOL     OW 7327   0.475   4.750   5.985
 2143SOL    HW1 7328   0.500   4.769   5.890
 2143SOL    HW2 7329   0.539   4.682   6.022
 2144SOL     OW 7330   6.499   4.477   3.242
 2144SOL    HW1 7331   6.501   4.380   3.221
 2144SOL    HW2 7332   6.491   4.530   3.157
 2145SOL     OW 7333   4.019   1.422   3.216
 2145SOL    HW1 7334   4.113   1.434   3.185
 2145SOL    HW2 7335   4.010   1.334   3.262
 2146SOL     OW 7336   2.529   2.841   6.899
 2146SOL    HW1 7337   2.547   2.832   6.801
 2146SOL    HW2 7338   2.440   2.883   6.913
 2147SOL     OW 7339   6.114   6.726   3.953
 2147SOL    HW1 7340   6.177   6.649   3.967
 2147SOL    HW2 7341   6.147   6.783   3.879
 2148SOL     OW 7342   0.310   3.278   5.895
 2148SOL    HW1 7343   0.222   3.244   5.928
 2148SOL    HW2 7344   0.370   3.200   5.878
 2149SOL     OW 7345   0.615   0.309   0.123
 2149SOL    HW1 7346   0.644   0.248   0.198
 2149SOL    HW2 7347   0.523   0.344   0.142
 2150SOL     OW 7348   1.849   3.204   1.093
 2150SOL    HW1 7349   1.851   3.291   1.043
 2150SOL    HW2 7350   1.758   3.189   1.131
 2151SOL     OW 7351   0.817   5.034   0.327
 2151SOL    HW1 7352   0.909   5.072   0.332
 2151SOL    HW2 7353   0.763   5.066   0.404
 2152SOL     OW 7354   5.254   5.924   3.969
 2152SOL    HW1 7355   5.290   5.898   4.058
 2152SOL    HW2 7356   5.318   5.986   3.924
 2153SOL     OW 7357   5.257   0.379   4.507
 2153SOL    HW1 7358   5.207   0.296   4.532
 2153SOL    HW2 7359   5.241   0.400   4.410
 2154SOL     OW 7360   2.404   0.544   2.584
 2154SOL    HW1 7361   2.385   0.481   2.659
 2154SOL    HW2 7362   2.343   0.624   2.591
 2155SOL     OW 7363   4.112   0.784   1.093
 2155SOL    HW1 7364   4.043   0.805   1.162
 2155SOL    HW2 7365   4.076   0.807   1.002
 2156SOL     OW 7366   5.364   2.033   4.932
 2156SOL    HW1 7367   5.394   2.000   4.842
 2156SOL    HW2 7368   5.444   2.044   4.992
 2157SOL     OW 7369   3.946   6.045   3.985
 2157SOL    HW1 7370   3.895   5.968   4.022
 2157SOL    HW2 7371   3.885   6.123   3.970
 2158SOL     OW 7372   2.994   0.183   0.314
 2158SOL    HW1 7373   2.898   0.161   0.326
 2158SOL    HW2 7374   3.005   0.245   0.235
 2159SOL     OW 7375   0.634   0.834   5.357
 2159SOL    HW1 7376   0.690   0.875   5.284
 2159SOL    HW2 7377   0.694   0.803   5.431
 2160SOL     OW 7378   5.391   6.947   6.866
 2160SOL    HW1 7379   5.381   6.923   6.769
 2160SOL    HW2 7380   5.386   0.031   6.876
 2161SOL     OW 7381   1.686   3.276   0.736
 2161SOL    HW1 7382   1.751   3.316   0.800
 2161SOL    HW2 7383   1.734   3.235   0.659
 2162SOL     OW 7384   1.728   0.590   1.415
 2162SOL    HW1 7385   1.702   0.609   1.321
 2162SOL    HW2 7386   1.751   0.493   1.425
 2163SOL     OW 7387   1.504   3.512   3.151
 2163SOL    HW1 7388   1.491   3.417   3.121
 2163SOL    HW2 7389   1.458   3.527   3.238
 2164SOL     OW 7390   2.022   3.502   2.309
 2164SOL    HW1 7391   2.081   3.433   2.266
 2164SOL    HW2 7392   1.932   3.462   2.326
 2165SOL     OW 7393   6.385   1.128   4.513
 2165SOL    HW1 7394   6.444   1.068   4.459
 2165SOL    HW2 7395   6.442   1.179   4.578
 2166SOL     OW 7396   0.108   3.521   2.482
 2166SOL    HW1 7397   0.071   3.444   2.534
 2166SOL    HW2 7398   0.133   3.490   2.390
 2167SOL     OW 7399   1.878   1.822   2.828
 2167SOL    HW1 7400   1.902   1.915   2.797
 2167SOL    HW2 7401   1.797   1.826   2.886
 2168SOL     OW 7402   2.051   1.853   3.306
 2168SOL    HW1 7403   1.951   1.852   3.311
 2168SOL    HW2 7404   2.082   1.943   3.276
 2169SOL     OW 7405   6.631   6.721   1.425
 2169SOL    HW1 7406   6.581   6.683   1.503
 2169SOL    HW2 7407   6.642   6.820   1.437
 2170SOL     OW 7408   1.340   3.517   6.040
 2170SOL    HW1 7409   1.368   3.599   5.989
 2170SOL    HW2 7410   1.278   3.544   6.114
 2171SOL     OW 7411   6.681   6.024   1.218
 2171SOL    HW1 7412   6.747   6.094   1.248
 2171SOL    HW2 7413   6.633   5.988   1.298
 2172SOL     OW 7414   2.344   1.786   5.289
 2172SOL    HW1 7415   2.344   1.693   5.253
 2172SOL    HW2 7416   2.431   1.831   5.266
 2173SOL     OW 7417   5.094   0.736   5.113
 2173SOL    HW1 7418   5.059   0.795   5.040
 2173SOL    HW2 7419   5.130   0.793   5.187
 2174SOL     OW 7420   5.651   0.204   6.019
 2174SOL    HW1 7421   5.623   0.273   5.952
 2174SOL    HW2 7422   5.612   0.227   6.108
 2175SOL     OW 7423   2.667   3.940   5.313
 2175SOL    HW1 7424   2.634   3.921   5.405
 2175SOL    HW2 7425   2.590   3.959   5.252
 2176SOL     OW 7426   5.210   2.202   2.874
 2176SOL    HW1 7427   5.119   2.204   2.916
 2176SOL    HW2 7428   5.271   2.262   2.925
 2177SOL     OW 7429   1.100   0.928   4.735
 2177SOL    HW1 7430   1.164   0.869   4.687
 2177SOL    HW2 7431   1.138   1.020   4.742
 2178SOL     OW 7432   1.421   2.075   2.840
 2178SOL    HW1 7433   1.405   2.128   2.923
 2178SOL    HW2 7434   1.519   2.053   2.833
 2179SOL     OW 7435   1.973   4.158   6.638
 2179SOL    HW1 7436   1.987   4.251   6.606
 2179SOL    HW2 7437   2.061   4.120   6.668
 2180SOL     OW 7438   0.784   5.884   2.858
 2180SOL    HW1 7439   0.797   5.835   2.944
 2180SOL    HW2 7440   0.866   5.872   2.801
 2181SOL     OW 7441   4.094   4.816   4.735
 2181SOL    HW1 7442   4.011   4.826   4.680
 2181SOL    HW2 7443   4.073   4.834   4.831
 2182SOL     OW 7444   0.460   6.175   1.711
 2182SOL    HW1 7445   0.482   6.091   1.661
 2182SOL    HW2 7446   0.467   6.253   1.650
 2183SOL     OW 7447   3.063   2.921   6.631
 2183SOL    HW1 7448   3.001   2.951   6.558
 2183SOL    HW2 7449   3.156   2.915   6.594
 2184SOL     OW 7450   6.444   1.233   0.805
 2184SOL    HW1 7451   6.480   1.314   0.760
 2184SOL    HW2 7452   6.520   1.173   0.832
 2185SOL     OW 7453   0.618   0.765   5.911
 2185SOL    HW1 7454   0.598   0.677   5.869
 2185SOL    HW2 7455   0.675   0.820   5.849
 2186SOL     OW 7456   6.650   5.945   5.393
 2186SOL    HW1 7457   6.571   5.900   5.435
 2186SOL    HW2 7458   6.629   5.966   5.297
 2187SOL     OW 7459   6.194   5.217   1.753
 2187SOL    HW1 7460   6.277   5.266   1.724
 2187SOL    HW2 7461   6.114   5.260   1.712
 2188SOL     OW 7462   2.802   0.958   0.765
 2188SOL    HW1 7463   2.770   0.871   0.802
 2188SOL    HW2 7464   2.888   0.945   0.716
 2189SOL     OW 7465   1.826   1.147   1.858
 2189SOL    HW1 7466   1.875   1.221   1.811
 2189SOL    HW2 7467   1.770   1.097   1.792
 2190SOL     OW 7468   6.918   3.865   1.681
 2190SOL    HW1 7469   6.931   3.924   1.601
 2190SOL    HW2 7470   6.990   3.884   1.748
 2191SOL     OW 7471   2.959   0.587   6.709
 2191SOL    HW1 7472   2.934   0.495   6.740
 2191SOL    HW2 7473   2.924   0.655   6.773
 2192SOL     OW 7474   4.952   1.783   1.866
 2192SOL    HW1 7475   4.889   1.706   1.877
 2192SOL    HW2 7476   4.905   1.868   1.891
 2193SOL     OW 7477   2.418   0.181   5.222
 2193SOL    HW1 7478   2.330   0.176   5.269
 2193SOL    HW2 7479   2.450   0.276   5.220
 2194SOL     OW 7480   0.617   3.826   6.213
 2194SOL    HW1 7481   0.520   3.804   6.208
 2194SOL    HW2 7482   0.668   3.766   6.151
 2195SOL     OW 7483   0.343   3.894   4.844
 2195SOL    HW1 7484   0.329   3.902   4.745
 2195SOL    HW2 7485   0.256   3.873   4.888
 2196SOL     OW 7486   3.531   0.996   6.927
 2196SOL    HW1 7487   3.516   0.925   6.995
 2196SOL    HW2 7488   3.459   1.065   6.935
 2197SOL     OW 7489   3.561   5.945   5.798
 2197SOL    HW1 7490   3.574   5.920   5.894
 2197SOL    HW2 7491   3.559   5.862   5.742
 2198SOL     OW 7492   0.946   0.823   6.663
 2198SOL    HW1 7493   0.894   0.754   6.713
 2198SOL    HW2 7494   0.988   0.887   6.727
 2199SOL     OW 7495   4.309   6.713   3.692
 2199SOL    HW1 7496   4.281   6.623   3.727
 2199SOL    HW2 7497   4.328   6.774   3.770
 2200SOL     OW 7498   2.825   2.347   3.784
 2200SOL    HW1 7499   2.782   2.300   3.861
 2200SOL    HW2 7500   2.921   2.364   3.806
 2201SOL     OW 7501   5.590   3.757   5.110
 2201SOL    HW1 7502   5.599   3.691   5.184
 2201SOL    HW2 7503   5.681   3.784   5.078
 2202SOL     OW 7504   3.734   0.048   3.061
 2202SOL    HW1 7505   3.654   7.013   3.028
 2202SOL    HW2 7506   3.744   0.034   3.160
 2203SOL     OW 7507   1.420   4.832   1.060
 2203SOL    HW1 7508   1.343   4.893   1.045
 2203SOL    HW2 7509   1.480   4.833   0.980
 2204SOL     OW 7510   6.182   2.431   0.765
 2204SOL    HW1 7511   6.140   2.357   0.818
 2204SOL    HW2 7512   6.148   2.430   0.671
 2205SOL     OW 7513   6.808   5.431   0.999
 2205SOL    HW1 7514   6.825   5.526   0.973
 2205SOL    HW2 7515   6.738   5.391   0.940
 2206SOL     OW 7516   3.694   2.640   5.513
 2206SOL    HW1 7517   3.667   2.550   5.549
 2206SOL    HW2 7518   3.624   2.672   5.449
 2207SOL     OW 7519   4.885   5.858   1.513
 2207SOL    HW1 7520   4.966   5.892   1.562
 2207SOL    HW2 7521   4.815   5.929   1.510
 2208SOL     OW 7522   6.979   6.880   3.014
 2208SOL    HW1 7523   7.013   6.839   3.099
 2208SOL    HW2 7524   6.957   6.807   2.948
 2209SOL     OW 7525   3.222   6.070   4.185
 2209SOL    HW1 7526   3.125   6.061   4.166
 2209SOL    HW2 7527   3.243   6.164   4.212
 2210SOL     OW 7528   4.672   0.430   1.717
 2210SOL    HW1 7529   4.595   0.413   1.656
 2210SOL    HW2 7530   4.731   0.501   1.678
 2211SOL     OW 7531   1.496   1.802   1.083
 2211SOL    HW1 7532   1.478   1.853   0.998
 2211SOL    HW2 7533   1.508   1.867   1.158
 2212SOL     OW 7534   2.864   5.669   6.620
 2212SOL    HW1 7535   2.809   5.692   6.540
 2212SOL    HW2 7536   2.821   5.705   6.702
 2213SOL     OW 7537   3.595   2.022   5.073
 2213SOL    HW1 7538   3.533   2.015   5.151
 2213SOL    HW2 7539   3.683   2.057   5.104
 2214SOL     OW 7540   3.981   4.306   6.439
 2214SOL    HW1 7541   3.889   4.339   6.461
 2214SOL    HW2 7542   4.036   4.382   6.404
 2215SOL     OW 7543   3.900   6.717   0.720
 2215SOL    HW1 7544   3.860   6.628   0.745
 2215SOL    HW2 7545   3.826   6.780   0.694
 2216SOL     OW 7546   0.272   6.631   6.415
 2216SOL    HW1 7547   0.280   6.556   6.481
 2216SOL    HW2 7548   0.192   6.687   6.437
 2217SOL     OW 7549   4.508   1.531   3.817
 2217SOL    HW1 7550   4.413   1.527   3.846
 2217SOL    HW2 7551   4.545   1.438   3.812
 2218SOL     OW 7552   0.008   5.370   5.167
 2218SOL    HW1 7553   6.934   5.415   5.165
 2218SOL    HW2 7554   0.018   5.310   5.087
 2219SOL     OW 7555   5.428   1.142   0.591
 2219SOL    HW1 7556   5.352   1.079   0.577
 2219SOL    HW2 7557   5.393   1.236   0.589
 2220SOL     OW 7558   0.162   5.994   4.104
 2220SOL    HW1 7559   0.198   6.005   4.197
 2220SOL    HW2 7560   0.064   5.973   4.109
 2221SOL     OW 7561   6.141   1.058   4.333
 2221SOL    HW1 7562   6.125   0.966   4.297
 2221SOL    HW2 7563   6.228   1.060   4.382
 2222SOL     OW 7564   4.648   0.100   2.823
 2222SOL    HW1 7565   4.566   0.078   2.769
 2222SOL    HW2 7566   4.688   0.185   2.790
 2223SOL     OW 7567   0.944   6.649   5.241
 2223SOL    HW1 7568   0.994   6.587   5.182
 2223SOL    HW2 7569   0.852   6.663   5.205
 2224SOL     OW 7570   4.940   3.977   0.255
 2224SOL    HW1 7571   4.855   3.927   0.275
 2224SOL    HW2 7572   5.008   3.957   0.326
 2225SOL     OW 7573   6.752   6.574   1.661
 2225SOL    HW1 7574   6.781   6.663   1.696
 2225SOL    HW2 7575   6.816   6.545   1.590
 2226SOL     OW 7576   2.358   4.670   6.947
 2226SOL    HW1 7577   2.310   4.691   0.017
 2226SOL    HW2 7578   2.382   4.756   6.902
 2227SOL     OW 7579   4.020   1.857   2.121
 2227SOL    HW1 7580   4.053   1.947   2.091
 2227SOL    HW2 7581   3.929   1.866   2.161
 2228SOL     OW 7582   5.523   5.288   6.591
 2228SOL    HW1 7583   5.588   5.246   6.653
 2228SOL    HW2 7584   5.458   5.344   6.643
 2229SOL     OW 7585   2.886   3.426   4.022
 2229SOL    HW1 7586   2.854   3.373   3.944
 2229SOL    HW2 7587   2.873   3.524   4.004
 2230SOL     OW 7588   6.325   0.660   6.735
 2230SOL    HW1 7589   6.264   0.643   6.812
 2230SOL    HW2 7590   6.420   0.654   6.765
 2231SOL     OW 7591   1.495   6.764   6.142
 2231SOL    HW1 7592   1.438   6.688   6.109
 2231SOL    HW2 7593   1.483   6.773   6.241
 2232SOL     OW 7594   1.909   0.497   5.783
 2232SOL    HW1 7595   1.912   0.555   5.864
 2232SOL    HW2 7596   1.954   0.410   5.803
 2233SOL     OW 7597   2.685   4.810   0.696
 2233SOL    HW1 7598   2.716   4.887   0.752
 2233SOL    HW2 7599   2.759   4.743   0.687
 2234SOL     OW 7600   4.908   2.211   1.475
 2234SOL    HW1 7601   4.846   2.155   1.529
 2234SOL    HW2 7602   4.884   2.204   1.378
 2235SOL     OW 7603   0.587   1.620   3.325
 2235SOL    HW1 7604   0.666   1.577   3.369
 2235SOL    HW2 7605   0.619   1.686   3.257
 2236SOL     OW 7606   2.917   4.939   5.656
 2236SOL    HW1 7607   3.013   4.957   5.635
 2236SOL    HW2 7608   2.889   4.993   5.736
 2237SOL     OW 7609   6.376   5.849   5.892
 2237SOL    HW1 7610   6.314   5.927   5.899
 2237SOL    HW2 7611   6.414   5.845   5.799
 2238SOL     OW 7612   5.926   3.659   2.125
 2238SOL    HW1 7613   5.879   3.649   2.212
 2238SOL    HW2 7614   5.950   3.568   2.090
 2239SOL     OW 7615   4.634   6.317   2.910
 2239SOL    HW1 7616   4.559   6.258   2.878
 2239SOL    HW2 7617   4.598   6.388   2.969
 2240SOL     OW 7618   5.135   5.146   1.771
 2240SOL    HW1 7619   5.116   5.106   1.681
 2240SOL    HW2 7620   5.076   5.225   1.785
 2241SOL     OW 7621   0.255   1.562   3.007
 2241SOL    HW1 7622   0.319   1.495   2.970
 2241SOL    HW2 7623   0.305   1.631   3.058
 2242SOL     OW 7624   5.352   1.910   4.012
 2242SOL    HW1 7625   5.352   2.010   4.015
 2242SOL    HW2 7626   5.351   1.873   4.105
 2243SOL     OW 7627   2.509   6.852   0.704
 2243SOL    HW1 7628   2.467   6.809   0.783
 2243SOL    HW2 7629   2.454   6.931   0.675
 2244SOL     OW 7630   2.226   1.606   0.674
 2244SOL    HW1 7631   2.243   1.704   0.682
 2244SOL    HW2 7632   2.273   1.570   0.594
 2245SOL     OW 7633   0.373   0.670   0.068
 2245SOL    HW1 7634   0.461   0.714   0.051
 2245SOL    HW2 7635   0.360   0.659   0.167
 2246SOL     OW 7636   3.810   2.168   5.160
 2246SOL    HW1 7637   3.906   2.151   5.181
 2246SOL    HW2 7638   3.773   2.237   5.223
 2247SOL     OW 7639   3.026   3.018   2.228
 2247SOL    HW1 7640   3.019   3.025   2.128
 2247SOL    HW2 7641   2.987   3.101   2.269
 2248SOL     OW 7642   4.660   3.989   5.323
 2248SOL    HW1 7643   4.581   3.946   5.367
 2248SOL    HW2 7644   4.736   3.924   5.321
 2249SOL     OW 7645   2.011   6.580   2.894
 2249SOL    HW1 7646   2.037   6.483   2.891
 2249SOL    HW2 7647   2.044   6.620   2.980
 2250SOL     OW 7648   4.452   5.821   6.378
 2250SOL    HW1 7649   4.507   5.859   6.452
 2250SOL    HW2 7650   4.470   5.723   6.370
 2251SOL     OW 7651   5.061   6.504   4.692
 2251SOL    HW1 7652   5.060   6.544   4.783
 2251SOL    HW2 7653   5.156   6.490   4.663
 2252SOL     OW 7654   3.872   1.067   2.361
 2252SOL    HW1 7655   3.816   1.150   2.358
 2252SOL    HW2 7656   3.916   1.053   2.273
 2253SOL     OW 7657   0.129   3.087   1.372
 2253SOL    HW1 7658   0.167   3.116   1.284
 2253SOL    HW2 7659   0.054   3.149   1.398
 2254SOL     OW 7660   4.088   3.466   3.035
 2254SOL    HW1 7661   4.102   3.503   3.127
 2254SOL    HW2 7662   4.073   3.368   3.041
 2255SOL     OW 7663   1.841   3.072   6.675
 2255SOL    HW1 7664   1.868   3.055   6.580
 2255SOL    HW2 7665   1.789   3.157   6.680
 2256SOL     OW 7666   5.577   0.168   1.457
 2256SOL    HW1 7667   5.545   0.151   1.550
 2256SOL    HW2 7668   5.505   0.145   1.392
 2257SOL     OW 7669   6.614   0.844   5.722
 2257SOL    HW1 7670   6.516   0.837   5.741
 2257SOL    HW2 7671   6.653   0.752   5.717
 2258SOL     OW 7672   2.605   6.185   4.137
 2258SOL    HW1 7673   2.658   6.222   4.213
 2258SOL    HW2 7674   2.657   6.112   4.092
 2259SOL     OW 7675   6.076   2.028   5.153
 2259SOL    HW1 7676   6.155   2.046   5.095
 2259SOL    HW2 7677   6.029   1.945   5.123
 2260SOL     OW 7678   0.785   3.436   1.450
 2260SOL    HW1 7679   0.803   3.495   1.371
 2260SOL    HW2 7680   0.838   3.352   1.442
 2261SOL     OW 7681   5.470   3.973   0.330
 2261SOL    HW1 7682   5.396   4.040   0.326
 2261SOL    HW2 7683   5.433   3.881   0.315
 2262SOL     OW 7684   6.566   6.955   4.737
 2262SOL    HW1 7685   6.571   0.038   4.720
 2262SOL    HW2 7686   6.614   6.906   4.664
 2263SOL     OW 7687   2.239   4.378   6.274
 2263SOL    HW1 7688   2.293   4.444   6.223
 2263SOL    HW2 7689   2.159   4.351   6.220
 2264SOL     OW 7690   3.104   0.101   5.719
 2264SOL    HW1 7691   3.066   0.010   5.708
 2264SOL    HW2 7692   3.161   0.104   5.801
 2265SOL     OW 7693   6.728   6.468   4.283
 2265SOL    HW1 7694   6.679   6.469   4.370
 2265SOL    HW2 7695   6.800   6.398   4.286
 2266SOL     OW 7696   4.109   2.852   6.790
 2266SOL    HW1 7697   4.116   2.896   6.700
 2266SOL    HW2 7698   4.125   2.754   6.781
 2267SOL     OW 7699   5.477   2.863   4.462
 2267SOL    HW1 7700   5.573   2.840   4.443
 2267SOL    HW2 7701   5.461   2.862   4.561
 2268SOL     OW 7702   1.446   5.947   4.427
 2268SOL    HW1 7703   1.546   5.944   4.419
 2268SOL    HW2 7704   1.405   5.904   4.347
 2269SOL     OW 7705   1.906   2.587   5.564
 2269SOL    HW1 7706   1.942   2.677   5.538
 2269SOL    HW2 7707   1.974   2.517   5.541
 2270SOL     OW 7708   4.452   1.537   6.292
 2270SOL    HW1 7709   4.454   1.437   6.294
 2270SOL    HW2 7710   4.358   1.568   6.309
 2271SOL     OW 7711   4.658   5.427   5.442
 2271SOL    HW1 7712   4.605   5.464   5.366
 2271SOL    HW2 7713   4.621   5.338   5.469
 2272SOL     OW 7714   5.133   1.213   6.034
 2272SOL    HW1 7715   5.200   1.283   6.056
 2272SOL    HW2 7716   5.180   1.130   6.003
 2273SOL     OW 7717   1.125   2.607   3.256
 2273SOL    HW1 7718   1.203   2.635   3.200
 2273SOL    HW2 7719   1.157   2.553   3.334
 2274SOL     OW 7720   1.049   1.547   6.868
 2274SOL    HW1 7721   1.069   1.475   6.803
 2274SOL    HW2 7722   1.017   1.629   6.820
 2275SOL     OW 7723   5.410   4.123   2.916
 2275SOL    HW1 7724   5.311   4.111   2.905
 2275SOL    HW2 7725   5.455   4.111   2.827
 2276SOL     OW 7726   2.050   1.936   1.030
 2276SOL    HW1 7727   2.048   1.998   0.952
 2276SOL    HW2 7728   2.107   1.974   1.102
 2277SOL     OW 7729   3.921   3.113   3.565
 2277SOL    HW1 7730   3.879   3.200   3.593
 2277SOL    HW2 7731   3.852   3.041   3.571
 2278SOL     OW 7732   0.377   2.822   3.907
 2278SOL    HW1 7733   0.442   2.896   3.889
 2278SOL    HW2 7734   0.399   2.743   3.849
 2279SOL     OW 7735   0.714   5.755   5.367
 2279SOL    HW1 7736   0.764   5.742   5.453
 2279SOL    HW2 7737   0.749   5.836   5.320
 2280SOL     OW 7738   4.338   2.153   5.975
 2280SOL    HW1 7739   4.254   2.106   5.946
 2280SOL    HW2 7740   4.366   2.217   5.904
 2281SOL     OW 7741   5.958   6.785   2.487
 2281SOL    HW1 7742   6.025   6.757   2.418
 2281SOL    HW2 7743   5.966   6.726   2.567
 2282SOL     OW 7744   3.874   6.867   5.611
 2282SOL    HW1 7745   3.813   6.943   5.589
 2282SOL    HW2 7746   3.935   6.851   5.533
 2283SOL     OW 7747   0.160   0.642   3.907
 2283SOL    HW1 7748   0.146   0.739   3.925
 2283SOL    HW2 7749   0.088   0.589   3.951
 2284SOL     OW 7750   1.357   2.637   0.057
 2284SOL    HW1 7751   1.436   2.645   0.118
 2284SOL    HW2 7752   1.277   2.676   0.101
 2285SOL     OW 7753   1.811   4.441   6.469
 2285SOL    HW1 7754   1.780   4.348   6.451
 2285SOL    HW2 7755   1.909   4.441   6.487
 2286SOL     OW 7756   4.886   4.676   3.220
 2286SOL    HW1 7757   4.948   4.601   3.244
 2286SOL    HW2 7758   4.918   4.761   3.264
 2287SOL     OW 7759   1.131   1.351   3.286
 2287SOL    HW1 7760   1.162   1.440   3.252
 2287SOL    HW2 7761   1.108   1.359   3.383
 2288SOL     OW 7762   0.083   5.415   2.659
 2288SOL    HW1 7763   0.030   5.498   2.640
 2288SOL    HW2 7764   0.021   5.337   2.661
 2289SOL     OW 7765   0.236   5.838   0.663
 2289SOL    HW1 7766   0.176   5.849   0.742
 2289SOL    HW2 7767   0.305   5.768   0.684
 2290SOL     OW 7768   0.920   5.460   0.166
 2290SOL    HW1 7769   0.885   5.370   0.138
 2290SOL    HW2 7770   0.863   5.532   0.127
 2291SOL     OW 7771   2.028   1.628   6.859
 2291SOL    HW1 7772   1.944   1.589   6.897
 2291SOL    HW2 7773   2.065   1.697   6.921
 2292SOL     OW 7774   2.187   1.526   4.696
 2292SOL    HW1 7775   2.173   1.625   4.706
 2292SOL    HW2 7776   2.278   1.509   4.659
 2293SOL     OW 7777   5.259   4.369   2.640
 2293SOL    HW1 7778   5.271   4.414   2.729
 2293SOL    HW2 7779   5.238   4.438   2.571
 2294SOL     OW 7780   3.448   6.280   6.781
 2294SOL    HW1 7781   3.444   6.297   6.880
 2294SOL    HW2 7782   3.439   6.366   6.732
 2295SOL     OW 7783   0.628   2.181   1.237
 2295SOL    HW1 7784   0.710   2.220   1.194
 2295SOL    HW2 7785   0.651   2.147   1.328
 2296SOL     OW 7786   3.393   6.661   0.928
 2296SOL    HW1 7787   3.403   6.760   0.919
 2296SOL    HW2 7788   3.299   6.639   0.956
 2297SOL     OW 7789   4.404   6.481   6.425
 2297SOL    HW1 7790   4.432   6.385   6.429
 2297SOL    HW2 7791   4.371   6.504   6.333
 2298SOL     OW 7792   4.197   3.156   6.399
 2298SOL    HW1 7793   4.149   3.078   6.440
 2298SOL    HW2 7794   4.151   3.240   6.426
 2299SOL     OW 7795   4.311   6.569   0.048
 2299SOL    HW1 7796   4.355   6.629   6.998
 2299SOL    HW2 7797   4.212   6.588   0.050
 2300SOL     OW 7798   1.303   4.337   1.484
 2300SOL    HW1 7799   1.394   4.376   1.494
 2300SOL    HW2 7800   1.290   4.263   1.550
 2301SOL     OW 7801   3.977   3.628   1.825
 2301SOL    HW1 7802   3.895   3.666   1.784
 2301SOL    HW2 7803   3.992   3.535   1.791
 2302SOL     OW 7804   2.524   5.966   3.164
 2302SOL    HW1 7805   2.564   6.057   3.176
 2302SOL    HW2 7806   2.578   5.899   3.214
 2303SOL     OW 7807   0.634   3.155   5.034
 2303SOL    HW1 7808   0.692   3.160   4.953
 2303SOL    HW2 7809   0.615   3.247   5.068
 2304SOL     OW 7810   2.313   0.736   3.966
 2304SOL    HW1 7811   2.335   0.802   4.038
 2304SOL    HW2 7812   2.289   0.648   4.007
 2305SOL     OW 7813   3.852   5.320   1.703
 2305SOL    HW1 7814   3.783   5.253   1.676
 2305SOL    HW2 7815   3.908   5.283   1.777
 2306SOL     OW 7816   0.585   3.850   0.600
 2306SOL    HW1 7817   0.683   3.838   0.586
 2306SOL    HW2 7818   0.563   3.831   0.696
 2307SOL     OW 7819   6.986   1.604   3.020
 2307SOL    HW1 7820   6.957   1.661   2.943
 2307SOL    HW2 7821   0.067   1.581   3.009
 2308SOL     OW 7822   0.021   0.149   0.210
 2308SOL    HW1 7823   0.113   0.117   0.189
 2308SOL    HW2 7824   0.021   0.194   0.299
 2309SOL     OW 7825   3.347   5.446   6.157
 2309SOL    HW1 7826   3.396   5.380   6.213
 2309SOL    HW2 7827   3.348   5.416   6.061
 2310SOL     OW 7828   5.822   1.890   2.972
 2310SOL    HW1 7829   5.726   1.886   2.942
 2310SOL    HW2 7830   5.844   1.808   3.024
 2311SOL     OW 7831   2.742   0.189   2.951
 2311SOL    HW1 7832   2.790   0.193   2.864
 2311SOL    HW2 7833   2.669   0.257   2.953
 2312SOL     OW 7834   2.539   1.088   2.532
 2312SOL    HW1 7835   2.612   1.080   2.601
 2312SOL    HW2 7836   2.561   1.162   2.469
 2313SOL     OW 7837   5.501   4.134   1.600
 2313SOL    HW1 7838   5.497   4.175   1.691
 2313SOL    HW2 7839   5.414   4.087   1.581
 2314SOL     OW 7840   6.482   0.044   3.239
 2314SOL    HW1 7841   6.579   0.025   3.250
 2314SOL    HW2 7842   6.435   0.030   3.326
 2315SOL     OW 7843   4.285   5.983   5.437
 2315SOL    HW1 7844   4.199   6.031   5.420
 2315SOL    HW2 7845   4.266   5.887   5.458
 2316SOL     OW 7846   2.816   1.691   6.134
 2316SOL    HW1 7847   2.878   1.666   6.059
 2316SOL    HW2 7848   2.839   1.783   6.166
 2317SOL     OW 7849   6.943   5.649   3.396
 2317SOL    HW1 7850   0.015   5.647   3.347
 2317SOL    HW2 7851   6.958   5.682   3.489
 2318SOL     OW 7852   1.580   4.785   5.232
 2318SOL    HW1 7853   1.597   4.874   5.274
 2318SOL    HW2 7854   1.650   4.720   5.262
 2319SOL     OW 7855   2.427   4.835   3.904
 2319SOL    HW1 7856   2.434   4.738   3.927
 2319SOL    HW2 7857   2.357   4.848   3.834
 2320SOL     OW 7858   1.227   2.440   5.133
 2320SOL    HW1 7859   1.296   2.425   5.203
 2320SOL    HW2 7860   1.143   2.392   5.157
 2321SOL     OW 7861   2.522   4.769   5.856
 2321SOL    HW1 7862   2.557   4.854   5.897
 2321SOL    HW2 7863   2.587   4.737   5.788
 2322SOL     OW 7864   1.455   3.990   1.516
 2322SOL    HW1 7865   1.427   3.898   1.544
 2322SOL    HW2 7866   1.528   4.022   1.576
 2323SOL     OW 7867   2.234   5.174   1.716
 2323SOL    HW1 7868   2.319   5.225   1.727
 2323SOL    HW2 7869   2.251   5.092   1.661
 2324SOL     OW 7870   6.894   5.244   2.431
 2324SOL    HW1 7871   6.832   5.312   2.470
 2324SOL    HW2 7872   6.864   5.220   2.339
 2325SOL     OW 7873   0.003   5.035   1.741
 2325SOL    HW1 7874   6.947   5.018   1.673
 2325SOL    HW2 7875   0.043   5.125   1.725
 2326SOL     OW 7876   1.725   0.708   6.875
 2326SOL    HW1 7877   1.730   0.807   6.887
 2326SOL    HW2 7878   1.743   0.663   6.963
 2327SOL     OW 7879   0.461   0.394   2.389
 2327SOL    HW1 7880   0.558   0.372   2.401
 2327SOL    HW2 7881   0.406   0.336   2.449
 2328SOL     OW 7882   2.309   2.809   2.819
 2328SOL    HW1 7883   2.274   2.724   2.857
 2328SOL    HW2 7884   2.392   2.836   2.869
 2329SOL     OW 7885   0.320   4.937   3.125
 2329SOL    HW1 7886   0.233   4.922   3.079
 2329SOL    HW2 7887   0.334   5.035   3.139
 2330SOL     OW 7888   6.476   2.703   0.285
 2330SOL    HW1 7889   6.487   2.762   0.365
 2330SOL    HW2 7890   6.511   2.751   0.204
 2331SOL     OW 7891   4.120   6.234   0.811
 2331SOL    HW1 7892   4.173   6.149   0.809
 2331SOL    HW2 7893   4.044   6.224   0.876
 2332SOL     OW 7894   5.557   6.756   5.774
 2332SOL    HW1 7895   5.648   6.798   5.780
 2332SOL    HW2 7896   5.491   6.814   5.822
 2333SOL     OW 7897   0.157   4.452   2.412
 2333SOL    HW1 7898   0.184   4.356   2.402
 2333SOL    HW2 7899   0.094   4.461   2.490
 2334SOL     OW 7900   2.907   1.335   6.504
 2334SOL    HW1 7901   2.857   1.415   6.472
 2334SOL    HW2 7902   2.847   1.255   6.502
 2335SOL     OW 7903   6.325   1.331   3.323
 2335SOL    HW1 7904   6.234   1.354   3.359
 2335SOL    HW2 7905   6.385   1.410   3.334
 2336SOL     OW 7906   1.971   2.088   2.750
 2336SOL    HW1 7907   1.955   2.184   2.725
 2336SOL    HW2 7908   2.069   2.068   2.744
 2337SOL     OW 7909   4.698   1.596   1.234
 2337SOL    HW1 7910   4.670   1.639   1.320
 2337SOL    HW2 7911   4.631   1.527   1.207
 2338SOL     OW 7912   6.746   3.915   3.918
 2338SOL    HW1 7913   6.691   3.917   3.834
 2338SOL    HW2 7914   6.693   3.952   3.994
 2339SOL     OW 7915   3.782   2.932   2.841
 2339SOL    HW1 7916   3.805   2.935   2.743
 2339SOL    HW2 7917   3.864   2.950   2.895
 2340SOL     OW 7918   2.010   5.420   6.446
 2340SOL    HW1 7919   1.946   5.424   6.522
 2340SOL    HW2 7920   1.980   5.351   6.380
 2341SOL     OW 7921   2.383   4.375   3.418
 2341SOL    HW1 7922   2.411   4.462   3.378
 2341SOL    HW2 7923   2.431   4.361   3.505
 2342SOL     OW 7924   3.125   6.926   4.029
 2342SOL    HW1 7925   3.169   7.012   4.054
 2342SOL    HW2 7926   3.050   6.907   4.091
 2343SOL     OW 7927   1.205   0.012   1.859
 2343SOL    HW1 7928   1.292   0.041   1.898
 2343SOL    HW2 7929   1.158   0.091   1.821
 2344SOL     OW 7930   5.590   3.905   0.911
 2344SOL    HW1 7931   5.578   3.931   1.006
 2344SOL    HW2 7932   5.553   3.976   0.851
 2345SOL     OW 7933   2.907   5.674   4.740
 2345SOL    HW1 7934   2.866   5.617   4.812
 2345SOL    HW2 7935   2.987   5.627   4.702
 2346SOL     OW 7936   3.976   4.113   6.618
 2346SOL    HW1 7937   3.961   4.199   6.570
 2346SOL    HW2 7938   4.056   4.121   6.676
 2347SOL     OW 7939   1.086   2.232   2.069
 2347SOL    HW1 7940   1.179   2.269   2.072
 2347SOL    HW2 7941   1.025   2.300   2.029
 2348SOL     OW 7942   6.878   4.947   2.764
 2348SOL    HW1 7943   6.793   4.907   2.732
 2348SOL    HW2 7944   6.945   4.947   2.690
 2349SOL     OW 7945   0.601   4.402   6.231
 2349SOL    HW1 7946   0.649   4.485   6.203
 2349SOL    HW2 7947   0.551   4.365   6.153
 2350SOL     OW 7948   5.669   3.640   6.907
 2350SOL    HW1 7949   5.727   3.660   6.986
 2350SOL    HW2 7950   5.610   3.563   6.928
 2351SOL     OW 7951   2.973   5.211   2.893
 2351SOL    HW1 7952   2.948   5.122   2.932
 2351SOL    HW2 7953   3.071   5.213   2.873
 2352SOL     OW 7954   0.054   2.687   3.677
 2352SOL    HW1 7955   0.123   2.753   3.706
 2352SOL    HW2 7956   0.098   2.600   3.656
 2353SOL     OW 7957   3.484   5.811   4.863
 2353SOL    HW1 7958   3.546   5.735   4.843
 2353SOL    HW2 7959   3.471   5.867   4.781
 2354SOL     OW 7960   2.123   1.968   3.733
 2354SOL    HW1 7961   2.172   1.970   3.646
 2354SOL    HW2 7962   2.115   2.061   3.769
 2355SOL     OW 7963   2.557   5.994   5.211
 2355SOL    HW1 7964   2.503   6.072   5.181
 2355SOL    HW2 7965   2.498   5.913   5.219
 2356SOL     OW 7966   0.026   3.403   0.107
 2356SOL    HW1 7967   0.004   3.490   0.151
 2356SOL    HW2 7968   0.105   3.416   0.046
 2357SOL     OW 7969   2.421   6.598   2.476
 2357SOL    HW1 7970   2.385   6.547   2.554
 2357SOL    HW2 7971   2.414   6.696   2.493
 2358SOL     OW 7972   3.508   4.739   6.600
 2358SOL    HW1 7973   3.489   4.831   6.634
 2358SOL    HW2 7974   3.483   4.671   6.669
 2359SOL     OW 7975   1.545   0.060   4.516
 2359SOL    HW1 7976   1.599   0.012   4.586
 2359SOL    HW2 7977   1.557   0.159   4.527
 2360SOL     OW 7978   6.358   3.616   0.320
 2360SOL    HW1 7979   6.423   3.691   0.313
 2360SOL    HW2 7980   6.271   3.650   0.356
 2361SOL     OW 7981   3.309   1.125   6.529
 2361SOL    HW1 7982   3.393   1.085   6.566
 2361SOL    HW2 7983   3.319   1.225   6.526
 2362SOL     OW 7984   3.796   5.446   3.422
 2362SOL    HW1 7985   3.873   5.495   3.382
 2362SOL    HW2 7986   3.799   5.350   3.395
 2363SOL     OW 7987   3.852   1.258   4.540
 2363SOL    HW1 7988   3.839   1.162   4.564
 2363SOL    HW2 7989   3.916   1.300   4.604
 2364SOL     OW 7990   1.048   2.613   1.109
 2364SOL    HW1 7991   1.033   2.515   1.096
 2364SOL    HW2 7992   1.087   2.652   1.026
 2365SOL     OW 7993   5.370   2.090   6.591
 2365SOL    HW1 7994   5.327   2.001   6.574
 2365SOL    HW2 7995   5.450   2.078   6.650
 2366SOL     OW 7996   3.760   5.292   0.624
 2366SOL    HW1 7997   3.835   5.347   0.587
 2366SOL    HW2 7998   3.792   5.200   0.644
 2367SOL     OW 7999   2.619   3.121   6.681
 2367SOL    HW1 8000   2.555   3.119   6.757
 2367SOL    HW2 8001   2.644   3.028   6.656
 2368SOL     OW 8002   6.567   5.889   2.800
 2368SOL    HW1 8003   6.543   5.816   2.736
 2368SOL    HW2 8004   6.659   5.923   2.780
 2369SOL     OW 8005   2.151   0.800   3.268
 2369SOL    HW1 8006   2.163   0.739   3.346
 2369SOL    HW2 8007   2.104   0.883   3.298
 2370SOL     OW 8008   5.610   2.057   6.732
 2370SOL    HW1 8009   5.624   2.058   6.831
 2370SOL    HW2 8010   5.677   2.117   6.688
 2371SOL     OW 8011   2.542   6.459   1.705
 2371SOL    HW1 8012   2.533   6.484   1.609
 2371SOL    HW2 8013   2.582   6.535   1.756
 2372SOL     OW 8014   6.659   3.602   2.644
 2372SOL    HW1 8015   6.640   3.683   2.589
 2372SOL    HW2 8016   6.604   3.605   2.728
 2373SOL     OW 8017   2.244   3.259   6.292
 2373SOL    HW1 8018   2.188   3.223   6.217
 2373SOL    HW2 8019   2.217   3.216   6.378
 2374SOL     OW 8020   6.280   2.664   4.840
 2374SOL    HW1 8021   6.248   2.758   4.825
 2374SOL    HW2 8022   6.346   2.664   4.915
 2375SOL     OW 8023   3.178   6.006   5.115
 2375SOL    HW1 8024   3.253   6.061   5.079
 2375SOL    HW2 8025   3.122   5.971   5.040
 2376SOL     OW 8026   6.326   3.204   4.775
 2376SOL    HW1 8027   6.373   3.266   4.837
 2376SOL    HW2 8028   6.384   3.125   4.757
 2377SOL     OW 8029   3.440   3.685   3.998
 2377SOL    HW1 8030   3.485   3.704   3.911
 2377SOL    HW2 8031   3.483   3.606   4.041
 2378SOL     OW 8032   5.307   2.249   6.889
 2378SOL    HW1 8033   5.405   2.234   6.873
 2378SOL    HW2 8034   5.276   2.328   6.836
 2379SOL     OW 8035   6.501   7.014   0.583
 2379SOL    HW1 8036   6.428   6.960   0.541
 2379SOL    HW2 8037   6.563   0.031   0.511
 2380SOL     OW 8038   5.970   1.871   1.897
 2380SOL    HW1 8039   6.006   1.864   1.804
 2380SOL    HW2 8040   6.045   1.878   1.962
 2381SOL     OW 8041   1.496   6.502   3.499
 2381SOL    HW1 8042   1.567   6.466   3.559
 2381SOL    HW2 8043   1.510   6.466   3.406
 2382SOL     OW 8044   2.051   3.349   4.970
 2382SOL    HW1 8045   2.099   3.265   4.943
 2382SOL    HW2 8046   2.005   3.335   5.057
 2383SOL     OW 8047   6.085   6.016   1.083
 2383SOL    HW1 8048   6.163   6.065   1.044
 2383SOL    HW2 8049   6.002   6.040   1.032
 2384SOL     OW 8050   4.453   1.581   1.663
 2384SOL    HW1 8051   4.546   1.596   1.697
 2384SOL    HW2 8052   4.388   1.604   1.736
 2385SOL     OW 8053   0.728   2.053   6.018
 2385SOL    HW1 8054   0.644   2.037   6.069
 2385SOL    HW2 8055   0.733   2.149   5.990
 2386SOL     OW 8056   4.853   5.666   4.199
 2386SOL    HW1 8057   4.913   5.699   4.126
 2386SOL    HW2 8058   4.864   5.724   4.280
 2387SOL     OW 8059   1.801   1.781   3.431
 2387SOL    HW1 8060   1.743   1.703   3.408
 2387SOL    HW2 8061   1.815   1.784   3.530
 2388SOL     OW 8062   6.284   2.124   4.382
 2388SOL    HW1 8063   6.270   2.200   4.446
 2388SOL    HW2 8064   6.359   2.067   4.415
 2389SOL     OW 8065   4.074   5.312   3.091
 2389SOL    HW1 8066   4.156   5.325   3.036
 2389SOL    HW2 8067   4.073   5.377   3.166
 2390SOL     OW 8068   3.397   4.173   1.722
 2390SOL    HW1 8069   3.396   4.108   1.646
 2390SOL    HW2 8070   3.392   4.123   1.809
 2391SOL     OW 8071   4.082   5.088   5.535
 2391SOL    HW1 8072   4.115   4.994   5.525
 2391SOL    HW2 8073   4.158   5.147   5.562
 2392SOL     OW 8074   3.691   1.147   6.501
 2392SOL    HW1 8075   3.645   1.162   6.414
 2392SOL    HW2 8076   3.730   1.233   6.534
 2393SOL     OW 8077   4.062   4.847   5.861
 2393SOL    HW1 8078   4.157   4.843   5.830
 2393SOL    HW2 8079   4.028   4.940   5.852
 2394SOL     OW 8080   0.794   4.093   4.862
 2394SOL    HW1 8081   0.716   4.036   4.836
 2394SOL    HW2 8082   0.763   4.187   4.875
 2395SOL     OW 8083   4.223   0.223   6.078
 2395SOL    HW1 8084   4.276   0.139   6.091
 2395SOL    HW2 8085   4.179   0.222   5.988
 2396SOL     OW 8086   4.199   4.376   0.701
 2396SOL    HW1 8087   4.181   4.472   0.677
 2396SOL    HW2 8088   4.169   4.317   0.626
 2397SOL     OW 8089   0.154   3.669   4.619
 2397SOL    HW1 8090   0.124   3.680   4.714
 2397SOL    HW2 8091   0.254   3.658   4.617
 2398SOL     OW 8092   4.011   4.633   5.699
 2398SOL    HW1 8093   3.919   4.595   5.707
 2398SOL    HW2 8094   4.027   4.698   5.773
 2399SOL     OW 8095   4.232   1.891   1.645
 2399SOL    HW1 8096   4.165   1.818   1.655
 2399SOL    HW2 8097   4.271   1.913   1.734
 2400SOL     OW 8098   2.583   5.545   1.609
 2400SOL    HW1 8099   2.579   5.643   1.627
 2400SOL    HW2 8100   2.648   5.527   1.535
 2401SOL     OW 8101   6.684   6.174   5.925
 2401SOL    HW1 8102   6.621   6.177   6.003
 2401SOL    HW2 8103   6.673   6.255   5.869
 2402SOL     OW 8104   7.013   6.386   4.617
 2402SOL    HW1 8105   0.056   6.455   4.573
 2402SOL    HW2 8106   0.030   6.295   4.593
 2403SOL     OW 8107   0.673   1.579   5.437
 2403SOL    HW1 8108   0.652   1.676   5.424
 2403SOL    HW2 8109   0.767   1.569   5.469
 2404SOL     OW 8110   1.049   0.163   0.338
 2404SOL    HW1 8111   1.134   0.160   0.285
 2404SOL    HW2 8112   1.032   0.073   0.379
 2405SOL     OW 8113   2.757   3.878   1.686
 2405SOL    HW1 8114   2.793   3.864   1.594
 2405SOL    HW2 8115   2.774   3.797   1.741
 2406SOL     OW 8116   4.751   1.060   1.064
 2406SOL    HW1 8117   4.837   1.035   1.019
 2406SOL    HW2 8118   4.712   1.141   1.020
 2407SOL     OW 8119   5.570   0.798   3.716
 2407SOL    HW1 8120   5.506   0.776   3.791
 2407SOL    HW2 8121   5.664   0.784   3.747
 2408SOL     OW 8122   4.513   4.461   2.235
 2408SOL    HW1 8123   4.461   4.544   2.259
 2408SOL    HW2 8124   4.489   4.432   2.143
 2409SOL     OW 8125   1.518   4.238   0.346
 2409SOL    HW1 8126   1.426   4.275   0.335
 2409SOL    HW2 8127   1.516   4.139   0.338
 2410SOL     OW 8128   3.890   2.973   2.577
 2410SOL    HW1 8129   3.802   2.937   2.546
 2410SOL    HW2 8130   3.948   2.993   2.499
 2411SOL     OW 8131   5.120   0.053   4.403
 2411SOL    HW1 8132   5.140   0.081   4.309
 2411SOL    HW2 8133   5.025   0.024   4.409
 2412SOL     OW 8134   4.227   3.290   0.918
 2412SOL    HW1 8135   4.294   3.317   0.987
 2412SOL    HW2 8136   4.226   3.356   0.843
 2413SOL     OW 8137   4.710   0.027   2.460
 2413SOL    HW1 8138   4.743   0.054   2.369
 2413SOL    HW2 8139   4.788   0.003   2.517
 2414SOL     OW 8140   5.460   3.433   4.229
 2414SOL    HW1 8141   5.411   3.396   4.307
 2414SOL    HW2 8142   5.493   3.525   4.249
 2415SOL     OW 8143   4.357   1.177   3.695
 2415SOL    HW1 8144   4.440   1.232   3.705
 2415SOL    HW2 8145   4.368   1.112   3.620
 2416SOL     OW 8146   4.735   1.847   5.908
 2416SOL    HW1 8147   4.835   1.849   5.904
 2416SOL    HW2 8148   4.703   1.921   5.968
 2417SOL     OW 8149   3.028   3.927   3.868
 2417SOL    HW1 8150   2.949   3.988   3.879
 2417SOL    HW2 8151   3.011   3.842   3.916
 2418SOL     OW 8152   3.516   2.914   3.390
 2418SOL    HW1 8153   3.433   2.968   3.378
 2418SOL    HW2 8154   3.521   2.845   3.318
 2419SOL     OW 8155   7.013   0.288   2.780
 2419SOL    HW1 8156   7.013   0.191   2.803
 2419SOL    HW2 8157   0.053   0.338   2.846
 2420SOL     OW 8158   2.404   0.086   1.918
 2420SOL    HW1 8159   2.481   0.147   1.897
 2420SOL    HW2 8160   2.430   7.007   1.897
 2421SOL     OW 8161   3.311   2.142   3.439
 2421SOL    HW1 8162   3.272   2.233   3.438
 2421SOL    HW2 8163   3.403   2.145   3.398
 2422SOL     OW 8164   4.466   1.259   0.918
 2422SOL    HW1 8165   4.552   1.230   0.876
 2422SOL    HW2 8166   4.448   1.355   0.895
 2423SOL     OW 8167   2.271   5.009   2.255
 2423SOL    HW1 8168   2.256   5.006   2.156
 2423SOL    HW2 8169   2.349   5.068   2.275
 2424SOL     OW 8170   6.080   0.525   1.190
 2424SOL    HW1 8171   6.001   0.565   1.145
 2424SOL    HW2 8172   6.155   0.592   1.191
 2425SOL     OW 8173   6.766   6.693   4.470
 2425SOL    HW1 8174   6.820   6.710   4.388
 2425SOL    HW2 8175   6.681   6.746   4.465
 2426SOL     OW 8176   2.818   5.145   4.154
 2426SOL    HW1 8177   2.844   5.049   4.144
 2426SOL    HW2 8178   2.868   5.201   4.088
 2427SOL     OW 8179   5.985   6.833   5.551
 2427SOL    HW1 8180   6.045   6.901   5.594
 2427SOL    HW2 8181   6.040   6.755   5.521
 2428SOL     OW 8182   6.317   0.347   0.475
 2428SOL    HW1 8183   6.366   0.300   0.548
 2428SOL    HW2 8184   6.380   0.363   0.398
 2429SOL     OW 8185   5.162   5.431   2.088
 2429SOL    HW1 8186   5.126   5.467   2.002
 2429SOL    HW2 8187   5.261   5.437   2.088
 2430SOL     OW 8188   5.447   0.768   2.770
 2430SOL    HW1 8189   5.357   0.785   2.729
 2430SOL    HW2 8190   5.448   0.678   2.812
 2431SOL     OW 8191   4.432   0.236   2.218
 2431SOL    HW1 8192   4.379   0.222   2.301
 2431SOL    HW2 8193   4.523   0.196   2.229
 2432SOL     OW 8194   2.216   6.225   2.646
 2432SOL    HW1 8195   2.197   6.224   2.548
 2432SOL    HW2 8196   2.309   6.191   2.662
 2433SOL     OW 8197   3.845   0.428   0.943
 2433SOL    HW1 8198   3.829   0.348   0.887
 2433SOL    HW2 8199   3.886   0.501   0.887
 2434SOL     OW 8200   3.758   3.653   5.293
 2434SOL    HW1 8201   3.668   3.687   5.263
 2434SOL    HW2 8202   3.750   3.615   5.385
 2435SOL     OW 8203   6.056   6.039   5.453
 2435SOL    HW1 8204   6.099   5.988   5.378
 2435SOL    HW2 8205   6.095   6.007   5.540
 2436SOL     OW 8206   2.902   5.275   0.801
 2436SOL    HW1 8207   2.807   5.305   0.789
 2436SOL    HW2 8208   2.915   5.240   0.893
 2437SOL     OW 8209   6.559   0.218   5.807
 2437SOL    HW1 8210   6.490   0.148   5.823
 2437SOL    HW2 8211   6.521   0.308   5.828
 2438SOL     OW 8212   2.698   2.858   1.314
 2438SOL    HW1 8213   2.701   2.948   1.269
 2438SOL    HW2 8214   2.622   2.856   1.379
 2439SOL     OW 8215   5.631   4.132   5.592
 2439SOL    HW1 8216   5.695   4.061   5.621
 2439SOL    HW2 8217   5.564   4.093   5.529
 2440SOL     OW 8218   6.008   4.845   5.824
 2440SOL    HW1 8219   5.962   4.877   5.907
 2440SOL    HW2 8220   6.106   4.839   5.841
 2441SOL     OW 8221   6.326   2.054   0.558
 2441SOL    HW1 8222   6.351   1.990   0.631
 2441SOL    HW2 8223   6.366   2.144   0.578
 2442SOL     OW 8224   6.793   2.729   5.601
 2442SOL    HW1 8225   6.860   2.789   5.645
 2442SOL    HW2 8226   6.820   2.634   5.617
 2443SOL     OW 8227   2.577   5.104   5.302
 2443SOL    HW1 8228   2.622   5.092   5.214
 2443SOL    HW2 8229   2.643   5.139   5.369
 2444SOL     OW 8230   3.606   2.950   5.328
 2444SOL    HW1 8231   3.521   2.915   5.290
 2444SOL    HW2 8232   3.600   2.954   5.427
 2445SOL     OW 8233   0.361   0.035   0.509
 2445SOL    HW1 8234   0.367   0.134   0.503
 2445SOL    HW2 8235   0.374   0.006   0.603
 2446SOL     OW 8236   5.330   3.334   6.326
 2446SOL    HW1 8237   5.390   3.325   6.246
 2446SOL    HW2 8238   5.332   3.428   6.359
 2447SOL     OW 8239   0.832   2.796   6.778
 2447SOL    HW1 8240   0.740   2.832   6.761
 2447SOL    HW2 8241   0.836   2.700   6.749
 2448SOL     OW 8242   0.312   0.495   4.430
 2448SOL    HW1 8243   0.251   0.549   4.487
 2448SOL    HW2 8244   0.289   0.398   4.439
 2449SOL     OW 8245   0.712   3.154   4.597
 2449SOL    HW1 8246   0.706   3.055   4.579
 2449SOL    HW2 8247   0.633   3.200   4.557
 2450SOL     OW 8248   1.809   3.155   1.681
 2450SOL    HW1 8249   1.881   3.179   1.745
 2450SOL    HW2 8250   1.821   3.206   1.596
 2451SOL     OW 8251   2.548   6.625   4.497
 2451SOL    HW1 8252   2.606   6.609   4.418
 2451SOL    HW2 8253   2.519   6.721   4.498
 2452SOL     OW 8254   2.345   2.262   4.233
 2452SOL    HW1 8255   2.272   2.251   4.301
 2452SOL    HW2 8256   2.404   2.339   4.260
 2453SOL     OW 8257   0.473   3.342   1.730
 2453SOL    HW1 8258   0.481   3.246   1.755
 2453SOL    HW2 8259   0.447   3.349   1.633
 2454SOL     OW 8260   2.472   0.121   1.571
 2454SOL    HW1 8261   2.537   0.047   1.585
 2454SOL    HW2 8262   2.435   0.116   1.478
 2455SOL     OW 8263   5.211   3.384   1.409
 2455SOL    HW1 8264   5.156   3.339   1.340
 2455SOL    HW2 8265   5.197   3.340   1.498
 2456SOL     OW 8266   2.982   6.888   1.176
 2456SOL    HW1 8267   2.936   6.815   1.124
 2456SOL    HW2 8268   3.032   6.947   1.113
 2457SOL     OW 8269   5.848   5.792   1.277
 2457SOL    HW1 8270   5.873   5.879   1.321
 2457SOL    HW2 8271   5.767   5.755   1.323
 2458SOL     OW 8272   0.453   5.901   2.547
 2458SOL    HW1 8273   0.453   5.815   2.496
 2458SOL    HW2 8274   0.509   5.890   2.629
 2459SOL     OW 8275   0.729   1.333   0.318
 2459SOL    HW1 8276   0.795   1.399   0.281
 2459SOL    HW2 8277   0.638   1.355   0.284
 2460SOL     OW 8278   2.942   4.917   1.423
 2460SOL    HW1 8279   2.883   4.993   1.452
 2460SOL    HW2 8280   3.032   4.928   1.465
 2461SOL     OW 8281   4.778   1.289   3.196
 2461SOL    HW1 8282   4.844   1.326   3.261
 2461SOL    HW2 8283   4.750   1.362   3.133
 2462SOL     OW 8284   2.712   3.743   6.170
 2462SOL    HW1 8285   2.644   3.697   6.226
 2462SOL    HW2 8286   2.699   3.842   6.174
 2463SOL     OW 8287   0.741   2.496   5.121
 2463SOL    HW1 8288   0.721   2.551   5.039
 2463SOL    HW2 8289   0.813   2.541   5.174
 2464SOL     OW 8290   1.520   3.835   0.745
 2464SOL    HW1 8291   1.514   3.851   0.843
 2464SOL    HW2 8292   1.450   3.769   0.717
 2465SOL     OW 8293   5.853   5.273   2.262
 2465SOL    HW1 8294   5.856   5.191   2.320
 2465SOL    HW2 8295   5.816   5.350   2.314
 2466SOL     OW 8296   3.761   1.501   1.722
 2466SOL    HW1 8297   3.736   1.587   1.677
 2466SOL    HW2 8298   3.681   1.463   1.768
 2467SOL     OW 8299   0.199   1.284   4.998
 2467SOL    HW1 8300   0.247   1.196   5.006
 2467SOL    HW2 8301   0.185   1.305   4.901
 2468SOL     OW 8302   6.523   4.587   0.272
 2468SOL    HW1 8303   6.469   4.671   0.270
 2468SOL    HW2 8304   6.579   4.586   0.355
 2469SOL     OW 8305   3.131   3.005   5.935
 2469SOL    HW1 8306   3.079   3.033   6.016
 2469SOL    HW2 8307   3.192   3.079   5.907
 2470SOL     OW 8308   5.540   2.509   0.930
 2470SOL    HW1 8309   5.560   2.490   1.026
 2470SOL    HW2 8310   5.487   2.593   0.923
 2471SOL     OW 8311   0.279   1.138   3.139
 2471SOL    HW1 8312   0.324   1.154   3.051
 2471SOL    HW2 8313   0.315   1.055   3.181
 2472SOL     OW 8314   5.686   1.287   3.774
 2472SOL    HW1 8315   5.586   1.293   3.772
 2472SOL    HW2 8316   5.717   1.219   3.708
 2473SOL     OW 8317   0.402   6.258   5.267
 2473SOL    HW1 8318   0.370   6.175   5.221
 2473SOL    HW2 8319   0.428   6.235   5.361
 2474SOL     OW 8320   6.213   6.797   4.228
 2474SOL    HW1 8321   6.187   6.722   4.289
 2474SOL    HW2 8322   6.133   6.829   4.178
 2475SOL     OW 8323   4.249   2.276   6.211
 2475SOL    HW1 8324   4.188   2.353   6.194
 2475SOL    HW2 8325   4.270   2.229   6.125
 2476SOL     OW 8326   0.331   1.237   3.591
 2476SOL    HW1 8327   0.357   1.308   3.526
 2476SOL    HW2 8328   0.253   1.185   3.555
 2477SOL     OW 8329   4.549   5.106   2.086
 2477SOL    HW1 8330   4.572   5.070   2.177
 2477SOL    HW2 8331   4.602   5.057   2.017
 2478SOL     OW 8332   0.151   0.013   2.711
 2478SOL    HW1 8333   0.185   6.971   2.786
 2478SOL    HW2 8334   0.186   6.994   2.624
 2479SOL     OW 8335   0.612   2.062   6.879
 2479SOL    HW1 8336   0.554   2.138   6.908
 2479SOL    HW2 8337   0.667   2.030   6.956
 2480SOL     OW 8338   0.106   5.277   1.740
 2480SOL    HW1 8339   0.124   5.329   1.824
 2480SOL    HW2 8340   0.075   5.339   1.668
 2481SOL     OW 8341   3.943   5.158   2.204
 2481SOL    HW1 8342   3.910   5.251   2.217
 2481SOL    HW2 8343   3.873   5.093   2.234
 2482SOL     OW 8344   5.156   2.577   4.638
 2482SOL    HW1 8345   5.117   2.491   4.605
 2482SOL    HW2 8346   5.176   2.569   4.736
 2483SOL     OW 8347   0.603   2.664   6.978
 2483SOL    HW1 8348   0.658   2.743   6.953
 2483SOL    HW2 8349   0.545   2.638   6.900
 2484SOL     OW 8350   3.931   4.236   6.003
 2484SOL    HW1 8351   4.019   4.261   6.043
 2484SOL    HW2 8352   3.873   4.195   6.073
 2485SOL     OW 8353   0.347   6.097   0.004
 2485SOL    HW1 8354   0.274   6.158   0.032
 2485SOL    HW2 8355   0.350   6.018   0.065
 2486SOL     OW 8356   0.669   4.957   3.718
 2486SOL    HW1 8357   0.767   4.941   3.722
 2486SOL    HW2 8358   0.638   5.000   3.803
 2487SOL     OW 8359   3.594   1.688   1.577
 2487SOL    HW1 8360   3.568   1.780   1.606
 2487SOL    HW2 8361   3.540   1.662   1.497
 2488SOL     OW 8362   2.838   6.080   6.441
 2488SOL    HW1 8363   2.912   6.145   6.460
 2488SOL    HW2 8364   2.873   6.002   6.389
 2489SOL     OW 8365   0.174   6.248   3.959
 2489SOL    HW1 8366   0.106   6.232   3.887
 2489SOL    HW2 8367   0.189   6.163   4.010
 2490SOL     OW 8368   5.545   2.988   1.691
 2490SOL    HW1 8369   5.551   2.979   1.790
 2490SOL    HW2 8370   5.499   2.907   1.653
 2491SOL     OW 8371   0.122   4.173   2.668
 2491SOL    HW1 8372   0.182   4.225   2.730
 2491SOL    HW2 8373   0.178   4.120   2.604
 2492SOL     OW 8374   3.821   1.233   6.143
 2492SOL    HW1 8375   3.851   1.145   6.106
 2492SOL    HW2 8376   3.848   1.307   6.081
 2493SOL     OW 8377   0.127   0.957   4.766
 2493SOL    HW1 8378   0.099   1.052   4.752
 2493SOL    HW2 8379   0.224   0.948   4.745
 2494SOL     OW 8380   4.313   5.138   0.764
 2494SOL    HW1 8381   4.299   5.158   0.667
 2494SOL    HW2 8382   4.406   5.105   0.778
 2495SOL     OW 8383   0.020   0.908   2.670
 2495SOL    HW1 8384   6.939   0.894   2.649
 2495SOL    HW2 8385   0.072   0.825   2.644
 2496SOL     OW 8386   1.395   5.462   0.138
 2496SOL    HW1 8387   1.464   5.495   0.074
 2496SOL    HW2 8388   1.318   5.526   0.139
 2497SOL     OW 8389   5.669   0.395   6.974
 2497SOL    HW1 8390   5.615   0.320   7.012
 2497SOL    HW2 8391   5.653   0.478   0.013
 2498SOL     OW 8392   1.159   3.347   4.794
 2498SOL    HW1 8393   1.178   3.252   4.819
 2498SOL    HW2 8394   1.150   3.403   4.876
 2499SOL     OW 8395   5.106   0.920   0.188
 2499SOL    HW1 8396   5.086   0.914   0.090
 2499SOL    HW2 8397   5.112   0.827   0.225
 2500SOL     OW 8398   4.169   3.985   6.435
 2500SOL    HW1 8399   4.078   4.015   6.462
 2500SOL    HW2 8400   4.184   3.891   6.468
 2501SOL     OW 8401   6.493   5.123   0.898
 2501SOL    HW1 8402   6.530   5.215   0.881
 2501SOL    HW2 8403   6.423   5.129   0.969
 2502SOL     OW 8404   0.399   0.227   3.728
 2502SOL    HW1 8405   0.478   0.185   3.772
 2502SOL    HW2 8406   0.407   0.326   3.732
 2503SOL     OW 8407   5.506   6.906   4.106
 2503SOL    HW1 8408   5.516   6.812   4.140
 2503SOL    HW2 8409   5.414   6.938   4.125
 2504SOL     OW 8410   1.953   4.440   3.220
 2504SOL    HW1 8411   2.006   4.509   3.170
 2504SOL    HW2 8412   1.913   4.375   3.155
 2505SOL     OW 8413   5.129   4.447   4.940
 2505SOL    HW1 8414   5.085   4.359   4.961
 2505SOL    HW2 8415   5.150   4.450   4.842
 2506SOL     OW 8416   0.288   0.873   0.579
 2506SOL    HW1 8417   0.251   0.850   0.669
 2506SOL    HW2 8418   0.357   0.945   0.588
 2507SOL     OW 8419   6.092   6.583   0.078
 2507SOL    HW1 8420   6.043   6.670   0.077
 2507SOL    HW2 8421   6.125   6.562   7.002
 2508SOL     OW 8422   1.782   2.278   1.614
 2508SOL    HW1 8423   1.715   2.339   1.571
 2508SOL    HW2 8424   1.875   2.308   1.590
 2509SOL     OW 8425   5.870   1.190   3.448
 2509SOL    HW1 8426   5.816   1.123   3.398
 2509SOL    HW2 8427   5.834   1.282   3.432
 2510SOL     OW 8428   3.888   5.906   2.479
 2510SOL    HW1 8429   3.848   5.861   2.400
 2510SOL    HW2 8430   3.952   5.977   2.449
 2511SOL     OW 8431   0.997   6.875   3.336
 2511SOL    HW1 8432   1.024   6.781   3.354
 2511SOL    HW2 8433   0.899   6.885   3.352
 2512SOL     OW 8434   5.763   3.812   4.276
 2512SOL    HW1 8435   5.729   3.845   4.364
 2512SOL    HW2 8436   5.847   3.761   4.290
 2513SOL     OW 8437   7.009   4.377   0.937
 2513SOL    HW1 8438   0.003   4.420   0.848
 2513SOL    HW2 8439   6.917   4.395   0.973
 2514SOL     OW 8440   0.182   2.437   3.667
 2514SOL    HW1 8441   0.133   2.351   3.683
 2514SOL    HW2 8442   0.250   2.424   3.595
 2515SOL     OW 8443   1.232   4.535   6.989
 2515SOL    HW1 8444   1.293   4.536   6.910
 2515SOL    HW2 8445   1.286   4.547   0.057
 2516SOL     OW 8446   5.488   6.593   3.816
 2516SOL    HW1 8447   5.467   6.690   3.807
 2516SOL    HW2 8448   5.418   6.539   3.771
 2517SOL     OW 8449   1.795   5.654   0.981
 2517SOL    HW1 8450   1.795   5.569   0.929
 2517SOL    HW2 8451   1.784   5.731   0.919
 2518SOL     OW 8452   2.266   2.935   6.851
 2518SOL    HW1 8453   2.193   2.936   6.782
 2518SOL    HW2 8454   2.237   2.880   6.929
 2519SOL     OW 8455   5.828   3.848   5.007
 2519SOL    HW1 8456   5.926   3.863   5.021
 2519SOL    HW2 8457   5.783   3.935   4.988
 2520SOL     OW 8458   3.383   5.661   2.196
 2520SOL    HW1 8459   3.387   5.561   2.203
 2520SOL    HW2 8460   3.377   5.701   2.287
 2521SOL     OW 8461   5.498   6.516   5.908
 2521SOL    HW1 8462   5.403   6.532   5.935
 2521SOL    HW2 8463   5.529   6.591   5.849
 2522SOL     OW 8464   2.332   4.953   4.594
 2522SOL    HW1 8465   2.268   4.928   4.666
 2522SOL    HW2 8466   2.281   4.979   4.512
 2523SOL     OW 8467   1.062   2.246   5.299
 2523SOL    HW1 8468   1.074   2.318   5.368
 2523SOL    HW2 8469   1.111   2.164   5.329
 2524SOL     OW 8470   1.809   6.779   4.245
 2524SOL    HW1 8471   1.852   6.689   4.253
 2524SOL    HW2 8472   1.835   6.821   4.158
 2525SOL     OW 8473   2.677   4.618   2.559
 2525SOL    HW1 8474   2.743   4.670   2.506
 2525SOL    HW2 8475   2.596   4.599   2.503
 2526SOL     OW 8476   1.780   2.446   4.482
 2526SOL    HW1 8477   1.833   2.437   4.566
 2526SOL    HW2 8478   1.761   2.543   4.466
 2527SOL     OW 8479   6.685   0.036   4.475
 2527SOL    HW1 8480   6.617   0.003   4.409
 2527SOL    HW2 8481   6.669   0.133   4.493
 2528SOL     OW 8482   5.604   5.647   0.147
 2528SOL    HW1 8483   5.683   5.607   0.101
 2528SOL    HW2 8484   5.602   5.745   0.132
 2529SOL     OW 8485   4.765   4.194   5.477
 2529SOL    HW1 8486   4.701   4.134   5.430
 2529SOL    HW2 8487   4.806   4.146   5.554
 2530SOL     OW 8488   0.865   6.360   3.177
 2530SOL    HW1 8489   0.833   6.453   3.197
 2530SOL    HW2 8490   0.787   6.299   3.170
 2531SOL     OW 8491   5.021   1.503   6.570
 2531SOL    HW1 8492   5.048   1.483   6.476
 2531SOL    HW2 8493   4.921   1.504   6.576
 2532SOL     OW 8494   0.912   4.720   5.662
 2532SOL    HW1 8495   0.934   4.641   5.719
 2532SOL    HW2 8496   0.857   4.690   5.584
 2533SOL     OW 8497   5.547   7.007   5.647
 2533SOL    HW1 8498   5.556   6.956   5.561
 2533SOL    HW2 8499   5.637   0.019   5.679
 2534SOL     OW 8500   6.699   1.915   3.330
 2534SOL    HW1 8501   6.673   2.012   3.331
 2534SOL    HW2 8502   6.641   1.865   3.266
 2535SOL     OW 8503   2.630   1.558   2.364
 2535SOL    HW1 8504   2.536   1.566   2.397
 2535SOL    HW2 8505   2.647   1.629   2.295
 2536SOL     OW 8506   6.721   0.450   4.635
 2536SOL    HW1 8507   6.709   0.513   4.712
 2536SOL    HW2 8508   6.687   0.359   4.660
 2537SOL     OW 8509   3.848   6.173   2.723
 2537SOL    HW1 8510   3.788   6.094   2.712
 2537SOL    HW2 8511   3.877   6.205   2.633
 2538SOL     OW 8512   0.630   4.885   5.361
 2538SOL    HW1 8513   0.688   4.944   5.416
 2538SOL    HW2 8514   0.583   4.939   5.291
 2539SOL     OW 8515   2.246   0.405   5.397
 2539SOL    HW1 8516   2.167   0.393   5.456
 2539SOL    HW2 8517   2.314   0.463   5.442
 2540SOL     OW 8518   4.852   2.105   1.961
 2540SOL    HW1 8519   4.863   2.050   2.044
 2540SOL    HW2 8520   4.797   2.186   1.981
 2541SOL     OW 8521   1.146   1.303   6.370
 2541SOL    HW1 8522   1.165   1.205   6.371
 2541SOL    HW2 8523   1.049   1.318   6.352
 2542SOL     OW 8524   3.646   1.941   4.053
 2542SOL    HW1 8525   3.722   1.901   4.104
 2542SOL    HW2 8526   3.609   1.873   3.989
 2543SOL     OW 8527   6.380   1.134   4.906
 2543SOL    HW1 8528   6.416   1.057   4.854
 2543SOL    HW2 8529   6.280   1.135   4.901
 2544SOL     OW 8530   0.101   6.467   1.812
 2544SOL    HW1 8531   0.145   6.523   1.742
 2544SOL    HW2 8532   0.054   6.525   1.878
 2545SOL     OW 8533   6.905   1.463   0.365
 2545SOL    HW1 8534   6.979   1.492   0.304
 2545SOL    HW2 8535   6.822   1.449   0.313
 2546SOL     OW 8536   6.261   3.388   2.476
 2546SOL    HW1 8537   6.341   3.342   2.516
 2546SOL    HW2 8538   6.216   3.327   2.412
 2547SOL     OW 8539   5.922   3.758   0.920
 2547SOL    HW1 8540   5.827   3.759   0.888
 2547SOL    HW2 8541   5.927   3.805   1.008
 2548SOL     OW 8542   6.266   0.653   5.396
 2548SOL    HW1 8543   6.292   0.738   5.351
 2548SOL    HW2 8544   6.301   0.653   5.490
 2549SOL     OW 8545   2.575   5.176   0.823
 2549SOL    HW1 8546   2.651   5.113   0.841
 2549SOL    HW2 8547   2.498   5.125   0.784
 2550SOL     OW 8548   3.678   6.886   1.214
 2550SOL    HW1 8549   3.713   6.964   1.266
 2550SOL    HW2 8550   3.742   6.810   1.222
 2551SOL     OW 8551   3.318   5.011   1.445
 2551SOL    HW1 8552   3.374   4.931   1.468
 2551SOL    HW2 8553   3.378   5.088   1.422
 2552SOL     OW 8554   2.362   4.393   1.515
 2552SOL    HW1 8555   2.338   4.434   1.427
 2552SOL    HW2 8556   2.293   4.325   1.539
 2553SOL     OW 8557   4.989   0.850   6.967
 2553SOL    HW1 8558   4.982   0.767   0.006
 2553SOL    HW2 8559   4.898   0.881   6.941
 2554SOL     OW 8560   0.785   5.465   1.373
 2554SOL    HW1 8561   0.842   5.397   1.419
 2554SOL    HW2 8562   0.781   5.445   1.275
 2555SOL     OW 8563   0.852   6.670   4.695
 2555SOL    HW1 8564   0.776   6.735   4.698
 2555SOL    HW2 8565   0.819   6.581   4.662
 2556SOL     OW 8566   4.518   6.963   1.188
 2556SOL    HW1 8567   4.519   6.953   1.088
 2556SOL    HW2 8568   4.433   7.008   1.217
 2557SOL     OW 8569   2.590   1.065   6.939
 2557SOL    HW1 8570   2.499   1.034   6.965
 2557SOL    HW2 8571   2.583   1.139   6.872
 2558SOL     OW 8572   5.287   1.914   1.161
 2558SOL    HW1 8573   5.225   1.982   1.122
 2558SOL    HW2 8574   5.373   1.915   1.111
 2559SOL     OW 8575   6.281   5.318   3.559
 2559SOL    HW1 8576   6.332   5.284   3.638
 2559SOL    HW2 8577   6.209   5.381   3.590
 2560SOL     OW 8578   4.866   2.604   2.313
 2560SOL    HW1 8579   4.821   2.633   2.229
 2560SOL    HW2 8580   4.952   2.653   2.324
 2561SOL     OW 8581   3.434   6.976   4.658
 2561SOL    HW1 8582   3.481   0.033   4.709
 2561SOL    HW2 8583   3.450   6.989   4.560
 2562SOL     OW 8584   1.736   6.707   4.828
 2562SOL    HW1 8585   1.793   6.637   4.786
 2562SOL    HW2 8586   1.774   6.730   4.918
 2563SOL     OW 8587   3.891   2.691   6.291
 2563SOL    HW1 8588   3.816   2.663   6.232
 2563SOL    HW2 8589   3.887   2.639   6.377
 2564SOL     OW 8590   1.225   1.207   0.566
 2564SOL    HW1 8591   1.211   1.264   0.486
 2564SOL    HW2 8592   1.320   1.175   0.568
 2565SOL     OW 8593   0.631   0.650   0.773
 2565SOL    HW1 8594   0.672   0.639   0.682
 2565SOL    HW2 8595   0.651   0.742   0.807
 2566SOL     OW 8596   3.134   1.057   1.004
 2566SOL    HW1 8597   3.105   1.028   1.095
 2566SOL    HW2 8598   3.159   1.153   1.005
 2567SOL     OW 8599   1.943   0.741   6.341
 2567SOL    HW1 8600   1.958   0.823   6.287
 2567SOL    HW2 8601   1.883   0.679   6.290
 2568SOL     OW 8602   1.670   4.938   1.200
 2568SOL    HW1 8603   1.594   4.883   1.166
 2568SOL    HW2 8604   1.660   5.032   1.166
 2569SOL     OW 8605   1.724   6.311   6.766
 2569SOL    HW1 8606   1.638   6.361   6.772
 2569SOL    HW2 8607   1.733   6.273   6.674
 2570SOL     OW 8608   0.822   6.538   4.172
 2570SOL    HW1 8609   0.751   6.536   4.102
 2570SOL    HW2 8610   0.844   6.632   4.195
 2571SOL     OW 8611   3.949   3.796   3.269
 2571SOL    HW1 8612   4.037   3.749   3.260
 2571SOL    HW2 8613   3.884   3.758   3.204
 2572SOL     OW 8614   2.333   5.760   2.481
 2572SOL    HW1 8615   2.246   5.724   2.515
 2572SOL    HW2 8616   2.343   5.737   2.384
 2573SOL     OW 8617   0.020   1.034   2.934
 2573SOL    HW1 8618   0.098   0.992   2.982
 2573SOL    HW2 8619   0.019   1.001   2.839
 2574SOL     OW 8620   0.375   3.141   2.209
 2574SOL    HW1 8621   0.336   3.057   2.172
 2574SOL    HW2 8622   0.397   3.128   2.306
 2575SOL     OW 8623   4.668   3.548   5.656
 2575SOL    HW1 8624   4.751   3.601   5.677
 2575SOL    HW2 8625   4.651   3.483   5.731
 2576SOL     OW 8626   0.785   0.430   3.104
 2576SOL    HW1 8627   0.805   0.341   3.146
 2576SOL    HW2 8628   0.816   0.503   3.165
 2577SOL     OW 8629   1.531   4.442   1.532
 2577SOL    HW1 8630   1.561   4.385   1.609
 2577SOL    HW2 8631   1.523   4.537   1.562
 2578SOL     OW 8632   4.602   2.500   5.099
 2578SOL    HW1 8633   4.681   2.491   5.160
 2578SOL    HW2 8634   4.633   2.503   5.004
 2579SOL     OW 8635   0.276   1.277   6.538
 2579SOL    HW1 8636   0.286   1.376   6.547
 2579SOL    HW2 8637   0.355   1.231   6.578
 2580SOL     OW 8638   1.923   1.409   5.514
 2580SOL    HW1 8639   1.835   1.455   5.510
 2580SOL    HW2 8640   1.989   1.466   5.563
 2581SOL     OW 8641   6.208   6.269   4.341
 2581SOL    HW1 8642   6.148   6.252   4.419
 2581SOL    HW2 8643   6.302   6.282   4.374
 2582SOL     OW 8644   6.811   4.609   3.017
 2582SOL    HW1 8645   6.867   4.604   3.100
 2582SOL    HW2 8646   6.756   4.527   3.008
 2583SOL     OW 8647   2.769   0.945   0.059
 2583SOL    HW1 8648   2.807   1.009   0.126
 2583SOL    HW2 8649   2.707   0.993   7.013
 2584SOL     OW 8650   4.000   0.880   3.090
 2584SOL    HW1 8651   3.907   0.917   3.089
 2584SOL    HW2 8652   4.066   0.953   3.105
 2585SOL     OW 8653   3.894   0.827   2.100
 2585SOL    HW1 8654   3.806   0.780   2.094
 2585SOL    HW2 8655   3.961   0.767   2.145
 2586SOL     OW 8656   0.104   1.251   4.180
 2586SOL    HW1 8657   0.199   1.221   4.181
 2586SOL    HW2 8658   0.047   1.185   4.230
 2587SOL     OW 8659   6.740   5.504   2.814
 2587SOL    HW1 8660   6.782   5.418   2.842
 2587SOL    HW2 8661   6.807   5.577   2.818
 2588SOL     OW 8662   4.234   6.793   2.690
 2588SOL    HW1 8663   4.258   6.699   2.716
 2588SOL    HW2 8664   4.266   6.856   2.761
 2589SOL     OW 8665   4.765   6.117   1.477
 2589SOL    HW1 8666   4.672   6.106   1.443
 2589SOL    HW2 8667   4.829   6.118   1.399
 2590SOL     OW 8668   3.597   6.044   3.886
 2590SOL    HW1 8669   3.596   5.976   3.813
 2590SOL    HW2 8670   3.505   6.081   3.898
 2591SOL     OW 8671   6.044   0.114   0.791
 2591SOL    HW1 8672   6.108   0.113   0.867
 2591SOL    HW2 8673   6.091   0.146   0.708
 2592SOL     OW 8674   3.008   4.685   1.671
 2592SOL    HW1 8675   2.982   4.606   1.727
 2592SOL    HW2 8676   3.074   4.657   1.602
 2593SOL     OW 8677   3.682   0.148   3.442
 2593SOL    HW1 8678   3.761   0.090   3.422
 2593SOL    HW2 8679   3.687   0.179   3.537
 2594SOL     OW 8680   1.146   5.674   6.611
 2594SOL    HW1 8681   1.209   5.744   6.577
 2594SOL    HW2 8682   1.060   5.718   6.638
 2595SOL     OW 8683   6.797   3.152   4.116
 2595SOL    HW1 8684   6.874   3.155   4.052
 2595SOL    HW2 8685   6.810   3.220   4.188
 2596SOL     OW 8686   3.822   1.834   1.032
 2596SOL    HW1 8687   3.864   1.924   1.021
 2596SOL    HW2 8688   3.884   1.774   1.083
 2597SOL     OW 8689   2.321   2.458   6.168
 2597SOL    HW1 8690   2.242   2.404   6.198
 2597SOL    HW2 8691   2.316   2.472   6.069
 2598SOL     OW 8692   6.971   0.575   2.856
 2598SOL    HW1 8693   6.965   0.587   2.956
 2598SOL    HW2 8694   6.918   0.495   2.829
 2599SOL     OW 8695   4.818   5.781   6.279
 2599SOL    HW1 8696   4.821   5.681   6.271
 2599SOL    HW2 8697   4.855   5.808   6.368
 2600SOL     OW 8698   0.395   2.557   4.660
 2600SOL    HW1 8699   0.403   2.573   4.758
 2600SOL    HW2 8700   0.304   2.587   4.629
 2601SOL     OW 8701   4.189   3.722   5.199
 2601SOL    HW1 8702   4.283   3.713   5.230
 2601SOL    HW2 8703   4.182   3.690   5.104
 2602SOL     OW 8704   6.015   6.325   6.233
 2602SOL    HW1 8705   6.060   6.395   6.288
 2602SOL    HW2 8706   6.077   6.295   6.160
 2603SOL     OW 8707   1.301   2.221   6.469
 2603SOL    HW1 8708   1.345   2.192   6.384
 2603SOL    HW2 8709   1.204   2.197   6.466
 2604SOL     OW 8710   5.807   1.730   0.851
 2604SOL    HW1 8711   5.793   1.781   0.766
 2604SOL    HW2 8712   5.737   1.757   0.918
 2605SOL     OW 8713   6.252   3.314   4.543
 2605SOL    HW1 8714   6.239   3.406   4.580
 2605SOL    HW2 8715   6.289   3.254   4.615
 2606SOL     OW 8716   6.738   4.358   0.985
 2606SOL    HW1 8717   6.724   4.310   1.072
 2606SOL    HW2 8718   6.753   4.455   1.003
 2607SOL     OW 8719   1.196   1.397   4.112
 2607SOL    HW1 8720   1.156   1.306   4.098
 2607SOL    HW2 8721   1.149   1.463   4.054
 2608SOL     OW 8722   5.139   0.077   0.493
 2608SOL    HW1 8723   5.050   0.032   0.482
 2608SOL    HW2 8724   5.155   0.094   0.590
 2609SOL     OW 8725   0.725   2.706   3.252
 2609SOL    HW1 8726   0.741   2.797   3.216
 2609SOL    HW2 8727   0.663   2.711   3.331
 2610SOL     OW 8728   5.297   6.030   4.453
 2610SOL    HW1 8729   5.275   5.998   4.545
 2610SOL    HW2 8730   5.247   6.115   4.436
 2611SOL     OW 8731   2.612   5.516   2.274
 2611SOL    HW1 8732   2.673   5.482   2.202
 2611SOL    HW2 8733   2.570   5.602   2.244
 2612SOL     OW 8734   0.464   6.767   5.396
 2612SOL    HW1 8735   0.477   6.833   5.471
 2612SOL    HW2 8736   0.457   6.816   5.309
 2613SOL     OW 8737   3.514   1.185   0.934
 2613SOL    HW1 8738   3.437   1.148   0.882
 2613SOL    HW2 8739   3.598   1.176   0.881
 2614SOL     OW 8740   6.689   6.175   6.537
 2614SOL    HW1 8741   6.741   6.171   6.623
 2614SOL    HW2 8742   6.594   6.153   6.555
 2615SOL     OW 8743   5.710   4.119   1.423
 2615SOL    HW1 8744   5.797   4.100   1.467
 2615SOL    HW2 8745   5.635   4.106   1.488
 2616SOL     OW 8746   4.060   3.163   2.268
 2616SOL    HW1 8747   4.032   3.071   2.292
 2616SOL    HW2 8748   4.104   3.206   2.348
 2617SOL     OW 8749   2.816   6.644   1.055
 2617SOL    HW1 8750   2.730   6.683   1.023
 2617SOL    HW2 8751   2.817   6.545   1.037
 2618SOL     OW 8752   0.918   6.650   0.293
 2618SOL    HW1 8753   1.007   6.645   0.337
 2618SOL    HW2 8754   0.858   6.578   0.330
 2619SOL     OW 8755   6.359   1.410   1.300
 2619SOL    HW1 8756   6.267   1.378   1.278
 2619SOL    HW2 8757   6.391   1.364   1.383
 2620SOL     OW 8758   1.341   5.488   3.936
 2620SOL    HW1 8759   1.282   5.522   3.864
 2620SOL    HW2 8760   1.430   5.533   3.930
 2621SOL     OW 8761   0.563   5.388   4.115
 2621SOL    HW1 8762   0.468   5.417   4.128
 2621SOL    HW2 8763   0.570   5.290   4.130
 2622SOL     OW 8764   2.509   2.306   5.428
 2622SOL    HW1 8765   2.591   2.250   5.440
 2622SOL    HW2 8766   2.531   2.402   5.445
 2623SOL     OW 8767   3.105   0.269   6.487
 2623SOL    HW1 8768   3.136   0.344   6.545
 2623SOL    HW2 8769   3.174   0.196   6.488
 2624SOL     OW 8770   6.314   2.472   3.802
 2624SOL    HW1 8771   6.401   2.429   3.826
 2624SOL    HW2 8772   6.263   2.494   3.886
 2625SOL     OW 8773   3.686   0.317   5.846
 2625SOL    HW1 8774   3.721   0.411   5.851
 2625SOL    HW2 8775   3.597   0.316   5.800
 2626SOL     OW 8776   1.757   0.160   2.824
 2626SOL    HW1 8777   1.795   0.105   2.898
 2626SOL    HW2 8778   1.819   0.235   2.803
 2627SOL     OW 8779   0.874   0.234   5.062
 2627SOL    HW1 8780   0.870   0.305   4.992
 2627SOL    HW2 8781   0.870   0.144   5.018
 2628SOL     OW 8782   3.483   6.279   0.051
 2628SOL    HW1 8783   3.396   6.309   0.091
 2628SOL    HW2 8784   3.517   6.200   0.103
 2629SOL     OW 8785   2.858   3.678   1.856
 2629SOL    HW1 8786   2.918   3.692   1.777
 2629SOL    HW2 8787   2.843   3.580   1.870
 2630SOL     OW 8788   2.711   2.384   2.682
 2630SOL    HW1 8789   2.634   2.400   2.743
 2630SOL    HW2 8790   2.775   2.321   2.725
 2631SOL     OW 8791   3.964   6.059   4.446
 2631SOL    HW1 8792   3.964   6.150   4.488
 2631SOL    HW2 8793   4.014   6.062   4.360
 2632SOL     OW 8794   4.596   0.999   1.271
 2632SOL    HW1 8795   4.636   1.011   1.362
 2632SOL    HW2 8796   4.668   1.006   1.202
 2633SOL     OW 8797   0.006   2.674   6.758
 2633SOL    HW1 8798   0.024   2.576   6.743
 2633SOL    HW2 8799   6.983   2.687   6.849
 2634SOL     OW 8800   3.270   5.104   0.962
 2634SOL    HW1 8801   3.294   5.117   0.865
 2634SOL    HW2 8802   3.350   5.120   1.019
 2635SOL     OW 8803   6.371   4.549   3.504
 2635SOL    HW1 8804   6.404   4.508   3.419
 2635SOL    HW2 8805   6.391   4.647   3.504
 2636SOL     OW 8806   5.779   6.105   5.435
 2636SOL    HW1 8807   5.875   6.081   5.451
 2636SOL    HW2 8808   5.758   6.191   5.481
 2637SOL     OW 8809   5.344   6.414   2.450
 2637SOL    HW1 8810   5.429   6.428   2.398
 2637SOL    HW2 8811   5.363   6.416   2.548
 2638SOL     OW 8812   5.252   5.859   0.788
 2638SOL    HW1 8813   5.191   5.781   0.775
 2638SOL    HW2 8814   5.214   5.939   0.743
 2639SOL     OW 8815   7.005   6.380   6.248
 2639SOL    HW1 8816   6.917   6.374   6.295
 2639SOL    HW2 8817   0.064   6.373   6.315
 2640SOL     OW 8818   6.430   6.999   6.332
 2640SOL    HW1 8819   6.331   6.989   6.322
 2640SOL    HW2 8820   6.465   0.039   6.256
 2641SOL     OW 8821   6.412   5.652   0.238
 2641SOL    HW1 8822   6.503   5.688   0.259
 2641SOL    HW2 8823   6.351   5.667   0.316
 2642SOL     OW 8824   6.445   0.402   3.912
 2642SOL    HW1 8825   6.380   0.460   3.962
 2642SOL    HW2 8826   6.484   0.334   3.974
 2643SOL     OW 8827   2.321   0.159   2.234
 2643SOL    HW1 8828   2.403   0.148   2.177
 2643SOL    HW2 8829   2.240   0.146   2.178
 2644SOL     OW 8830   6.718   5.778   5.017
 2644SOL    HW1 8831   6.775   5.828   5.082
 2644SOL    HW2 8832   6.776   5.728   4.953
 2645SOL     OW 8833   5.806   5.697   6.261
 2645SOL    HW1 8834   5.799   5.660   6.353
 2645SOL    HW2 8835   5.803   5.622   6.195
 2646SOL     OW 8836   6.026   5.861   6.920
 2646SOL    HW1 8837   6.064   5.792   6.859
 2646SOL    HW2 8838   6.100   5.905   6.971
 2647SOL     OW 8839   3.043   3.108   7.009
 2647SOL    HW1 8840   3.071   3.202   6.990
 2647SOL    HW2 8841   3.014   3.064   6.925
 2648SOL     OW 8842   3.804   1.581   3.580
 2648SOL    HW1 8843   3.899   1.588   3.609
 2648SOL    HW2 8844   3.798   1.596   3.481
 2649SOL     OW 8845   3.018   3.399   5.373
 2649SOL    HW1 8846   3.003   3.330   5.303
 2649SOL    HW2 8847   3.052   3.356   5.456
 2650SOL     OW 8848   6.964   6.585   2.917
 2650SOL    HW1 8849   0.042   6.563   2.888
 2650SOL    HW2 8850   6.937   6.522   2.990
 2651SOL     OW 8851   1.020   0.177   3.693
 2651SOL    HW1 8852   1.089   0.232   3.645
 2651SOL    HW2 8853   0.945   0.236   3.721
 2652SOL     OW 8854   2.991   3.165   2.786
 2652SOL    HW1 8855   2.915   3.151   2.850
 2652SOL    HW2 8856   3.078   3.165   2.837
 2653SOL     OW 8857   6.747   6.338   0.151
 2653SOL    HW1 8858   6.840   6.307   0.132
 2653SOL    HW2 8859   6.749   6.433   0.182
 2654SOL     OW 8860   6.476   1.671   5.860
 2654SOL    HW1 8861   6.559   1.621   5.885
 2654SOL    HW2 8862   6.490   1.717   5.773
 2655SOL     OW 8863   5.344   5.172   4.847
 2655SOL    HW1 8864   5.264   5.201   4.900
 2655SOL    HW2 8865   5.415   5.243   4.851
 2656SOL     OW 8866   5.577   3.540   5.289
 2656SOL    HW1 8867   5.517   3.470   5.249
 2656SOL    HW2 8868   5.631   3.499   5.363
 2657SOL     OW 8869   3.404   2.115   6.121
 2657SOL    HW1 8870   3.391   2.211   6.096
 2657SOL    HW2 8871   3.316   2.068   6.120
 2658SOL     OW 8872   6.234   4.172   5.031
 2658SOL    HW1 8873   6.159   4.210   5.085
 2658SOL    HW2 8874   6.321   4.193   5.074
 2659SOL     OW 8875   6.603   1.498   3.889
 2659SOL    HW1 8876   6.620   1.438   3.811
 2659SOL    HW2 8877   6.686   1.506   3.945
 2660SOL     OW 8878   0.161   2.204   3.314
 2660SOL    HW1 8879   0.180   2.302   3.311
 2660SOL    HW2 8880   0.125   2.174   3.225
 2661SOL     OW 8881   3.572   6.937   2.869
 2661SOL    HW1 8882   3.515   7.008   2.827
 2661SOL    HW2 8883   3.647   6.914   2.808
 2662SOL     OW 8884   3.682   1.110   3.758
 2662SOL    HW1 8885   3.762   1.163   3.730
 2662SOL    HW2 8886   3.608   1.172   3.784
 2663SOL     OW 8887   0.374   4.477   2.905
 2663SOL    HW1 8888   0.354   4.381   2.928
 2663SOL    HW2 8889   0.469   4.497   2.927
 2664SOL     OW 8890   4.281   4.054   1.676
 2664SOL    HW1 8891   4.205   4.106   1.637
 2664SOL    HW2 8892   4.325   4.108   1.748
 2665SOL     OW 8893   4.696   0.205   4.583
 2665SOL    HW1 8894   4.672   0.302   4.583
 2665SOL    HW2 8895   4.691   0.170   4.677
 2666SOL     OW 8896   5.229   6.436   1.818
 2666SOL    HW1 8897   5.278   6.499   1.879
 2666SOL    HW2 8898   5.218   6.348   1.864
 2667SOL     OW 8899   2.320   5.060   2.959
 2667SOL    HW1 8900   2.316   5.160   2.956
 2667SOL    HW2 8901   2.312   5.024   2.866
 2668SOL     OW 8902   6.350   2.412   5.519
 2668SOL    HW1 8903   6.414   2.429   5.594
 2668SOL    HW2 8904   6.401   2.403   5.433
 2669SOL     OW 8905   4.251   5.697   5.485
 2669SOL    HW1 8906   4.240   5.707   5.386
 2669SOL    HW2 8907   4.184   5.631   5.519
 2670SOL     OW 8908   2.714   0.035   4.664
 2670SOL    HW1 8909   2.778   6.995   4.718
 2670SOL    HW2 8910   2.766   0.102   4.610
 2671SOL     OW 8911   3.113   4.573   6.296
 2671SOL    HW1 8912   3.130   4.477   6.315
 2671SOL    HW2 8913   3.016   4.593   6.308
 2672SOL     OW 8914   1.195   3.972   0.210
 2672SOL    HW1 8915   1.280   3.940   0.167
 2672SOL    HW2 8916   1.127   3.899   0.207
 2673SOL     OW 8917   4.010   2.186   3.562
 2673SOL    HW1 8918   4.011   2.169   3.660
 2673SOL    HW2 8919   4.091   2.239   3.536
 2674SOL     OW 8920   6.386   5.804   5.439
 2674SOL    HW1 8921   6.306   5.744   5.433
 2674SOL    HW2 8922   6.367   5.878   5.504
 2675SOL     OW 8923   0.681   4.324   5.253
 2675SOL    HW1 8924   0.628   4.269   5.318
 2675SOL    HW2 8925   0.769   4.279   5.236
 2676SOL     OW 8926   4.616   7.002   1.946
 2676SOL    HW1 8927   4.634   6.908   1.974
 2676SOL    HW2 8928   4.531   7.006   1.895
 2677SOL     OW 8929   2.393   4.671   2.349
 2677SOL    HW1 8930   2.309   4.619   2.362
 2677SOL    HW2 8931   2.433   4.648   2.261
 2678SOL     OW 8932   6.736   6.337   6.325
 2678SOL    HW1 8933   6.645   6.376   6.316
 2678SOL    HW2 8934   6.738   6.275   6.403
 2679SOL     OW 8935   2.401   5.242   1.418
 2679SOL    HW1 8936   2.482   5.201   1.377
 2679SOL    HW2 8937   2.413   5.247   1.517
 2680SOL     OW 8938   1.470   2.652   1.463
 2680SOL    HW1 8939   1.490   2.651   1.365
 2680SOL    HW2 8940   1.372   2.664   1.477
 2681SOL     OW 8941   1.796   1.847   2.143
 2681SOL    HW1 8942   1.707   1.823   2.105
 2681SOL    HW2 8943   1.843   1.910   2.081
 2682SOL     OW 8944   6.397   2.774   4.213
 2682SOL    HW1 8945   6.322   2.827   4.174
 2682SOL    HW2 8946   6.484   2.819   4.194
 2683SOL     OW 8947   1.405   0.179   0.292
 2683SOL    HW1 8948   1.419   0.278   0.294
 2683SOL    HW2 8949   1.335   0.156   0.224
 2684SOL     OW 8950   2.501   5.361   3.101
 2684SOL    HW1 8951   2.523   5.426   3.173
 2684SOL    HW2 8952   2.527   5.400   3.012
 2685SOL     OW 8953   5.231   6.029   5.145
 2685SOL    HW1 8954   5.235   5.949   5.085
 2685SOL    HW2 8955   5.135   6.055   5.159
 2686SOL     OW 8956   1.298   3.004   4.426
 2686SOL    HW1 8957   1.230   3.077   4.427
 2686SOL    HW2 8958   1.252   2.916   4.417
 2687SOL     OW 8959   4.705   4.356   3.648
 2687SOL    HW1 8960   4.681   4.311   3.562
 2687SOL    HW2 8961   4.767   4.432   3.629
 2688SOL     OW 8962   3.693   5.009   5.712
 2688SOL    HW1 8963   3.643   5.093   5.692
 2688SOL    HW2 8964   3.677   4.942   5.639
 2689SOL     OW 8965   6.905   3.332   4.354
 2689SOL    HW1 8966   6.813   3.338   4.392
 2689SOL    HW2 8967   6.972   3.349   4.427
 2690SOL     OW 8968   3.241   2.943   3.091
 2690SOL    HW1 8969   3.249   2.972   2.996
 2690SOL    HW2 8970   3.158   2.888   3.101
 2691SOL     OW 8971   1.130   6.028   1.949
 2691SOL    HW1 8972   1.154   6.106   1.893
 2691SOL    HW2 8973   1.089   5.956   1.892
 2692SOL     OW 8974   0.095   5.437   3.204
 2692SOL    HW1 8975   0.086   5.460   3.301
 2692SOL    HW2 8976   0.137   5.514   3.155
 2693SOL     OW 8977   1.776   3.556   3.105
 2693SOL    HW1 8978   1.680   3.530   3.114
 2693SOL    HW2 8979   1.786   3.654   3.124
 2694SOL     OW 8980   2.345   1.139   2.872
 2694SOL    HW1 8981   2.293   1.206   2.818
 2694SOL    HW2 8982   2.294   1.117   2.955
 2695SOL     OW 8983   4.327   2.338   2.583
 2695SOL    HW1 8984   4.230   2.326   2.599
 2695SOL    HW2 8985   4.378   2.262   2.624
 2696SOL     OW 8986   4.110   4.010   5.275
 2696SOL    HW1 8987   4.142   3.946   5.204
 2696SOL    HW2 8988   4.014   3.993   5.294
 2697SOL     OW 8989   2.888   1.630   4.811
 2697SOL    HW1 8990   2.987   1.638   4.809
 2697SOL    HW2 8991   2.850   1.689   4.882
 2698SOL     OW 8992   1.881   3.005   6.396
 2698SOL    HW1 8993   1.861   3.062   6.316
 2698SOL    HW2 8994   1.965   2.954   6.381
 2699SOL     OW 8995   2.399   5.983   2.624
 2699SOL    HW1 8996   2.301   5.995   2.640
 2699SOL    HW2 8997   2.413   5.904   2.564
 2700SOL     OW 8998   1.749   4.431   2.929
 2700SOL    HW1 8999   1.692   4.474   2.999
 2700SOL    HW2 9000   1.691   4.380   2.866
 2701SOL     OW 9001   3.869   0.431   5.526
 2701SOL    HW1 9002   3.906   0.492   5.456
 2701SOL    HW2 9003   3.787   0.471   5.566
 2702SOL     OW 9004   6.890   6.169   2.732
 2702SOL    HW1 9005   6.883   6.163   2.832
 2702SOL    HW2 9006   6.869   6.262   2.703
 2703SOL     OW 9007   1.652   1.987   3.297
 2703SOL    HW1 9008   1.700   1.933   3.367
 2703SOL    HW2 9009   1.696   1.973   3.208
 2704SOL     OW 9010   1.318   6.560   0.138
 2704SOL    HW1 9011   1.268   6.505   0.204
 2704SOL    HW2 9012   1.303   6.524   0.046
 2705SOL     OW 9013   0.333   4.225   2.959
 2705SOL    HW1 9014   0.395   4.231   2.881
 2705SOL    HW2 9015   0.293   4.133   2.964
 2706SOL     OW 9016   6.535   2.182   2.616
 2706SOL    HW1 9017   6.587   2.132   2.686
 2706SOL    HW2 9018   6.541   2.280   2.634
 2707SOL     OW 9019   2.535   1.079   5.930
 2707SOL    HW1 9020   2.582   1.149   5.876
 2707SOL    HW2 9021   2.437   1.083   5.912
 2708SOL     OW 9022   1.587   4.270   0.611
 2708SOL    HW1 9023   1.593   4.263   0.511
 2708SOL    HW2 9024   1.505   4.221   0.643
 2709SOL     OW 9025   4.199   6.631   1.586
 2709SOL    HW1 9026   4.196   6.629   1.686
 2709SOL    HW2 9027   4.129   6.569   1.550
 2710SOL     OW 9028   6.405   4.067   2.464
 2710SOL    HW1 9029   6.408   3.970   2.438
 2710SOL    HW2 9030   6.398   4.123   2.382
 2711SOL     OW 9031   1.321   6.836   2.155
 2711SOL    HW1 9032   1.393   6.767   2.157
 2711SOL    HW2 9033   1.361   6.926   2.142
 2712SOL     OW 9034   3.647   5.162   2.571
 2712SOL    HW1 9035   3.703   5.244   2.565
 2712SOL    HW2 9036   3.684   5.092   2.511
 2713SOL     OW 9037   2.034   2.506   5.075
 2713SOL    HW1 9038   2.023   2.558   5.160
 2713SOL    HW2 9039   2.130   2.505   5.048
 2714SOL     OW 9040   5.139   0.108   5.919
 2714SOL    HW1 9041   5.144   0.172   5.995
 2714SOL    HW2 9042   5.224   0.056   5.914
 2715SOL     OW 9043   5.935   6.994   0.331
 2715SOL    HW1 9044   5.899   6.901   0.328
 2715SOL    HW2 9045   5.875   0.039   0.279
 2716SOL     OW 9046   6.789   6.421   2.662
 2716SOL    HW1 9047   6.777   6.370   2.576
 2716SOL    HW2 9048   6.814   6.515   2.641
 2717SOL     OW 9049   0.542   0.201   3.285
 2717SOL    HW1 9050   0.621   0.253   3.318
 2717SOL    HW2 9051   0.506   0.243   3.202
 2718SOL     OW 9052   0.507   4.478   3.258
 2718SOL    HW1 9053   0.543   4.531   3.335
 2718SOL    HW2 9054   0.583   4.435   3.209
 2719SOL     OW 9055   4.393   4.541   2.836
 2719SOL    HW1 9056   4.402   4.444   2.856
 2719SOL    HW2 9057   4.322   4.581   2.893
 2720SOL     OW 9058   0.431   6.154   4.026
 2720SOL    HW1 9059   0.505   6.151   3.959
 2720SOL    HW2 9060   0.354   6.206   3.988
 2721SOL     OW 9061   5.230   6.472   4.005
 2721SOL    HW1 9062   5.226   6.429   3.915
 2721SOL    HW2 9063   5.292   6.420   4.064
 2722SOL     OW 9064   1.348   6.158   1.334
 2722SOL    HW1 9065   1.375   6.070   1.373
 2722SOL    HW2 9066   1.429   6.212   1.314
 2723SOL     OW 9067   2.194   1.793   4.706
 2723SOL    HW1 9068   2.180   1.879   4.755
 2723SOL    HW2 9069   2.204   1.812   4.608
 2724SOL     OW 9070   3.604   6.182   6.271
 2724SOL    HW1 9071   3.662   6.105   6.297
 2724SOL    HW2 9072   3.656   6.247   6.217
 2725SOL     OW 9073   2.827   4.736   3.718
 2725SOL    HW1 9074   2.856   4.686   3.799
 2725SOL    HW2 9075   2.769   4.813   3.746
 2726SOL     OW 9076   4.780   6.750   2.545
 2726SOL    HW1 9077   4.681   6.760   2.551
 2726SOL    HW2 9078   4.804   6.653   2.538
 2727SOL     OW 9079   1.928   5.427   3.236
 2727SOL    HW1 9080   1.908   5.524   3.245
 2727SOL    HW2 9081   2.016   5.407   3.278
 2728SOL     OW 9082   3.475   6.761   5.236
 2728SOL    HW1 9083   3.403   6.816   5.277
 2728SOL    HW2 9084   3.496   6.796   5.144
 2729SOL     OW 9085   6.850   4.651   2.466
 2729SOL    HW1 9086   6.877   4.745   2.445
 2729SOL    HW2 9087   6.801   4.648   2.553
 2730SOL     OW 9088   1.091   4.714   1.721
 2730SOL    HW1 9089   1.009   4.738   1.773
 2730SOL    HW2 9090   1.077   4.626   1.675
 2731SOL     OW 9091   3.179   3.822   1.151
 2731SOL    HW1 9092   3.264   3.843   1.103
 2731SOL    HW2 9093   3.132   3.907   1.175
 2732SOL     OW 9094   5.535   3.124   4.405
 2732SOL    HW1 9095   5.507   3.030   4.389
 2732SOL    HW2 9096   5.635   3.130   4.401
 2733SOL     OW 9097   2.345   0.546   6.110
 2733SOL    HW1 9098   2.430   0.527   6.060
 2733SOL    HW2 9099   2.349   0.501   6.199
 2734SOL     OW 9100   2.556   0.174   3.961
 2734SOL    HW1 9101   2.511   0.185   4.050
 2734SOL    HW2 9102   2.533   0.085   3.923
 2735SOL     OW 9103   1.237   5.026   1.018
 2735SOL    HW1 9104   1.155   5.074   1.051
 2735SOL    HW2 9105   1.307   5.092   0.995
 2736SOL     OW 9106   3.220   6.947   6.754
 2736SOL    HW1 9107   3.199   6.872   6.817
 2736SOL    HW2 9108   3.152   0.004   6.766
 2737SOL     OW 9109   4.498   3.211   5.630
 2737SOL    HW1 9110   4.550   3.234   5.548
 2737SOL    HW2 9111   4.400   3.213   5.609
 2738SOL     OW 9112   5.846   4.370   4.315
 2738SOL    HW1 9113   5.852   4.270   4.314
 2738SOL    HW2 9114   5.910   4.406   4.382
 2739SOL     OW 9115   5.048   4.265   0.233
 2739SOL    HW1 9116   4.990   4.186   0.215
 2739SOL    HW2 9117   5.021   4.342   0.174
 2740SOL     OW 9118   6.170   2.564   3.401
 2740SOL    HW1 9119   6.254   2.612   3.427
 2740SOL    HW2 9120   6.092   2.625   3.413
 2741SOL     OW 9121   1.888   3.206   4.551
 2741SOL    HW1 9122   1.865   3.134   4.616
 2741SOL    HW2 9123   1.900   3.292   4.600
 2742SOL     OW 9124   2.922   6.221   5.641
 2742SOL    HW1 9125   2.968   6.310   5.641
 2742SOL    HW2 9126   2.823   6.236   5.629
 2743SOL     OW 9127   6.234   4.325   0.346
 2743SOL    HW1 9128   6.166   4.253   0.333
 2743SOL    HW2 9129   6.194   4.413   0.321
 2744SOL     OW 9130   4.452   0.672   0.618
 2744SOL    HW1 9131   4.418   0.578   0.616
 2744SOL    HW2 9132   4.403   0.726   0.550
 2745SOL     OW 9133   2.019   5.811   1.057
 2745SOL    HW1 9134   1.998   5.894   1.110
 2745SOL    HW2 9135   1.936   5.757   1.046
 2746SOL     OW 9136   1.035   2.490   6.167
 2746SOL    HW1 9137   1.105   2.487   6.094
 2746SOL    HW2 9138   0.961   2.551   6.140
 2747SOL     OW 9139   5.355   5.495   3.916
 2747SOL    HW1 9140   5.414   5.564   3.958
 2747SOL    HW2 9141   5.354   5.508   3.817
 2748SOL     OW 9142   4.929   0.929   4.462
 2748SOL    HW1 9143   4.960   0.996   4.394
 2748SOL    HW2 9144   4.926   0.838   4.420
 2749SOL     OW 9145   5.078   4.323   3.811
 2749SOL    HW1 9146   5.106   4.300   3.904
 2749SOL    HW2 9147   4.978   4.335   3.809
 2750SOL     OW 9148   0.696   6.607   0.497
 2750SOL    HW1 9149   0.727   6.698   0.471
 2750SOL    HW2 9150   0.648   6.564   0.420
 2751SOL     OW 9151   1.890   0.374   6.906
 2751SOL    HW1 9152   1.812   0.325   6.943
 2751SOL    HW2 9153   1.957   0.391   6.978
 2752SOL     OW 9154   6.883   6.685   5.828
 2752SOL    HW1 9155   6.951   6.670   5.900
 2752SOL    HW2 9156   6.893   6.615   5.758
 2753SOL     OW 9157   3.476   5.032   5.428
 2753SOL    HW1 9158   3.549   4.967   5.448
 2753SOL    HW2 9159   3.483   5.110   5.489
 2754SOL     OW 9160   0.862   6.069   4.033
 2754SOL    HW1 9161   0.832   5.974   4.038
 2754SOL    HW2 9162   0.787   6.125   3.997
 2755SOL     OW 9163   4.509   5.663   2.478
 2755SOL    HW1 9164   4.420   5.700   2.506
 2755SOL    HW2 9165   4.577   5.736   2.480
 2756SOL     OW 9166   0.677   2.871   5.567
 2756SOL    HW1 9167   0.734   2.789   5.562
 2756SOL    HW2 9168   0.654   2.890   5.663
 2757SOL     OW 9169   4.659   3.963   6.690
 2757SOL    HW1 9170   4.637   3.906   6.611
 2757SOL    HW2 9171   4.592   3.945   6.763
 2758SOL     OW 9172   6.788   6.775   1.844
 2758SOL    HW1 9173   6.840   6.851   1.804
 2758SOL    HW2 9174   6.847   6.722   1.905
 2759SOL     OW 9175   3.195   3.583   5.319
 2759SOL    HW1 9176   3.120   3.518   5.328
 2759SOL    HW2 9177   3.202   3.611   5.223
 2760SOL     OW 9178   5.666   5.464   2.682
 2760SOL    HW1 9179   5.566   5.461   2.696
 2760SOL    HW2 9180   5.711   5.438   2.767
 2761SOL     OW 9181   1.621   3.196   3.524
 2761SOL    HW1 9182   1.646   3.290   3.502
 2761SOL    HW2 9183   1.573   3.194   3.612
 2762SOL     OW 9184   3.920   1.613   1.220
 2762SOL    HW1 9185   3.847   1.596   1.154
 2762SOL    HW2 9186   3.904   1.559   1.302
 2763SOL     OW 9187   5.899   1.444   3.712
 2763SOL    HW1 9188   5.957   1.471   3.789
 2763SOL    HW2 9189   5.815   1.403   3.746
 2764SOL     OW 9190   0.177   2.837   3.469
 2764SOL    HW1 9191   0.139   2.760   3.520
 2764SOL    HW2 9192   0.211   2.805   3.381
 2765SOL     OW 9193   6.265   6.137   5.795
 2765SOL    HW1 9194   6.291   6.230   5.824
 2765SOL    HW2 9195   6.181   6.110   5.842
 2766SOL     OW 9196   4.366   0.434   0.489
 2766SOL    HW1 9197   4.292   0.387   0.440
 2766SOL    HW2 9198   4.443   0.448   0.428
 2767SOL     OW 9199   0.394   5.450   6.194
 2767SOL    HW1 9200   0.412   5.447   6.096
 2767SOL    HW2 9201   0.425   5.364   6.236
 2768SOL     OW 9202   3.379   6.357   1.791
 2768SOL    HW1 9203   3.358   6.286   1.858
 2768SOL    HW2 9204   3.296   6.409   1.770
 2769SOL     OW 9205   0.513   4.515   5.632
 2769SOL    HW1 9206   0.530   4.437   5.691
 2769SOL    HW2 9207   0.469   4.484   5.547
 2770SOL     OW 9208   2.294   0.032   0.612
 2770SOL    HW1 9209   2.299   6.988   0.532
 2770SOL    HW2 9210   2.210   0.011   0.663
 2771SOL     OW 9211   4.395   6.592   5.463
 2771SOL    HW1 9212   4.331   6.517   5.477
 2771SOL    HW2 9213   4.458   6.597   5.540
 2772SOL     OW 9214   4.971   1.369   3.408
 2772SOL    HW1 9215   4.960   1.362   3.508
 2772SOL    HW2 9216   5.065   1.348   3.383
 2773SOL     OW 9217   5.437   2.200   5.978
 2773SOL    HW1 9218   5.507   2.129   5.984
 2773SOL    HW2 9219   5.410   2.212   5.883
 2774SOL     OW 9220   6.267   0.363   3.688
 2774SOL    HW1 9221   6.173   0.395   3.680
 2774SOL    HW2 9222   6.307   0.399   3.772
 2775SOL     OW 9223   0.322   2.572   4.930
 2775SOL    HW1 9224   0.238   2.626   4.927
 2775SOL    HW2 9225   0.356   2.568   5.024
 2776SOL     OW 9226   4.805   4.498   6.313
 2776SOL    HW1 9227   4.798   4.585   6.360
 2776SOL    HW2 9228   4.901   4.473   6.303
 2777SOL     OW 9229   2.148   2.511   6.782
 2777SOL    HW1 9230   2.206   2.488   6.860
 2777SOL    HW2 9231   2.144   2.611   6.772
 2778SOL     OW 9232   3.409   0.448   6.227
 2778SOL    HW1 9233   3.347   0.371   6.212
 2778SOL    HW2 9234   3.379   0.500   6.306
 2779SOL     OW 9235   5.070   1.071   1.919
 2779SOL    HW1 9236   5.033   1.040   2.006
 2779SOL    HW2 9237   4.999   1.119   1.867
 2780SOL     OW 9238   0.083   0.979   5.127
 2780SOL    HW1 9239   0.159   1.023   5.174
 2780SOL    HW2 9240   0.118   0.920   5.055
 2781SOL     OW 9241   0.040   0.353   3.101
 2781SOL    HW1 9242   0.029   0.405   3.186
 2781SOL    HW2 9243   0.085   0.266   3.120
 2782SOL     OW 9244   5.395   0.129   5.448
 2782SOL    HW1 9245   5.300   0.104   5.465
 2782SOL    HW2 9246   5.454   0.077   5.510
 2783SOL     OW 9247   5.773   3.080   1.544
 2783SOL    HW1 9248   5.707   3.042   1.610
 2783SOL    HW2 9249   5.723   3.127   1.471
 2784SOL     OW 9250   0.155   2.821   1.695
 2784SOL    HW1 9251   0.200   2.893   1.642
 2784SOL    HW2 9252   0.081   2.861   1.749
 2785SOL     OW 9253   5.095   3.625   2.963
 2785SOL    HW1 9254   5.131   3.700   2.908
 2785SOL    HW2 9255   5.006   3.652   3.001
 2786SOL     OW 9256   0.702   5.879   0.688
 2786SOL    HW1 9257   0.752   5.846   0.768
 2786SOL    HW2 9258   0.665   5.801   0.637
 2787SOL     OW 9259   0.323   5.864   6.011
 2787SOL    HW1 9260   0.356   5.957   5.993
 2787SOL    HW2 9261   0.225   5.867   6.033
 2788SOL     OW 9262   2.898   6.667   0.049
 2788SOL    HW1 9263   2.971   6.598   0.054
 2788SOL    HW2 9264   2.861   6.683   0.141
 2789SOL     OW 9265   1.885   2.097   4.149
 2789SOL    HW1 9266   1.808   2.060   4.097
 2789SOL    HW2 9267   1.895   2.194   4.130
 2790SOL     OW 9268   0.304   5.459   1.433
 2790SOL    HW1 9269   0.316   5.362   1.415
 2790SOL    HW2 9270   0.214   5.476   1.473
 2791SOL     OW 9271   0.760   3.513   4.885
 2791SOL    HW1 9272   0.672   3.537   4.844
 2791SOL    HW2 9273   0.833   3.566   4.841
 2792SOL     OW 9274   3.101   1.581   6.461
 2792SOL    HW1 9275   3.139   1.503   6.411
 2792SOL    HW2 9276   3.160   1.603   6.538
 2793SOL     OW 9277   3.625   3.738   6.850
 2793SOL    HW1 9278   3.687   3.749   6.772
 2793SOL    HW2 9279   3.591   3.828   6.878
 2794SOL     OW 9280   2.044   2.018   6.843
 2794SOL    HW1 9281   1.996   2.105   6.837
 2794SOL    HW2 9282   2.016   1.970   6.926
 2795SOL     OW 9283   1.263   6.775   1.056
 2795SOL    HW1 9284   1.176   6.740   1.021
 2795SOL    HW2 9285   1.289   6.857   1.005
 2796SOL     OW 9286   2.155   6.117   6.700
 2796SOL    HW1 9287   2.084   6.135   6.768
 2796SOL    HW2 9288   2.115   6.070   6.622
 2797SOL     OW 9289   4.997   4.035   4.180
 2797SOL    HW1 9290   5.088   4.076   4.187
 2797SOL    HW2 9291   4.936   4.078   4.247
 2798SOL     OW 9292   5.046   2.180   1.754
 2798SOL    HW1 9293   5.022   2.170   1.658
 2798SOL    HW2 9294   4.965   2.213   1.805
 2799SOL     OW 9295   3.542   6.589   5.435
 2799SOL    HW1 9296   3.530   6.657   5.362
 2799SOL    HW2 9297   3.487   6.616   5.514
 2800SOL     OW 9298   4.729   0.745   6.345
 2800SOL    HW1 9299   4.786   0.750   6.427
 2800SOL    HW2 9300   4.690   0.653   6.338
 2801SOL     OW 9301   0.419   4.533   3.766
 2801SOL    HW1 9302   0.377   4.489   3.846
 2801SOL    HW2 9303   0.423   4.466   3.691
 2802SOL     OW 9304   1.346   5.031   4.418
 2802SOL    HW1 9305   1.257   5.075   4.417
 2802SOL    HW2 9306   1.339   4.939   4.379
 2803SOL     OW 9307   3.805   2.375   6.687
 2803SOL    HW1 9308   3.857   2.334   6.612
 2803SOL    HW2 9309   3.867   2.391   6.765
 2804SOL     OW 9310   6.332   2.774   3.481
 2804SOL    HW1 9311   6.426   2.770   3.517
 2804SOL    HW2 9312   6.322   2.855   3.423
 2805SOL     OW 9313   4.109   4.611   0.592
 2805SOL    HW1 9314   4.178   4.616   0.520
 2805SOL    HW2 9315   4.018   4.618   0.551
 2806SOL     OW 9316   0.265   3.314   5.267
 2806SOL    HW1 9317   0.314   3.227   5.269
 2806SOL    HW2 9318   0.230   3.331   5.175
 2807SOL     OW 9319   4.669   1.741   3.773
 2807SOL    HW1 9320   4.699   1.797   3.851
 2807SOL    HW2 9321   4.590   1.686   3.800
 2808SOL     OW 9322   0.962   6.174   5.436
 2808SOL    HW1 9323   0.900   6.120   5.493
 2808SOL    HW2 9324   1.025   6.113   5.388
 2809SOL     OW 9325   0.837   5.972   1.203
 2809SOL    HW1 9326   0.850   6.067   1.174
 2809SOL    HW2 9327   0.910   5.915   1.166
 2810SOL     OW 9328   0.990   6.159   3.038
 2810SOL    HW1 9329   0.919   6.144   2.970
 2810SOL    HW2 9330   0.968   6.241   3.092
 2811SOL     OW 9331   0.493   1.071   0.614
 2811SOL    HW1 9332   0.584   1.111   0.625
 2811SOL    HW2 9333   0.441   1.126   0.548
 2812SOL     OW 9334   1.593   1.229   1.074
 2812SOL    HW1 9335   1.646   1.251   1.155
 2812SOL    HW2 9336   1.629   1.281   0.996
 2813SOL     OW 9337   0.115   2.465   0.751
 2813SOL    HW1 9338   0.101   2.366   0.763
 2813SOL    HW2 9339   0.117   2.510   0.840
 2814SOL     OW 9340   2.793   4.559   6.795
 2814SOL    HW1 9341   2.893   4.552   6.792
 2814SOL    HW2 9342   2.764   4.642   6.748
 2815SOL     OW 9343   6.924   5.339   4.545
 2815SOL    HW1 9344   6.994   5.284   4.499
 2815SOL    HW2 9345   6.955   5.361   4.638
 2816SOL     OW 9346   1.238   5.102   4.997
 2816SOL    HW1 9347   1.283   5.089   4.909
 2816SOL    HW2 9348   1.174   5.178   4.990
 2817SOL     OW 9349   2.474   0.950   2.265
 2817SOL    HW1 9350   2.451   0.991   2.354
 2817SOL    HW2 9351   2.470   0.850   2.273
 2818SOL     OW 9352   1.339   1.093   0.014
 2818SOL    HW1 9353   1.414   1.031   0.036
 2818SOL    HW2 9354   1.361   1.145   6.948
 2819SOL     OW 9355   0.477   0.094   6.500
 2819SOL    HW1 9356   0.494   0.183   6.458
 2819SOL    HW2 9357   0.514   0.093   6.592
 2820SOL     OW 9358   2.499   1.767   6.570
 2820SOL    HW1 9359   2.419   1.723   6.528
 2820SOL    HW2 9360   2.559   1.804   6.499
 2821SOL     OW 9361   3.196   2.492   5.563
 2821SOL    HW1 9362   3.278   2.518   5.615
 2821SOL    HW2 9363   3.123   2.557   5.582
 2822SOL     OW 9364   4.086   2.848   0.699
 2822SOL    HW1 9365   4.118   2.908   0.772
 2822SOL    HW2 9366   4.076   2.755   0.734
 2823SOL     OW 9367   5.573   3.811   2.079
 2823SOL    HW1 9368   5.527   3.871   2.144
 2823SOL    HW2 9369   5.562   3.716   2.109
 2824SOL     OW 9370   0.948   4.494   5.422
 2824SOL    HW1 9371   0.974   4.439   5.343
 2824SOL    HW2 9372   0.891   4.571   5.392
 2825SOL     OW 9373   5.124   2.106   5.906
 2825SOL    HW1 9374   5.069   2.170   5.960
 2825SOL    HW2 9375   5.096   2.111   5.810
 2826SOL     OW 9376   2.615   3.652   6.728
 2826SOL    HW1 9377   2.656   3.561   6.729
 2826SOL    HW2 9378   2.578   3.673   6.819
 2827SOL     OW 9379   5.950   1.556   6.540
 2827SOL    HW1 9380   6.037   1.602   6.554
 2827SOL    HW2 9381   5.966   1.463   6.508
 2828SOL     OW 9382   1.419   4.089   0.690
 2828SOL    HW1 9383   1.468   4.002   0.696
 2828SOL    HW2 9384   1.335   4.076   0.637
 2829SOL     OW 9385   3.620   3.721   1.924
 2829SOL    HW1 9386   3.560   3.667   1.984
 2829SOL    HW2 9387   3.622   3.815   1.956
 2830SOL     OW 9388   3.465   5.873   4.603
 2830SOL    HW1 9389   3.456   5.805   4.530
 2830SOL    HW2 9390   3.536   5.939   4.578
 2831SOL     OW 9391   6.619   1.733   1.970
 2831SOL    HW1 9392   6.578   1.819   2.000
 2831SOL    HW2 9393   6.559   1.690   1.902
 2832SOL     OW 9394   1.413   3.546   2.191
 2832SOL    HW1 9395   1.434   3.508   2.281
 2832SOL    HW2 9396   1.326   3.510   2.158
 2833SOL     OW 9397   6.695   2.968   2.970
 2833SOL    HW1 9398   6.734   2.881   2.998
 2833SOL    HW2 9399   6.766   3.038   2.968
 2834SOL     OW 9400   3.835   0.868   4.092
 2834SOL    HW1 9401   3.855   0.939   4.159
 2834SOL    HW2 9402   3.887   0.785   4.113
 2835SOL     OW 9403   6.961   1.162   0.016
 2835SOL    HW1 9404   6.966   1.186   0.112
 2835SOL    HW2 9405   7.000   1.071   0.002
 2836SOL     OW 9406   2.915   5.660   2.192
 2836SOL    HW1 9407   2.945   5.752   2.217
 2836SOL    HW2 9408   2.875   5.661   2.101
 2837SOL     OW 9409   5.284   4.153   1.933
 2837SOL    HW1 9410   5.378   4.183   1.916
 2837SOL    HW2 9411   5.281   4.054   1.943
 2838SOL     OW 9412   6.940   3.438   6.151
 2838SOL    HW1 9413   6.899   3.355   6.188
 2838SOL    HW2 9414   6.892   3.466   6.068
 2839SOL     OW 9415   6.180   2.643   6.488
 2839SOL    HW1 9416   6.220   2.732   6.468
 2839SOL    HW2 9417   6.080   2.651   6.489
 2840SOL     OW 9418   5.850   6.315   4.851
 2840SOL    HW1 9419   5.785   6.355   4.915
 2840SOL    HW2 9420   5.826   6.341   4.758
 2841SOL     OW 9421   5.444   4.139   2.624
 2841SOL    HW1 9422   5.406   4.231   2.637
 2841SOL    HW2 9423   5.389   4.090   2.556
 2842SOL     OW 9424   0.714   6.889   3.348
 2842SOL    HW1 9425   0.653   6.951   3.398
 2842SOL    HW2 9426   0.685   6.885   3.252
 2843SOL     OW 9427   2.334   2.723   4.531
 2843SOL    HW1 9428   2.347   2.751   4.626
 2843SOL    HW2 9429   2.355   2.626   4.521
 2844SOL     OW 9430   4.901   3.440   0.432
 2844SOL    HW1 9431   4.935   3.349   0.407
 2844SOL    HW2 9432   4.975   3.492   0.475
 2845SOL     OW 9433   3.130   2.039   1.613
 2845SOL    HW1 9434   3.175   2.124   1.640
 2845SOL    HW2 9435   3.198   1.967   1.602
 2846SOL     OW 9436   5.015   6.770   6.816
 2846SOL    HW1 9437   5.006   6.851   6.759
 2846SOL    HW2 9438   5.000   6.794   6.912
 2847SOL     OW 9439   5.295   5.009   1.449
 2847SOL    HW1 9440   5.316   4.985   1.355
 2847SOL    HW2 9441   5.337   4.942   1.511
 2848SOL     OW 9442   0.596   3.847   6.752
 2848SOL    HW1 9443   0.646   3.850   6.665
 2848SOL    HW2 9444   0.553   3.935   6.770
 2849SOL     OW 9445   5.229   0.270   1.707
 2849SOL    HW1 9446   5.228   0.225   1.796
 2849SOL    HW2 9447   5.295   0.345   1.708
 2850SOL     OW 9448   0.790   1.241   1.577
 2850SOL    HW1 9449   0.741   1.327   1.568
 2850SOL    HW2 9450   0.799   1.198   1.487
 2851SOL     OW 9451   3.647   3.094   1.804
 2851SOL    HW1 9452   3.583   3.168   1.783
 2851SOL    HW2 9453   3.733   3.111   1.755
 2852SOL     OW 9454   0.481   5.315   5.284
 2852SOL    HW1 9455   0.535   5.398   5.268
 2852SOL    HW2 9456   0.387   5.340   5.308
 2853SOL     OW 9457   0.309   4.354   4.847
 2853SOL    HW1 9458   0.374   4.422   4.879
 2853SOL    HW2 9459   0.219   4.396   4.836
 2854SOL     OW 9460   3.026   0.555   6.258
 2854SOL    HW1 9461   3.058   0.572   6.165
 2854SOL    HW2 9462   2.994   0.461   6.266
 2855SOL     OW 9463   2.241   1.530   4.263
 2855SOL    HW1 9464   2.291   1.470   4.200
 2855SOL    HW2 9465   2.298   1.609   4.285
 2856SOL     OW 9466   1.186   5.589   4.474
 2856SOL    HW1 9467   1.228   5.674   4.504
 2856SOL    HW2 9468   1.207   5.575   4.377
 2857SOL     OW 9469   6.712   4.103   0.605
 2857SOL    HW1 9470   6.680   4.058   0.689
 2857SOL    HW2 9471   6.695   4.201   0.611
 2858SOL     OW 9472   5.949   4.390   3.620
 2858SOL    HW1 9473   5.969   4.294   3.602
 2858SOL    HW2 9474   5.850   4.405   3.611
 2859SOL     OW 9475   6.069   4.947   1.407
 2859SOL    HW1 9476   6.105   5.037   1.434
 2859SOL    HW2 9477   6.137   4.900   1.350
 2860SOL     OW 9478   1.166   6.827   3.075
 2860SOL    HW1 9479   1.229   6.902   3.093
 2860SOL    HW2 9480   1.085   6.835   3.134
 2861SOL     OW 9481   5.214   4.195   5.502
 2861SOL    HW1 9482   5.162   4.270   5.459
 2861SOL    HW2 9483   5.156   4.114   5.510
 2862SOL     OW 9484   4.442   0.845   0.817
 2862SOL    HW1 9485   4.530   0.859   0.863
 2862SOL    HW2 9486   4.456   0.788   0.736
 2863SOL     OW 9487   5.586   2.316   5.467
 2863SOL    HW1 9488   5.516   2.258   5.424
 2863SOL    HW2 9489   5.544   2.399   5.502
 2864SOL     OW 9490   4.104   4.275   1.143
 2864SOL    HW1 9491   4.080   4.356   1.090
 2864SOL    HW2 9492   4.053   4.274   1.228
 2865SOL     OW 9493   5.735   5.073   5.811
 2865SOL    HW1 9494   5.826   5.114   5.821
 2865SOL    HW2 9495   5.689   5.113   5.731
 2866SOL     OW 9496   3.634   4.897   1.072
 2866SOL    HW1 9497   3.666   4.872   0.981
 2866SOL    HW2 9498   3.691   4.854   1.141
 2867SOL     OW 9499   6.807   5.924   2.662
 2867SOL    HW1 9500   6.842   5.852   2.722
 2867SOL    HW2 9501   6.849   6.012   2.687
 2868SOL     OW 9502   0.430   6.957   5.203
 2868SOL    HW1 9503   0.411   6.925   5.110
 2868SOL    HW2 9504   0.355   7.013   5.236
 2869SOL     OW 9505   6.091   4.603   5.110
 2869SOL    HW1 9506   6.104   4.621   5.012
 2869SOL    HW2 9507   6.025   4.529   5.121
 2870SOL     OW 9508   1.096   1.519   1.418
 2870SOL    HW1 9509   1.060   1.432   1.450
 2870SOL    HW2 9510   1.193   1.525   1.439
 2871SOL     OW 9511   4.480   1.306   3.423
 2871SOL    HW1 9512   4.465   1.313   3.324
 2871SOL    HW2 9513   4.531   1.222   3.443
 2872SOL     OW 9514   2.965   1.924   2.364
 2872SOL    HW1 9515   3.019   1.955   2.442
 2872SOL    HW2 9516   2.977   1.989   2.288
 2873SOL     OW 9517   0.850   0.003   2.339
 2873SOL    HW1 9518   0.772   6.981   2.289
 2873SOL    HW2 9519   0.817   0.052   2.420
 2874SOL     OW 9520   2.076   1.424   3.538
 2874SOL    HW1 9521   2.116   1.516   3.528
 2874SOL    HW2 9522   2.028   1.399   3.454
 2875SOL     OW 9523   2.208   0.156   3.560
 2875SOL    HW1 9524   2.281   0.088   3.568
 2875SOL    HW2 9525   2.242   0.245   3.591
 2876SOL     OW 9526   1.034   6.606   1.002
 2876SOL    HW1 9527   1.009   6.619   0.906
 2876SOL    HW2 9528   0.951   6.611   1.058
 2877SOL     OW 9529   1.776   3.051   4.734
 2877SOL    HW1 9530   1.733   2.971   4.692
 2877SOL    HW2 9531   1.785   3.036   4.833
 2878SOL     OW 9532   3.672   2.977   4.776
 2878SOL    HW1 9533   3.698   3.039   4.702
 2878SOL    HW2 9534   3.573   2.961   4.772
 2879SOL     OW 9535   5.029   5.245   0.083
 2879SOL    HW1 9536   5.052   5.314   0.015
 2879SOL    HW2 9537   5.110   5.191   0.105
 2880SOL     OW 9538   1.276   2.037   3.608
 2880SOL    HW1 9539   1.227   2.116   3.571
 2880SOL    HW2 9540   1.321   1.987   3.534
 2881SOL     OW 9541   5.200   4.914   0.685
 2881SOL    HW1 9542   5.105   4.908   0.716
 2881SOL    HW2 9543   5.256   4.954   0.757
 2882SOL     OW 9544   4.315   6.561   6.704
 2882SOL    HW1 9545   4.375   6.635   6.735
 2882SOL    HW2 9546   4.348   6.526   6.616
 2883SOL     OW 9547   5.401   6.361   3.488
 2883SOL    HW1 9548   5.434   6.395   3.577
 2883SOL    HW2 9549   5.325   6.299   3.503
 2884SOL     OW 9550   6.104   5.441   3.723
 2884SOL    HW1 9551   6.045   5.406   3.796
 2884SOL    HW2 9552   6.184   5.484   3.763
 2885SOL     OW 9553   0.167   2.977   3.754
 2885SOL    HW1 9554   0.217   2.917   3.817
 2885SOL    HW2 9555   0.222   3.057   3.732
 2886SOL     OW 9556   2.320   4.380   5.020
 2886SOL    HW1 9557   2.295   4.324   4.941
 2886SOL    HW2 9558   2.267   4.349   5.100
 2887SOL     OW 9559   6.864   5.634   2.441
 2887SOL    HW1 9560   6.794   5.564   2.455
 2887SOL    HW2 9561   6.881   5.645   2.343
 2888SOL     OW 9562   4.881   6.556   6.873
 2888SOL    HW1 9563   4.828   6.585   6.953
 2888SOL    HW2 9564   4.936   6.633   6.841
 2889SOL     OW 9565   4.546   6.246   4.481
 2889SOL    HW1 9566   4.538   6.207   4.573
 2889SOL    HW2 9567   4.465   6.301   4.461
 2890SOL     OW 9568   1.468   2.364   0.113
 2890SOL    HW1 9569   1.418   2.372   0.199
 2890SOL    HW2 9570   1.408   2.322   0.044
 2891SOL     OW 9571   1.054   1.181   5.257
 2891SOL    HW1 9572   1.007   1.255   5.209
 2891SOL    HW2 9573   1.084   1.213   5.347
 2892SOL     OW 9574   5.425   4.700   1.902
 2892SOL    HW1 9575   5.402   4.728   1.809
 2892SOL    HW2 9576   5.499   4.757   1.937
 2893SOL     OW 9577   6.670   5.224   4.793
 2893SOL    HW1 9578   6.737   5.150   4.802
 2893SOL    HW2 9579   6.671   5.258   4.699
 2894SOL     OW 9580   1.588   5.207   1.237
 2894SOL    HW1 9581   1.538   5.164   1.312
 2894SOL    HW2 9582   1.567   5.305   1.234
 2895SOL     OW 9583   4.322   6.547   6.184
 2895SOL    HW1 9584   4.419   6.571   6.179
 2895SOL    HW2 9585   4.298   6.489   6.106
 2896SOL     OW 9586   6.414   0.455   5.102
 2896SOL    HW1 9587   6.332   0.467   5.158
 2896SOL    HW2 9588   6.480   0.399   5.151
 2897SOL     OW 9589   3.602   5.655   3.274
 2897SOL    HW1 9590   3.672   5.585   3.288
 2897SOL    HW2 9591   3.517   5.626   3.319
 2898SOL     OW 9592   5.427   2.982   3.490
 2898SOL    HW1 9593   5.441   3.065   3.543
 2898SOL    HW2 9594   5.503   2.971   3.425
 2899SOL     OW 9595   6.349   3.284   0.851
 2899SOL    HW1 9596   6.339   3.263   0.753
 2899SOL    HW2 9597   6.405   3.213   0.894
 2900SOL     OW 9598   2.462   2.562   5.716
 2900SOL    HW1 9599   2.386   2.625   5.701
 2900SOL    HW2 9600   2.518   2.557   5.634
 2901SOL     OW 9601   1.309   4.015   2.400
 2901SOL    HW1 9602   1.293   3.929   2.353
 2901SOL    HW2 9603   1.225   4.070   2.398
 2902SOL     OW 9604   6.008   6.036   3.635
 2902SOL    HW1 9605   5.961   6.119   3.665
 2902SOL    HW2 9606   5.994   6.024   3.537
 2903SOL     OW 9607   0.057   5.077   0.491
 2903SOL    HW1 9608   0.120   5.075   0.413
 2903SOL    HW2 9609   6.994   5.018   0.472
 2904SOL     OW 9610   2.666   4.814   4.909
 2904SOL    HW1 9611   2.603   4.826   4.985
 2904SOL    HW2 9612   2.731   4.741   4.930
 2905SOL     OW 9613   0.911   5.264   1.499
 2905SOL    HW1 9614   0.983   5.295   1.561
 2905SOL    HW2 9615   0.927   5.168   1.476
 2906SOL     OW 9616   0.178   6.428   5.850
 2906SOL    HW1 9617   0.178   6.383   5.939
 2906SOL    HW2 9618   0.229   6.514   5.857
 2907SOL     OW 9619   6.964   0.658   5.433
 2907SOL    HW1 9620   0.043   0.669   5.402
 2907SOL    HW2 9621   6.956   0.574   5.487
 2908SOL     OW 9622   4.672   6.950   4.021
 2908SOL    HW1 9623   4.753   6.900   4.050
 2908SOL    HW2 9624   4.663   6.945   3.921
 2909SOL     OW 9625   0.150   0.126   1.896
 2909SOL    HW1 9626   0.073   0.161   1.842
 2909SOL    HW2 9627   0.166   0.187   1.973
 2910SOL     OW 9628   1.215   0.890   4.417
 2910SOL    HW1 9629   1.281   0.848   4.354
 2910SOL    HW2 9630   1.178   0.974   4.377
 2911SOL     OW 9631   0.223   3.721   5.211
 2911SOL    HW1 9632   0.289   3.646   5.208
 2911SOL    HW2 9633   0.131   3.684   5.225
 2912SOL     OW 9634   0.534   1.929   2.196
 2912SOL    HW1 9635   0.541   1.950   2.099
 2912SOL    HW2 9636   0.625   1.914   2.234
 2913SOL     OW 9637   0.726   6.774   2.819
 2913SOL    HW1 9638   0.669   6.737   2.745
 2913SOL    HW2 9639   0.790   6.840   2.781
 2914SOL     OW 9640   3.977   4.518   1.482
 2914SOL    HW1 9641   3.972   4.423   1.451
 2914SOL    HW2 9642   3.914   4.531   1.559
 2915SOL     OW 9643   2.169   0.595   3.745
 2915SOL    HW1 9644   2.221   0.643   3.815
 2915SOL    HW2 9645   2.075   0.582   3.776
 2916SOL     OW 9646   0.700   5.351   6.519
 2916SOL    HW1 9647   0.763   5.302   6.580
 2916SOL    HW2 9648   0.752   5.417   6.464
 2917SOL     OW 9649   2.473   0.357   3.300
 2917SOL    HW1 9650   2.550   0.310   3.256
 2917SOL    HW2 9651   2.505   0.400   3.384
 2918SOL     OW 9652   5.123   2.393   1.464
 2918SOL    HW1 9653   5.038   2.341   1.453
 2918SOL    HW2 9654   5.121   2.442   1.552
 2919SOL     OW 9655   0.601   6.189   4.775
 2919SOL    HW1 9656   0.597   6.269   4.835
 2919SOL    HW2 9657   0.674   6.201   4.707
 2920SOL     OW 9658   2.699   2.652   1.676
 2920SOL    HW1 9659   2.752   2.733   1.702
 2920SOL    HW2 9660   2.737   2.614   1.591
 2921SOL     OW 9661   0.906   6.585   3.576
 2921SOL    HW1 9662   0.897   6.682   3.598
 2921SOL    HW2 9663   0.974   6.573   3.505
 2922SOL     OW 9664   3.838   5.081   3.682
 2922SOL    HW1 9665   3.757   5.022   3.682
 2922SOL    HW2 9666   3.896   5.058   3.760
 2923SOL     OW 9667   1.244   5.526   4.208
 2923SOL    HW1 9668   1.255   5.546   4.111
 2923SOL    HW2 9669   1.239   5.427   4.221
 2924SOL     OW 9670   5.103   1.478   6.309
 2924SOL    HW1 9671   5.127   1.496   6.214
 2924SOL    HW2 9672   5.184   1.491   6.366
 2925SOL     OW 9673   5.546   6.578   4.632
 2925SOL    HW1 9674   5.480   6.612   4.699
 2925SOL    HW2 9675   5.588   6.655   4.584
 2926SOL     OW 9676   6.692   2.488   4.746
 2926SOL    HW1 9677   6.756   2.560   4.722
 2926SOL    HW2 9678   6.736   2.424   4.809
 2927SOL     OW 9679   1.303   1.746   2.602
 2927SOL    HW1 9680   1.267   1.802   2.677
 2927SOL    HW2 9681   1.361   1.674   2.639
 2928SOL     OW 9682   5.133   3.498   0.620
 2928SOL    HW1 9683   5.154   3.555   0.700
 2928SOL    HW2 9684   5.212   3.498   0.558
 2929SOL     OW 9685   2.483   1.473   3.141
 2929SOL    HW1 9686   2.491   1.573   3.139
 2929SOL    HW2 9687   2.395   1.446   3.101
 2930SOL     OW 9688   0.542   3.590   4.195
 2930SOL    HW1 9689   0.608   3.654   4.156
 2930SOL    HW2 9690   0.488   3.550   4.121
 2931SOL     OW 9691   5.935   4.540   5.746
 2931SOL    HW1 9692   5.974   4.613   5.803
 2931SOL    HW2 9693   6.009   4.488   5.704
 2932SOL     OW 9694   6.531   5.554   1.187
 2932SOL    HW1 9695   6.536   5.644   1.144
 2932SOL    HW2 9696   6.583   5.487   1.133
 2933SOL     OW 9697   0.832   0.386   6.996
 2933SOL    HW1 9698   0.828   0.355   6.901
 2933SOL    HW2 9699   0.744   0.369   0.025
 2934SOL     OW 9700   5.430   5.474   1.595
 2934SOL    HW1 9701   5.474   5.385   1.602
 2934SOL    HW2 9702   5.440   5.523   1.682
 2935SOL     OW 9703   0.919   3.296   5.540
 2935SOL    HW1 9704   0.993   3.229   5.539
 2935SOL    HW2 9705   0.880   3.304   5.448
 2936SOL     OW 9706   4.486   6.539   2.344
 2936SOL    HW1 9707   4.518   6.633   2.354
 2936SOL    HW2 9708   4.399   6.528   2.393
 2937SOL     OW 9709   6.085   3.718   3.291
 2937SOL    HW1 9710   6.157   3.787   3.283
 2937SOL    HW2 9711   6.025   3.722   3.212
 2938SOL     OW 9712   0.487   4.914   0.034
 2938SOL    HW1 9713   0.521   4.856   6.976
 2938SOL    HW2 9714   0.442   4.858   0.103
 2939SOL     OW 9715   6.870   6.077   1.706
 2939SOL    HW1 9716   6.925   6.028   1.774
 2939SOL    HW2 9717   6.897   6.048   1.614
 2940SOL     OW 9718   4.643   6.421   4.276
 2940SOL    HW1 9719   4.608   6.360   4.347
 2940SOL    HW2 9720   4.626   6.516   4.301
 2941SOL     OW 9721   2.746   4.767   3.172
 2941SOL    HW1 9722   2.652   4.773   3.139
 2941SOL    HW2 9723   2.750   4.795   3.268
 2942SOL     OW 9724   3.318   2.102   1.979
 2942SOL    HW1 9725   3.266   2.140   1.903
 2942SOL    HW2 9726   3.411   2.139   1.978
 2943SOL     OW 9727   6.801   3.589   3.318
 2943SOL    HW1 9728   6.711   3.571   3.278
 2943SOL    HW2 9729   6.820   3.520   3.388
 2944SOL     OW 9730   1.713   6.084   3.001
 2944SOL    HW1 9731   1.615   6.077   2.985
 2944SOL    HW2 9732   1.740   6.181   3.001
 2945SOL     OW 9733   5.671   3.709   1.413
 2945SOL    HW1 9734   5.666   3.612   1.437
 2945SOL    HW2 9735   5.743   3.723   1.344
 2946SOL     OW 9736   3.325   2.985   4.495
 2946SOL    HW1 9737   3.344   2.911   4.431
 2946SOL    HW2 9738   3.262   3.050   4.454
 2947SOL     OW 9739   6.305   5.356   0.130
 2947SOL    HW1 9740   6.363   5.347   0.049
 2947SOL    HW2 9741   6.301   5.452   0.158
 2948SOL     OW 9742   6.720   4.181   1.200
 2948SOL    HW1 9743   6.644   4.122   1.174
 2948SOL    HW2 9744   6.806   4.136   1.180
 2949SOL     OW 9745   1.337   6.683   0.757
 2949SOL    HW1 9746   1.399   6.702   0.681
 2949SOL    HW2 9747   1.263   6.750   0.757
 2950SOL     OW 9748   5.876   5.721   2.688
 2950SOL    HW1 9749   5.921   5.810   2.689
 2950SOL    HW2 9750   5.946   5.649   2.687
 2951SOL     OW 9751   0.797   2.438   0.909
 2951SOL    HW1 9752   0.729   2.500   0.950
 2951SOL    HW2 9753   0.859   2.406   0.981
 2952SOL     OW 9754   0.055   1.528   4.164
 2952SOL    HW1 9755   7.007   1.559   4.234
 2952SOL    HW2 9756   0.103   1.446   4.197
 2953SOL     OW 9757   1.924   6.304   3.240
 2953SOL    HW1 9758   1.976   6.376   3.285
 2953SOL    HW2 9759   1.982   6.257   3.173
 2954SOL     OW 9760   0.783   4.086   5.838
 2954SOL    HW1 9761   0.708   4.038   5.884
 2954SOL    HW2 9762   0.800   4.044   5.749
 2955SOL     OW 9763   1.760   4.708   6.505
 2955SOL    HW1 9764   1.766   4.614   6.473
 2955SOL    HW2 9765   1.768   4.710   6.605
 2956SOL     OW 9766   5.347   4.196   4.637
 2956SOL    HW1 9767   5.378   4.215   4.730
 2956SOL    HW2 9768   5.252   4.164   4.640
 2957SOL     OW 9769   2.309   5.720   1.823
 2957SOL    HW1 9770   2.384   5.715   1.889
 2957SOL    HW2 9771   2.306   5.635   1.770
 2958SOL     OW 9772   1.447   4.895   2.494
 2958SOL    HW1 9773   1.472   4.802   2.469
 2958SOL    HW2 9774   1.403   4.940   2.416
 2959SOL     OW 9775   0.043   4.196   3.900
 2959SOL    HW1 9776   0.031   4.209   3.999
 2959SOL    HW2 9777   0.018   4.280   3.852
 2960SOL     OW 9778   4.598   6.472   1.377
 2960SOL    HW1 9779   4.656   6.474   1.459
 2960SOL    HW2 9780   4.587   6.565   1.342
 2961SOL     OW 9781   5.395   2.525   1.623
 2961SOL    HW1 9782   5.334   2.536   1.701
 2961SOL    HW2 9783   5.428   2.431   1.620
 2962SOL     OW 9784   7.009   0.105   3.926
 2962SOL    HW1 9785   0.051   0.126   3.847
 2962SOL    HW2 9786   0.002   0.009   3.950
 2963SOL     OW 9787   1.753   1.026   5.390
 2963SOL    HW1 9788   1.810   1.074   5.323
 2963SOL    HW2 9789   1.689   0.966   5.342
 2964SOL     OW 9790   1.499   0.175   6.209
 2964SOL    HW1 9791   1.498   0.104   6.279
 2964SOL    HW2 9792   1.578   0.162   6.149
 2965SOL     OW 9793   5.891   0.516   6.034
 2965SOL    HW1 9794   5.851   0.502   6.125
 2965SOL    HW2 9795   5.823   0.557   5.974
 2966SOL     OW 9796   3.989   5.229   2.844
 2966SOL    HW1 9797   4.010   5.264   2.935
 2966SOL    HW2 9798   3.899   5.262   2.816
 2967SOL     OW 9799   5.574   6.919   4.945
 2967SOL    HW1 9800   5.539   6.973   4.869
 2967SOL    HW2 9801   5.543   6.824   4.937
 2968SOL     OW 9802   1.333   3.984   1.272
 2968SOL    HW1 9803   1.410   3.988   1.336
 2968SOL    HW2 9804   1.287   3.896   1.281
 2969SOL     OW 9805   4.866   2.719   4.400
 2969SOL    HW1 9806   4.932   2.661   4.352
 2969SOL    HW2 9807   4.915   2.793   4.446
 2970SOL     OW 9808   2.317   2.992   5.552
 2970SOL    HW1 9809   2.367   3.079   5.540
 2970SOL    HW2 9810   2.366   2.919   5.505
 2971SOL     OW 9811   4.519   4.022   6.947
 2971SOL    HW1 9812   4.421   4.003   6.944
 2971SOL    HW2 9813   4.550   4.022   0.026
 2972SOL     OW 9814   0.131   5.776   6.594
 2972SOL    HW1 9815   0.143   5.738   6.686
 2972SOL    HW2 9816   0.215   5.822   6.566
 2973SOL     OW 9817   5.688   0.834   4.261
 2973SOL    HW1 9818   5.651   0.894   4.332
 2973SOL    HW2 9819   5.683   0.880   4.173
 2974SOL     OW 9820   5.676   6.456   1.818
 2974SOL    HW1 9821   5.775   6.449   1.806
 2974SOL    HW2 9822   5.655   6.522   1.890
 2975SOL     OW 9823   6.821   3.461   4.940
 2975SOL    HW1 9824   6.752   3.400   4.980
 2975SOL    HW2 9825   6.826   3.546   4.993
 2976SOL     OW 9826   3.573   0.816   1.687
 2976SOL    HW1 9827   3.650   0.799   1.627
 2976SOL    HW2 9828   3.532   0.729   1.714
 2977SOL     OW 9829   1.686   1.356   1.657
 2977SOL    HW1 9830   1.775   1.393   1.680
 2977SOL    HW2 9831   1.617   1.428   1.664
 2978SOL     OW 9832   3.178   5.773   0.233
 2978SOL    HW1 9833   3.173   5.689   0.287
 2978SOL    HW2 9834   3.242   5.760   0.158
 2979SOL     OW 9835   2.954   0.771   5.279
 2979SOL    HW1 9836   2.873   0.829   5.288
 2979SOL    HW2 9837   2.930   0.676   5.302
 2980SOL     OW 9838   3.483   2.883   4.274
 2980SOL    HW1 9839   3.557   2.885   4.341
 2980SOL    HW2 9840   3.521   2.875   4.182
 2981SOL     OW 9841   3.018   2.033   1.915
 2981SOL    HW1 9842   2.924   2.044   1.883
 2981SOL    HW2 9843   3.077   2.102   1.872
 2982SOL     OW 9844   1.618   0.776   0.719
 2982SOL    HW1 9845   1.598   0.834   0.798
 2982SOL    HW2 9846   1.593   0.824   0.635
 2983SOL     OW 9847   6.452   2.513   6.245
 2983SOL    HW1 9848   6.410   2.603   6.243
 2983SOL    HW2 9849   6.535   2.516   6.302
 2984SOL     OW 9850   0.539   6.100   1.342
 2984SOL    HW1 9851   0.610   6.167   1.362
 2984SOL    HW2 9852   0.575   6.031   1.279
 2985SOL     OW 9853   6.373   0.799   5.830
 2985SOL    HW1 9854   6.414   0.766   5.915
 2985SOL    HW2 9855   6.300   0.864   5.852
 2986SOL     OW 9856   3.280   3.209   2.028
 2986SOL    HW1 9857   3.340   3.236   1.953
 2986SOL    HW2 9858   3.274   3.283   2.094
 2987SOL     OW 9859   2.515   5.614   4.779
 2987SOL    HW1 9860   2.537   5.526   4.822
 2987SOL    HW2 9861   2.527   5.687   4.845
 2988SOL     OW 9862   6.820   1.974   5.982
 2988SOL    HW1 9863   6.869   1.991   5.897
 2988SOL    HW2 9864   6.862   2.028   6.056
 2989SOL     OW 9865   5.668   3.387   5.489
 2989SOL    HW1 9866   5.661   3.412   5.586
 2989SOL    HW2 9867   5.692   3.290   5.481
 2990SOL     OW 9868   5.418   1.072   5.585
 2990SOL    HW1 9869   5.435   1.085   5.683
 2990SOL    HW2 9870   5.356   1.143   5.552
 2991SOL     OW 9871   6.887   3.710   7.010
 2991SOL    HW1 9872   6.787   3.708   7.011
 2991SOL    HW2 9873   6.922   3.680   0.083
 2992SOL     OW 9874   0.619   3.635   5.476
 2992SOL    HW1 9875   0.712   3.604   5.498
 2992SOL    HW2 9876   0.569   3.559   5.434
 2993SOL     OW 9877   2.917   5.149   0.566
 2993SOL    HW1 9878   2.899   5.198   0.651
 2993SOL    HW2 9879   3.008   5.108   0.569
 2994SOL     OW 9880   2.746   5.051   4.795
 2994SOL    HW1 9881   2.678   5.093   4.734
 2994SOL    HW2 9882   2.709   4.966   4.833
 2995SOL     OW 9883   5.052   0.599   1.925
 2995SOL    HW1 9884   5.020   0.664   1.856
 2995SOL    HW2 9885   4.982   0.586   1.994
 2996SOL     OW 9886   6.598   0.867   4.140
 2996SOL    HW1 9887   6.643   0.779   4.129
 2996SOL    HW2 9888   6.506   0.863   4.102
 2997SOL     OW 9889   4.826   5.860   4.409
 2997SOL    HW1 9890   4.791   5.878   4.501
 2997SOL    HW2 9891   4.815   5.941   4.352
 2998SOL     OW 9892   2.659   0.744   1.743
 2998SOL    HW1 9893   2.653   0.830   1.693
 2998SOL    HW2 9894   2.724   0.754   1.818
 2999SOL     OW 9895   0.991   4.421   0.540
 2999SOL    HW1 9896   0.979   4.520   0.536
 2999SOL    HW2 9897   1.003   4.392   0.635
 3000SOL     OW 9898   2.173   3.784   5.158
 3000SOL    HW1 9899   2.173   3.709   5.091
 3000SOL    HW2 9900   2.218   3.864   5.119
 3001SOL     OW 9901   4.393   0.777   6.319
 3001SOL    HW1 9902   4.352   0.698   6.274
 3001SOL    HW2 9903   4.476   0.805   6.271
 3002SOL     OW 9904   1.476   2.118   2.417
 3002SOL    HW1 9905   1.477   2.214   2.444
 3002SOL    HW2 9906   1.384   2.081   2.428
 3003SOL     OW 9907   1.182   5.800   0.629
 3003SOL    HW1 9908   1.093   5.830   0.663
 3003SOL    HW2 9909   1.230   5.878   0.588
 3004SOL     OW 9910   3.366   6.789   3.967
 3004SOL    HW1 9911   3.357   6.690   3.953
 3004SOL    HW2 9912   3.277   6.832   3.960
 3005SOL     OW 9913   2.753   1.599   0.280
 3005SOL    HW1 9914   2.755   1.635   0.187
 3005SOL    HW2 9915   2.840   1.619   0.326
 3006SOL     OW 9916   5.744   1.353   5.746
 3006SOL    HW1 9917   5.740   1.276   5.683
 3006SOL    HW2 9918   5.774   1.435   5.698
 3007SOL     OW 9919   6.083   5.590   5.709
 3007SOL    HW1 9920   5.992   5.554   5.690
 3007SOL    HW2 9921   6.098   5.594   5.808
 3008SOL     OW 9922   4.873   4.010   5.672
 3008SOL    HW1 9923   4.774   3.996   5.667
 3008SOL    HW2 9924   4.896   4.053   5.759
 3009SOL     OW 9925   5.507   3.132   2.202
 3009SOL    HW1 9926   5.535   3.087   2.287
 3009SOL    HW2 9927   5.560   3.094   2.125
 3010SOL     OW 9928   4.782   5.228   1.692
 3010SOL    HW1 9929   4.751   5.321   1.714
 3010SOL    HW2 9930   4.827   5.228   1.603
 3011SOL     OW 9931   5.543   6.821   0.454
 3011SOL    HW1 9932   5.534   6.874   0.370
 3011SOL    HW2 9933   5.489   6.737   0.447
 3012SOL     OW 9934   2.382   1.119   4.670
 3012SOL    HW1 9935   2.439   1.040   4.649
 3012SOL    HW2 9936   2.293   1.108   4.626
 3013SOL     OW 9937   1.057   4.992   5.386
 3013SOL    HW1 9938   1.100   5.081   5.403
 3013SOL    HW2 9939   0.965   5.006   5.351
 3014SOL     OW 9940   3.919   0.429   0.170
 3014SOL    HW1 9941   3.866   0.463   0.248
 3014SOL    HW2 9942   3.871   0.450   0.085
 3015SOL     OW 9943   2.507   6.865   5.970
 3015SOL    HW1 9944   2.573   6.940   5.960
 3015SOL    HW2 9945   2.541   6.785   5.920
 3016SOL     OW 9946   2.713   0.589   4.088
 3016SOL    HW1 9947   2.685   0.581   3.992
 3016SOL    HW2 9948   2.657   0.528   4.144
 3017SOL     OW 9949   0.817   6.155   0.094
 3017SOL    HW1 9950   0.742   6.181   0.033
 3017SOL    HW2 9951   0.871   6.083   0.051
 3018SOL     OW 9952   3.160   2.257   1.772
 3018SOL    HW1 9953   3.236   2.311   1.735
 3018SOL    HW2 9954   3.085   2.317   1.797
 3019SOL     OW 9955   1.189   0.656   5.397
 3019SOL    HW1 9956   1.263   0.673   5.331
 3019SOL    HW2 9957   1.117   0.603   5.353
 3020SOL     OW 9958   4.911   5.087   6.915
 3020SOL    HW1 9959   4.949   4.995   6.917
 3020SOL    HW2 9960   4.972   5.148   6.966
 3021SOL     OW 9961   5.081   6.807   4.210
 3021SOL    HW1 9962   4.997   6.829   4.160
 3021SOL    HW2 9963   5.057   6.769   4.299
 3022SOL     OW 9964   4.623   6.708   4.665
 3022SOL    HW1 9965   4.720   6.728   4.649
 3022SOL    HW2 9966   4.609   6.609   4.671
 3023SOL     OW 9967   5.170   4.695   5.459
 3023SOL    HW1 9968   5.254   4.666   5.413
 3023SOL    HW2 9969   5.093   4.641   5.424
 3024SOL     OW 9970   6.876   0.988   0.393
 3024SOL    HW1 9971   6.786   0.951   0.370
 3024SOL    HW2 9972   6.895   0.971   0.490
 3025SOL     OW 9973   3.901   5.506   0.575
 3025SOL    HW1 9974   3.835   5.570   0.615
 3025SOL    HW2 9975   3.992   5.549   0.573
 3026SOL     OW 9976   0.354   0.451   2.125
 3026SOL    HW1 9977   0.284   0.382   2.107
 3026SOL    HW2 9978   0.384   0.443   2.221
 3027SOL     OW 9979   3.917   6.680   0.993
 3027SOL    HW1 9980   3.885   6.762   0.946
 3027SOL    HW2 9981   3.846   6.610   0.990
 3028SOL     OW 9982   3.706   3.284   4.335
 3028SOL    HW1 9983   3.745   3.368   4.372
 3028SOL    HW2 9984   3.780   3.217   4.322
 3029SOL     OW 9985   0.228   2.662   5.212
 3029SOL    HW1 9986   0.302   2.666   5.279
 3029SOL    HW2 9987   0.179   2.575   5.221
 3030SOL     OW 9988   1.248   2.962   6.316
 3030SOL    HW1 9989   1.326   2.903   6.335
 3030SOL    HW2 9990   1.163   2.913   6.335
 3031SOL     OW 9991   0.657   5.099   0.127
 3031SOL    HW1 9992   0.691   5.062   0.214
 3031SOL    HW2 9993   0.591   5.035   0.087
 3032SOL     OW 9994   3.093   6.893   3.748
 3032SOL    HW1 9995   3.104   6.985   3.712
 3032SOL    HW2 9996   3.087   6.897   3.848
 3033SOL     OW 9997   1.446   1.501   6.444
 3033SOL    HW1 9998   1.457   1.475   6.348
 3033SOL    HW2 9999   1.536   1.501   6.489
 3034SOL     OW10000   5.187   3.516   3.661
 3034SOL    HW110001   5.193   3.508   3.561
 3034SOL    HW210002   5.106   3.569   3.686
 3035SOL     OW10003   6.724   3.640   6.732
 3035SOL    HW110004   6.759   3.717   6.678
 3035SOL    HW210005   6.775   3.633   6.817
 3036SOL     OW10006   3.345   2.382   6.048
 3036SOL    HW110007   3.353   2.481   6.036
 3036SOL    HW210008   3.312   2.341   5.963
 3037SOL     OW10009   0.866   4.933   6.415
 3037SOL    HW110010   0.803   4.938   6.492
 3037SOL    HW210011   0.960   4.947   6.448
 3038SOL     OW10012   5.898   4.852   5.551
 3038SOL    HW110013   5.805   4.816   5.542
 3038SOL    HW210014   5.924   4.854   5.647
 3039SOL     OW10015   5.509   3.334   6.018
 3039SOL    HW110016   5.470   3.247   5.990
 3039SOL    HW210017   5.608   3.324   6.032
 3040SOL     OW10018   3.582   6.339   5.980
 3040SOL    HW110019   3.501   6.358   6.037
 3040SOL    HW210020   3.664   6.363   6.031
 3041SOL     OW10021   1.780   5.399   6.614
 3041SOL    HW110022   1.712   5.440   6.674
 3041SOL    HW210023   1.744   5.313   6.576
 3042SOL     OW10024   0.211   5.169   4.153
 3042SOL    HW110025   0.186   5.220   4.071
 3042SOL    HW210026   0.304   5.194   4.181
 3043SOL     OW10027   3.057   4.286   1.286
 3043SOL    HW110028   3.088   4.245   1.201
 3043SOL    HW210029   3.081   4.383   1.288
 3044SOL     OW10030   3.621   3.541   4.616
 3044SOL    HW110031   3.594   3.446   4.630
 3044SOL    HW210032   3.695   3.546   4.549
 3045SOL     OW10033   5.404   1.210   2.546
 3045SOL    HW110034   5.423   1.305   2.522
 3045SOL    HW210035   5.452   1.187   2.631
 3046SOL     OW10036   5.714   5.215   1.082
 3046SOL    HW110037   5.787   5.150   1.103
 3046SOL    HW210038   5.634   5.165   1.046
 3047SOL     OW10039   5.904   1.794   4.120
 3047SOL    HW110040   5.824   1.815   4.177
 3047SOL    HW210041   5.987   1.818   4.169
 3048SOL     OW10042   4.240   4.916   1.580
 3048SOL    HW110043   4.290   4.829   1.579
 3048SOL    HW210044   4.172   4.916   1.506
 3049SOL     OW10045   0.316   1.824   2.277
 3049SOL    HW110046   0.331   1.739   2.328
 3049SOL    HW210047   0.403   1.863   2.249
 3050SOL     OW10048   3.517   2.326   6.491
 3050SOL    HW110049   3.615   2.334   6.506
 3050SOL    HW210050   3.500   2.296   6.397
 3051SOL     OW10051   2.725   5.284   6.232
 3051SOL    HW110052   2.746   5.195   6.193
 3051SOL    HW210053   2.794   5.350   6.204
 3052SOL     OW10054   5.824   5.961   3.423
 3052SOL    HW110055   5.765   5.970   3.342
 3052SOL    HW210056   5.768   5.960   3.505
 3053SOL     OW10057   0.732   4.302   6.658
 3053SOL    HW110058   0.661   4.267   6.596
 3053SOL    HW210059   0.789   4.226   6.689
 3054SOL     OW10060   5.745   0.007   3.008
 3054SOL    HW110061   5.714   0.066   3.082
 3054SOL    HW210062   5.678   0.009   2.934
 3055SOL     OW10063   4.614   6.692   0.429
 3055SOL    HW110064   4.531   6.663   0.477
 3055SOL    HW210065   4.617   6.792   0.425
 3056SOL     OW10066   4.673   1.677   0.813
 3056SOL    HW110067   4.657   1.771   0.783
 3056SOL    HW210068   4.719   1.677   0.902
 3057SOL     OW10069   6.442   3.759   3.698
 3057SOL    HW110070   6.420   3.714   3.785
 3057SOL    HW210071   6.369   3.823   3.674
 3058SOL     OW10072   0.128   4.953   5.869
 3058SOL    HW110073   0.166   5.042   5.893
 3058SOL    HW210074   0.037   4.944   5.910
 3059SOL     OW10075   1.321   2.419   3.006
 3059SOL    HW110076   1.326   2.514   3.034
 3059SOL    HW210077   1.403   2.395   2.954
 3060SOL     OW10078   5.580   3.813   3.150
 3060SOL    HW110079   5.638   3.740   3.188
 3060SOL    HW210080   5.602   3.826   3.053
 3061SOL     OW10081   5.951   6.411   2.700
 3061SOL    HW110082   5.926   6.507   2.689
 3061SOL    HW210083   5.869   6.358   2.724
 3062SOL     OW10084   3.960   5.333   0.993
 3062SOL    HW110085   4.042   5.360   0.943
 3062SOL    HW210086   3.959   5.233   1.003
 3063SOL     OW10087   6.836   4.886   0.473
 3063SOL    HW110088   6.822   4.837   0.560
 3063SOL    HW210089   6.753   4.937   0.450
 3064SOL     OW10090   4.714   1.724   6.424
 3064SOL    HW110091   4.751   1.761   6.339
 3064SOL    HW210092   4.728   1.625   6.427
 3065SOL     OW10093   5.491   1.021   6.182
 3065SOL    HW110094   5.515   1.100   6.238
 3065SOL    HW210095   5.411   0.975   6.221
 3066SOL     OW10096   5.127   0.267   5.671
 3066SOL    HW110097   5.115   0.228   5.762
 3066SOL    HW210098   5.075   0.352   5.663
 3067SOL     OW10099   1.469   1.760   4.602
 3067SOL    HW110100   1.517   1.845   4.621
 3067SOL    HW210101   1.522   1.705   4.538
 3068SOL     OW10102   5.781   0.222   1.062
 3068SOL    HW110103   5.871   0.264   1.053
 3068SOL    HW210104   5.771   0.150   0.993
 3069SOL     OW10105   5.450   6.130   3.940
 3069SOL    HW110106   5.447   6.215   3.888
 3069SOL    HW210107   5.473   6.149   4.035
 3070SOL     OW10108   2.677   1.059   1.002
 3070SOL    HW110109   2.661   1.153   1.035
 3070SOL    HW210110   2.751   1.060   0.935
 3071SOL     OW10111   5.633   4.637   5.215
 3071SOL    HW110112   5.567   4.562   5.215
 3071SOL    HW210113   5.633   4.681   5.125
 3072SOL     OW10114   1.623   6.847   5.333
 3072SOL    HW110115   1.696   6.860   5.401
 3072SOL    HW210116   1.616   6.750   5.310
 3073SOL     OW10117   6.790   5.177   2.186
 3073SOL    HW110118   6.691   5.188   2.179
 3073SOL    HW210119   6.818   5.099   2.130
 3074SOL     OW10120   3.168   2.928   1.771
 3074SOL    HW110121   3.210   3.002   1.720
 3074SOL    HW210122   3.239   2.868   1.808
 3075SOL     OW10123   4.058   5.065   1.412
 3075SOL    HW110124   3.960   5.057   1.394
 3075SOL    HW210125   4.072   5.113   1.498
 3076SOL     OW10126   2.124   1.624   3.811
 3076SOL    HW110127   2.219   1.642   3.788
 3076SOL    HW210128   2.066   1.637   3.730
 3077SOL     OW10129   0.287   3.472   1.912
 3077SOL    HW110130   0.338   3.431   1.836
 3077SOL    HW210131   0.348   3.484   1.990
 3078SOL     OW10132   0.215   3.718   1.804
 3078SOL    HW110133   0.226   3.715   1.705
 3078SOL    HW210134   0.207   3.625   1.840
 3079SOL     OW10135   1.601   4.129   4.090
 3079SOL    HW110136   1.551   4.166   4.168
 3079SOL    HW210137   1.536   4.099   4.020
 3080SOL     OW10138   3.813   4.586   1.710
 3080SOL    HW110139   3.821   4.488   1.730
 3080SOL    HW210140   3.723   4.618   1.740
 3081SOL     OW10141   2.357   2.838   5.904
 3081SOL    HW110142   2.304   2.762   5.865
 3081SOL    HW210143   2.303   2.923   5.897
 3082SOL     OW10144   5.354   3.897   5.177
 3082SOL    HW110145   5.433   3.849   5.138
 3082SOL    HW210146   5.282   3.831   5.198
 3083SOL     OW10147   4.094   5.765   1.072
 3083SOL    HW110148   4.183   5.809   1.070
 3083SOL    HW210149   4.063   5.755   1.167
 3084SOL     OW10150   0.103   5.226   3.902
 3084SOL    HW110151   0.041   5.299   3.875
 3084SOL    HW210152   0.090   5.147   3.841
 3085SOL     OW10153   6.447   5.757   6.997
 3085SOL    HW110154   6.497   5.839   0.009
 3085SOL    HW210155   6.459   5.685   0.050
 3086SOL     OW10156   5.972   6.697   6.576
 3086SOL    HW110157   5.902   6.734   6.515
 3086SOL    HW210158   6.024   6.772   6.617
 3087SOL     OW10159   3.021   0.387   2.370
 3087SOL    HW110160   3.068   0.458   2.423
 3087SOL    HW210161   2.934   0.366   2.414
 3088SOL     OW10162   2.422   3.754   5.364
 3088SOL    HW110163   2.396   3.820   5.294
 3088SOL    HW210164   2.503   3.704   5.335
 3089SOL     OW10165   3.955   6.524   6.479
 3089SOL    HW110166   3.991   6.437   6.445
 3089SOL    HW210167   4.031   6.587   6.498
 3090SOL     OW10168   1.123   2.641   2.168
 3090SOL    HW110169   1.172   2.713   2.218
 3090SOL    HW210170   1.030   2.671   2.148
 3091SOL     OW10171   1.221   2.390   7.010
 3091SOL    HW110172   1.248   2.485   0.009
 3091SOL    HW210173   1.153   2.385   6.937
 3092SOL     OW10174   5.681   1.336   2.626
 3092SOL    HW110175   5.749   1.392   2.674
 3092SOL    HW210176   5.637   1.274   2.691
 3093SOL     OW10177   6.464   5.360   6.599
 3093SOL    HW110178   6.484   5.443   6.651
 3093SOL    HW210179   6.406   5.384   6.520
 3094SOL     OW10180   2.101   1.527   6.126
 3094SOL    HW110181   2.078   1.438   6.165
 3094SOL    HW210182   2.118   1.517   6.028
 3095SOL     OW10183   1.568   3.846   4.829
 3095SOL    HW110184   1.664   3.864   4.808
 3095SOL    HW210185   1.520   3.932   4.844
 3096SOL     OW10186   1.681   2.933   4.395
 3096SOL    HW110187   1.606   2.985   4.354
 3096SOL    HW210188   1.767   2.961   4.352
 3097SOL     OW10189   5.366   2.859   5.871
 3097SOL    HW110190   5.348   2.957   5.876
 3097SOL    HW210191   5.374   2.822   5.963
 3098SOL     OW10192   1.810   3.334   2.422
 3098SOL    HW110193   1.820   3.239   2.393
 3098SOL    HW210194   1.874   3.353   2.496
 3099SOL     OW10195   1.189   6.678   5.366
 3099SOL    HW110196   1.186   6.602   5.430
 3099SOL    HW210197   1.116   6.668   5.299
 3100SOL     OW10198   6.269   4.921   2.479
 3100SOL    HW110199   6.193   4.892   2.537
 3100SOL    HW210200   6.242   4.914   2.383
 3101SOL     OW10201   4.958   0.325   4.748
 3101SOL    HW110202   5.028   0.396   4.742
 3101SOL    HW210203   4.875   0.356   4.703
 3102SOL     OW10204   5.807   4.745   2.237
 3102SOL    HW110205   5.886   4.684   2.244
 3102SOL    HW210206   5.770   4.762   2.328
 3103SOL     OW10207   1.770   2.281   2.134
 3103SOL    HW110208   1.833   2.343   2.179
 3103SOL    HW210209   1.821   2.207   2.090
 3104SOL     OW10210   5.468   2.078   5.306
 3104SOL    HW110211   5.373   2.102   5.328
 3104SOL    HW210212   5.501   2.009   5.371
 3105SOL     OW10213   5.158   4.057   0.663
 3105SOL    HW110214   5.086   4.064   0.732
 3105SOL    HW210215   5.120   4.017   0.580
 3106SOL     OW10216   5.374   1.947   5.864
 3106SOL    HW110217   5.422   1.910   5.944
 3106SOL    HW210218   5.328   2.032   5.890
 3107SOL     OW10219   4.087   2.241   4.463
 3107SOL    HW110220   4.025   2.234   4.542
 3107SOL    HW210221   4.041   2.204   4.382
 3108SOL     OW10222   1.542   4.584   3.559
 3108SOL    HW110223   1.576   4.678   3.550
 3108SOL    HW210224   1.577   4.529   3.482
 3109SOL     OW10225   6.768   5.742   3.080
 3109SOL    HW110226   6.787   5.644   3.070
 3109SOL    HW210227   6.675   5.755   3.114
 3110SOL     OW10228   1.049   5.695   4.092
 3110SOL    HW110229   1.101   5.613   4.115
 3110SOL    HW210230   0.987   5.717   4.167
 3111SOL     OW10231   6.505   4.171   3.531
 3111SOL    HW110232   6.595   4.213   3.516
 3111SOL    HW210233   6.488   4.164   3.630
 3112SOL     OW10234   3.968   0.855   0.366
 3112SOL    HW110235   4.011   0.779   0.415
 3112SOL    HW210236   3.872   0.834   0.349
 3113SOL     OW10237   1.304   0.206   3.383
 3113SOL    HW110238   1.268   0.258   3.460
 3113SOL    HW210239   1.328   0.114   3.414
 3114SOL     OW10240   4.562   5.790   5.433
 3114SOL    HW110241   4.498   5.769   5.506
 3114SOL    HW210242   4.644   5.733   5.441
 3115SOL     OW10243   4.563   5.501   4.618
 3115SOL    HW110244   4.608   5.428   4.670
 3115SOL    HW210245   4.553   5.582   4.676
 3116SOL     OW10246   1.255   1.955   6.164
 3116SOL    HW110247   1.157   1.970   6.181
 3116SOL    HW210248   1.305   2.040   6.182
 3117SOL     OW10249   3.753   0.199   1.073
 3117SOL    HW110250   3.722   0.294   1.065
 3117SOL    HW210251   3.696   0.151   1.140
 3118SOL     OW10252   0.574   1.808   3.648
 3118SOL    HW110253   0.622   1.727   3.682
 3118SOL    HW210254   0.642   1.872   3.610
 3119SOL     OW10255   4.819   6.015   4.037
 3119SOL    HW110256   4.898   5.979   4.087
 3119SOL    HW210257   4.739   6.015   4.097
 3120SOL     OW10258   2.633   5.803   0.276
 3120SOL    HW110259   2.659   5.892   0.238
 3120SOL    HW210260   2.710   5.762   0.324
 3121SOL     OW10261   4.076   2.180   3.860
 3121SOL    HW110262   3.978   2.174   3.881
 3121SOL    HW210263   4.128   2.190   3.945
 3122SOL     OW10264   5.622   4.261   5.823
 3122SOL    HW110265   5.641   4.214   5.737
 3122SOL    HW210266   5.706   4.265   5.878
 3123SOL     OW10267   1.964   2.353   2.754
 3123SOL    HW110268   1.931   2.404   2.833
 3123SOL    HW210269   2.001   2.416   2.687
 3124SOL     OW10270   5.096   6.397   5.303
 3124SOL    HW110271   5.018   6.428   5.249
 3124SOL    HW210272   5.181   6.417   5.255
 3125SOL     OW10273   1.245   1.231   5.465
 3125SOL    HW110274   1.195   1.153   5.504
 3125SOL    HW210275   1.289   1.282   5.539
 3126SOL     OW10276   4.879   4.563   6.047
 3126SOL    HW110277   4.961   4.617   6.024
 3126SOL    HW210278   4.858   4.572   6.144
 3127SOL     OW10279   6.388   1.794   5.339
 3127SOL    HW110280   6.484   1.767   5.327
 3127SOL    HW210281   6.342   1.729   5.400
 3128SOL     OW10282   3.694   1.080   1.130
 3128SOL    HW110283   3.680   1.073   1.228
 3128SOL    HW210284   3.612   1.116   1.087
 3129SOL     OW10285   4.281   4.389   0.336
 3129SOL    HW110286   4.326   4.313   0.289
 3129SOL    HW210287   4.349   4.445   0.383
 3130SOL     OW10288   0.663   5.834   1.664
 3130SOL    HW110289   0.576   5.881   1.650
 3130SOL    HW210290   0.733   5.875   1.605
 3131SOL     OW10291   6.906   3.166   2.943
 3131SOL    HW110292   6.956   3.194   3.025
 3131SOL    HW210293   6.819   3.214   2.938
 3132SOL     OW10294   4.684   4.538   0.099
 3132SOL    HW110295   4.765   4.479   0.104
 3132SOL    HW210296   4.601   4.482   0.097
 3133SOL     OW10297   5.434   6.551   3.307
 3133SOL    HW110298   5.428   6.473   3.370
 3133SOL    HW210299   5.354   6.551   3.247
 3134SOL     OW10300   5.300   4.671   3.119
 3134SOL    HW110301   5.268   4.609   3.047
 3134SOL    HW210302   5.383   4.634   3.160
 3135SOL     OW10303   3.603   0.207   6.776
 3135SOL    HW110304   3.692   0.245   6.800
 3135SOL    HW210305   3.595   0.199   6.677
 3136SOL     OW10306   6.546   6.905   2.594
 3136SOL    HW110307   6.562   6.809   2.620
 3136SOL    HW210308   6.524   6.958   2.676
 3137SOL     OW10309   3.966   5.890   6.810
 3137SOL    HW110310   3.934   5.952   6.882
 3137SOL    HW210311   3.935   5.797   6.830
 3138SOL     OW10312   6.904   6.585   4.991
 3138SOL    HW110313   6.991   6.634   4.985
 3138SOL    HW210314   6.831   6.641   4.953
 3139SOL     OW10315   1.448   5.197   1.720
 3139SOL    HW110316   1.498   5.263   1.776
 3139SOL    HW210317   1.398   5.134   1.779
 3140SOL     OW10318   5.736   5.947   0.272
 3140SOL    HW110319   5.654   6.003   0.284
 3140SOL    HW210320   5.754   5.936   0.174
 3141SOL     OW10321   5.827   1.164   6.668
 3141SOL    HW110322   5.761   1.231   6.703
 3141SOL    HW210323   5.783   1.108   6.598
 3142SOL     OW10324   4.761   0.951   3.953
 3142SOL    HW110325   4.850   0.913   3.977
 3142SOL    HW210326   4.772   1.026   3.888
 3143SOL     OW10327   6.884   1.191   0.719
 3143SOL    HW110328   6.889   1.091   0.714
 3143SOL    HW210329   6.974   1.230   0.698
 3144SOL     OW10330   3.795   5.065   6.972
 3144SOL    HW110331   3.861   4.994   6.947
 3144SOL    HW210332   3.765   5.051   0.051
 3145SOL     OW10333   0.972   5.372   6.351
 3145SOL    HW110334   0.908   5.433   6.305
 3145SOL    HW210335   0.981   5.287   6.299
 3146SOL     OW10336   6.593   2.127   4.688
 3146SOL    HW110337   6.691   2.108   4.699
 3146SOL    HW210338   6.546   2.111   4.775
 3147SOL     OW10339   4.197   0.170   0.587
 3147SOL    HW110340   4.217   0.220   0.672
 3147SOL    HW210341   4.141   0.090   0.608
 3148SOL     OW10342   6.763   4.707   0.651
 3148SOL    HW110343   6.827   4.657   0.709
 3148SOL    HW210344   6.673   4.707   0.693
 3149SOL     OW10345   3.790   3.282   0.074
 3149SOL    HW110346   3.780   3.375   0.038
 3149SOL    HW210347   3.700   3.239   0.079
 3150SOL     OW10348   0.228   0.102   5.475
 3150SOL    HW110349   0.200   0.012   5.509
 3150SOL    HW210350   0.170   0.127   5.397
 3151SOL     OW10351   6.933   0.412   5.521
 3151SOL    HW110352   0.005   0.418   5.569
 3151SOL    HW210353   6.890   0.324   5.543
 3152SOL     OW10354   2.256   2.166   5.444
 3152SOL    HW110355   2.294   2.087   5.492
 3152SOL    HW210356   2.330   2.224   5.410
 3153SOL     OW10357   5.790   5.695   1.799
 3153SOL    HW110358   5.836   5.650   1.876
 3153SOL    HW210359   5.837   5.779   1.776
 3154SOL     OW10360   3.750   2.216   0.844
 3154SOL    HW110361   3.813   2.281   0.887
 3154SOL    HW210362   3.698   2.262   0.772
 3155SOL     OW10363   0.492   4.736   6.537
 3155SOL    HW110364   0.411   4.726   6.595
 3155SOL    HW210365   0.489   4.666   6.465
 3156SOL     OW10366   3.857   4.453   1.072
 3156SOL    HW110367   3.874   4.390   0.997
 3156SOL    HW210368   3.781   4.419   1.128
 3157SOL     OW10369   1.385   0.951   4.188
 3157SOL    HW110370   1.387   1.032   4.246
 3157SOL    HW210371   1.467   0.896   4.205
 3158SOL     OW10372   2.605   0.434   6.018
 3158SOL    HW110373   2.700   0.426   5.990
 3158SOL    HW210374   2.555   0.352   5.990
 3159SOL     OW10375   4.954   0.030   1.548
 3159SOL    HW110376   4.885   0.100   1.529
 3159SOL    HW210377   5.041   0.058   1.508
 3160SOL     OW10378   1.923   0.870   5.168
 3160SOL    HW110379   1.955   0.877   5.262
 3160SOL    HW210380   1.823   0.872   5.166
 3161SOL     OW10381   1.513   2.742   2.125
 3161SOL    HW110382   1.499   2.648   2.155
 3161SOL    HW210383   1.610   2.766   2.137
 3162SOL     OW10384   1.137   5.874   1.520
 3162SOL    HW110385   1.077   5.812   1.469
 3162SOL    HW210386   1.231   5.841   1.513
 3163SOL     OW10387   4.619   4.381   1.105
 3163SOL    HW110388   4.694   4.402   1.043
 3163SOL    HW210389   4.532   4.397   1.058
 3164SOL     OW10390   2.525   6.916   4.491
 3164SOL    HW110391   2.476   6.943   4.408
 3164SOL    HW210392   2.583   6.992   4.521
 3165SOL     OW10393   0.539   6.509   6.495
 3165SOL    HW110394   0.477   6.581   6.464
 3165SOL    HW210395   0.629   6.523   6.455
 3166SOL     OW10396   4.390   1.739   4.233
 3166SOL    HW110397   4.458   1.757   4.304
 3166SOL    HW210398   4.359   1.645   4.239
 3167SOL     OW10399   5.927   2.863   1.569
 3167SOL    HW110400   5.892   2.955   1.552
 3167SOL    HW210401   5.999   2.842   1.503
 3168SOL     OW10402   5.206   0.941   0.589
 3168SOL    HW110403   5.113   0.903   0.584
 3168SOL    HW210404   5.265   0.894   0.523
 3169SOL     OW10405   1.165   4.372   2.239
 3169SOL    HW110406   1.157   4.470   2.221
 3169SOL    HW210407   1.111   4.320   2.173
 3170SOL     OW10408   2.278   4.073   3.540
 3170SOL    HW110409   2.322   4.123   3.615
 3170SOL    HW210410   2.204   4.129   3.502
 3171SOL     OW10411   5.476   1.203   4.644
 3171SOL    HW110412   5.492   1.252   4.559
 3171SOL    HW210413   5.428   1.261   4.709
 3172SOL     OW10414   5.777   4.300   0.969
 3172SOL    HW110415   5.770   4.206   1.002
 3172SOL    HW210416   5.706   4.356   1.012
 3173SOL     OW10417   5.491   2.697   0.607
 3173SOL    HW110418   5.435   2.687   0.525
 3173SOL    HW210419   5.449   2.645   0.682
 3174SOL     OW10420   3.932   2.601   6.559
 3174SOL    HW110421   3.858   2.560   6.613
 3174SOL    HW210422   4.019   2.590   6.606
 3175SOL     OW10423   5.995   6.571   4.956
 3175SOL    HW110424   6.050   6.520   5.022
 3175SOL    HW210425   5.900   6.575   4.987
 3176SOL     OW10426   0.414   4.861   3.861
 3176SOL    HW110427   0.421   4.844   3.762
 3176SOL    HW210428   0.442   4.779   3.911
 3177SOL     OW10429   5.078   3.266   3.581
 3177SOL    HW110430   5.003   3.223   3.631
 3177SOL    HW210431   5.111   3.345   3.632
 3178SOL     OW10432   0.865   0.452   2.815
 3178SOL    HW110433   0.832   0.448   2.910
 3178SOL    HW210434   0.823   0.379   2.762
 3179SOL     OW10435   0.715   3.044   2.366
 3179SOL    HW110436   0.635   3.010   2.416
 3179SOL    HW210437   0.691   3.056   2.270
 3180SOL     OW10438   6.405   6.568   6.688
 3180SOL    HW110439   6.423   6.538   6.782
 3180SOL    HW210440   6.488   6.609   6.650
 3181SOL     OW10441   0.572   5.752   5.063
 3181SOL    HW110442   0.669   5.771   5.078
 3181SOL    HW210443   0.524   5.755   5.150
 3182SOL     OW10444   1.514   6.935   1.433
 3182SOL    HW110445   1.461   6.951   1.350
 3182SOL    HW210446   1.545   0.006   1.471
 3183SOL     OW10447   3.983   3.325   1.046
 3183SOL    HW110448   3.989   3.273   1.132
 3183SOL    HW210449   4.072   3.321   0.999
 3184SOL     OW10450   6.471   1.535   4.302
 3184SOL    HW110451   6.478   1.446   4.256
 3184SOL    HW210452   6.419   1.598   4.245
 3185SOL     OW10453   0.783   6.204   6.340
 3185SOL    HW110454   0.804   6.299   6.364
 3185SOL    HW210455   0.705   6.202   6.278
 3186SOL     OW10456   0.182   3.135   6.325
 3186SOL    HW110457   0.182   3.069   6.251
 3186SOL    HW210458   0.164   3.227   6.289
 3187SOL     OW10459   5.104   6.877   2.768
 3187SOL    HW110460   5.038   6.948   2.794
 3187SOL    HW210461   5.173   6.867   2.839
 3188SOL     OW10462   1.551   6.785   0.919
 3188SOL    HW110463   1.520   6.878   0.941
 3188SOL    HW210464   1.475   6.733   0.880
 3189SOL     OW10465   2.742   1.510   6.322
 3189SOL    HW110466   2.744   1.560   6.235
 3189SOL    HW210467   2.733   1.575   6.397
 3190SOL     OW10468   5.736   6.232   3.577
 3190SOL    HW110469   5.691   6.255   3.491
 3190SOL    HW210470   5.702   6.145   3.611
 3191SOL     OW10471   3.640   5.168   1.624
 3191SOL    HW110472   3.621   5.097   1.691
 3191SOL    HW210473   3.553   5.200   1.585
 3192SOL     OW10474   5.136   1.090   2.526
 3192SOL    HW110475   5.102   1.053   2.440
 3192SOL    HW210476   5.227   1.128   2.512
 3193SOL     OW10477   3.582   5.471   5.212
 3193SOL    HW110478   3.543   5.562   5.227
 3193SOL    HW210479   3.667   5.463   5.264
 3194SOL     OW10480   1.871   6.903   5.496
 3194SOL    HW110481   1.837   6.971   5.560
 3194SOL    HW210482   1.971   6.909   5.491
 3195SOL     OW10483   0.922   0.131   0.684
 3195SOL    HW110484   0.979   0.139   0.765
 3195SOL    HW210485   0.944   0.204   0.620
 3196SOL     OW10486   6.155   6.834   2.760
 3196SOL    HW110487   6.166   6.802   2.855
 3196SOL    HW210488   6.204   6.772   2.699
 3197SOL     OW10489   2.723   0.500   6.969
 3197SOL    HW110490   2.776   0.577   7.005
 3197SOL    HW210491   2.677   0.528   6.885
 3198SOL     OW10492   5.658   2.875   3.687
 3198SOL    HW110493   5.604   2.826   3.618
 3198SOL    HW210494   5.603   2.888   3.769
 3199SOL     OW10495   4.817   4.031   3.031
 3199SOL    HW110496   4.815   4.067   2.938
 3199SOL    HW210497   4.828   3.931   3.027
 3200SOL     OW10498   5.615   3.693   4.826
 3200SOL    HW110499   5.712   3.718   4.824
 3200SOL    HW210500   5.603   3.612   4.883
 3201SOL     OW10501   6.233   4.323   2.051
 3201SOL    HW110502   6.200   4.308   1.958
 3201SOL    HW210503   6.229   4.420   2.073
 3202SOL     OW10504   2.613   2.979   6.327
 3202SOL    HW110505   2.558   3.015   6.252
 3202SOL    HW210506   2.587   2.884   6.345
 3203SOL     OW10507   3.029   6.704   1.947
 3203SOL    HW110508   3.076   6.787   1.977
 3203SOL    HW210509   2.953   6.684   2.010
 3204SOL     OW10510   4.007   0.717   3.653
 3204SOL    HW110511   3.950   0.786   3.697
 3204SOL    HW210512   4.032   0.747   3.561
 3205SOL     OW10513   4.813   3.279   5.976
 3205SOL    HW110514   4.858   3.368   5.974
 3205SOL    HW210515   4.717   3.290   6.000
 3206SOL     OW10516   2.720   4.503   1.237
 3206SOL    HW110517   2.630   4.519   1.278
 3206SOL    HW210518   2.783   4.470   1.307
 3207SOL     OW10519   2.401   6.095   3.984
 3207SOL    HW110520   2.466   6.138   4.046
 3207SOL    HW210521   2.439   6.010   3.947
 3208SOL     OW10522   6.805   4.690   6.152
 3208SOL    HW110523   6.836   4.596   6.165
 3208SOL    HW210524   6.705   4.694   6.158
 3209SOL     OW10525   5.470   6.774   6.493
 3209SOL    HW110526   5.397   6.759   6.560
 3209SOL    HW210527   5.541   6.705   6.506
 3210SOL     OW10528   5.065   5.634   1.459
 3210SOL    HW110529   4.987   5.687   1.494
 3210SOL    HW210530   5.080   5.555   1.519
 3211SOL     OW10531   1.715   6.163   6.506
 3211SOL    HW110532   1.659   6.209   6.437
 3211SOL    HW210533   1.703   6.064   6.498
 3212SOL     OW10534   3.523   7.003   3.980
 3212SOL    HW110535   3.620   7.008   4.001
 3212SOL    HW210536   3.492   6.908   3.990
 3213SOL     OW10537   1.477   0.417   5.662
 3213SOL    HW110538   1.546   0.397   5.592
 3213SOL    HW210539   1.386   0.402   5.623
 3214SOL     OW10540   3.770   0.587   2.637
 3214SOL    HW110541   3.761   0.651   2.713
 3214SOL    HW210542   3.838   0.622   2.573
 3215SOL     OW10543   2.026   3.101   1.901
 3215SOL    HW110544   2.005   3.185   1.951
 3215SOL    HW210545   2.099   3.051   1.949
 3216SOL     OW10546   6.174   5.331   0.746
 3216SOL    HW110547   6.084   5.332   0.790
 3216SOL    HW210548   6.223   5.415   0.769
 3217SOL     OW10549   6.885   5.212   3.564
 3217SOL    HW110550   6.828   5.173   3.491
 3217SOL    HW210551   6.963   5.152   3.581
 3218SOL     OW10552   6.078   1.495   2.945
 3218SOL    HW110553   6.148   1.523   3.011
 3218SOL    HW210554   6.094   1.401   2.917
 3219SOL     OW10555   5.752   1.604   5.245
 3219SOL    HW110556   5.796   1.527   5.291
 3219SOL    HW210557   5.821   1.661   5.201
 3220SOL     OW10558   0.248   3.633   5.631
 3220SOL    HW110559   0.307   3.571   5.683
 3220SOL    HW210560   0.225   3.591   5.543
 3221SOL     OW10561   3.955   1.496   2.141
 3221SOL    HW110562   3.984   1.428   2.208
 3221SOL    HW210563   3.896   1.564   2.185
 3222SOL     OW10564   3.203   1.357   3.201
 3222SOL    HW110565   3.253   1.403   3.274
 3222SOL    HW210566   3.250   1.272   3.176
 3223SOL     OW10567   1.421   5.220   0.971
 3223SOL    HW110568   1.418   5.239   1.069
 3223SOL    HW210569   1.513   5.190   0.946
 3224SOL     OW10570   4.556   2.605   4.765
 3224SOL    HW110571   4.547   2.643   4.673
 3224SOL    HW210572   4.491   2.530   4.776
 3225SOL     OW10573   4.462   1.036   4.857
 3225SOL    HW110574   4.523   1.015   4.933
 3225SOL    HW210575   4.417   1.123   4.873
 3226SOL     OW10576   6.240   0.760   0.782
 3226SOL    HW110577   6.143   0.750   0.759
 3226SOL    HW210578   6.253   0.844   0.834
 3227SOL     OW10579   6.013   3.799   5.406
 3227SOL    HW110580   5.935   3.861   5.410
 3227SOL    HW210581   6.058   3.796   5.495
 3228SOL     OW10582   2.493   4.252   0.480
 3228SOL    HW110583   2.451   4.305   0.407
 3228SOL    HW210584   2.476   4.297   0.568
 3229SOL     OW10585   1.792   1.986   0.620
 3229SOL    HW110586   1.850   1.959   0.544
 3229SOL    HW210587   1.849   2.014   0.697
 3230SOL     OW10588   2.975   6.209   5.149
 3230SOL    HW110589   2.992   6.279   5.079
 3230SOL    HW210590   3.046   6.139   5.143
 3231SOL     OW10591   1.966   2.741   2.639
 3231SOL    HW110592   2.011   2.659   2.673
 3231SOL    HW210593   1.882   2.716   2.591
 3232SOL     OW10594   3.205   5.034   3.303
 3232SOL    HW110595   3.183   4.945   3.343
 3232SOL    HW210596   3.128   5.065   3.248
 3233SOL     OW10597   2.245   6.749   6.972
 3233SOL    HW110598   2.160   6.775   0.003
 3233SOL    HW210599   2.289   6.675   0.008
 3234SOL     OW10600   3.000   3.462   0.760
 3234SOL    HW110601   3.004   3.362   0.771
 3234SOL    HW210602   3.030   3.506   0.845
 3235SOL     OW10603   0.169   1.271   2.724
 3235SOL    HW110604   0.185   1.275   2.822
 3235SOL    HW210605   0.075   1.300   2.704
 3236SOL     OW10606   4.553   6.927   0.926
 3236SOL    HW110607   4.548   6.984   0.844
 3236SOL    HW210608   4.499   6.844   0.912
 3237SOL     OW10609   5.892   1.117   5.451
 3237SOL    HW110610   5.946   1.096   5.369
 3237SOL    HW210611   5.954   1.125   5.529
 3238SOL     OW10612   6.077   4.377   1.567
 3238SOL    HW110613   6.037   4.340   1.651
 3238SOL    HW210614   6.154   4.320   1.539
 3239SOL     OW10615   5.943   0.757   4.960
 3239SOL    HW110616   5.853   0.720   4.984
 3239SOL    HW210617   5.949   0.852   4.992
 3240SOL     OW10618   0.141   1.500   0.220
 3240SOL    HW110619   0.214   1.563   0.250
 3240SOL    HW210620   0.183   1.417   0.183
 3241SOL     OW10621   6.880   3.116   5.254
 3241SOL    HW110622   6.913   3.040   5.310
 3241SOL    HW210623   6.813   3.081   5.188
 3242SOL     OW10624   0.003   4.153   4.817
 3242SOL    HW110625   0.007   4.065   4.863
 3242SOL    HW210626   0.033   4.225   4.880
 3243SOL     OW10627   5.700   5.439   4.023
 3243SOL    HW110628   5.742   5.349   4.017
 3243SOL    HW210629   5.758   5.500   4.078
 3244SOL     OW10630   4.668   6.970   0.461
 3244SOL    HW110631   4.594   0.008   0.419
 3244SOL    HW210632   4.756   7.004   0.428
 3245SOL     OW10633   3.739   6.706   4.271
 3245SOL    HW110634   3.660   6.760   4.244
 3245SOL    HW210635   3.713   6.610   4.281
 3246SOL     OW10636   6.500   5.724   3.178
 3246SOL    HW110637   6.403   5.727   3.203
 3246SOL    HW210638   6.518   5.644   3.122
 3247SOL     OW10639   1.609   4.435   3.834
 3247SOL    HW110640   1.544   4.404   3.903
 3247SOL    HW210641   1.567   4.432   3.743
 3248SOL     OW10642   5.635   2.938   3.310
 3248SOL    HW110643   5.720   2.978   3.275
 3248SOL    HW210644   5.638   2.839   3.300
 3249SOL     OW10645   2.965   3.651   3.488
 3249SOL    HW110646   3.043   3.652   3.426
 3249SOL    HW210647   2.947   3.744   3.520
 3250SOL     OW10648   4.563   5.746   3.212
 3250SOL    HW110649   4.636   5.813   3.198
 3250SOL    HW210650   4.500   5.779   3.283
 3251SOL     OW10651   2.884   2.291   2.478
 3251SOL    HW110652   2.854   2.367   2.536
 3251SOL    HW210653   2.860   2.205   2.522
 3252SOL     OW10654   2.221   1.625   3.133
 3252SOL    HW110655   2.230   1.698   3.201
 3252SOL    HW210656   2.179   1.661   3.050
 3253SOL     OW10657   6.624   3.690   0.042
 3253SOL    HW110658   6.569   3.766   0.008
 3253SOL    HW210659   6.635   3.699   0.141
 3254SOL     OW10660   6.341   6.622   1.133
 3254SOL    HW110661   6.417   6.580   1.183
 3254SOL    HW210662   6.340   6.721   1.150
 3255SOL     OW10663   3.807   5.750   2.272
 3255SOL    HW110664   3.772   5.658   2.289
 3255SOL    HW210665   3.781   5.779   2.180
 3256SOL     OW10666   5.401   2.570   1.352
 3256SOL    HW110667   5.390   2.546   1.449
 3256SOL    HW210668   5.497   2.560   1.326
 3257SOL     OW10669   3.130   1.422   2.919
 3257SOL    HW110670   3.163   1.417   3.014
 3257SOL    HW210671   3.031   1.438   2.920
 3258SOL     OW10672   1.817   5.509   3.924
 3258SOL    HW110673   1.832   5.516   3.825
 3258SOL    HW210674   1.815   5.412   3.950
 3259SOL     OW10675   5.592   4.214   4.455
 3259SOL    HW110676   5.586   4.309   4.424
 3259SOL    HW210677   5.510   4.191   4.507
 3260SOL     OW10678   1.868   4.876   3.116
 3260SOL    HW110679   1.815   4.883   3.032
 3260SOL    HW210680   1.954   4.926   3.106
 3261SOL     OW10681   5.823   0.212   4.484
 3261SOL    HW110682   5.767   0.286   4.448
 3261SOL    HW210683   5.911   0.248   4.515
 3262SOL     OW10684   3.210   1.756   3.730
 3262SOL    HW110685   3.214   1.729   3.826
 3262SOL    HW210686   3.293   1.807   3.706
 3263SOL     OW10687   6.877   1.015   1.215
 3263SOL    HW110688   6.824   1.096   1.237
 3263SOL    HW210689   6.816   0.938   1.199
 3264SOL     OW10690   1.770   4.737   6.776
 3264SOL    HW110691   1.763   4.835   6.763
 3264SOL    HW210692   1.749   4.714   6.872
 3265SOL     OW10693   0.091   5.229   6.503
 3265SOL    HW110694   0.125   5.168   6.574
 3265SOL    HW210695   0.075   5.177   6.419
 3266SOL     OW10696   3.724   5.193   6.226
 3266SOL    HW110697   3.715   5.097   6.200
 3266SOL    HW210698   3.820   5.215   6.242
 3267SOL     OW10699   3.581   6.476   1.055
 3267SOL    HW110700   3.546   6.444   1.143
 3267SOL    HW210701   3.523   6.549   1.021
 3268SOL     OW10702   5.713   5.314   1.926
 3268SOL    HW110703   5.790   5.274   1.876
 3268SOL    HW210704   5.669   5.243   1.981
 3269SOL     OW10705   1.586   4.905   1.634
 3269SOL    HW110706   1.527   4.968   1.583
 3269SOL    HW210707   1.644   4.958   1.697
 3270SOL     OW10708   1.296   2.937   6.045
 3270SOL    HW110709   1.295   2.952   6.144
 3270SOL    HW210710   1.381   2.974   6.007
 3271SOL     OW10711   1.321   3.495   1.465
 3271SOL    HW110712   1.407   3.535   1.496
 3271SOL    HW210713   1.253   3.502   1.538
 3272SOL     OW10714   4.253   6.513   1.295
 3272SOL    HW110715   4.240   6.515   1.196
 3272SOL    HW210716   4.304   6.432   1.321
 3273SOL     OW10717   3.747   3.919   6.602
 3273SOL    HW110718   3.699   3.952   6.683
 3273SOL    HW210719   3.823   3.981   6.581
 3274SOL     OW10720   5.170   6.796   2.307
 3274SOL    HW110721   5.217   6.866   2.253
 3274SOL    HW210722   5.087   6.836   2.347
 3275SOL     OW10723   4.775   0.707   1.309
 3275SOL    HW110724   4.678   0.724   1.291
 3275SOL    HW210725   4.827   0.790   1.289
 3276SOL     OW10726   6.246   5.919   0.069
 3276SOL    HW110727   6.318   5.871   0.019
 3276SOL    HW210728   6.288   5.979   0.138
 3277SOL     OW10729   3.198   2.073   2.246
 3277SOL    HW110730   3.239   2.083   2.156
 3277SOL    HW210731   3.114   2.127   2.251
 3278SOL     OW10732   5.053   0.916   6.490
 3278SOL    HW110733   5.066   0.928   6.588
 3278SOL    HW210734   4.993   0.988   6.455
 3279SOL     OW10735   3.710   6.905   2.308
 3279SOL    HW110736   3.618   6.870   2.321
 3279SOL    HW210737   3.777   6.840   2.344
 3280SOL     OW10738   6.925   3.496   3.867
 3280SOL    HW110739   7.014   3.489   3.912
 3280SOL    HW210740   6.901   3.592   3.854
 3281SOL     OW10741   5.985   1.778   1.633
 3281SOL    HW110742   5.973   1.867   1.589
 3281SOL    HW210743   5.898   1.727   1.630
 3282SOL     OW10744   0.023   4.444   5.230
 3282SOL    HW110745   6.940   4.453   5.214
 3282SOL    HW210746   0.047   4.493   5.314
 3283SOL     OW10747   2.906   1.640   6.991
 3283SOL    HW110748   2.946   1.728   6.965
 3283SOL    HW210749   2.810   1.653   7.015
 3284SOL     OW10750   2.241   6.895   4.944
 3284SOL    HW110751   2.319   6.865   4.999
 3284SOL    HW210752   2.172   6.936   5.004
 3285SOL     OW10753   4.328   2.359   4.397
 3285SOL    HW110754   4.238   2.318   4.418
 3285SOL    HW210755   4.368   2.394   4.481
 3286SOL     OW10756   1.860   3.369   3.268
 3286SOL    HW110757   1.834   3.456   3.227
 3286SOL    HW210758   1.951   3.342   3.235
 3287SOL     OW10759   2.779   0.812   1.085
 3287SOL    HW110760   2.747   0.900   1.049
 3287SOL    HW210761   2.851   0.776   1.026
 3288SOL     OW10762   2.530   5.761   2.175
 3288SOL    HW110763   2.563   5.789   2.084
 3288SOL    HW210764   2.567   5.823   2.244
 3289SOL     OW10765   3.800   0.893   6.926
 3289SOL    HW110766   3.723   0.933   6.975
 3289SOL    HW210767   3.878   0.956   6.928
 3290SOL     OW10768   0.748   5.655   0.105
 3290SOL    HW110769   0.661   5.606   0.116
 3290SOL    HW210770   0.737   5.749   0.138
 3291SOL     OW10771   5.078   6.664   4.923
 3291SOL    HW110772   5.128   6.744   4.889
 3291SOL    HW210773   5.090   6.657   5.022
 3292SOL     OW10774   0.354   2.312   0.250
 3292SOL    HW110775   0.269   2.362   0.269
 3292SOL    HW210776   0.376   2.319   0.153
 3293SOL     OW10777   6.543   4.887   3.269
 3293SOL    HW110778   6.569   4.816   3.205
 3293SOL    HW210779   6.612   4.959   3.270
 3294SOL     OW10780   4.546   2.937   6.005
 3294SOL    HW110781   4.570   2.959   5.910
 3294SOL    HW210782   4.455   2.894   6.007
 3295SOL     OW10783   1.362   2.672   3.129
 3295SOL    HW110784   1.337   2.751   3.074
 3295SOL    HW210785   1.457   2.682   3.160
 3296SOL     OW10786   2.343   0.545   6.548
 3296SOL    HW110787   2.246   0.546   6.573
 3296SOL    HW210788   2.364   0.625   6.492
 3297SOL     OW10789   4.063   1.485   5.124
 3297SOL    HW110790   4.021   1.462   5.212
 3297SOL    HW210791   4.136   1.420   5.104
 3298SOL     OW10792   3.194   4.316   5.774
 3298SOL    HW110793   3.118   4.257   5.747
 3298SOL    HW210794   3.175   4.357   5.863
 3299SOL     OW10795   2.811   6.110   3.907
 3299SOL    HW110796   2.790   6.196   3.861
 3299SOL    HW210797   2.800   6.034   3.843
 3300SOL     OW10798   2.097   0.910   3.624
 3300SOL    HW110799   2.126   0.991   3.573
 3300SOL    HW210800   2.136   0.828   3.581
 3301SOL     OW10801   1.083   1.075   3.200
 3301SOL    HW110802   1.089   1.173   3.220
 3301SOL    HW210803   1.111   1.023   3.281
 3302SOL     OW10804   1.195   5.227   5.415
 3302SOL    HW110805   1.232   5.312   5.377
 3302SOL    HW210806   1.270   5.175   5.458
 3303SOL     OW10807   3.757   3.549   0.010
 3303SOL    HW110808   3.837   3.608   0.024
 3303SOL    HW210809   3.702   3.585   6.950
 3304SOL     OW10810   2.139   4.201   0.363
 3304SOL    HW110811   2.104   4.295   0.361
 3304SOL    HW210812   2.174   4.181   0.454
 3305SOL     OW10813   2.965   2.296   0.010
 3305SOL    HW110814   3.049   2.275   6.976
 3305SOL    HW210815   2.899   2.339   6.963
 3306SOL     OW10816   2.521   0.301   0.052
 3306SOL    HW110817   2.430   0.326   0.018
 3306SOL    HW210818   2.573   0.384   0.070
 3307SOL     OW10819   2.012   6.047   4.729
 3307SOL    HW110820   2.003   6.124   4.667
 3307SOL    HW210821   2.036   5.965   4.678
 3308SOL     OW10822   4.452   4.766   1.361
 3308SOL    HW110823   4.432   4.849   1.308
 3308SOL    HW210824   4.546   4.738   1.343
 3309SOL     OW10825   5.225   3.860   3.095
 3309SOL    HW110826   5.322   3.880   3.090
 3309SOL    HW210827   5.209   3.796   3.171
 3310SOL     OW10828   6.433   4.390   6.122
 3310SOL    HW110829   6.342   4.383   6.081
 3310SOL    HW210830   6.489   4.312   6.093
 3311SOL     OW10831   2.013   3.475   0.353
 3311SOL    HW110832   1.923   3.450   0.387
 3311SOL    HW210833   2.079   3.473   0.429
 3312SOL     OW10834   5.010   2.682   6.841
 3312SOL    HW110835   5.065   2.664   6.760
 3312SOL    HW210836   5.003   2.781   6.855
 3313SOL     OW10837   0.217   6.940   4.760
 3313SOL    HW110838   0.205   6.843   4.781
 3313SOL    HW210839   0.186   6.958   4.667
 3314SOL     OW10840   3.812   5.641   1.969
 3314SOL    HW110841   3.844   5.562   2.022
 3314SOL    HW210842   3.847   5.634   1.876
 3315SOL     OW10843   1.365   6.085   3.801
 3315SOL    HW110844   1.456   6.086   3.759
 3315SOL    HW210845   1.360   6.157   3.870
 3316SOL     OW10846   3.994   2.738   0.280
 3316SOL    HW110847   4.005   2.785   0.193
 3316SOL    HW210848   4.053   2.781   0.349
 3317SOL     OW10849   5.182   2.471   1.828
 3317SOL    HW110850   5.217   2.377   1.827
 3317SOL    HW210851   5.162   2.498   1.922
 3318SOL     OW10852   3.389   2.985   0.873
 3318SOL    HW110853   3.405   3.082   0.892
 3318SOL    HW210854   3.460   2.931   0.919
 3319SOL     OW10855   6.382   6.041   4.039
 3319SOL    HW110856   6.465   6.091   4.013
 3319SOL    HW210857   6.388   5.947   4.004
 3320SOL     OW10858   6.278   6.864   1.885
 3320SOL    HW110859   6.376   6.844   1.886
 3320SOL    HW210860   6.249   6.900   1.974
 3321SOL     OW10861   4.850   1.798   6.903
 3321SOL    HW110862   4.781   1.728   6.883
 3321SOL    HW210863   4.884   1.837   6.818
 3322SOL     OW10864   6.596   2.855   0.944
 3322SOL    HW110865   6.537   2.812   1.012
 3322SOL    HW210866   6.625   2.787   0.876
 3323SOL     OW10867   1.806   1.645   1.595
 3323SOL    HW110868   1.899   1.620   1.569
 3323SOL    HW210869   1.755   1.671   1.514
 3324SOL     OW10870   5.535   5.220   5.582
 3324SOL    HW110871   5.608   5.269   5.534
 3324SOL    HW210872   5.491   5.282   5.647
 3325SOL     OW10873   2.693   5.089   5.063
 3325SOL    HW110874   2.748   5.172   5.067
 3325SOL    HW210875   2.740   5.021   5.006
 3326SOL     OW10876   3.513   2.057   2.243
 3326SOL    HW110877   3.419   2.080   2.216
 3326SOL    HW210878   3.577   2.091   2.174
 3327SOL     OW10879   1.320   5.743   5.543
 3327SOL    HW110880   1.318   5.835   5.581
 3327SOL    HW210881   1.315   5.676   5.618
 3328SOL     OW10882   4.901   2.341   5.189
 3328SOL    HW110883   4.932   2.345   5.284
 3328SOL    HW210884   4.976   2.365   5.128
 3329SOL     OW10885   6.529   6.041   5.718
 3329SOL    HW110886   6.461   6.108   5.747
 3329SOL    HW210887   6.621   6.075   5.739
 3330SOL     OW10888   6.630   3.725   3.022
 3330SOL    HW110889   6.587   3.677   3.099
 3330SOL    HW210890   6.696   3.664   2.978
 3331SOL     OW10891   2.004   3.183   0.556
 3331SOL    HW110892   2.038   3.229   0.639
 3331SOL    HW210893   2.079   3.136   0.511
 3332SOL     OW10894   6.956   4.044   1.213
 3332SOL    HW110895   6.960   3.949   1.182
 3332SOL    HW210896   6.982   4.048   1.310
 3333SOL     OW10897   2.899   5.634   5.905
 3333SOL    HW110898   2.924   5.666   5.814
 3333SOL    HW210899   2.817   5.682   5.936
 3334SOL     OW10900   1.596   3.547   1.499
 3334SOL    HW110901   1.620   3.624   1.440
 3334SOL    HW210902   1.670   3.533   1.566
 3335SOL     OW10903   5.886   4.261   4.780
 3335SOL    HW110904   5.907   4.196   4.707
 3335SOL    HW210905   5.793   4.295   4.768
 3336SOL     OW10906   3.339   6.083   5.868
 3336SOL    HW110907   3.337   6.041   5.959
 3336SOL    HW210908   3.412   6.041   5.814
 3337SOL     OW10909   3.355   2.040   0.885
 3337SOL    HW110910   3.437   2.043   0.943
 3337SOL    HW210911   3.280   1.997   0.935
 3338SOL     OW10912   0.018   4.802   0.296
 3338SOL    HW110913   6.956   4.854   0.333
 3338SOL    HW210914   0.086   4.789   0.368
 3339SOL     OW10915   1.047   5.641   6.065
 3339SOL    HW110916   1.144   5.641   6.041
 3339SOL    HW210917   1.003   5.560   6.026
 3340SOL     OW10918   4.050   0.379   2.090
 3340SOL    HW110919   4.131   0.331   2.055
 3340SOL    HW210920   3.987   0.397   2.015
 3341SOL     OW10921   0.201   6.613   1.613
 3341SOL    HW110922   0.180   6.711   1.614
 3341SOL    HW210923   0.285   6.597   1.561
 3342SOL     OW10924   2.947   0.460   5.293
 3342SOL    HW110925   3.028   0.469   5.236
 3342SOL    HW210926   2.867   0.439   5.237
 3343SOL     OW10927   0.362   2.246   1.151
 3343SOL    HW110928   0.428   2.192   1.202
 3343SOL    HW210929   0.371   2.343   1.176
 3344SOL     OW10930   0.277   2.466   5.893
 3344SOL    HW110931   0.283   2.504   5.801
 3344SOL    HW210932   0.194   2.410   5.900
 3345SOL     OW10933   1.874   3.475   5.306
 3345SOL    HW110934   1.950   3.495   5.245
 3345SOL    HW210935   1.885   3.526   5.392
 3346SOL     OW10936   1.860   6.135   2.063
 3346SOL    HW110937   1.762   6.151   2.059
 3346SOL    HW210938   1.908   6.210   2.017
 3347SOL     OW10939   5.876   4.056   4.233
 3347SOL    HW110940   5.843   3.962   4.221
 3347SOL    HW210941   5.975   4.055   4.247
 3348SOL     OW10942   3.672   3.681   3.296
 3348SOL    HW110943   3.719   3.686   3.384
 3348SOL    HW210944   3.736   3.648   3.226
 3349SOL     OW10945   5.694   3.472   6.394
 3349SOL    HW110946   5.642   3.407   6.449
 3349SOL    HW210947   5.792   3.460   6.412
 3350SOL     OW10948   1.596   2.256   0.961
 3350SOL    HW110949   1.655   2.183   0.995
 3350SOL    HW210950   1.638   2.297   0.880
 3351SOL     OW10951   5.266   2.412   0.610
 3351SOL    HW110952   5.222   2.366   0.533
 3351SOL    HW210953   5.202   2.474   0.654
 3352SOL     OW10954   0.737   3.350   0.020
 3352SOL    HW110955   0.663   3.285   0.039
 3352SOL    HW210956   0.716   3.400   6.952
 3353SOL     OW10957   1.500   6.122   5.924
 3353SOL    HW110958   1.472   6.138   5.829
 3353SOL    HW210959   1.541   6.206   5.961
 3354SOL     OW10960   1.283   1.292   1.743
 3354SOL    HW110961   1.265   1.340   1.657
 3354SOL    HW210962   1.341   1.212   1.725
 3355SOL     OW10963   6.406   1.044   2.905
 3355SOL    HW110964   6.488   1.061   2.961
 3355SOL    HW210965   6.371   0.952   2.925
 3356SOL     OW10966   1.537   3.644   5.298
 3356SOL    HW110967   1.454   3.596   5.327
 3356SOL    HW210968   1.585   3.590   5.229
 3357SOL     OW10969   2.636   5.203   2.130
 3357SOL    HW110970   2.705   5.276   2.132
 3357SOL    HW210971   2.646   5.150   2.047
 3358SOL     OW10972   0.163   4.406   3.549
 3358SOL    HW110973   0.157   4.454   3.461
 3358SOL    HW210974   0.259   4.388   3.571
 3359SOL     OW10975   1.643   1.538   2.003
 3359SOL    HW110976   1.715   1.578   1.946
 3359SOL    HW210977   1.665   1.551   2.099
 3360SOL     OW10978   2.336   0.347   6.338
 3360SOL    HW110979   2.354   0.415   6.409
 3360SOL    HW210980   2.238   0.337   6.325
 3361SOL     OW10981   3.870   0.819   2.813
 3361SOL    HW110982   3.950   0.785   2.764
 3361SOL    HW210983   3.893   0.906   2.857
 3362SOL     OW10984   2.435   2.030   5.028
 3362SOL    HW110985   2.389   2.109   5.068
 3362SOL    HW210986   2.441   2.043   4.929
 3363SOL     OW10987   6.989   0.567   6.312
 3363SOL    HW110988   0.047   0.582   6.245
 3363SOL    HW210989   6.940   0.483   6.290
 3364SOL     OW10990   2.087   4.882   6.328
 3364SOL    HW110991   2.005   4.915   6.283
 3364SOL    HW210992   2.097   4.928   6.417
 3365SOL     OW10993   5.786   2.279   6.153
 3365SOL    HW110994   5.847   2.220   6.206
 3365SOL    HW210995   5.841   2.344   6.100
 3366SOL     OW10996   5.444   0.660   6.569
 3366SOL    HW110997   5.489   0.594   6.508
 3366SOL    HW210998   5.345   0.644   6.567
 3367SOL     OW10999   2.209   0.274   1.892
 3367SOL    HW111000   2.204   0.322   1.805
 3367SOL    HW211001   2.284   0.207   1.889
 3368SOL     OW11002   6.798   1.092   5.718
 3368SOL    HW111003   6.729   1.019   5.716
 3368SOL    HW211004   6.775   1.161   5.649
 3369SOL     OW11005   3.201   6.419   6.329
 3369SOL    HW111006   3.267   6.492   6.343
 3369SOL    HW211007   3.179   6.411   6.232
 3370SOL     OW11008   5.259   6.775   5.455
 3370SOL    HW111009   5.324   6.699   5.459
 3370SOL    HW211010   5.230   6.800   5.547
 3371SOL     OW11011   6.555   4.919   1.226
 3371SOL    HW111012   6.517   4.843   1.172
 3371SOL    HW211013   6.654   4.924   1.210
 3372SOL     OW11014   0.157   2.162   2.770
 3372SOL    HW111015   0.193   2.078   2.729
 3372SOL    HW211016   0.221   2.237   2.756
 3373SOL     OW11017   0.591   2.476   6.276
 3373SOL    HW111018   0.519   2.485   6.206
 3373SOL    HW211019   0.668   2.535   6.253
 3374SOL     OW11020   4.058   6.139   5.456
 3374SOL    HW111021   3.978   6.199   5.463
 3374SOL    HW211022   4.141   6.193   5.471
 3375SOL     OW11023   3.663   4.304   5.177
 3375SOL    HW111024   3.563   4.308   5.172
 3375SOL    HW211025   3.698   4.262   5.093
 3376SOL     OW11026   2.726   3.075   1.788
 3376SOL    HW111027   2.770   3.041   1.871
 3376SOL    HW211028   2.678   3.160   1.808
 3377SOL     OW11029   2.510   5.651   5.339
 3377SOL    HW111030   2.414   5.652   5.311
 3377SOL    HW211031   2.521   5.706   5.422
 3378SOL     OW11032   0.342   0.671   0.404
 3378SOL    HW111033   0.365   0.760   0.443
 3378SOL    HW211034   0.243   0.657   0.410
 3379SOL     OW11035   6.805   4.901   5.619
 3379SOL    HW111036   6.825   4.990   5.661
 3379SOL    HW211037   6.708   4.896   5.596
 3380SOL     OW11038   0.819   3.910   5.623
 3380SOL    HW111039   0.728   3.874   5.604
 3380SOL    HW211040   0.871   3.917   5.537
 3381SOL     OW11041   3.239   2.813   1.433
 3381SOL    HW111042   3.306   2.835   1.503
 3381SOL    HW211043   3.147   2.812   1.474
 3382SOL     OW11044   6.764   6.551   6.897
 3382SOL    HW111045   6.666   6.571   6.908
 3382SOL    HW211046   6.783   6.530   6.801
 3383SOL     OW11047   0.791   4.060   2.722
 3383SOL    HW111048   0.869   4.000   2.709
 3383SOL    HW211049   0.733   4.059   2.640
 3384SOL     OW11050   3.140   3.230   4.432
 3384SOL    HW111051   3.092   3.292   4.495
 3384SOL    HW211052   3.117   3.254   4.338
 3385SOL     OW11053   7.008   4.176   3.537
 3385SOL    HW111054   0.064   4.241   3.562
 3385SOL    HW211055   0.034   4.085   3.525
 3386SOL     OW11056   5.872   3.520   5.110
 3386SOL    HW111057   5.781   3.543   5.146
 3386SOL    HW211058   5.875   3.542   5.012
 3387SOL     OW11059   3.393   1.980   2.733
 3387SOL    HW111060   3.369   2.007   2.640
 3387SOL    HW211061   3.320   1.923   2.771
 3388SOL     OW11062   5.466   3.231   1.807
 3388SOL    HW111063   5.552   3.234   1.858
 3388SOL    HW211064   5.469   3.155   1.742
 3389SOL     OW11065   4.204   4.666   3.033
 3389SOL    HW111066   4.248   4.670   3.122
 3389SOL    HW211067   4.105   4.681   3.045
 3390SOL     OW11068   4.639   2.613   5.934
 3390SOL    HW111069   4.619   2.580   6.027
 3390SOL    HW211070   4.685   2.540   5.883
 3391SOL     OW11071   4.006   2.158   4.216
 3391SOL    HW111072   4.102   2.169   4.192
 3391SOL    HW211073   3.949   2.201   4.146
 3392SOL     OW11074   5.074   5.980   3.152
 3392SOL    HW111075   5.032   6.034   3.225
 3392SOL    HW211076   5.158   5.938   3.185
 3393SOL     OW11077   6.710   0.731   0.121
 3393SOL    HW111078   6.786   0.673   0.147
 3393SOL    HW211079   6.745   0.814   0.077
 3394SOL     OW11080   5.413   1.229   2.062
 3394SOL    HW111081   5.487   1.186   2.113
 3394SOL    HW211082   5.383   1.168   1.988
 3395SOL     OW11083   1.162   3.743   5.223
 3395SOL    HW111084   1.225   3.769   5.150
 3395SOL    HW211085   1.194   3.660   5.267
 3396SOL     OW11086   6.833   3.733   4.524
 3396SOL    HW111087   6.906   3.795   4.494
 3396SOL    HW211088   6.747   3.760   4.481
 3397SOL     OW11089   2.869   6.295   6.005
 3397SOL    HW111090   2.950   6.335   6.047
 3397SOL    HW211091   2.787   6.329   6.053
 3398SOL     OW11092   0.842   0.639   3.982
 3398SOL    HW111093   0.812   0.653   4.077
 3398SOL    HW211094   0.938   0.611   3.981
 3399SOL     OW11095   4.345   5.471   4.455
 3399SOL    HW111096   4.404   5.500   4.531
 3399SOL    HW211097   4.316   5.377   4.470
 3400SOL     OW11098   5.071   2.088   6.895
 3400SOL    HW111099   5.157   2.138   6.897
 3400SOL    HW211100   5.080   2.008   6.836
 3401SOL     OW11101   6.999   4.784   6.717
 3401SOL    HW111102   6.932   4.832   6.774
 3401SOL    HW211103   6.961   4.696   6.689
 3402SOL     OW11104   5.230   5.346   2.493
 3402SOL    HW111105   5.142   5.394   2.485
 3402SOL    HW211106   5.272   5.339   2.402
 3403SOL     OW11107   3.221   2.085   5.195
 3403SOL    HW111108   3.225   2.184   5.180
 3403SOL    HW211109   3.169   2.042   5.121
 3404SOL     OW11110   4.267   0.359   1.696
 3404SOL    HW111111   4.194   0.382   1.760
 3404SOL    HW211112   4.253   0.266   1.661
 3405SOL     OW11113   5.960   3.569   0.693
 3405SOL    HW111114   5.880   3.629   0.691
 3405SOL    HW211115   6.043   3.624   0.699
 3406SOL     OW11116   1.082   4.467   1.586
 3406SOL    HW111117   1.169   4.442   1.543
 3406SOL    HW211118   1.027   4.385   1.600
 3407SOL     OW11119   1.510   5.396   2.773
 3407SOL    HW111120   1.469   5.332   2.838
 3407SOL    HW211121   1.445   5.416   2.700
 3408SOL     OW11122   5.096   4.244   2.924
 3408SOL    HW111123   5.107   4.151   2.890
 3408SOL    HW211124   5.003   4.257   2.959
 3409SOL     OW11125   2.787   0.707   5.604
 3409SOL    HW111126   2.875   0.738   5.640
 3409SOL    HW211127   2.716   0.771   5.633
 3410SOL     OW11128   0.211   0.884   0.031
 3410SOL    HW111129   0.228   0.946   0.108
 3410SOL    HW211130   0.270   0.804   0.039
 3411SOL     OW11131   4.726   2.662   2.558
 3411SOL    HW111132   4.745   2.623   2.468
 3411SOL    HW211133   4.736   2.761   2.553
 3412SOL     OW11134   3.906   5.317   6.997
 3412SOL    HW111135   3.997   5.310   6.955
 3412SOL    HW211136   3.860   5.229   6.992
 3413SOL     OW11137   4.528   1.822   2.367
 3413SOL    HW111138   4.508   1.920   2.357
 3413SOL    HW211139   4.461   1.769   2.315
 3414SOL     OW11140   3.624   1.315   5.284
 3414SOL    HW111141   3.626   1.402   5.234
 3414SOL    HW211142   3.556   1.254   5.243
 3415SOL     OW11143   0.884   5.424   4.295
 3415SOL    HW111144   0.826   5.412   4.214
 3415SOL    HW211145   0.967   5.369   4.285
 3416SOL     OW11146   2.143   5.067   5.813
 3416SOL    HW111147   2.181   5.021   5.893
 3416SOL    HW211148   2.054   5.106   5.837
 3417SOL     OW11149   5.902   0.849   1.563
 3417SOL    HW111150   5.881   0.935   1.517
 3417SOL    HW211151   5.910   0.776   1.496
 3418SOL     OW11152   3.176   2.079   6.410
 3418SOL    HW111153   3.156   2.085   6.312
 3418SOL    HW211154   3.119   2.145   6.459
 3419SOL     OW11155   4.311   3.655   0.482
 3419SOL    HW111156   4.338   3.728   0.545
 3419SOL    HW211157   4.270   3.580   0.533
 3420SOL     OW11158   4.278   1.789   3.732
 3420SOL    HW111159   4.331   1.705   3.723
 3420SOL    HW211160   4.231   1.808   3.645
 3421SOL     OW11161   0.638   6.517   3.973
 3421SOL    HW111162   0.543   6.540   3.990
 3421SOL    HW211163   0.671   6.568   3.894
 3422SOL     OW11164   3.262   1.963   2.477
 3422SOL    HW111165   3.262   1.870   2.440
 3422SOL    HW211166   3.258   2.029   2.402
 3423SOL     OW11167   2.719   0.940   2.110
 3423SOL    HW111168   2.733   0.851   2.066
 3423SOL    HW211169   2.637   0.936   2.167
 3424SOL     OW11170   4.228   0.776   2.062
 3424SOL    HW111171   4.267   0.854   2.012
 3424SOL    HW211172   4.201   0.705   1.998
 3425SOL     OW11173   4.857   4.477   1.711
 3425SOL    HW111174   4.842   4.459   1.808
 3425SOL    HW211175   4.946   4.522   1.699
 3426SOL     OW11176   4.039   3.614   0.800
 3426SOL    HW111177   4.071   3.556   0.725
 3426SOL    HW211178   4.092   3.699   0.801
 3427SOL     OW11179   0.752   1.155   0.651
 3427SOL    HW111180   0.762   1.231   0.715
 3427SOL    HW211181   0.776   1.186   0.559
 3428SOL     OW11182   4.233   4.710   3.464
 3428SOL    HW111183   4.278   4.661   3.539
 3428SOL    HW211184   4.303   4.753   3.407
 3429SOL     OW11185   0.645   3.063   6.909
 3429SOL    HW111186   0.687   3.008   6.982
 3429SOL    HW211187   0.549   3.081   6.932
 3430SOL     OW11188   0.965   6.160   6.621
 3430SOL    HW111189   1.056   6.169   6.582
 3430SOL    HW211190   0.938   6.064   6.621
 3431SOL     OW11191   1.042   6.309   6.822
 3431SOL    HW111192   1.008   6.251   6.748
 3431SOL    HW211193   0.972   6.317   6.893
 3432SOL     OW11194   2.540   2.211   6.827
 3432SOL    HW111195   2.542   2.311   6.833
 3432SOL    HW211196   2.447   2.180   6.813
 3433SOL     OW11197   4.461   0.732   4.108
 3433SOL    HW111198   4.455   0.807   4.042
 3433SOL    HW211199   4.378   0.728   4.163
 3434SOL     OW11200   4.459   2.021   3.451
 3434SOL    HW111201   4.554   2.028   3.421
 3434SOL    HW211202   4.422   1.933   3.424
 3435SOL     OW11203   0.609   1.411   6.606
 3435SOL    HW111204   0.606   1.328   6.660
 3435SOL    HW211205   0.560   1.484   6.654
 3436SOL     OW11206   4.865   6.879   3.178
 3436SOL    HW111207   4.964   6.883   3.167
 3436SOL    HW211208   4.822   6.953   3.126
 3437SOL     OW11209   4.680   0.492   6.275
 3437SOL    HW111210   4.634   0.408   6.303
 3437SOL    HW211211   4.685   0.496   6.175
 3438SOL     OW11212   1.514   4.160   6.628
 3438SOL    HW111213   1.415   4.170   6.614
 3438SOL    HW211214   1.533   4.073   6.675
 3439SOL     OW11215   2.429   7.014   3.578
 3439SOL    HW111216   2.517   0.028   3.542
 3439SOL    HW211217   2.381   6.959   3.509
 3440SOL     OW11218   3.445   2.200   0.538
 3440SOL    HW111219   3.472   2.228   0.446
 3440SOL    HW211220   3.414   2.105   0.536
 3441SOL     OW11221   3.907   0.839   4.451
 3441SOL    HW111222   3.814   0.853   4.485
 3441SOL    HW211223   3.962   0.795   4.522
 3442SOL     OW11224   1.082   4.743   2.958
 3442SOL    HW111225   1.091   4.659   3.011
 3442SOL    HW211226   1.112   4.821   3.013
 3443SOL     OW11227   5.949   0.319   3.896
 3443SOL    HW111228   5.909   0.401   3.937
 3443SOL    HW211229   5.967   0.335   3.799
 3444SOL     OW11230   4.076   5.350   0.406
 3444SOL    HW111231   4.059   5.388   0.315
 3444SOL    HW211232   4.045   5.415   0.475
 3445SOL     OW11233   5.938   5.162   4.740
 3445SOL    HW111234   5.994   5.081   4.721
 3445SOL    HW211235   5.849   5.152   4.695
 3446SOL     OW11236   2.983   6.419   3.100
 3446SOL    HW111237   3.008   6.513   3.078
 3446SOL    HW211238   2.885   6.406   3.081
 3447SOL     OW11239   6.652   4.956   6.307
 3447SOL    HW111240   6.717   4.926   6.377
 3447SOL    HW211241   6.560   4.925   6.333
 3448SOL     OW11242   3.684   2.358   1.330
 3448SOL    HW111243   3.650   2.424   1.397
 3448SOL    HW211244   3.628   2.276   1.332
 3449SOL     OW11245   5.978   5.996   2.742
 3449SOL    HW111246   6.019   6.077   2.700
 3449SOL    HW211247   6.028   5.972   2.825
 3450SOL     OW11248   0.939   2.487   1.489
 3450SOL    HW111249   0.937   2.404   1.544
 3450SOL    HW211250   0.904   2.468   1.397
 3451SOL     OW11251   1.414   5.247   4.026
 3451SOL    HW111252   1.385   5.338   3.996
 3451SOL    HW211253   1.512   5.249   4.050
 3452SOL     OW11254   6.517   2.463   0.381
 3452SOL    HW111255   6.617   2.461   0.381
 3452SOL    HW211256   6.486   2.554   0.353
 3453SOL     OW11257   6.202   6.236   6.073
 3453SOL    HW111258   6.206   6.295   5.992
 3453SOL    HW211259   6.293   6.197   6.090
 3454SOL     OW11260   0.868   1.091   0.280
 3454SOL    HW111261   0.830   1.182   0.296
 3454SOL    HW211262   0.965   1.100   0.257
 3455SOL     OW11263   2.367   2.425   4.554
 3455SOL    HW111264   2.309   2.345   4.567
 3455SOL    HW211265   2.453   2.398   4.510
 3456SOL     OW11266   6.377   0.211   1.246
 3456SOL    HW111267   6.469   0.250   1.247
 3456SOL    HW211268   6.345   0.197   1.340
 3457SOL     OW11269   2.464   5.876   3.553
 3457SOL    HW111270   2.416   5.959   3.524
 3457SOL    HW211271   2.396   5.806   3.578
 3458SOL     OW11272   5.299   5.384   0.764
 3458SOL    HW111273   5.252   5.335   0.837
 3458SOL    HW211274   5.336   5.319   0.697
 3459SOL     OW11275   0.126   6.323   3.278
 3459SOL    HW111276   0.031   6.337   3.304
 3459SOL    HW211277   0.136   6.330   3.179
 3460SOL     OW11278   3.654   3.249   5.866
 3460SOL    HW111279   3.749   3.253   5.896
 3460SOL    HW211280   3.646   3.285   5.773
 3461SOL     OW11281   3.037   5.862   2.932
 3461SOL    HW111282   2.999   5.771   2.918
 3461SOL    HW211283   3.120   5.873   2.877
 3462SOL     OW11284   4.918   3.140   3.108
 3462SOL    HW111285   4.874   3.136   3.198
 3462SOL    HW211286   4.901   3.054   3.060
 3463SOL     OW11287   2.321   2.669   0.843
 3463SOL    HW111288   2.357   2.653   0.935
 3463SOL    HW211289   2.353   2.598   0.781
 3464SOL     OW11290   4.533   2.175   6.175
 3464SOL    HW111291   4.472   2.181   6.096
 3464SOL    HW211292   4.486   2.210   6.256
 3465SOL     OW11293   1.753   4.554   1.811
 3465SOL    HW111294   1.797   4.525   1.896
 3465SOL    HW211295   1.736   4.652   1.814
 3466SOL     OW11296   6.528   4.669   4.124
 3466SOL    HW111297   6.561   4.574   4.133
 3466SOL    HW211298   6.527   4.694   4.027
 3467SOL     OW11299   2.972   3.010   1.235
 3467SOL    HW111300   2.954   2.932   1.174
 3467SOL    HW211301   2.933   2.991   1.325
 3468SOL     OW11302   3.543   1.816   0.613
 3468SOL    HW111303   3.472   1.884   0.632
 3468SOL    HW211304   3.500   1.732   0.580
 3469SOL     OW11305   3.601   6.204   5.758
 3469SOL    HW111306   3.597   6.108   5.787
 3469SOL    HW211307   3.578   6.263   5.835
 3470SOL     OW11308   1.294   3.201   1.614
 3470SOL    HW111309   1.390   3.206   1.584
 3470SOL    HW211310   1.286   3.244   1.704
 3471SOL     OW11311   5.167   3.481   4.736
 3471SOL    HW111312   5.132   3.472   4.643
 3471SOL    HW211313   5.096   3.452   4.801
 3472SOL     OW11314   4.228   1.702   2.950
 3472SOL    HW111315   4.292   1.687   2.874
 3472SOL    HW211316   4.233   1.798   2.979
 3473SOL     OW11317   6.688   4.754   1.579
 3473SOL    HW111318   6.642   4.757   1.667
 3473SOL    HW211319   6.648   4.680   1.523
 3474SOL     OW11320   5.545   4.765   4.396
 3474SOL    HW111321   5.479   4.840   4.394
 3474SOL    HW211322   5.606   4.771   4.317
 3475SOL     OW11323   7.015   4.795   3.980
 3475SOL    HW111324   6.937   4.825   4.035
 3475SOL    HW211325   0.081   4.846   4.005
 3476SOL     OW11326   1.731   1.406   3.658
 3476SOL    HW111327   1.747   1.505   3.647
 3476SOL    HW211328   1.716   1.386   3.755
 3477SOL     OW11329   1.056   4.143   1.950
 3477SOL    HW111330   0.965   4.118   1.984
 3477SOL    HW211331   1.120   4.069   1.969
 3478SOL     OW11332   2.014   0.972   1.523
 3478SOL    HW111333   2.068   1.051   1.554
 3478SOL    HW211334   2.038   0.951   1.428
 3479SOL     OW11335   1.359   5.049   4.761
 3479SOL    HW111336   1.365   5.076   4.665
 3479SOL    HW211337   1.436   4.991   4.785
 3480SOL     OW11338   1.381   4.524   6.742
 3480SOL    HW111339   1.461   4.471   6.712
 3480SOL    HW211340   1.307   4.511   6.676
 3481SOL     OW11341   6.013   0.985   5.214
 3481SOL    HW111342   6.009   0.890   5.245
 3481SOL    HW211343   6.102   1.024   5.239
 3482SOL     OW11344   5.774   3.301   5.937
 3482SOL    HW111345   5.818   3.366   5.874
 3482SOL    HW211346   5.759   3.214   5.890
 3483SOL     OW11347   5.506   2.943   5.592
 3483SOL    HW111348   5.487   3.000   5.512
 3483SOL    HW211349   5.421   2.905   5.626
 3484SOL     OW11350   1.355   3.819   5.051
 3484SOL    HW111351   1.314   3.910   5.052
 3484SOL    HW211352   1.452   3.826   5.029
 3485SOL     OW11353   6.595   2.970   6.722
 3485SOL    HW111354   6.650   3.049   6.750
 3485SOL    HW211355   6.629   2.937   6.634
 3486SOL     OW11356   2.139   5.997   4.952
 3486SOL    HW111357   2.088   6.015   4.867
 3486SOL    HW211358   2.168   6.084   4.992
 3487SOL     OW11359   4.673   1.018   6.402
 3487SOL    HW111360   4.711   1.091   6.345
 3487SOL    HW211361   4.704   0.930   6.367
 3488SOL     OW11362   5.849   0.380   4.952
 3488SOL    HW111363   5.813   0.473   4.943
 3488SOL    HW211364   5.816   0.341   5.039
 3489SOL     OW11365   2.921   6.015   0.871
 3489SOL    HW111366   2.947   5.982   0.962
 3489SOL    HW211367   2.952   5.950   0.802
 3490SOL     OW11368   3.434   6.844   0.276
 3490SOL    HW111369   3.411   6.831   0.372
 3490SOL    HW211370   3.530   6.819   0.260
 3491SOL     OW11371   4.269   4.979   6.072
 3491SOL    HW111372   4.278   4.943   5.979
 3491SOL    HW211373   4.174   5.002   6.090
 3492SOL     OW11374   6.110   4.026   2.419
 3492SOL    HW111375   6.149   3.972   2.494
 3492SOL    HW211376   6.129   4.123   2.434
 3493SOL     OW11377   6.698   3.056   5.603
 3493SOL    HW111378   6.797   3.064   5.591
 3493SOL    HW211379   6.671   2.961   5.589
 3494SOL     OW11380   4.451   1.703   2.634
 3494SOL    HW111381   4.381   1.765   2.669
 3494SOL    HW211382   4.458   1.713   2.535
 3495SOL     OW11383   0.769   2.885   2.646
 3495SOL    HW111384   0.809   2.822   2.579
 3495SOL    HW211385   0.743   2.833   2.728
 3496SOL     OW11386   5.654   5.505   0.863
 3496SOL    HW111387   5.597   5.500   0.945
 3496SOL    HW211388   5.645   5.421   0.810
 3497SOL     OW11389   3.095   6.905   2.587
 3497SOL    HW111390   3.105   6.859   2.498
 3497SOL    HW211391   3.011   6.959   2.587
 3498SOL     OW11392   2.139   2.433   1.137
 3498SOL    HW111393   2.093   2.412   1.223
 3498SOL    HW211394   2.141   2.532   1.123
 3499SOL     OW11395   6.298   5.998   4.941
 3499SOL    HW111396   6.199   5.996   4.955
 3499SOL    HW211397   6.341   5.924   4.993
 3500SOL     OW11398   2.181   2.180   4.445
 3500SOL    HW111399   2.084   2.200   4.442
 3500SOL    HW211400   2.196   2.082   4.436
 3501SOL     OW11401   1.573   0.445   4.986
 3501SOL    HW111402   1.578   0.345   4.989
 3501SOL    HW211403   1.485   0.473   4.949
 3502SOL     OW11404   4.757   2.925   2.498
 3502SOL    HW111405   4.769   2.928   2.399
 3502SOL    HW211406   4.775   3.015   2.537
 3503SOL     OW11407   6.319   6.373   6.540
 3503SOL    HW111408   6.337   6.287   6.588
 3503SOL    HW211409   6.355   6.450   6.593
 3504SOL     OW11410   1.305   0.616   0.076
 3504SOL    HW111411   1.317   0.642   6.995
 3504SOL    HW211412   1.235   0.674   0.118
 3505SOL     OW11413   5.196   4.752   6.085
 3505SOL    HW111414   5.234   4.665   6.117
 3505SOL    HW211415   5.207   4.759   5.986
 3506SOL     OW11416   4.475   4.962   4.771
 3506SOL    HW111417   4.560   4.910   4.777
 3506SOL    HW211418   4.496   5.056   4.744
 3507SOL     OW11419   2.982   0.648   1.001
 3507SOL    HW111420   3.044   0.723   1.023
 3507SOL    HW211421   3.001   0.570   1.061
 3508SOL     OW11422   3.182   1.681   5.269
 3508SOL    HW111423   3.130   1.704   5.351
 3508SOL    HW211424   3.150   1.594   5.232
 3509SOL     OW11425   3.256   5.778   6.394
 3509SOL    HW111426   3.352   5.795   6.416
 3509SOL    HW211427   3.198   5.812   6.468
 3510SOL     OW11428   2.546   1.220   0.453
 3510SOL    HW111429   2.601   1.216   0.537
 3510SOL    HW211430   2.607   1.224   0.374
 3511SOL     OW11431   2.982   4.285   1.698
 3511SOL    HW111432   2.938   4.355   1.754
 3511SOL    HW211433   3.071   4.319   1.666
 3512SOL     OW11434   0.529   5.237   5.704
 3512SOL    HW111435   0.454   5.172   5.712
 3512SOL    HW211436   0.617   5.189   5.712
 3513SOL     OW11437   6.354   1.639   0.335
 3513SOL    HW111438   6.381   1.735   0.328
 3513SOL    HW211439   6.262   1.633   0.373
 3514SOL     OW11440   3.678   1.309   2.371
 3514SOL    HW111441   3.660   1.293   2.468
 3514SOL    HW211442   3.639   1.235   2.317
 3515SOL     OW11443   0.189   5.452   4.314
 3515SOL    HW111444   0.107   5.507   4.331
 3515SOL    HW211445   0.221   5.468   4.221
 3516SOL     OW11446   4.493   0.331   1.510
 3516SOL    HW111447   4.406   0.335   1.559
 3516SOL    HW211448   4.520   0.235   1.499
 3517SOL     OW11449   5.938   0.561   1.436
 3517SOL    HW111450   6.003   0.556   1.360
 3517SOL    HW211451   5.849   0.526   1.407
 3518SOL     OW11452   4.729   0.629   5.357
 3518SOL    HW111453   4.666   0.660   5.287
 3518SOL    HW211454   4.808   0.691   5.361
 3519SOL     OW11455   3.343   0.615   1.182
 3519SOL    HW111456   3.326   0.668   1.099
 3519SOL    HW211457   3.306   0.664   1.261
 3520SOL     OW11458   2.611   5.939   4.887
 3520SOL    HW111459   2.647   5.948   4.794
 3520SOL    HW211460   2.659   5.864   4.934
 3521SOL     OW11461   2.621   3.047   0.052
 3521SOL    HW111462   2.718   3.055   0.077
 3521SOL    HW211463   2.611   2.979   6.995
 3522SOL     OW11464   0.465   5.691   6.255
 3522SOL    HW111465   0.430   5.757   6.188
 3522SOL    HW211466   0.427   5.601   6.235
 3523SOL     OW11467   1.948   5.617   6.984
 3523SOL    HW111468   2.004   5.701   6.990
 3523SOL    HW211469   1.919   5.604   6.889
 3524SOL     OW11470   5.335   1.048   3.603
 3524SOL    HW111471   5.288   1.118   3.657
 3524SOL    HW211472   5.400   1.092   3.541
 3525SOL     OW11473   6.786   3.528   2.931
 3525SOL    HW111474   6.812   3.500   3.024
 3525SOL    HW211475   6.760   3.447   2.878
 3526SOL     OW11476   0.310   6.841   2.840
 3526SOL    HW111477   0.410   6.833   2.836
 3526SOL    HW211478   0.269   6.751   2.830
 3527SOL     OW11479   0.370   2.503   6.134
 3527SOL    HW111480   0.326   2.487   6.046
 3527SOL    HW211481   0.320   2.456   6.207
 3528SOL     OW11482   2.397   6.062   4.751
 3528SOL    HW111483   2.463   6.019   4.812
 3528SOL    HW211484   2.304   6.048   4.787
 3529SOL     OW11485   4.200   5.390   0.853
 3529SOL    HW111486   4.202   5.476   0.802
 3529SOL    HW211487   4.262   5.324   0.810
 3530SOL     OW11488   6.438   6.567   1.558
 3530SOL    HW111489   6.493   6.521   1.627
 3530SOL    HW211490   6.418   6.504   1.483
 3531SOL     OW11491   5.322   1.960   0.278
 3531SOL    HW111492   5.285   1.922   0.193
 3531SOL    HW211493   5.413   1.922   0.295
 3532SOL     OW11494   1.932   1.465   2.075
 3532SOL    HW111495   1.905   1.369   2.077
 3532SOL    HW211496   1.889   1.509   1.996
 3533SOL     OW11497   1.075   1.607   3.236
 3533SOL    HW111498   1.166   1.630   3.271
 3533SOL    HW211499   1.005   1.651   3.292
 3534SOL     OW11500   0.097   1.383   1.163
 3534SOL    HW111501   0.174   1.431   1.204
 3534SOL    HW211502   0.105   1.387   1.063
 3535SOL     OW11503   2.685   5.667   4.522
 3535SOL    HW111504   2.771   5.680   4.570
 3535SOL    HW211505   2.616   5.631   4.585
 3536SOL     OW11506   3.903   2.144   2.547
 3536SOL    HW111507   3.935   2.058   2.507
 3536SOL    HW211508   3.803   2.147   2.545
 3537SOL     OW11509   2.234   6.948   3.157
 3537SOL    HW111510   2.151   6.962   3.213
 3537SOL    HW211511   2.213   6.970   3.062
 3538SOL     OW11512   3.327   5.346   3.593
 3538SOL    HW111513   3.309   5.258   3.549
 3538SOL    HW211514   3.420   5.376   3.571
 3539SOL     OW11515   3.843   3.498   4.452
 3539SOL    HW111516   3.876   3.575   4.397
 3539SOL    HW211517   3.921   3.452   4.494
 3540SOL     OW11518   1.820   2.280   3.487
 3540SOL    HW111519   1.750   2.226   3.534
 3540SOL    HW211520   1.779   2.326   3.408
 3541SOL     OW11521   3.702   4.139   4.194
 3541SOL    HW111522   3.761   4.216   4.168
 3541SOL    HW211523   3.658   4.102   4.112
 3542SOL     OW11524   0.225   5.194   1.465
 3542SOL    HW111525   0.136   5.191   1.419
 3542SOL    HW211526   0.212   5.222   1.560
 3543SOL     OW11527   6.191   2.856   5.165
 3543SOL    HW111528   6.184   2.757   5.159
 3543SOL    HW211529   6.102   2.897   5.147
 3544SOL     OW11530   1.693   6.074   0.050
 3544SOL    HW111531   1.790   6.096   0.064
 3544SOL    HW211532   1.680   5.975   0.054
 3545SOL     OW11533   3.095   5.320   0.310
 3545SOL    HW111534   3.110   5.221   0.312
 3545SOL    HW211535   3.015   5.340   0.253
 3546SOL     OW11536   6.450   4.684   2.777
 3546SOL    HW111537   6.436   4.666   2.874
 3546SOL    HW211538   6.544   4.663   2.751
 3547SOL     OW11539   5.051   4.756   4.533
 3547SOL    HW111540   5.055   4.811   4.617
 3547SOL    HW211541   5.126   4.784   4.472
 3548SOL     OW11542   4.692   2.895   5.476
 3548SOL    HW111543   4.771   2.852   5.520
 3548SOL    HW211544   4.713   2.991   5.458
 3549SOL     OW11545   5.921   3.721   2.609
 3549SOL    HW111546   5.918   3.689   2.515
 3549SOL    HW211547   5.892   3.647   2.670
 3550SOL     OW11548   5.910   1.911   2.488
 3550SOL    HW111549   5.928   1.935   2.583
 3550SOL    HW211550   5.814   1.928   2.466
 3551SOL     OW11551   2.525   6.850   3.174
 3551SOL    HW111552   2.455   6.922   3.171
 3551SOL    HW211553   2.612   6.886   3.143
 3552SOL     OW11554   6.977   4.520   3.215
 3552SOL    HW111555   6.954   4.424   3.229
 3552SOL    HW211556   0.053   4.528   3.176
 3553SOL     OW11557   5.698   2.284   3.068
 3553SOL    HW111558   5.730   2.280   2.973
 3553SOL    HW211559   5.758   2.228   3.126
 3554SOL     OW11560   3.683   5.523   6.789
 3554SOL    HW111561   3.615   5.596   6.784
 3554SOL    HW211562   3.706   5.492   6.697
 3555SOL     OW11563   0.407   2.992   3.493
 3555SOL    HW111564   0.321   2.942   3.507
 3555SOL    HW211565   0.475   2.961   3.559
 3556SOL     OW11566   4.256   0.978   6.195
 3556SOL    HW111567   4.315   0.917   6.248
 3556SOL    HW211568   4.200   0.924   6.132
 3557SOL     OW11569   0.802   0.845   4.416
 3557SOL    HW111570   0.803   0.890   4.506
 3557SOL    HW211571   0.847   0.905   4.349
 3558SOL     OW11572   0.026   5.456   1.539
 3558SOL    HW111573   6.980   5.436   1.464
 3558SOL    HW211574   0.033   5.555   1.552
 3559SOL     OW11575   0.841   0.880   5.782
 3559SOL    HW111576   0.837   0.978   5.762
 3559SOL    HW211577   0.929   0.859   5.825
 3560SOL     OW11578   6.812   6.338   1.864
 3560SOL    HW111579   6.859   6.280   1.799
 3560SOL    HW211580   6.831   6.434   1.843
 3561SOL     OW11581   4.592   4.384   4.129
 3561SOL    HW111582   4.676   4.435   4.115
 3561SOL    HW211583   4.613   4.287   4.144
 3562SOL     OW11584   4.633   2.409   3.166
 3562SOL    HW111585   4.581   2.349   3.106
 3562SOL    HW211586   4.678   2.480   3.112
 3563SOL     OW11587   4.550   0.439   1.236
 3563SOL    HW111588   4.501   0.368   1.286
 3563SOL    HW211589   4.648   0.432   1.254
 3564SOL     OW11590   6.931   4.161   2.838
 3564SOL    HW111591   7.000   4.160   2.765
 3564SOL    HW211592   6.840   4.151   2.797
 3565SOL     OW11593   1.742   0.628   4.895
 3565SOL    HW111594   1.833   0.587   4.898
 3565SOL    HW211595   1.677   0.567   4.941
 3566SOL     OW11596   1.041   3.818   6.126
 3566SOL    HW111597   1.011   3.789   6.036
 3566SOL    HW211598   0.966   3.867   6.171
 3567SOL     OW11599   0.255   2.806   0.853
 3567SOL    HW111600   0.257   2.901   0.821
 3567SOL    HW211601   0.162   2.784   0.884
 3568SOL     OW11602   5.528   3.881   3.768
 3568SOL    HW111603   5.447   3.863   3.713
 3568SOL    HW211604   5.503   3.935   3.848
 3569SOL     OW11605   3.648   3.039   4.112
 3569SOL    HW111606   3.744   3.038   4.083
 3569SOL    HW211607   3.636   3.106   4.185
 3570SOL     OW11608   0.586   2.179   5.348
 3570SOL    HW111609   0.625   2.115   5.415
 3570SOL    HW211610   0.644   2.181   5.266
 3571SOL     OW11611   2.367   6.645   4.711
 3571SOL    HW111612   2.425   6.628   4.632
 3571SOL    HW211613   2.351   6.559   4.759
 3572SOL     OW11614   5.141   4.825   1.805
 3572SOL    HW111615   5.104   4.912   1.772
 3572SOL    HW211616   5.138   4.823   1.905
 3573SOL     OW11617   0.659   4.501   3.476
 3573SOL    HW111618   0.722   4.425   3.490
 3573SOL    HW211619   0.685   4.578   3.535
 3574SOL     OW11620   2.193   1.539   5.620
 3574SOL    HW111621   2.279   1.569   5.661
 3574SOL    HW211622   2.138   1.620   5.596
 3575SOL     OW11623   5.092   0.126   0.089
 3575SOL    HW111624   5.177   0.163   0.052
 3575SOL    HW211625   5.108   0.090   0.181
 3576SOL     OW11626   1.344   2.227   0.519
 3576SOL    HW111627   1.426   2.170   0.515
 3576SOL    HW211628   1.331   2.272   0.431
 3577SOL     OW11629   1.882   2.831   4.928
 3577SOL    HW111630   1.938   2.797   5.003
 3577SOL    HW211631   1.790   2.792   4.934
 3578SOL     OW11632   3.649   2.613   6.204
 3578SOL    HW111633   3.577   2.587   6.269
 3578SOL    HW211634   3.619   2.590   6.111
 3579SOL     OW11635   0.738   3.754   1.742
 3579SOL    HW111636   0.674   3.822   1.706
 3579SOL    HW211637   0.709   3.663   1.713
 3580SOL     OW11638   0.092   4.108   1.855
 3580SOL    HW111639   0.037   4.189   1.875
 3580SOL    HW211640   0.175   4.136   1.806
 3581SOL     OW11641   1.579   0.489   2.363
 3581SOL    HW111642   1.490   0.496   2.410
 3581SOL    HW211643   1.564   0.480   2.265
 3582SOL     OW11644   4.169   5.410   6.119
 3582SOL    HW111645   4.180   5.505   6.091
 3582SOL    HW211646   4.255   5.361   6.104
 3583SOL     OW11647   0.900   4.850   1.260
 3583SOL    HW111648   0.980   4.790   1.255
 3583SOL    HW211649   0.921   4.929   1.317
 3584SOL     OW11650   6.331   4.963   4.848
 3584SOL    HW111651   6.342   4.877   4.896
 3584SOL    HW211652   6.378   5.036   4.897
 3585SOL     OW11653   3.180   1.652   3.981
 3585SOL    HW111654   3.228   1.616   4.061
 3585SOL    HW211655   3.112   1.584   3.950
 3586SOL     OW11656   0.133   1.777   5.123
 3586SOL    HW111657   0.168   1.683   5.125
 3586SOL    HW211658   0.059   1.784   5.057
 3587SOL     OW11659   3.244   0.241   6.224
 3587SOL    HW111660   3.169   0.278   6.280
 3587SOL    HW211661   3.260   0.146   6.250
 3588SOL     OW11662   6.080   4.669   4.851
 3588SOL    HW111663   5.989   4.652   4.813
 3588SOL    HW211664   6.147   4.615   4.800
 3589SOL     OW11665   0.851   0.054   5.983
 3589SOL    HW111666   0.782   7.012   5.940
 3589SOL    HW211667   0.815   0.147   5.995
 3590SOL     OW11668   0.091   5.389   5.975
 3590SOL    HW111669   0.172   5.394   5.918
 3590SOL    HW211670   0.118   5.379   6.071
 3591SOL     OW11671   6.068   1.103   6.784
 3591SOL    HW111672   5.978   1.120   6.745
 3591SOL    HW211673   6.115   1.190   6.800
 3592SOL     OW11674   1.352   6.595   1.220
 3592SOL    HW111675   1.393   6.632   1.303
 3592SOL    HW211676   1.327   6.670   1.159
 3593SOL     OW11677   4.214   3.034   5.348
 3593SOL    HW111678   4.180   3.103   5.284
 3593SOL    HW211679   4.314   3.034   5.348
 3594SOL     OW11680   4.806   4.621   5.335
 3594SOL    HW111681   4.831   4.621   5.432
 3594SOL    HW211682   4.799   4.527   5.302
 3595SOL     OW11683   5.801   6.290   4.457
 3595SOL    HW111684   5.752   6.277   4.544
 3595SOL    HW211685   5.899   6.292   4.474
 3596SOL     OW11686   3.996   1.778   3.079
 3596SOL    HW111687   4.079   1.732   3.048
 3596SOL    HW211688   3.919   1.714   3.079
 3597SOL     OW11689   3.250   3.685   5.573
 3597SOL    HW111690   3.228   3.684   5.475
 3597SOL    HW211691   3.350   3.682   5.585
 3598SOL     OW11692   0.319   5.333   5.047
 3598SOL    HW111693   0.368   5.409   5.005
 3598SOL    HW211694   0.374   5.294   5.121
 3599SOL     OW11695   2.810   1.148   5.087
 3599SOL    HW111696   2.837   1.218   5.021
 3599SOL    HW211697   2.840   1.175   5.179
 3600SOL     OW11698   3.234   3.963   6.709
 3600SOL    HW111699   3.265   3.919   6.794
 3600SOL    HW211700   3.143   4.001   6.724
 3601SOL     OW11701   4.737   0.966   5.305
 3601SOL    HW111702   4.809   0.917   5.354
 3601SOL    HW211703   4.707   0.912   5.227
 3602SOL     OW11704   1.570   1.901   1.352
 3602SOL    HW111705   1.629   1.982   1.353
 3602SOL    HW211706   1.488   1.919   1.405
 3603SOL     OW11707   2.519   0.469   5.194
 3603SOL    HW111708   2.568   0.535   5.252
 3603SOL    HW211709   2.450   0.517   5.139
 3604SOL     OW11710   0.121   0.445   3.671
 3604SOL    HW111711   0.024   0.461   3.684
 3604SOL    HW211712   0.172   0.485   3.747
 3605SOL     OW11713   1.152   6.833   4.489
 3605SOL    HW111714   1.132   6.740   4.520
 3605SOL    HW211715   1.137   6.897   4.564
 3606SOL     OW11716   2.035   0.364   2.060
 3606SOL    HW111717   1.975   0.288   2.083
 3606SOL    HW211718   2.090   0.340   1.979
 3607SOL     OW11719   6.310   1.783   3.162
 3607SOL    HW111720   6.269   1.870   3.138
 3607SOL    HW211721   6.408   1.795   3.176
 3608SOL     OW11722   3.029   1.677   5.963
 3608SOL    HW111723   3.060   1.583   5.953
 3608SOL    HW211724   3.021   1.720   5.873
 3609SOL     OW11725   3.676   0.621   5.336
 3609SOL    HW111726   3.617   0.696   5.306
 3609SOL    HW211727   3.765   0.627   5.290
 3610SOL     OW11728   1.647   0.609   5.765
 3610SOL    HW111729   1.579   0.550   5.722
 3610SOL    HW211730   1.731   0.558   5.781
 3611SOL     OW11731   5.698   4.382   2.928
 3611SOL    HW111732   5.708   4.398   2.830
 3611SOL    HW211733   5.601   4.388   2.952
 3612SOL     OW11734   5.450   1.336   0.107
 3612SOL    HW111735   5.534   1.320   0.158
 3612SOL    HW211736   5.449   1.429   0.071
 3613SOL     OW11737   3.808   6.628   3.154
 3613SOL    HW111738   3.766   6.614   3.064
 3613SOL    HW211739   3.775   6.714   3.193
 3614SOL     OW11740   3.538   5.753   6.756
 3614SOL    HW111741   3.545   5.843   6.714
 3614SOL    HW211742   3.451   5.711   6.731
 3615SOL     OW11743   5.408   2.607   5.518
 3615SOL    HW111744   5.410   2.665   5.437
 3615SOL    HW211745   5.332   2.542   5.511
 3616SOL     OW11746   1.640   2.199   0.539
 3616SOL    HW111747   1.700   2.133   0.585
 3616SOL    HW211748   1.683   2.228   0.454
 3617SOL     OW11749   3.917   5.900   5.863
 3617SOL    HW111750   4.007   5.945   5.863
 3617SOL    HW211751   3.869   5.923   5.779
 3618SOL     OW11752   1.113   5.284   4.287
 3618SOL    HW111753   1.098   5.240   4.376
 3618SOL    HW211754   1.124   5.213   4.217
 3619SOL     OW11755   5.785   2.546   1.913
 3619SOL    HW111756   5.864   2.577   1.966
 3619SOL    HW211757   5.759   2.455   1.943
 3620SOL     OW11758   5.829   6.093   4.681
 3620SOL    HW111759   5.844   6.143   4.766
 3620SOL    HW211760   5.755   6.026   4.695
 3621SOL     OW11761   3.614   3.131   3.738
 3621SOL    HW111762   3.687   3.191   3.707
 3621SOL    HW211763   3.577   3.165   3.824
 3622SOL     OW11764   1.437   5.809   6.188
 3622SOL    HW111765   1.370   5.869   6.144
 3622SOL    HW211766   1.529   5.844   6.169
 3623SOL     OW11767   1.223   6.007   5.842
 3623SOL    HW111768   1.135   5.963   5.828
 3623SOL    HW211769   1.244   6.067   5.765
 3624SOL     OW11770   2.432   2.301   2.112
 3624SOL    HW111771   2.478   2.249   2.183
 3624SOL    HW211772   2.338   2.268   2.102
 3625SOL     OW11773   6.806   2.428   0.707
 3625SOL    HW111774   6.733   2.373   0.747
 3625SOL    HW211775   6.858   2.473   0.780
 3626SOL     OW11776   1.936   3.228   5.771
 3626SOL    HW111777   1.875   3.151   5.749
 3626SOL    HW211778   2.030   3.194   5.777
 3627SOL     OW11779   3.507   1.769   2.275
 3627SOL    HW111780   3.411   1.746   2.290
 3627SOL    HW211781   3.516   1.867   2.261
 3628SOL     OW11782   6.032   1.554   1.907
 3628SOL    HW111783   6.003   1.621   1.975
 3628SOL    HW211784   6.104   1.593   1.849
 3629SOL     OW11785   1.640   1.585   4.388
 3629SOL    HW111786   1.726   1.625   4.420
 3629SOL    HW211787   1.653   1.488   4.368
 3630SOL     OW11788   6.693   2.017   2.141
 3630SOL    HW111789   6.769   1.960   2.110
 3630SOL    HW211790   6.675   1.999   2.238
 3631SOL     OW11791   1.917   6.424   2.472
 3631SOL    HW111792   1.901   6.375   2.558
 3631SOL    HW211793   1.833   6.426   2.418
 3632SOL     OW11794   4.941   3.314   2.408
 3632SOL    HW111795   4.894   3.256   2.475
 3632SOL    HW211796   4.922   3.410   2.429
 3633SOL     OW11797   4.046   4.393   0.213
 3633SOL    HW111798   3.975   4.406   0.281
 3633SOL    HW211799   4.136   4.409   0.254
 3634SOL     OW11800   3.088   5.067   6.588
 3634SOL    HW111801   3.107   5.011   6.507
 3634SOL    HW211802   3.028   5.143   6.562
 3635SOL     OW11803   0.787   6.644   2.224
 3635SOL    HW111804   0.760   6.596   2.307
 3635SOL    HW211805   0.855   6.590   2.175
 3636SOL     OW11806   0.399   5.381   5.897
 3636SOL    HW111807   0.449   5.326   5.829
 3636SOL    HW211808   0.366   5.465   5.854
 3637SOL     OW11809   6.003   3.033   0.305
 3637SOL    HW111810   6.009   2.947   0.253
 3637SOL    HW211811   6.071   3.098   0.269
 3638SOL     OW11812   7.006   3.211   3.190
 3638SOL    HW111813   0.007   3.309   3.180
 3638SOL    HW211814   7.006   3.187   3.287
 3639SOL     OW11815   4.126   3.318   4.284
 3639SOL    HW111816   4.214   3.291   4.322
 3639SOL    HW211817   4.062   3.241   4.289
 3640SOL     OW11818   4.307   1.986   1.893
 3640SOL    HW111819   4.221   2.031   1.918
 3640SOL    HW211820   4.343   1.937   1.972
 3641SOL     OW11821   6.231   3.596   2.275
 3641SOL    HW111822   6.209   3.547   2.190
 3641SOL    HW211823   6.274   3.532   2.339
 3642SOL     OW11824   4.861   3.734   6.607
 3642SOL    HW111825   4.927   3.799   6.644
 3642SOL    HW211826   4.788   3.719   6.674
 3643SOL     OW11827   4.324   6.157   5.234
 3643SOL    HW111828   4.344   6.239   5.286
 3643SOL    HW211829   4.355   6.076   5.285
 3644SOL     OW11830   3.086   0.686   1.898
 3644SOL    HW111831   3.088   0.776   1.856
 3644SOL    HW211832   2.991   0.655   1.907
 3645SOL     OW11833   1.321   4.140   3.433
 3645SOL    HW111834   1.271   4.199   3.368
 3645SOL    HW211835   1.382   4.080   3.383
 3646SOL     OW11836   1.545   5.209   6.105
 3646SOL    HW111837   1.557   5.306   6.086
 3646SOL    HW211838   1.611   5.181   6.175
 3647SOL     OW11839   3.162   6.713   6.886
 3647SOL    HW111840   3.255   6.705   6.922
 3647SOL    HW211841   3.127   6.622   6.865
 3648SOL     OW11842   4.791   5.138   3.224
 3648SOL    HW111843   4.843   5.063   3.264
 3648SOL    HW211844   4.838   5.172   3.143
 3649SOL     OW11845   5.599   2.362   0.462
 3649SOL    HW111846   5.529   2.392   0.397
 3649SOL    HW211847   5.560   2.363   0.555
 3650SOL     OW11848   5.092   5.649   6.322
 3650SOL    HW111849   5.147   5.710   6.265
 3650SOL    HW211850   5.153   5.587   6.371
 3651SOL     OW11851   0.928   2.002   5.826
 3651SOL    HW111852   0.997   1.933   5.846
 3651SOL    HW211853   0.863   2.006   5.902
 3652SOL     OW11854   4.586   2.139   2.342
 3652SOL    HW111855   4.567   2.208   2.272
 3652SOL    HW211856   4.553   2.173   2.430
 3653SOL     OW11857   1.969   1.433   0.859
 3653SOL    HW111858   1.986   1.383   0.773
 3653SOL    HW211859   2.054   1.438   0.911
 3654SOL     OW11860   4.483   6.825   2.249
 3654SOL    HW111861   4.404   6.874   2.212
 3654SOL    HW211862   4.485   6.835   2.348
 3655SOL     OW11863   1.084   0.522   3.754
 3655SOL    HW111864   1.075   0.620   3.734
 3655SOL    HW211865   0.996   0.477   3.738
 3656SOL     OW11866   0.144   0.093   1.389
 3656SOL    HW111867   0.080   0.018   1.369
 3656SOL    HW211868   0.092   0.177   1.405
 3657SOL     OW11869   5.675   5.346   6.235
 3657SOL    HW111870   5.658   5.286   6.157
 3657SOL    HW211871   5.734   5.422   6.207
 3658SOL     OW11872   1.990   4.540   5.475
 3658SOL    HW111873   1.941   4.498   5.399
 3658SOL    HW211874   2.078   4.493   5.487
 3659SOL     OW11875   0.558   2.802   6.726
 3659SOL    HW111876   0.553   2.819   6.628
 3659SOL    HW211877   0.466   2.802   6.765
 3660SOL     OW11878   4.331   5.236   5.593
 3660SOL    HW111879   4.330   5.294   5.511
 3660SOL    HW211880   4.315   5.293   5.673
 3661SOL     OW11881   0.249   1.071   4.488
 3661SOL    HW111882   0.338   1.025   4.490
 3661SOL    HW211883   0.176   1.002   4.491
 3662SOL     OW11884   3.059   1.742   5.535
 3662SOL    HW111885   2.992   1.670   5.553
 3662SOL    HW211886   3.011   1.830   5.532
 3663SOL     OW11887   2.440   2.639   6.636
 3663SOL    HW111888   2.369   2.617   6.569
 3663SOL    HW211889   2.501   2.708   6.597
 3664SOL     OW11890   3.149   1.942   1.033
 3664SOL    HW111891   3.127   2.017   1.095
 3664SOL    HW211892   3.069   1.922   0.977
 3665SOL     OW11893   6.784   5.208   5.443
 3665SOL    HW111894   6.685   5.203   5.459
 3665SOL    HW211895   6.826   5.265   5.514
 3666SOL     OW11896   2.084   3.615   4.259
 3666SOL    HW111897   2.124   3.569   4.338
 3666SOL    HW211898   2.111   3.569   4.175
 3667SOL     OW11899   1.731   6.822   0.717
 3667SOL    HW111900   1.656   6.800   0.779
 3667SOL    HW211901   1.818   6.803   0.761
 3668SOL     OW11902   5.833   1.460   0.838
 3668SOL    HW111903   5.913   1.448   0.897
 3668SOL    HW211904   5.803   1.555   0.840
 3669SOL     OW11905   0.414   0.958   2.603
 3669SOL    HW111906   0.466   0.878   2.574
 3669SOL    HW211907   0.327   0.962   2.553
 3670SOL     OW11908   2.184   6.989   1.595
 3670SOL    HW111909   2.252   6.918   1.578
 3670SOL    HW211910   2.218   0.036   1.665
 3671SOL     OW11911   0.178   0.599   4.678
 3671SOL    HW111912   0.087   0.561   4.662
 3671SOL    HW211913   0.201   0.591   4.775
 3672SOL     OW11914   4.115   6.889   3.620
 3672SOL    HW111915   4.072   6.846   3.541
 3672SOL    HW211916   4.193   6.834   3.649
 3673SOL     OW11917   3.109   0.849   1.523
 3673SOL    HW111918   3.083   0.873   1.616
 3673SOL    HW211919   3.067   0.762   1.498
 3674SOL     OW11920   0.656   4.324   5.882
 3674SOL    HW111921   0.697   4.240   5.848
 3674SOL    HW211922   0.710   4.403   5.852
 3675SOL     OW11923   0.017   0.771   4.181
 3675SOL    HW111924   0.113   0.764   4.207
 3675SOL    HW211925   6.992   0.850   4.227
 3676SOL     OW11926   3.517   0.835   5.299
 3676SOL    HW111927   3.594   0.882   5.342
 3676SOL    HW211928   3.436   0.845   5.356
 3677SOL     OW11929   1.573   1.329   4.296
 3677SOL    HW111930   1.663   1.286   4.301
 3677SOL    HW211931   1.503   1.262   4.318
 3678SOL     OW11932   2.161   1.164   3.509
 3678SOL    HW111933   2.132   1.259   3.521
 3678SOL    HW211934   2.261   1.160   3.507
 3679SOL     OW11935   3.163   0.483   2.848
 3679SOL    HW111936   3.218   0.430   2.912
 3679SOL    HW211937   3.078   0.511   2.893
 3680SOL     OW11938   3.241   2.168   4.413
 3680SOL    HW111939   3.251   2.234   4.488
 3680SOL    HW211940   3.317   2.104   4.414
 3681SOL     OW11941   0.845   6.868   4.183
 3681SOL    HW111942   0.815   6.839   4.274
 3681SOL    HW211943   0.939   6.904   4.189
 3682SOL     OW11944   5.454   2.321   1.161
 3682SOL    HW111945   5.474   2.415   1.187
 3682SOL    HW211946   5.372   2.319   1.104
 3683SOL     OW11947   6.666   1.379   0.670
 3683SOL    HW111948   6.750   1.326   0.683
 3683SOL    HW211949   6.624   1.355   0.583
 3684SOL     OW11950   2.676   6.246   5.803
 3684SOL    HW111951   2.674   6.146   5.800
 3684SOL    HW211952   2.746   6.276   5.869
 3685SOL     OW11953   2.004   5.951   3.823
 3685SOL    HW111954   1.960   5.915   3.741
 3685SOL    HW211955   2.037   5.876   3.879
 3686SOL     OW11956   6.969   3.946   0.201
 3686SOL    HW111957   6.930   3.990   0.281
 3686SOL    HW211958   6.915   3.866   0.177
 3687SOL     OW11959   6.009   4.569   4.448
 3687SOL    HW111960   6.094   4.516   4.454
 3687SOL    HW211961   6.030   4.666   4.463
 3688SOL     OW11962   6.774   2.656   1.551
 3688SOL    HW111963   6.704   2.591   1.523
 3688SOL    HW211964   6.798   2.640   1.647
 3689SOL     OW11965   1.063   1.115   5.824
 3689SOL    HW111966   1.040   1.084   5.916
 3689SOL    HW211967   1.151   1.076   5.796
 3690SOL     OW11968   5.853   4.719   1.846
 3690SOL    HW111969   5.841   4.633   1.797
 3690SOL    HW211970   5.888   4.788   1.782
 3691SOL     OW11971   1.681   2.414   0.715
 3691SOL    HW111972   1.659   2.344   0.647
 3691SOL    HW211973   1.768   2.458   0.691
 3692SOL     OW11974   1.120   3.082   5.552
 3692SOL    HW111975   1.210   3.064   5.512
 3692SOL    HW211976   1.127   3.083   5.652
 3693SOL     OW11977   0.040   1.539   2.508
 3693SOL    HW111978   0.138   1.522   2.518
 3693SOL    HW211979   7.007   1.451   2.505
 3694SOL     OW11980   6.756   6.675   2.250
 3694SOL    HW111981   6.687   6.743   2.227
 3694SOL    HW211982   6.719   6.583   2.238
 3695SOL     OW11983   6.040   3.840   3.588
 3695SOL    HW111984   6.001   3.895   3.662
 3695SOL    HW211985   6.133   3.871   3.570
 3696SOL     OW11986   4.474   0.467   4.033
 3696SOL    HW111987   4.390   0.438   3.987
 3696SOL    HW211988   4.474   0.567   4.042
 3697SOL     OW11989   6.416   5.471   2.654
 3697SOL    HW111990   6.364   5.509   2.730
 3697SOL    HW211991   6.399   5.373   2.646
 3698SOL     OW11992   1.908   6.823   3.948
 3698SOL    HW111993   1.955   6.895   3.896
 3698SOL    HW211994   1.975   6.754   3.976
 3699SOL     OW11995   2.646   2.505   3.418
 3699SOL    HW111996   2.588   2.576   3.457
 3699SOL    HW211997   2.635   2.505   3.319
 3700SOL     OW11998   0.982   5.007   4.751
 3700SOL    HW111999   0.996   4.944   4.828
 3700SOL    HW212000   1.012   5.098   4.777
 3701SOL     OW12001   0.546   1.229   2.073
 3701SOL    HW112002   0.483   1.186   2.139
 3701SOL    HW212003   0.625   1.170   2.060
 3702SOL     OW12004   6.709   4.530   3.414
 3702SOL    HW112005   6.620   4.546   3.372
 3702SOL    HW212006   6.757   4.617   3.423
 3703SOL     OW12007   1.308   1.693   3.348
 3703SOL    HW112008   1.370   1.643   3.408
 3703SOL    HW212009   1.296   1.786   3.383
 3704SOL     OW12010   6.278   0.159   0.994
 3704SOL    HW112011   6.311   0.167   1.088
 3704SOL    HW212012   6.333   0.090   0.946
 3705SOL     OW12013   6.207   4.156   3.972
 3705SOL    HW112014   6.282   4.096   3.945
 3705SOL    HW212015   6.237   4.251   3.971
 3706SOL     OW12016   0.966   5.108   6.207
 3706SOL    HW112017   0.913   5.079   6.287
 3706SOL    HW212018   0.904   5.128   6.131
 3707SOL     OW12019   0.822   4.833   3.270
 3707SOL    HW112020   0.734   4.808   3.311
 3707SOL    HW212021   0.886   4.757   3.282
 3708SOL     OW12022   1.350   6.276   0.474
 3708SOL    HW112023   1.312   6.186   0.496
 3708SOL    HW212024   1.305   6.312   0.392
 3709SOL     OW12025   1.085   1.620   2.477
 3709SOL    HW112026   1.161   1.676   2.511
 3709SOL    HW212027   0.999   1.660   2.508
 3710SOL     OW12028   1.843   3.900   4.804
 3710SOL    HW112029   1.844   3.852   4.716
 3710SOL    HW212030   1.936   3.926   4.829
 3711SOL     OW12031   2.196   5.563   4.995
 3711SOL    HW112032   2.236   5.481   5.037
 3711SOL    HW212033   2.200   5.553   4.895
 3712SOL     OW12034   3.059   5.467   4.391
 3712SOL    HW112035   3.101   5.380   4.362
 3712SOL    HW212036   3.088   5.488   4.484
 3713SOL     OW12037   5.791   0.230   5.213
 3713SOL    HW112038   5.816   0.263   5.304
 3713SOL    HW212039   5.847   0.151   5.190
 3714SOL     OW12040   0.213   4.192   6.807
 3714SOL    HW112041   0.182   4.124   6.874
 3714SOL    HW212042   0.310   4.178   6.787
 3715SOL     OW12043   6.361   4.425   3.761
 3715SOL    HW112044   6.350   4.482   3.680
 3715SOL    HW212045   6.405   4.339   3.734
 3716SOL     OW12046   5.514   5.790   5.795
 3716SOL    HW112047   5.587   5.740   5.842
 3716SOL    HW212048   5.552   5.843   5.719
 3717SOL     OW12049   4.442   0.386   0.995
 3717SOL    HW112050   4.485   0.415   1.080
 3717SOL    HW212051   4.384   0.460   0.960
 3718SOL     OW12052   5.575   7.011   6.605
 3718SOL    HW112053   5.675   7.013   6.598
 3718SOL    HW212054   5.541   6.924   6.568
 3719SOL     OW12055   2.874   4.566   0.469
 3719SOL    HW112056   2.883   4.580   0.568
 3719SOL    HW212057   2.890   4.652   0.422
 3720SOL     OW12058   0.001   2.784   1.000
 3720SOL    HW112059   7.004   2.874   0.958
 3720SOL    HW212060   7.014   2.793   1.100
 3721SOL     OW12061   5.998   0.211   5.422
 3721SOL    HW112062   5.996   0.137   5.355
 3721SOL    HW212063   6.091   0.248   5.429
 3722SOL     OW12064   5.954   6.500   1.776
 3722SOL    HW112065   6.041   6.464   1.810
 3722SOL    HW212066   5.970   6.586   1.727
 3723SOL     OW12067   4.821   4.311   6.669
 3723SOL    HW112068   4.906   4.298   6.618
 3723SOL    HW212069   4.743   4.302   6.607
 3724SOL     OW12070   0.007   4.375   4.491
 3724SOL    HW112071   6.954   4.433   4.447
 3724SOL    HW212072   0.076   4.349   4.424
 3725SOL     OW12073   1.197   5.673   0.140
 3725SOL    HW112074   1.099   5.661   0.127
 3725SOL    HW212075   1.224   5.638   0.230
 3726SOL     OW12076   6.293   3.397   5.517
 3726SOL    HW112077   6.254   3.449   5.593
 3726SOL    HW212078   6.392   3.412   5.514
 3727SOL     OW12079   6.573   2.370   3.864
 3727SOL    HW112080   6.595   2.282   3.824
 3727SOL    HW212081   6.589   2.443   3.797
 3728SOL     OW12082   2.067   4.264   0.855
 3728SOL    HW112083   2.113   4.341   0.810
 3728SOL    HW212084   2.134   4.194   0.877
 3729SOL     OW12085   0.538   0.074   5.836
 3729SOL    HW112086   0.563   7.005   5.883
 3729SOL    HW212087   0.523   0.146   5.904
 3730SOL     OW12088   4.954   5.171   4.792
 3730SOL    HW112089   4.936   5.075   4.813
 3730SOL    HW212090   5.025   5.206   4.854
 3731SOL     OW12091   0.231   2.157   0.627
 3731SOL    HW112092   0.141   2.198   0.609
 3731SOL    HW212093   0.238   2.134   0.725
 3732SOL     OW12094   3.824   3.222   6.617
 3732SOL    HW112095   3.874   3.200   6.534
 3732SOL    HW212096   3.774   3.308   6.604
 3733SOL     OW12097   1.386   1.051   3.548
 3733SOL    HW112098   1.464   1.113   3.548
 3733SOL    HW212099   1.416   0.959   3.572
 3734SOL     OW12100   3.755   6.834   1.928
 3734SOL    HW112101   3.802   6.890   1.997
 3734SOL    HW212102   3.701   6.893   1.868
 3735SOL     OW12103   4.605   0.620   2.768
 3735SOL    HW112104   4.561   0.537   2.734
 3735SOL    HW212105   4.538   0.694   2.770
 3736SOL     OW12106   0.354   1.691   0.268
 3736SOL    HW112107   0.392   1.783   0.256
 3736SOL    HW212108   0.360   1.664   0.364
 3737SOL     OW12109   5.915   2.122   3.156
 3737SOL    HW112110   5.966   2.043   3.120
 3737SOL    HW212111   5.978   2.196   3.176
 3738SOL     OW12112   0.494   0.617   1.044
 3738SOL    HW112113   0.532   0.616   0.952
 3738SOL    HW212114   0.496   0.710   1.080
 3739SOL     OW12115   3.026   4.212   6.777
 3739SOL    HW112116   2.960   4.253   6.714
 3739SOL    HW212117   3.021   4.257   6.866
 3740SOL     OW12118   5.790   6.238   6.772
 3740SOL    HW112119   5.852   6.166   6.740
 3740SOL    HW212120   5.826   6.327   6.746
 3741SOL     OW12121   5.309   3.730   0.314
 3741SOL    HW112122   5.344   3.647   0.358
 3741SOL    HW212123   5.327   3.726   0.216
 3742SOL     OW12124   4.494   5.704   0.951
 3742SOL    HW112125   4.514   5.650   0.869
 3742SOL    HW212126   4.567   5.771   0.965
 3743SOL     OW12127   2.814   4.197   0.974
 3743SOL    HW112128   2.752   4.193   0.896
 3743SOL    HW212129   2.762   4.186   1.058
 3744SOL     OW12130   6.413   5.910   2.544
 3744SOL    HW112131   6.314   5.902   2.531
 3744SOL    HW212132   6.453   5.819   2.557
 3745SOL     OW12133   5.016   2.554   3.025
 3745SOL    HW112134   4.929   2.584   2.986
 3745SOL    HW212135   5.088   2.561   2.955
 3746SOL     OW12136   5.468   0.051   4.750
 3746SOL    HW112137   5.395   7.005   4.720
 3746SOL    HW212138   5.480   0.123   4.681
 3747SOL     OW12139   2.732   6.054   5.442
 3747SOL    HW112140   2.816   6.108   5.448
 3747SOL    HW212141   2.672   6.093   5.372
 3748SOL     OW12142   5.267   2.232   3.788
 3748SOL    HW112143   5.281   2.328   3.763
 3748SOL    HW212144   5.201   2.191   3.726
 3749SOL     OW12145   6.491   6.501   2.100
 3749SOL    HW112146   6.461   6.580   2.047
 3749SOL    HW212147   6.453   6.418   2.060
 3750SOL     OW12148   5.752   4.046   1.143
 3750SOL    HW112149   5.749   4.047   1.243
 3750SOL    HW212150   5.828   3.988   1.113
 3751SOL     OW12151   0.934   4.341   1.816
 3751SOL    HW112152   0.984   4.265   1.857
 3751SOL    HW212153   0.920   4.412   1.885
 3752SOL     OW12154   0.756   6.463   6.030
 3752SOL    HW112155   0.686   6.507   6.086
 3752SOL    HW212156   0.824   6.531   6.002
 3753SOL     OW12157   0.184   0.622   4.943
 3753SOL    HW112158   0.215   0.557   5.012
 3753SOL    HW212159   0.088   0.645   4.960
 3754SOL     OW12160   6.392   6.165   1.540
 3754SOL    HW112161   6.490   6.180   1.558
 3754SOL    HW212162   6.358   6.237   1.480
 3755SOL     OW12163   4.974   2.804   2.736
 3755SOL    HW112164   5.040   2.732   2.713
 3755SOL    HW212165   4.932   2.838   2.652
 3756SOL     OW12166   3.296   0.041   0.226
 3756SOL    HW112167   3.360   6.985   0.253
 3756SOL    HW212168   3.233   0.005   0.157
 3757SOL     OW12169   3.786   5.017   6.669
 3757SOL    HW112170   3.787   5.059   6.759
 3757SOL    HW212171   3.700   5.039   6.622
 3758SOL     OW12172   7.016   0.556   2.389
 3758SOL    HW112173   0.073   0.606   2.436
 3758SOL    HW212174   6.974   0.490   2.451
 3759SOL     OW12175   5.088   5.220   0.858
 3759SOL    HW112176   5.027   5.270   0.920
 3759SOL    HW212177   5.053   5.228   0.765
 3760SOL     OW12178   1.957   1.949   5.763
 3760SOL    HW112179   1.996   2.041   5.768
 3760SOL    HW212180   1.893   1.936   5.839
 3761SOL     OW12181   6.952   6.297   4.282
 3761SOL    HW112182   6.949   6.269   4.378
 3761SOL    HW212183   0.028   6.329   4.259
 3762SOL     OW12184   0.715   3.089   0.166
 3762SOL    HW112185   0.626   3.117   0.202
 3762SOL    HW212186   0.772   3.170   0.150
 3763SOL     OW12187   6.738   3.754   5.599
 3763SOL    HW112188   6.819   3.729   5.653
 3763SOL    HW212189   6.658   3.758   5.659
 3764SOL     OW12190   2.900   6.929   4.213
 3764SOL    HW112191   2.898   6.846   4.267
 3764SOL    HW212192   2.825   6.928   4.147
 3765SOL     OW12193   5.701   1.611   3.437
 3765SOL    HW112194   5.605   1.638   3.429
 3765SOL    HW212195   5.739   1.652   3.520
 3766SOL     OW12196   1.647   0.862   5.180
 3766SOL    HW112197   1.556   0.828   5.205
 3766SOL    HW212198   1.652   0.873   5.081
 3767SOL     OW12199   0.607   4.431   0.126
 3767SOL    HW112200   0.661   4.424   0.210
 3767SOL    HW212201   0.650   4.377   0.054
 3768SOL     OW12202   4.138   6.827   1.369
 3768SOL    HW112203   4.174   6.844   1.278
 3768SOL    HW212204   4.195   6.760   1.416
 3769SOL     OW12205   4.502   6.999   5.084
 3769SOL    HW112206   4.451   6.947   5.015
 3769SOL    HW212207   4.538   6.937   5.153
 3770SOL     OW12208   2.590   2.281   0.742
 3770SOL    HW112209   2.527   2.348   0.704
 3770SOL    HW212210   2.578   2.193   0.695
 3771SOL     OW12211   4.308   1.791   5.253
 3771SOL    HW112212   4.359   1.822   5.334
 3771SOL    HW212213   4.359   1.717   5.209
 3772SOL     OW12214   4.855   0.567   2.584
 3772SOL    HW112215   4.757   0.582   2.598
 3772SOL    HW212216   4.872   0.469   2.571
 3773SOL     OW12217   6.629   2.013   0.734
 3773SOL    HW112218   6.616   1.941   0.803
 3773SOL    HW212219   6.573   2.092   0.758
 3774SOL     OW12220   1.007   2.016   2.207
 3774SOL    HW112221   0.935   1.962   2.163
 3774SOL    HW212222   1.012   2.106   2.163
 3775SOL     OW12223   5.565   3.180   3.632
 3775SOL    HW112224   5.540   3.273   3.659
 3775SOL    HW212225   5.658   3.159   3.664
 3776SOL     OW12226   3.087   2.680   6.480
 3776SOL    HW112227   3.107   2.737   6.560
 3776SOL    HW212228   3.150   2.702   6.406
 3777SOL     OW12229   1.115   3.816   2.960
 3777SOL    HW112230   1.203   3.860   2.982
 3777SOL    HW212231   1.129   3.718   2.946
 3778SOL     OW12232   2.616   6.625   1.926
 3778SOL    HW112233   2.571   6.549   1.971
 3778SOL    HW212234   2.553   6.703   1.921
 3779SOL     OW12235   2.144   4.713   0.134
 3779SOL    HW112236   2.144   4.726   0.233
 3779SOL    HW212237   2.104   4.624   0.112
 3780SOL     OW12238   2.667   0.327   3.779
 3780SOL    HW112239   2.613   0.260   3.830
 3780SOL    HW212240   2.723   0.381   3.842
 3781SOL     OW12241   2.860   5.469   4.950
 3781SOL    HW112242   2.806   5.483   5.033
 3781SOL    HW212243   2.957   5.483   4.970
 3782SOL     OW12244   2.720   1.120   2.714
 3782SOL    HW112245   2.695   1.124   2.811
 3782SOL    HW212246   2.819   1.117   2.705
 3783SOL     OW12247   5.036   5.704   5.245
 3783SOL    HW112248   5.106   5.647   5.289
 3783SOL    HW212249   5.006   5.659   5.161
 3784SOL     OW12250   5.060   2.021   4.337
 3784SOL    HW112251   5.002   1.946   4.369
 3784SOL    HW212252   5.050   2.099   4.398
 3785SOL     OW12253   1.302   1.651   2.111
 3785SOL    HW112254   1.330   1.590   2.036
 3785SOL    HW212255   1.341   1.618   2.197
 3786SOL     OW12256   3.082   6.249   2.837
 3786SOL    HW112257   2.991   6.259   2.878
 3786SOL    HW212258   3.103   6.331   2.784
 3787SOL     OW12259   4.404   1.300   4.078
 3787SOL    HW112260   4.394   1.313   4.176
 3787SOL    HW212261   4.469   1.226   4.060
 3788SOL     OW12262   6.492   3.495   2.205
 3788SOL    HW112263   6.488   3.490   2.305
 3788SOL    HW212264   6.587   3.510   2.176
 3789SOL     OW12265   1.339   5.565   2.292
 3789SOL    HW112266   1.407   5.505   2.250
 3789SOL    HW212267   1.247   5.531   2.270
 3790SOL     OW12268   2.169   3.192   2.952
 3790SOL    HW112269   2.146   3.289   2.946
 3790SOL    HW212270   2.127   3.142   2.876
 3791SOL     OW12271   6.207   0.651   2.643
 3791SOL    HW112272   6.246   0.712   2.711
 3791SOL    HW212273   6.251   0.667   2.554
 3792SOL     OW12274   0.359   6.963   6.046
 3792SOL    HW112275   0.385   6.916   6.130
 3792SOL    HW212276   0.362   0.047   6.061
 3793SOL     OW12277   1.278   6.491   3.015
 3793SOL    HW112278   1.289   6.412   2.954
 3793SOL    HW212279   1.237   6.461   3.101
 3794SOL     OW12280   4.040   6.742   3.404
 3794SOL    HW112281   4.113   6.721   3.339
 3794SOL    HW212282   3.951   6.728   3.361
 3795SOL     OW12283   5.481   0.172   0.837
 3795SOL    HW112284   5.553   0.132   0.780
 3795SOL    HW212285   5.522   0.238   0.900
 3796SOL     OW12286   1.214   3.120   0.769
 3796SOL    HW112287   1.293   3.108   0.829
 3796SOL    HW212288   1.131   3.097   0.819
 3797SOL     OW12289   0.110   5.396   1.998
 3797SOL    HW112290   0.192   5.454   2.000
 3797SOL    HW212291   0.121   5.319   2.060
 3798SOL     OW12292   0.721   4.071   1.173
 3798SOL    HW112293   0.707   3.973   1.160
 3798SOL    HW212294   0.795   4.086   1.238
 3799SOL     OW12295   1.271   0.328   4.878
 3799SOL    HW112296   1.224   0.332   4.789
 3799SOL    HW212297   1.206   0.351   4.950
 3800SOL     OW12298   5.343   2.694   5.246
 3800SOL    HW112299   5.330   2.735   5.156
 3800SOL    HW212300   5.324   2.763   5.317
 3801SOL     OW12301   6.693   6.913   6.678
 3801SOL    HW112302   6.786   6.929   6.710
 3801SOL    HW212303   6.645   7.001   6.669
 3802SOL     OW12304   1.443   2.390   5.332
 3802SOL    HW112305   1.498   2.462   5.374
 3802SOL    HW212306   1.467   2.302   5.371
 3803SOL     OW12307   4.082   1.078   1.299
 3803SOL    HW112308   4.166   1.036   1.335
 3803SOL    HW212309   4.008   1.012   1.301
 3804SOL     OW12310   5.031   2.841   5.031
 3804SOL    HW112311   5.038   2.902   5.111
 3804SOL    HW212312   5.120   2.836   4.986
 3805SOL     OW12313   1.943   3.829   1.755
 3805SOL    HW112314   2.040   3.803   1.751
 3805SOL    HW212315   1.927   3.883   1.838
 3806SOL     OW12316   3.410   1.471   0.768
 3806SOL    HW112317   3.415   1.442   0.672
 3806SOL    HW212318   3.503   1.486   0.803
 3807SOL     OW12319   1.387   0.043   3.018
 3807SOL    HW112320   1.410   0.140   3.026
 3807SOL    HW212321   1.355   0.024   2.925
 3808SOL     OW12322   2.973   0.452   1.191
 3808SOL    HW112323   3.020   0.377   1.238
 3808SOL    HW212324   2.929   0.416   1.108
 3809SOL     OW12325   3.846   0.316   6.819
 3809SOL    HW112326   3.918   0.247   6.828
 3809SOL    HW212327   3.873   0.399   6.866
 3810SOL     OW12328   2.315   3.500   6.115
 3810SOL    HW112329   2.255   3.487   6.193
 3810SOL    HW212330   2.284   3.443   6.039
 3811SOL     OW12331   1.090   0.755   5.905
 3811SOL    HW112332   1.157   0.806   5.853
 3811SOL    HW212333   1.095   0.658   5.881
 3812SOL     OW12334   5.402   0.688   5.883
 3812SOL    HW112335   5.379   0.608   5.827
 3812SOL    HW212336   5.500   0.706   5.877
 3813SOL     OW12337   3.799   4.926   1.830
 3813SOL    HW112338   3.724   4.865   1.854
 3813SOL    HW212339   3.878   4.872   1.802
 3814SOL     OW12340   2.030   0.706   1.885
 3814SOL    HW112341   1.982   0.620   1.873
 3814SOL    HW212342   1.974   0.768   1.940
 3815SOL     OW12343   5.581   1.977   1.699
 3815SOL    HW112344   5.672   2.010   1.724
 3815SOL    HW212345   5.561   2.001   1.605
 3816SOL     OW12346   0.223   6.519   1.153
 3816SOL    HW112347   0.298   6.455   1.166
 3816SOL    HW212348   0.252   6.611   1.180
 3817SOL     OW12349   4.720   1.444   5.575
 3817SOL    HW112350   4.636   1.437   5.629
 3817SOL    HW212351   4.789   1.495   5.627
 3818SOL     OW12352   4.638   5.495   3.235
 3818SOL    HW112353   4.738   5.491   3.235
 3818SOL    HW212354   4.609   5.591   3.243
 3819SOL     OW12355   6.163   4.468   5.979
 3819SOL    HW112356   6.073   4.426   5.988
 3819SOL    HW212357   6.189   4.469   5.882
 3820SOL     OW12358   4.979   6.156   3.356
 3820SOL    HW112359   5.020   6.241   3.387
 3820SOL    HW212360   4.919   6.120   3.428
 3821SOL     OW12361   0.099   4.558   1.383
 3821SOL    HW112362   0.059   4.545   1.473
 3821SOL    HW212363   0.102   4.470   1.335
 3822SOL     OW12364   0.705   4.565   1.707
 3822SOL    HW112365   0.793   4.569   1.659
 3822SOL    HW212366   0.642   4.508   1.654
 3823SOL     OW12367   2.765   3.144   5.809
 3823SOL    HW112368   2.842   3.168   5.868
 3823SOL    HW212369   2.791   3.158   5.713
 3824SOL     OW12370   6.838   2.279   6.045
 3824SOL    HW112371   6.873   2.313   6.133
 3824SOL    HW212372   6.740   2.300   6.038
 3825SOL     OW12373   6.186   6.406   5.865
 3825SOL    HW112374   6.229   6.493   5.888
 3825SOL    HW212375   6.091   6.422   5.837
 3826SOL     OW12376   6.716   1.970   1.155
 3826SOL    HW112377   6.649   1.914   1.106
 3826SOL    HW212378   6.806   1.927   1.149
 3827SOL     OW12379   5.666   2.135   1.166
 3827SOL    HW112380   5.702   2.145   1.073
 3827SOL    HW212381   5.601   2.209   1.184
 3828SOL     OW12382   4.314   1.047   1.425
 3828SOL    HW112383   4.350   1.140   1.434
 3828SOL    HW212384   4.380   0.990   1.377
 3829SOL     OW12385   1.116   4.910   3.532
 3829SOL    HW112386   1.061   4.982   3.490
 3829SOL    HW212387   1.095   4.822   3.489
 3830SOL     OW12388   3.307   0.620   5.467
 3830SOL    HW112389   3.307   0.534   5.518
 3830SOL    HW212390   3.242   0.613   5.391
 3831SOL     OW12391   4.760   1.581   1.969
 3831SOL    HW112392   4.719   1.673   1.972
 3831SOL    HW212393   4.690   1.513   1.991
 3832SOL     OW12394   5.376   6.945   2.632
 3832SOL    HW112395   5.372   6.963   2.533
 3832SOL    HW212396   5.338   6.854   2.650
 3833SOL     OW12397   1.404   6.444   1.564
 3833SOL    HW112398   1.336   6.416   1.495
 3833SOL    HW212399   1.363   6.512   1.625
 3834SOL     OW12400   2.839   2.806   0.703
 3834SOL    HW112401   2.907   2.878   0.697
 3834SOL    HW212402   2.883   2.721   0.732
 3835SOL     OW12403   3.540   5.643   3.813
 3835SOL    HW112404   3.568   5.548   3.797
 3835SOL    HW212405   3.576   5.701   3.741
 3836SOL     OW12406   1.655   3.130   5.373
 3836SOL    HW112407   1.595   3.199   5.333
 3836SOL    HW212408   1.741   3.126   5.321
 3837SOL     OW12409   3.145   3.392   6.874
 3837SOL    HW112410   3.122   3.477   6.825
 3837SOL    HW212411   3.237   3.399   6.911
 3838SOL     OW12412   5.929   2.996   5.163
 3838SOL    HW112413   5.838   3.015   5.199
 3838SOL    HW212414   5.969   3.080   5.126
 3839SOL     OW12415   0.288   6.286   6.177
 3839SOL    HW112416   0.349   6.288   6.257
 3839SOL    HW212417   0.198   6.252   6.204
 3840SOL     OW12418   2.350   0.987   3.739
 3840SOL    HW112419   2.257   0.976   3.707
 3840SOL    HW212420   2.350   1.012   3.836
 3841SOL     OW12421   0.857   3.844   4.340
 3841SOL    HW112422   0.876   3.935   4.303
 3841SOL    HW212423   0.942   3.799   4.364
 3842SOL     OW12424   1.661   5.510   0.009
 3842SOL    HW112425   1.735   5.467   6.973
 3842SOL    HW212426   1.687   5.517   0.105
 3843SOL     OW12427   5.734   4.378   0.359
 3843SOL    HW112428   5.645   4.397   0.400
 3843SOL    HW212429   5.773   4.462   0.322
 3844SOL     OW12430   2.526   4.278   5.762
 3844SOL    HW112431   2.603   4.280   5.826
 3844SOL    HW212432   2.548   4.332   5.681
 3845SOL     OW12433   3.132   3.343   3.537
 3845SOL    HW112434   3.150   3.441   3.542
 3845SOL    HW212435   3.217   3.293   3.554
 3846SOL     OW12436   6.695   4.447   4.127
 3846SOL    HW112437   6.778   4.503   4.133
 3846SOL    HW212438   6.700   4.390   4.046
 3847SOL     OW12439   0.768   6.904   0.681
 3847SOL    HW112440   0.693   6.902   0.615
 3847SOL    HW212441   0.815   6.992   0.675
 3848SOL     OW12442   2.793   5.927   1.668
 3848SOL    HW112443   2.702   5.895   1.643
 3848SOL    HW212444   2.858   5.903   1.596
 3849SOL     OW12445   2.380   1.383   6.004
 3849SOL    HW112446   2.294   1.332   6.002
 3849SOL    HW212447   2.413   1.390   6.099
 3850SOL     OW12448   1.923   3.876   1.481
 3850SOL    HW112449   1.899   3.863   1.577
 3850SOL    HW212450   2.018   3.906   1.475
 3851SOL     OW12451   2.960   2.626   1.297
 3851SOL    HW112452   2.948   2.711   1.246
 3851SOL    HW212453   2.890   2.621   1.369
 3852SOL     OW12454   4.149   1.200   5.095
 3852SOL    HW112455   4.163   1.165   5.003
 3852SOL    HW212456   4.053   1.190   5.120
 3853SOL     OW12457   0.996   3.151   1.804
 3853SOL    HW112458   0.962   3.057   1.794
 3853SOL    HW212459   1.057   3.155   1.884
 3854SOL     OW12460   1.512   3.083   4.255
 3854SOL    HW112461   1.572   3.159   4.279
 3854SOL    HW212462   1.429   3.087   4.310
 3855SOL     OW12463   6.946   1.734   4.956
 3855SOL    HW112464   6.958   1.746   4.857
 3855SOL    HW212465   6.868   1.789   4.987
 3856SOL     OW12466   0.972   6.244   5.770
 3856SOL    HW112467   0.891   6.275   5.720
 3856SOL    HW212468   0.955   6.248   5.868
 3857SOL     OW12469   0.839   0.454   6.414
 3857SOL    HW112470   0.900   0.375   6.406
 3857SOL    HW212471   0.862   0.521   6.344
 3858SOL     OW12472   2.702   5.227   0.119
 3858SOL    HW112473   2.737   5.153   0.175
 3858SOL    HW212474   2.776   5.291   0.098
 3859SOL     OW12475   6.261   2.887   2.312
 3859SOL    HW112476   6.162   2.883   2.326
 3859SOL    HW212477   6.287   2.822   2.240
 3860SOL     OW12478   2.205   6.038   5.330
 3860SOL    HW112479   2.184   6.136   5.331
 3860SOL    HW212480   2.195   6.003   5.237
 3861SOL     OW12481   3.870   4.362   0.460
 3861SOL    HW112482   3.817   4.402   0.535
 3861SOL    HW212483   3.939   4.301   0.498
 3862SOL     OW12484   0.445   5.910   5.335
 3862SOL    HW112485   0.471   5.998   5.374
 3862SOL    HW212486   0.514   5.841   5.358
 3863SOL     OW12487   2.882   3.659   0.587
 3863SOL    HW112488   2.966   3.693   0.542
 3863SOL    HW212489   2.903   3.576   0.638
 3864SOL     OW12490   3.069   1.770   0.673
 3864SOL    HW112491   3.163   1.764   0.706
 3864SOL    HW212492   3.013   1.819   0.739
 3865SOL     OW12493   4.059   0.618   2.225
 3865SOL    HW112494   4.050   0.529   2.179
 3865SOL    HW212495   4.102   0.683   2.163
 3866SOL     OW12496   3.004   6.294   6.477
 3866SOL    HW112497   3.085   6.310   6.420
 3866SOL    HW212498   2.948   6.376   6.479
 3867SOL     OW12499   1.528   4.863   3.315
 3867SOL    HW112500   1.477   4.947   3.297
 3867SOL    HW212501   1.590   4.845   3.239
 3868SOL     OW12502   2.602   5.752   2.550
 3868SOL    HW112503   2.657   5.769   2.632
 3868SOL    HW212504   2.508   5.731   2.577
 3869SOL     OW12505   0.419   1.292   3.857
 3869SOL    HW112506   0.363   1.259   3.933
 3869SOL    HW212507   0.372   1.274   3.771
 3870SOL     OW12508   3.521   4.256   0.369
 3870SOL    HW112509   3.517   4.195   0.448
 3870SOL    HW212510   3.585   4.331   0.387
 3871SOL     OW12511   3.153   1.256   5.066
 3871SOL    HW112512   3.222   1.280   5.135
 3871SOL    HW212513   3.092   1.334   5.052
 3872SOL     OW12514   4.367   3.668   1.175
 3872SOL    HW112515   4.272   3.697   1.183
 3872SOL    HW212516   4.425   3.732   1.225
 3873SOL     OW12517   5.657   4.807   2.018
 3873SOL    HW112518   5.714   4.773   1.943
 3873SOL    HW212519   5.707   4.801   2.104
 3874SOL     OW12520   4.408   5.581   5.789
 3874SOL    HW112521   4.501   5.591   5.755
 3874SOL    HW212522   4.349   5.648   5.745
 3875SOL     OW12523   2.450   3.999   0.399
 3875SOL    HW112524   2.392   3.947   0.462
 3875SOL    HW212525   2.444   4.096   0.421
 3876SOL     OW12526   5.760   3.634   2.347
 3876SOL    HW112527   5.673   3.680   2.362
 3876SOL    HW212528   5.750   3.536   2.367
 3877SOL     OW12529   4.685   1.845   1.928
 3877SOL    HW112530   4.655   1.900   1.850
 3877SOL    HW212531   4.730   1.904   1.995
 3878SOL     OW12532   4.678   5.923   4.625
 3878SOL    HW112533   4.674   5.940   4.723
 3878SOL    HW212534   4.585   5.919   4.588
 3879SOL     OW12535   2.701   6.017   1.162
 3879SOL    HW112536   2.795   5.983   1.169
 3879SOL    HW212537   2.637   5.941   1.179
 3880SOL     OW12538   6.089   1.957   4.264
 3880SOL    HW112539   6.043   2.010   4.193
 3880SOL    HW212540   6.169   2.008   4.297
 3881SOL     OW12541   0.454   5.783   0.015
 3881SOL    HW112542   0.498   5.784   6.941
 3881SOL    HW212543   0.381   5.715   0.015
 3882SOL     OW12544   0.187   6.341   6.458
 3882SOL    HW112545   0.282   6.315   6.440
 3882SOL    HW212546   0.167   6.327   6.555
 3883SOL     OW12547   3.936   2.164   6.852
 3883SOL    HW112548   3.870   2.091   6.872
 3883SOL    HW212549   3.964   2.209   6.936
 3884SOL     OW12550   1.911   5.177   5.882
 3884SOL    HW112551   1.923   5.260   5.938
 3884SOL    HW212552   1.814   5.161   5.867
 3885SOL     OW12553   6.753   0.838   4.556
 3885SOL    HW112554   6.810   0.791   4.624
 3885SOL    HW212555   6.759   0.936   4.569
 3886SOL     OW12556   0.126   5.911   4.984
 3886SOL    HW112557   0.116   5.908   4.884
 3886SOL    HW212558   0.132   5.818   5.020
 3887SOL     OW12559   5.686   2.548   4.906
 3887SOL    HW112560   5.650   2.456   4.889
 3887SOL    HW212561   5.785   2.547   4.899
 3888SOL     OW12562   5.502   1.455   2.448
 3888SOL    HW112563   5.555   1.502   2.377
 3888SOL    HW212564   5.564   1.399   2.503
 3889SOL     OW12565   6.449   5.612   6.755
 3889SOL    HW112566   6.395   5.661   6.686
 3889SOL    HW212567   6.444   5.660   6.842
 3890SOL     OW12568   6.431   3.291   3.280
 3890SOL    HW112569   6.360   3.286   3.210
 3890SOL    HW212570   6.492   3.212   3.271
 3891SOL     OW12571   4.659   5.101   5.876
 3891SOL    HW112572   4.578   5.089   5.818
 3891SOL    HW212573   4.663   5.196   5.907
 3892SOL     OW12574   5.941   5.580   4.056
 3892SOL    HW112575   5.999   5.633   4.118
 3892SOL    HW212576   5.870   5.639   4.019
 3893SOL     OW12577   2.837   6.321   4.630
 3893SOL    HW112578   2.857   6.265   4.710
 3893SOL    HW212579   2.909   6.307   4.561
 3894SOL     OW12580   5.903   5.039   6.570
 3894SOL    HW112581   5.885   5.055   6.667
 3894SOL    HW212582   5.863   5.113   6.516
 3895SOL     OW12583   1.879   1.889   6.031
 3895SOL    HW112584   1.792   1.866   6.076
 3895SOL    HW212585   1.955   1.861   6.090
 3896SOL     OW12586   6.229   3.220   0.608
 3896SOL    HW112587   6.232   3.319   0.594
 3896SOL    HW212588   6.142   3.184   0.576
 3897SOL     OW12589   3.459   6.891   3.586
 3897SOL    HW112590   3.403   6.844   3.654
 3897SOL    HW212591   3.489   6.979   3.622
 3898SOL     OW12592   3.143   3.280   3.916
 3898SOL    HW112593   3.080   3.352   3.886
 3898SOL    HW212594   3.147   3.278   4.016
 3899SOL     OW12595   3.921   1.702   6.314
 3899SOL    HW112596   3.965   1.762   6.247
 3899SOL    HW212597   3.853   1.645   6.269
 3900SOL     OW12598   0.745   2.721   4.068
 3900SOL    HW112599   0.714   2.754   4.157
 3900SOL    HW212600   0.813   2.649   4.080
 3901SOL     OW12601   3.459   5.701   5.695
 3901SOL    HW112602   3.454   5.784   5.640
 3901SOL    HW212603   3.386   5.702   5.764
 3902SOL     OW12604   3.731   5.347   2.844
 3902SOL    HW112605   3.735   5.357   2.943
 3902SOL    HW212606   3.668   5.414   2.805
 3903SOL     OW12607   3.826   3.762   5.878
 3903SOL    HW112608   3.789   3.703   5.806
 3903SOL    HW212609   3.764   3.839   5.893
 3904SOL     OW12610   1.935   6.438   6.917
 3904SOL    HW112611   1.997   6.457   6.840
 3904SOL    HW212612   1.856   6.387   6.884
 3905SOL     OW12613   4.627   6.959   5.778
 3905SOL    HW112614   4.606   6.976   5.874
 3905SOL    HW212615   4.544   6.964   5.723
 3906SOL     OW12616   6.808   5.992   4.378
 3906SOL    HW112617   6.725   6.042   4.352
 3906SOL    HW212618   6.786   5.925   4.449
 3907SOL     OW12619   0.169   1.601   4.480
 3907SOL    HW112620   0.250   1.626   4.532
 3907SOL    HW212621   0.196   1.556   4.395
 3908SOL     OW12622   2.125   0.791   4.320
 3908SOL    HW112623   2.062   0.802   4.396
 3908SOL    HW212624   2.088   0.726   4.254
 3909SOL     OW12625   5.328   3.879   1.899
 3909SOL    HW112626   5.260   3.806   1.902
 3909SOL    HW212627   5.407   3.853   1.954
 3910SOL     OW12628   2.428   2.652   1.117
 3910SOL    HW112629   2.436   2.576   1.182
 3910SOL    HW212630   2.341   2.700   1.132
 3911SOL     OW12631   6.889   1.508   1.221
 3911SOL    HW112632   6.817   1.494   1.153
 3911SOL    HW212633   6.958   1.437   1.210
 3912SOL     OW12634   4.387   4.022   0.443
 3912SOL    HW112635   4.446   4.099   0.421
 3912SOL    HW212636   4.434   3.960   0.504
 3913SOL     OW12637   4.158   5.248   1.224
 3913SOL    HW112638   4.099   5.324   1.196
 3913SOL    HW212639   4.108   5.190   1.288
 3914SOL     OW12640   0.150   0.846   0.830
 3914SOL    HW112641   0.116   0.803   0.914
 3914SOL    HW212642   0.183   0.938   0.852
 3915SOL     OW12643   5.586   0.445   5.186
 3915SOL    HW112644   5.642   0.385   5.243
 3915SOL    HW212645   5.502   0.469   5.235
 3916SOL     OW12646   1.750   2.603   2.464
 3916SOL    HW112647   1.746   2.697   2.430
 3916SOL    HW212648   1.805   2.547   2.403
 3917SOL     OW12649   4.519   5.443   2.329
 3917SOL    HW112650   4.569   5.473   2.247
 3917SOL    HW212651   4.506   5.520   2.391
 3918SOL     OW12652   4.200   6.838   1.109
 3918SOL    HW112653   4.187   6.739   1.106
 3918SOL    HW212654   4.174   6.878   1.021
 3919SOL     OW12655   5.167   5.395   3.172
 3919SOL    HW112656   5.239   5.396   3.102
 3919SOL    HW212657   5.162   5.304   3.213
 3920SOL     OW12658   3.649   1.757   5.932
 3920SOL    HW112659   3.669   1.814   5.853
 3920SOL    HW212660   3.550   1.740   5.937
 3921SOL     OW12661   1.875   2.918   6.060
 3921SOL    HW112662   1.826   2.990   6.110
 3921SOL    HW212663   1.810   2.846   6.034
 3922SOL     OW12664   5.241   2.180   4.066
 3922SOL    HW112665   5.146   2.151   4.069
 3922SOL    HW212666   5.266   2.203   3.971
 3923SOL     OW12667   5.760   0.695   1.178
 3923SOL    HW112668   5.677   0.642   1.162
 3923SOL    HW212669   5.744   0.761   1.251
 3924SOL     OW12670   5.249   4.804   4.326
 3924SOL    HW112671   5.281   4.895   4.353
 3924SOL    HW212672   5.173   4.813   4.262
 3925SOL     OW12673   3.368   5.394   1.749
 3925SOL    HW112674   3.394   5.299   1.761
 3925SOL    HW212675   3.280   5.399   1.701
 3926SOL     OW12676   1.374   6.072   5.354
 3926SOL    HW112677   1.413   6.161   5.333
 3926SOL    HW212678   1.388   6.010   5.277
 3927SOL     OW12679   5.761   6.951   5.432
 3927SOL    HW112680   5.800   0.006   5.373
 3927SOL    HW212681   5.835   6.893   5.468
 3928SOL     OW12682   4.593   5.650   2.731
 3928SOL    HW112683   4.547   5.589   2.795
 3928SOL    HW212684   4.542   5.655   2.646
 3929SOL     OW12685   1.814   0.841   5.586
 3929SOL    HW112686   1.804   0.923   5.529
 3929SOL    HW212687   1.727   0.819   5.630
 3930SOL     OW12688   2.342   6.091   4.480
 3930SOL    HW112689   2.360   6.095   4.579
 3930SOL    HW212690   2.324   5.996   4.454
 3931SOL     OW12691   0.651   2.447   0.103
 3931SOL    HW112692   0.637   2.535   0.057
 3931SOL    HW212693   0.658   2.462   0.202
 3932SOL     OW12694   2.202   3.931   2.804
 3932SOL    HW112695   2.223   4.029   2.799
 3932SOL    HW212696   2.283   3.879   2.779
 3933SOL     OW12697   1.671   6.435   1.522
 3933SOL    HW112698   1.574   6.411   1.527
 3933SOL    HW212699   1.701   6.473   1.610
 3934SOL     OW12700   1.814   6.792   1.729
 3934SOL    HW112701   1.804   6.866   1.663
 3934SOL    HW212702   1.911   6.774   1.744
 3935SOL     OW12703   0.519   1.764   4.706
 3935SOL    HW112704   0.427   1.803   4.699
 3935SOL    HW212705   0.586   1.837   4.697
 3936SOL     OW12706   6.460   4.166   3.791
 3936SOL    HW112707   6.437   4.093   3.856
 3936SOL    HW212708   6.533   4.223   3.830
 3937SOL     OW12709   0.865   0.013   0.035
 3937SOL    HW112710   0.767   0.027   0.050
 3937SOL    HW212711   0.917   0.088   0.076
 3938SOL     OW12712   0.830   4.078   6.791
 3938SOL    HW112713   0.867   4.025   6.715
 3938SOL    HW212714   0.846   4.029   6.877
 3939SOL     OW12715   2.043   6.335   4.020
 3939SOL    HW112716   2.107   6.295   3.954
 3939SOL    HW212717   2.020   6.267   4.090
 3940SOL     OW12718   2.014   6.094   6.396
 3940SOL    HW112719   1.936   6.139   6.353
 3940SOL    HW212720   1.986   6.005   6.432
 3941SOL     OW12721   5.384   5.475   2.718
 3941SOL    HW112722   5.346   5.389   2.683
 3941SOL    HW212723   5.356   5.551   2.658
 3942SOL     OW12724   6.426   6.466   6.311
 3942SOL    HW112725   6.380   6.554   6.299
 3942SOL    HW212726   6.383   6.416   6.386
 3943SOL     OW12727   1.755   4.376   0.245
 3943SOL    HW112728   1.719   4.385   0.152
 3943SOL    HW212729   1.679   4.369   0.310
 3944SOL     OW12730   4.555   3.446   6.982
 3944SOL    HW112731   4.610   3.366   7.007
 3944SOL    HW212732   4.461   3.433   7.014
 3945SOL     OW12733   6.921   0.684   3.140
 3945SOL    HW112734   6.896   0.775   3.175
 3945SOL    HW212735   6.917   0.618   3.215
 3946SOL     OW12736   6.187   2.434   1.169
 3946SOL    HW112737   6.113   2.418   1.234
 3946SOL    HW212738   6.190   2.531   1.144
 3947SOL     OW12739   5.715   6.534   2.576
 3947SOL    HW112740   5.721   6.532   2.477
 3947SOL    HW212741   5.692   6.442   2.610
 3948SOL     OW12742   2.337   1.185   4.934
 3948SOL    HW112743   2.257   1.131   4.962
 3948SOL    HW212744   2.390   1.133   4.867
 3949SOL     OW12745   5.947   7.000   2.268
 3949SOL    HW112746   5.933   6.947   2.352
 3949SOL    HW212747   5.951   0.082   2.290
 3950SOL     OW12748   2.615   4.997   1.478
 3950SOL    HW112749   2.661   5.075   1.521
 3950SOL    HW212750   2.663   4.913   1.503
 3951SOL     OW12751   6.732   2.590   3.491
 3951SOL    HW112752   6.721   2.601   3.590
 3951SOL    HW212753   6.728   2.680   3.447
 3952SOL     OW12754   5.705   4.303   6.933
 3952SOL    HW112755   5.658   4.250   7.004
 3952SOL    HW212756   5.757   4.241   6.874
 3953SOL     OW12757   3.404   3.613   5.850
 3953SOL    HW112758   3.408   3.612   5.950
 3953SOL    HW212759   3.497   3.617   5.814
 3954SOL     OW12760   1.249   3.507   5.322
 3954SOL    HW112761   1.309   3.430   5.302
 3954SOL    HW212762   1.199   3.489   5.407
 3955SOL     OW12763   5.762   3.478   0.358
 3955SOL    HW112764   5.841   3.459   0.415
 3955SOL    HW212765   5.752   3.577   0.347
 3956SOL     OW12766   6.983   2.785   5.057
 3956SOL    HW112767   6.909   2.849   5.080
 3956SOL    HW212768   0.004   2.745   5.141
 3957SOL     OW12769   0.923   2.417   2.254
 3957SOL    HW112770   0.996   2.477   2.220
 3957SOL    HW212771   0.869   2.466   2.323
 3958SOL     OW12772   5.575   5.844   1.393
 3958SOL    HW112773   5.500   5.778   1.386
 3958SOL    HW212774   5.576   5.883   1.485
 3959SOL     OW12775   2.610   5.081   1.847
 3959SOL    HW112776   2.530   5.021   1.847
 3959SOL    HW212777   2.691   5.029   1.821
 3960SOL     OW12778   6.067   2.548   0.533
 3960SOL    HW112779   5.986   2.591   0.574
 3960SOL    HW212780   6.039   2.467   0.482
 3961SOL     OW12781   0.091   1.143   1.319
 3961SOL    HW112782   0.077   1.238   1.292
 3961SOL    HW212783   0.011   1.089   1.293
 3962SOL     OW12784   6.688   0.353   6.199
 3962SOL    HW112785   6.675   0.448   6.226
 3962SOL    HW212786   6.783   0.340   6.169
 3963SOL     OW12787   5.266   4.084   4.214
 3963SOL    HW112788   5.307   4.010   4.267
 3963SOL    HW212789   5.280   4.068   4.116
 3964SOL     OW12790   5.910   4.843   0.468
 3964SOL    HW112791   5.828   4.788   0.483
 3964SOL    HW212792   5.898   4.932   0.513
 3965SOL     OW12793   3.101   4.223   1.032
 3965SOL    HW112794   3.004   4.218   1.007
 3965SOL    HW212795   3.157   4.207   0.951
 3966SOL     OW12796   6.669   3.452   5.773
 3966SOL    HW112797   6.604   3.523   5.804
 3966SOL    HW212798   6.626   3.398   5.700
 3967SOL     OW12799   2.217   6.527   0.176
 3967SOL    HW112800   2.138   6.569   0.220
 3967SOL    HW212801   2.189   6.443   0.130
 3968SOL     OW12802   4.519   2.368   0.537
 3968SOL    HW112803   4.613   2.393   0.562
 3968SOL    HW212804   4.502   2.273   0.563
 3969SOL     OW12805   6.818   6.150   0.909
 3969SOL    HW112806   6.739   6.210   0.891
 3969SOL    HW212807   6.835   6.148   1.008
 3970SOL     OW12808   5.784   4.580   4.152
 3970SOL    HW112809   5.841   4.661   4.166
 3970SOL    HW212810   5.835   4.498   4.177
 3971SOL     OW12811   0.801   5.987   3.739
 3971SOL    HW112812   0.883   5.982   3.683
 3971SOL    HW212813   0.720   5.986   3.680
 3972SOL     OW12814   1.090   0.465   5.887
 3972SOL    HW112815   1.111   0.376   5.847
 3972SOL    HW212816   1.125   0.469   5.980
 3973SOL     OW12817   3.908   3.250   2.693
 3973SOL    HW112818   3.867   3.283   2.608
 3973SOL    HW212819   3.914   3.150   2.691
 3974SOL     OW12820   5.174   0.671   6.482
 3974SOL    HW112821   5.110   0.748   6.484
 3974SOL    HW212822   5.146   0.606   6.412
 3975SOL     OW12823   0.051   6.754   4.521
 3975SOL    HW112824   7.010   6.799   4.590
 3975SOL    HW212825   0.014   6.774   4.430
 3976SOL     OW12826   0.925   2.802   5.760
 3976SOL    HW112827   1.005   2.802   5.699
 3976SOL    HW212828   0.898   2.897   5.777
 3977SOL     OW12829   3.169   4.934   5.565
 3977SOL    HW112830   3.219   4.902   5.645
 3977SOL    HW212831   3.152   4.857   5.504
 3978SOL     OW12832   5.540   3.039   6.670
 3978SOL    HW112833   5.469   3.052   6.739
 3978SOL    HW212834   5.562   2.941   6.663
 3979SOL     OW12835   1.154   6.002   2.923
 3979SOL    HW112836   1.113   6.080   2.970
 3979SOL    HW212837   1.158   5.924   2.986
 3980SOL     OW12838   5.092   4.121   4.667
 3980SOL    HW112839   5.102   4.049   4.597
 3980SOL    HW212840   5.028   4.190   4.634
 3981SOL     OW12841   7.015   1.233   6.334
 3981SOL    HW112842   6.975   1.202   6.248
 3981SOL    HW212843   0.040   1.323   6.322
 3982SOL     OW12844   2.171   3.194   4.416
 3982SOL    HW112845   2.145   3.153   4.504
 3982SOL    HW212846   2.177   3.293   4.426
 3983SOL     OW12847   2.905   0.580   3.848
 3983SOL    HW112848   2.986   0.546   3.800
 3983SOL    HW212849   2.934   0.628   3.931
 3984SOL     OW12850   1.802   5.639   2.262
 3984SOL    HW112851   1.889   5.682   2.284
 3984SOL    HW212852   1.815   5.540   2.252
 3985SOL     OW12853   1.990   2.395   1.376
 3985SOL    HW112854   1.995   2.346   1.463
 3985SOL    HW212855   1.920   2.465   1.381
 3986SOL     OW12856   6.843   2.375   2.500
 3986SOL    HW112857   6.753   2.363   2.543
 3986SOL    HW212858   6.894   2.446   2.549
 3987SOL     OW12859   0.996   4.273   5.247
 3987SOL    HW112860   0.959   4.195   5.196
 3987SOL    HW212861   1.075   4.310   5.199
 3988SOL     OW12862   4.925   6.972   2.102
 3988SOL    HW112863   4.854   6.908   2.133
 3988SOL    HW212864   4.934   6.966   2.003
 3989SOL     OW12865   4.378   1.287   5.712
 3989SOL    HW112866   4.348   1.288   5.616
 3989SOL    HW212867   4.369   1.379   5.750
 3990SOL     OW12868   6.005   0.759   3.960
 3990SOL    HW112869   6.015   0.775   4.058
 3990SOL    HW212870   6.077   0.809   3.912
 3991SOL     OW12871   6.920   1.829   3.435
 3991SOL    HW112872   6.824   1.846   3.413
 3991SOL    HW212873   6.970   1.915   3.432
 3992SOL     OW12874   5.375   3.839   6.115
 3992SOL    HW112875   5.374   3.802   6.022
 3992SOL    HW212876   5.281   3.852   6.147
 3993SOL     OW12877   1.454   0.793   3.604
 3993SOL    HW112878   1.372   0.765   3.653
 3993SOL    HW212879   1.512   0.713   3.588
 3994SOL     OW12880   3.305   1.865   3.427
 3994SOL    HW112881   3.303   1.957   3.467
 3994SOL    HW212882   3.398   1.842   3.400
 3995SOL     OW12883   1.578   3.498   2.434
 3995SOL    HW112884   1.500   3.441   2.460
 3995SOL    HW212885   1.662   3.445   2.441
 3996SOL     OW12886   6.505   6.358   5.122
 3996SOL    HW112887   6.598   6.367   5.088
 3996SOL    HW212888   6.451   6.438   5.096
 3997SOL     OW12889   5.702   3.973   4.501
 3997SOL    HW112890   5.653   4.054   4.471
 3997SOL    HW212891   5.654   3.933   4.579
 3998SOL     OW12892   5.084   1.819   3.890
 3998SOL    HW112893   5.036   1.889   3.837
 3998SOL    HW212894   5.180   1.846   3.902
 3999SOL     OW12895   5.098   2.614   0.764
 3999SOL    HW112896   5.050   2.528   0.744
 3999SOL    HW212897   5.038   2.675   0.816
 4000SOL     OW12898   2.186   4.737   3.314
 4000SOL    HW112899   2.134   4.695   3.240
 4000SOL    HW212900   2.208   4.832   3.290
 4001SOL     OW12901   0.497   5.976   4.511
 4001SOL    HW112902   0.525   5.883   4.536
 4001SOL    HW212903   0.439   6.012   4.584
 4002SOL     OW12904   3.779   3.684   4.822
 4002SOL    HW112905   3.869   3.652   4.793
 4002SOL    HW212906   3.709   3.620   4.790
 4003SOL     OW12907   2.930   0.953   4.673
 4003SOL    HW112908   2.941   0.991   4.765
 4003SOL    HW212909   2.908   1.027   4.609
 4004SOL     OW12910   1.943   4.188   4.839
 4004SOL    HW112911   1.895   4.180   4.751
 4004SOL    HW212912   1.876   4.185   4.913
 4005SOL     OW12913   5.142   2.832   0.581
 4005SOL    HW112914   5.127   2.746   0.630
 4005SOL    HW212915   5.055   2.881   0.574
 4006SOL     OW12916   6.920   5.516   1.873
 4006SOL    HW112917   6.975   5.463   1.937
 4006SOL    HW212918   6.979   5.568   1.812
 4007SOL     OW12919   0.918   1.511   1.990
 4007SOL    HW112920   0.973   1.540   2.069
 4007SOL    HW212921   0.842   1.454   2.022
 4008SOL     OW12922   3.637   1.024   1.374
 4008SOL    HW112923   3.676   1.045   1.463
 4008SOL    HW212924   3.538   1.014   1.382
 4009SOL     OW12925   3.924   2.442   1.263
 4009SOL    HW112926   3.995   2.392   1.313
 4009SOL    HW212927   3.834   2.413   1.295
 4010SOL     OW12928   2.011   4.601   1.162
 4010SOL    HW112929   2.093   4.642   1.202
 4010SOL    HW212930   1.998   4.638   1.069
 4011SOL     OW12931   6.073   0.071   5.859
 4011SOL    HW112932   6.102   0.154   5.905
 4011SOL    HW212933   6.109   0.070   5.766
 4012SOL     OW12934   5.914   5.600   2.024
 4012SOL    HW112935   5.921   5.659   2.104
 4012SOL    HW212936   5.972   5.520   2.036
 4013SOL     OW12937   6.913   1.875   6.928
 4013SOL    HW112938   6.836   1.842   6.982
 4013SOL    HW212939   6.998   1.836   6.964
 4014SOL     OW12940   3.414   5.864   2.686
 4014SOL    HW112941   3.385   5.954   2.719
 4014SOL    HW212942   3.391   5.794   2.754
 4015SOL     OW12943   4.437   5.950   5.665
 4015SOL    HW112944   4.392   5.931   5.578
 4015SOL    HW212945   4.397   6.032   5.706
 4016SOL     OW12946   5.262   5.182   4.539
 4016SOL    HW112947   5.329   5.151   4.606
 4016SOL    HW212948   5.263   5.119   4.460
 4017SOL     OW12949   1.809   5.991   5.717
 4017SOL    HW112950   1.908   5.988   5.733
 4017SOL    HW212951   1.765   5.916   5.766
 4018SOL     OW12952   4.352   5.586   1.164
 4018SOL    HW112953   4.371   5.631   1.077
 4018SOL    HW212954   4.256   5.557   1.167
 4019SOL     OW12955   6.933   3.376   2.287
 4019SOL    HW112956   6.949   3.278   2.295
 4019SOL    HW212957   6.891   3.410   2.371
 4020SOL     OW12958   6.929   5.879   4.161
 4020SOL    HW112959   6.899   5.892   4.256
 4020SOL    HW212960   6.851   5.893   4.100
 4021SOL     OW12961   4.277   5.017   6.332
 4021SOL    HW112962   4.356   4.976   6.380
 4021SOL    HW212963   4.281   4.991   6.236
 4022SOL     OW12964   3.423   6.943   1.287
 4022SOL    HW112965   3.350   6.877   1.302
 4022SOL    HW212966   3.505   6.895   1.254
 4023SOL     OW12967   0.499   2.065   4.433
 4023SOL    HW112968   0.489   2.156   4.474
 4023SOL    HW212969   0.423   2.048   4.371
 4024SOL     OW12970   6.979   6.455   5.659
 4024SOL    HW112971   0.008   6.431   5.573
 4024SOL    HW212972   0.030   6.449   5.734
 4025SOL     OW12973   6.905   4.806   3.726
 4025SOL    HW112974   6.824   4.761   3.688
 4025SOL    HW212975   6.923   4.772   3.817
 4026SOL     OW12976   0.399   6.654   4.241
 4026SOL    HW112977   0.432   6.702   4.323
 4026SOL    HW212978   0.411   6.556   4.253
 4027SOL     OW12979   3.686   5.345   4.995
 4027SOL    HW112980   3.654   5.356   5.089
 4027SOL    HW212981   3.625   5.283   4.946
 4028SOL     OW12982   5.243   1.403   4.412
 4028SOL    HW112983   5.341   1.390   4.394
 4028SOL    HW212984   5.227   1.498   4.438
 4029SOL     OW12985   1.159   6.921   0.735
 4029SOL    HW112986   1.221   6.958   0.666
 4029SOL    HW212987   1.129   6.995   0.795
 4030SOL     OW12988   0.782   2.086   1.800
 4030SOL    HW112989   0.756   2.033   1.719
 4030SOL    HW212990   0.699   2.117   1.847
 4031SOL     OW12991   5.905   6.007   0.481
 4031SOL    HW112992   5.835   5.984   0.549
 4031SOL    HW212993   5.874   5.978   0.390
 4032SOL     OW12994   5.052   1.509   2.591
 4032SOL    HW112995   5.109   1.470   2.518
 4032SOL    HW212996   5.090   1.597   2.620
 4033SOL     OW12997   2.003   2.958   2.830
 4033SOL    HW112998   2.063   2.886   2.794
 4033SOL    HW212999   1.915   2.954   2.782
 4034SOL     OW13000   1.649   2.679   4.932
 4034SOL    HW113001   1.576   2.611   4.938
 4034SOL    HW213002   1.675   2.692   4.836
 4035SOL     OW13003   4.358   2.302   1.823
 4035SOL    HW113004   4.389   2.397   1.816
 4035SOL    HW213005   4.353   2.276   1.920
 4036SOL     OW13006   3.714   6.111   3.291
 4036SOL    HW113007   3.651   6.141   3.219
 4036SOL    HW213008   3.704   6.171   3.371
 4037SOL     OW13009   2.069   2.454   6.492
 4037SOL    HW113010   1.971   2.474   6.490
 4037SOL    HW213011   2.109   2.492   6.575
 4038SOL     OW13012   3.044   4.891   5.980
 4038SOL    HW113013   3.089   4.850   5.901
 4038SOL    HW213014   3.111   4.937   6.037
 4039SOL     OW13015   5.928   4.522   1.375
 4039SOL    HW113016   6.006   4.540   1.315
 4039SOL    HW213017   5.959   4.478   1.459
 4040SOL     OW13018   3.466   0.627   5.139
 4040SOL    HW113019   3.472   0.712   5.192
 4040SOL    HW213020   3.519   0.555   5.184
 4041SOL     OW13021   1.343   5.293   1.997
 4041SOL    HW113022   1.435   5.297   2.037
 4041SOL    HW213023   1.339   5.353   1.917
 4042SOL     OW13024   6.836   1.647   3.244
 4042SOL    HW113025   6.882   1.652   3.156
 4042SOL    HW213026   6.897   1.681   3.316
 4043SOL     OW13027   4.560   2.538   6.180
 4043SOL    HW113028   4.583   2.620   6.232
 4043SOL    HW213029   4.461   2.537   6.162
 4044SOL     OW13030   4.609   4.689   3.211
 4044SOL    HW113031   4.584   4.606   3.260
 4044SOL    HW213032   4.708   4.703   3.216
 4045SOL     OW13033   4.431   1.584   5.154
 4045SOL    HW113034   4.465   1.565   5.061
 4045SOL    HW213035   4.411   1.498   5.200
 4046SOL     OW13036   5.175   1.425   4.105
 4046SOL    HW113037   5.232   1.429   4.187
 4046SOL    HW213038   5.133   1.514   4.089
 4047SOL     OW13039   3.566   2.635   6.680
 4047SOL    HW113040   3.623   2.554   6.691
 4047SOL    HW213041   3.610   2.713   6.725
 4048SOL     OW13042   4.978   1.893   3.142
 4048SOL    HW113043   4.951   1.813   3.088
 4048SOL    HW213044   5.074   1.884   3.169
 4049SOL     OW13045   4.245   3.922   0.988
 4049SOL    HW113046   4.198   3.861   1.052
 4049SOL    HW213047   4.180   3.988   0.950
 4050SOL     OW13048   7.003   4.876   2.328
 4050SOL    HW113049   0.040   4.941   2.273
 4050SOL    HW213050   0.008   4.783   2.299
 4051SOL     OW13051   5.235   0.232   5.061
 4051SOL    HW113052   5.310   0.184   5.106
 4051SOL    HW213053   5.262   0.326   5.042
 4052SOL     OW13054   5.078   1.703   4.151
 4052SOL    HW113055   5.121   1.774   4.207
 4052SOL    HW213056   5.079   1.731   4.055
 4053SOL     OW13057   0.845   4.775   3.989
 4053SOL    HW113058   0.890   4.734   3.910
 4053SOL    HW213059   0.760   4.726   4.008
 4054SOL     OW13060   4.535   3.838   1.323
 4054SOL    HW113061   4.457   3.886   1.363
 4054SOL    HW213062   4.610   3.903   1.308
 4055SOL     OW13063   6.955   4.552   0.224
 4055SOL    HW113064   6.998   4.468   0.257
 4055SOL    HW213065   7.007   4.631   0.258
 4056SOL     OW13066   5.202   3.230   6.997
 4056SOL    HW113067   5.196   3.283   0.067
 4056SOL    HW213068   5.283   3.172   7.000
 4057SOL     OW13069   0.028   3.859   6.849
 4057SOL    HW113070   6.982   3.809   6.909
 4057SOL    HW213071   0.096   3.908   6.903
 4058SOL     OW13072   3.352   0.379   4.495
 4058SOL    HW113073   3.424   0.312   4.514
 4058SOL    HW213074   3.301   0.397   4.580
 4059SOL     OW13075   0.685   1.372   3.837
 4059SOL    HW113076   0.589   1.344   3.838
 4059SOL    HW213077   0.738   1.309   3.780
 4060SOL     OW13078   0.231   6.026   4.382
 4060SOL    HW113079   0.322   6.025   4.425
 4060SOL    HW213080   0.170   6.083   4.436
 4061SOL     OW13081   0.666   5.080   1.628
 4061SOL    HW113082   0.652   4.981   1.628
 4061SOL    HW213083   0.592   5.124   1.679
 4062SOL     OW13084   1.896   3.500   0.673
 4062SOL    HW113085   1.844   3.458   0.599
 4062SOL    HW213086   1.874   3.597   0.679
 4063SOL     OW13087   4.004   0.386   1.155
 4063SOL    HW113088   3.945   0.418   1.082
 4063SOL    HW213089   4.013   0.286   1.150
 4064SOL     OW13090   2.053   1.104   5.854
 4064SOL    HW113091   1.975   1.145   5.805
 4064SOL    HW213092   2.044   1.005   5.854
 4065SOL     OW13093   2.371   0.750   1.273
 4065SOL    HW113094   2.388   0.745   1.372
 4065SOL    HW213095   2.371   0.658   1.234
 4066SOL     OW13096   0.525   3.765   3.951
 4066SOL    HW113097   0.600   3.831   3.961
 4066SOL    HW213098   0.546   3.702   3.876
 4067SOL     OW13099   5.976   5.040   0.662
 4067SOL    HW113100   5.970   5.111   0.592
 4067SOL    HW213101   5.968   5.082   0.753
 4068SOL     OW13102   2.439   2.715   5.210
 4068SOL    HW113103   2.431   2.787   5.141
 4068SOL    HW213104   2.496   2.748   5.285
 4069SOL     OW13105   4.669   5.906   6.039
 4069SOL    HW113106   4.756   5.918   6.087
 4069SOL    HW213107   4.687   5.885   5.943
 4070SOL     OW13108   1.441   3.547   4.115
 4070SOL    HW113109   1.447   3.638   4.074
 4070SOL    HW213110   1.501   3.484   4.065
 4071SOL     OW13111   1.626   1.117   4.795
 4071SOL    HW113112   1.700   1.103   4.861
 4071SOL    HW213113   1.651   1.190   4.732
 4072SOL     OW13114   3.052   6.425   2.599
 4072SOL    HW113115   3.100   6.351   2.552
 4072SOL    HW213116   2.957   6.399   2.616
 4073SOL     OW13117   4.222   5.266   6.609
 4073SOL    HW113118   4.298   5.206   6.636
 4073SOL    HW213119   4.197   5.248   6.514
 4074SOL     OW13120   1.804   5.753   2.692
 4074SOL    HW113121   1.708   5.779   2.694
 4074SOL    HW213122   1.841   5.755   2.785
 4075SOL     OW13123   6.440   0.774   0.044
 4075SOL    HW113124   6.451   0.873   0.057
 4075SOL    HW213125   6.526   0.728   0.064
 4076SOL     OW13126   2.296   5.667   3.629
 4076SOL    HW113127   2.207   5.652   3.586
 4076SOL    HW213128   2.337   5.578   3.652
 4077SOL     OW13129   3.105   0.932   1.790
 4077SOL    HW113130   3.048   1.014   1.803
 4077SOL    HW213131   3.199   0.952   1.819
 4078SOL     OW13132   3.764   4.889   2.147
 4078SOL    HW113133   3.684   4.931   2.188
 4078SOL    HW213134   3.737   4.839   2.065
 4079SOL     OW13135   0.022   2.198   3.707
 4079SOL    HW113136   0.027   2.159   3.799
 4079SOL    HW213137   0.039   2.126   3.639
 4080SOL     OW13138   0.008   2.031   5.177
 4080SOL    HW113139   0.028   1.933   5.176
 4080SOL    HW213140   0.049   2.072   5.258
 4081SOL     OW13141   0.929   3.516   3.855
 4081SOL    HW113142   0.916   3.553   3.947
 4081SOL    HW213143   0.942   3.591   3.790
 4082SOL     OW13144   0.385   3.728   0.260
 4082SOL    HW113145   0.448   3.651   0.271
 4082SOL    HW213146   0.385   3.758   0.165
 4083SOL     OW13147   6.437   2.358   5.252
 4083SOL    HW113148   6.412   2.396   5.163
 4083SOL    HW213149   6.466   2.263   5.240
 4084SOL     OW13150   6.577   1.004   4.377
 4084SOL    HW113151   6.588   0.982   4.280
 4084SOL    HW213152   6.608   0.926   4.432
 4085SOL     OW13153   2.499   6.096   0.663
 4085SOL    HW113154   2.553   6.022   0.625
 4085SOL    HW213155   2.452   6.144   0.589
 4086SOL     OW13156   1.181   4.153   1.104
 4086SOL    HW113157   1.219   4.191   1.020
 4086SOL    HW213158   1.234   4.072   1.130
 4087SOL     OW13159   2.278   1.769   2.679
 4087SOL    HW113160   2.323   1.782   2.590
 4087SOL    HW213161   2.342   1.725   2.742
 4088SOL     OW13162   6.616   1.582   0.254
 4088SOL    HW113163   6.519   1.592   0.273
 4088SOL    HW213164   6.645   1.489   0.276
 4089SOL     OW13165   1.320   1.490   5.329
 4089SOL    HW113166   1.332   1.396   5.360
 4089SOL    HW213167   1.347   1.497   5.232
 4090SOL     OW13168   2.701   4.798   6.164
 4090SOL    HW113169   2.667   4.886   6.129
 4090SOL    HW213170   2.749   4.750   6.090
 4091SOL     OW13171   4.129   6.984   0.895
 4091SOL    HW113172   4.193   0.045   0.897
 4091SOL    HW213173   4.077   6.985   0.810
 4092SOL     OW13174   6.910   1.588   4.407
 4092SOL    HW113175   6.858   1.671   4.431
 4092SOL    HW213176   6.999   1.591   4.452
 4093SOL     OW13177   5.632   6.811   4.522
 4093SOL    HW113178   5.577   6.873   4.466
 4093SOL    HW213179   5.728   6.836   4.514
 4094SOL     OW13180   3.044   4.337   5.333
 4094SOL    HW113181   3.003   4.426   5.315
 4094SOL    HW213182   2.983   4.265   5.300
 4095SOL     OW13183   1.752   3.469   5.735
 4095SOL    HW113184   1.766   3.530   5.657
 4095SOL    HW213185   1.824   3.400   5.737
 4096SOL     OW13186   4.368   4.957   2.367
 4096SOL    HW113187   4.359   4.933   2.464
 4096SOL    HW213188   4.286   4.928   2.318
 4097SOL     OW13189   3.274   4.150   3.544
 4097SOL    HW113190   3.260   4.151   3.643
 4097SOL    HW213191   3.361   4.107   3.523
 4098SOL     OW13192   0.703   3.340   2.462
 4098SOL    HW113193   0.716   3.308   2.369
 4098SOL    HW213194   0.612   3.314   2.494
 4099SOL     OW13195   2.472   6.096   1.693
 4099SOL    HW113196   2.405   6.145   1.749
 4099SOL    HW213197   2.476   6.139   1.603
 4100SOL     OW13198   3.572   6.518   3.354
 4100SOL    HW113199   3.518   6.447   3.308
 4100SOL    HW213200   3.659   6.479   3.382
 4101SOL     OW13201   4.727   0.964   6.850
 4101SOL    HW113202   4.668   1.006   6.780
 4101SOL    HW213203   4.772   1.036   6.902
 4102SOL     OW13204   5.664   1.249   0.260
 4102SOL    HW113205   5.668   1.185   0.337
 4102SOL    HW213206   5.725   1.218   0.187
 4103SOL     OW13207   0.173   0.253   2.468
 4103SOL    HW113208   0.085   0.297   2.486
 4103SOL    HW213209   0.166   0.155   2.488
 4104SOL     OW13210   1.921   4.959   2.588
 4104SOL    HW113211   1.862   4.892   2.634
 4104SOL    HW213212   1.974   4.913   2.517
 4105SOL     OW13213   5.631   5.061   0.506
 4105SOL    HW113214   5.564   4.995   0.473
 4105SOL    HW213215   5.687   5.094   0.430
 4106SOL     OW13216   0.147   3.653   4.901
 4106SOL    HW113217   0.225   3.614   4.949
 4106SOL    HW213218   0.064   3.642   4.957
 4107SOL     OW13219   6.460   0.269   0.721
 4107SOL    HW113220   6.438   0.179   0.761
 4107SOL    HW213221   6.482   0.333   0.795
 4108SOL     OW13222   6.728   2.810   5.286
 4108SOL    HW113223   6.719   2.778   5.192
 4108SOL    HW213224   6.652   2.776   5.341
 4109SOL     OW13225   2.992   6.385   3.720
 4109SOL    HW113226   2.897   6.357   3.737
 4109SOL    HW213227   3.005   6.479   3.751
 4110SOL     OW13228   4.290   3.431   5.610
 4110SOL    HW113229   4.351   3.458   5.685
 4110SOL    HW213230   4.196   3.427   5.644
 4111SOL     OW13231   4.096   3.606   6.325
 4111SOL    HW113232   4.181   3.567   6.288
 4111SOL    HW213233   4.059   3.672   6.260
 4112SOL     OW13234   3.996   0.675   4.679
 4112SOL    HW113235   4.091   0.645   4.667
 4112SOL    HW213236   3.976   0.683   4.776
 4113SOL     OW13237   3.969   5.419   4.926
 4113SOL    HW113238   3.886   5.475   4.927
 4113SOL    HW213239   3.952   5.335   4.875
 4114SOL     OW13240   3.615   2.128   2.528
 4114SOL    HW113241   3.566   2.144   2.442
 4114SOL    HW213242   3.616   2.030   2.548
 4115SOL     OW13243   5.575   5.116   2.517
 4115SOL    HW113244   5.555   5.026   2.555
 4115SOL    HW213245   5.515   5.134   2.439
 4116SOL     OW13246   3.360   1.091   2.569
 4116SOL    HW113247   3.433   1.084   2.636
 4116SOL    HW213248   3.292   1.158   2.600
 4117SOL     OW13249   0.548   5.638   2.105
 4117SOL    HW113250   0.577   5.554   2.060
 4117SOL    HW213251   0.578   5.717   2.052
 4118SOL     OW13252   2.745   6.904   0.541
 4118SOL    HW113253   2.689   6.911   0.624
 4118SOL    HW213254   2.790   6.815   0.538
 4119SOL     OW13255   4.579   0.903   3.313
 4119SOL    HW113256   4.611   0.943   3.227
 4119SOL    HW213257   4.647   0.838   3.348
 4120SOL     OW13258   4.307   0.897   2.273
 4120SOL    HW113259   4.269   0.830   2.209
 4120SOL    HW213260   4.405   0.908   2.256
 4121SOL     OW13261   6.951   2.525   5.004
 4121SOL    HW113262   7.011   2.506   5.082
 4121SOL    HW213263   6.948   2.623   4.987
 4122SOL     OW13264   1.808   5.646   6.756
 4122SOL    HW113265   1.710   5.662   6.748
 4122SOL    HW213266   1.838   5.587   6.680
 4123SOL     OW13267   4.586   4.340   6.177
 4123SOL    HW113268   4.665   4.401   6.184
 4123SOL    HW213269   4.540   4.356   6.089
 4124SOL     OW13270   4.438   6.360   3.462
 4124SOL    HW113271   4.374   6.409   3.402
 4124SOL    HW213272   4.430   6.396   3.555
 4125SOL     OW13273   5.425   1.059   0.863
 4125SOL    HW113274   5.415   0.959   0.859
 4125SOL    HW213275   5.452   1.093   0.773
 4126SOL     OW13276   2.193   5.004   4.370
 4126SOL    HW113277   2.168   4.950   4.289
 4126SOL    HW213278   2.130   5.081   4.380
 4127SOL     OW13279   6.099   3.923   5.028
 4127SOL    HW113280   6.137   4.014   5.045
 4127SOL    HW213281   6.147   3.855   5.085
 4128SOL     OW13282   0.659   2.284   2.206
 4128SOL    HW113283   0.747   2.330   2.194
 4128SOL    HW213284   0.668   2.211   2.273
 4129SOL     OW13285   5.742   2.210   6.462
 4129SOL    HW113286   5.718   2.115   6.482
 4129SOL    HW213287   5.813   2.212   6.392
 4130SOL     OW13288   6.463   3.058   1.236
 4130SOL    HW113289   6.496   3.132   1.294
 4130SOL    HW213290   6.503   2.971   1.265
 4131SOL     OW13291   0.088   3.825   3.412
 4131SOL    HW113292   0.186   3.802   3.412
 4131SOL    HW213293   0.047   3.795   3.498
 4132SOL     OW13294   4.947   2.167   4.823
 4132SOL    HW113295   4.958   2.264   4.846
 4132SOL    HW213296   5.003   2.112   4.885
 4133SOL     OW13297   2.719   2.277   1.225
 4133SOL    HW113298   2.793   2.212   1.240
 4133SOL    HW213299   2.718   2.305   1.129
 4134SOL     OW13300   1.809   1.663   0.328
 4134SOL    HW113301   1.850   1.686   0.416
 4134SOL    HW213302   1.822   1.739   0.265
 4135SOL     OW13303   1.626   0.569   0.899
 4135SOL    HW113304   1.616   0.632   0.822
 4135SOL    HW213305   1.722   0.545   0.910
 4136SOL     OW13306   0.841   1.783   3.402
 4136SOL    HW113307   0.756   1.740   3.431
 4136SOL    HW213308   0.859   1.864   3.459
 4137SOL     OW13309   4.024   3.798   5.534
 4137SOL    HW113310   4.044   3.714   5.584
 4137SOL    HW213311   4.068   3.796   5.444
 4138SOL     OW13312   4.301   5.461   2.659
 4138SOL    HW113313   4.231   5.521   2.699
 4138SOL    HW213314   4.258   5.376   2.630
 4139SOL     OW13315   2.562   0.825   0.376
 4139SOL    HW113316   2.502   0.861   0.304
 4139SOL    HW213317   2.605   0.741   0.343
 4140SOL     OW13318   4.185   1.988   5.115
 4140SOL    HW113319   4.255   2.027   5.056
 4140SOL    HW213320   4.221   1.906   5.160
 4141SOL     OW13321   5.263   5.105   0.475
 4141SOL    HW113322   5.228   5.049   0.550
 4141SOL    HW213323   5.315   5.181   0.512
 4142SOL     OW13324   6.934   2.373   1.319
 4142SOL    HW113325   7.013   2.356   1.259
 4142SOL    HW213326   6.892   2.460   1.294
 4143SOL     OW13327   0.618   2.713   1.663
 4143SOL    HW113328   0.584   2.740   1.753
 4143SOL    HW213329   0.715   2.737   1.655
 4144SOL     OW13330   4.742   0.409   2.082
 4144SOL    HW113331   4.744   0.350   2.001
 4144SOL    HW213332   4.660   0.465   2.081
 4145SOL     OW13333   3.221   0.078   2.920
 4145SOL    HW113334   3.246   0.095   2.825
 4145SOL    HW213335   3.250   0.155   2.977
 4146SOL     OW13336   4.557   5.625   0.540
 4146SOL    HW113337   4.518   5.539   0.508
 4146SOL    HW213338   4.505   5.701   0.503
 4147SOL     OW13339   2.909   2.390   5.940
 4147SOL    HW113340   2.961   2.469   5.972
 4147SOL    HW213341   2.828   2.420   5.891
 4148SOL     OW13342   6.309   0.163   3.081
 4148SOL    HW113343   6.223   0.113   3.069
 4148SOL    HW213344   6.363   0.118   3.152
 4149SOL     OW13345   5.234   4.296   1.584
 4149SOL    HW113346   5.246   4.393   1.566
 4149SOL    HW213347   5.154   4.281   1.642
 4150SOL     OW13348   4.906   0.428   5.676
 4150SOL    HW113349   4.896   0.351   5.739
 4150SOL    HW213350   4.815   0.466   5.657
 4151SOL     OW13351   0.473   5.596   0.343
 4151SOL    HW113352   0.385   5.567   0.380
 4151SOL    HW213353   0.514   5.521   0.291
 4152SOL     OW13354   3.656   4.257   1.308
 4152SOL    HW113355   3.650   4.187   1.379
 4152SOL    HW213356   3.597   4.334   1.333
 4153SOL     OW13357   5.804   5.525   6.078
 4153SOL    HW113358   5.904   5.521   6.073
 4153SOL    HW213359   5.765   5.498   5.990
 4154SOL     OW13360   4.390   2.401   5.857
 4154SOL    HW113361   4.490   2.408   5.850
 4154SOL    HW213362   4.349   2.408   5.766
 4155SOL     OW13363   1.497   3.117   0.876
 4155SOL    HW113364   1.534   3.151   0.790
 4155SOL    HW213365   1.548   3.157   0.952
 4156SOL     OW13366   5.999   7.004   5.267
 4156SOL    HW113367   5.961   6.934   5.206
 4156SOL    HW213368   6.083   0.025   5.226
 4157SOL     OW13369   3.054   0.866   4.110
 4157SOL    HW113370   3.041   0.900   4.017
 4157SOL    HW213371   3.144   0.893   4.144
 4158SOL     OW13372   0.851   0.372   3.792
 4158SOL    HW113373   0.773   0.400   3.735
 4158SOL    HW213374   0.828   0.387   3.888
 4159SOL     OW13375   0.608   3.406   5.122
 4159SOL    HW113376   0.627   3.419   5.219
 4159SOL    HW213377   0.675   3.458   5.068
 4160SOL     OW13378   1.126   0.716   0.752
 4160SOL    HW113379   1.068   0.636   0.737
 4160SOL    HW213380   1.180   0.735   0.670
 4161SOL     OW13381   6.447   1.892   0.368
 4161SOL    HW113382   6.410   1.949   0.442
 4161SOL    HW213383   6.469   1.950   0.290
 4162SOL     OW13384   0.384   6.484   4.879
 4162SOL    HW113385   0.332   6.402   4.907
 4162SOL    HW213386   0.402   6.480   4.781
 4163SOL     OW13387   6.407   0.888   5.283
 4163SOL    HW113388   6.484   0.913   5.342
 4163SOL    HW213389   6.437   0.885   5.188
 4164SOL     OW13390   2.432   6.801   6.230
 4164SOL    HW113391   2.443   6.886   6.281
 4164SOL    HW213392   2.458   6.816   6.135
 4165SOL     OW13393   2.650   6.066   2.629
 4165SOL    HW113394   2.572   6.004   2.634
 4165SOL    HW213395   2.727   6.019   2.585
 4166SOL     OW13396   5.943   2.480   1.325
 4166SOL    HW113397   5.891   2.399   1.354
 4166SOL    HW213398   5.946   2.546   1.400
 4167SOL     OW13399   1.874   2.941   1.003
 4167SOL    HW113400   1.886   2.880   1.081
 4167SOL    HW213401   1.884   3.036   1.032
 4168SOL     OW13402   1.364   4.550   0.966
 4168SOL    HW113403   1.463   4.554   0.985
 4168SOL    HW213404   1.316   4.613   1.027
 4169SOL     OW13405   6.231   3.576   4.662
 4169SOL    HW113406   6.294   3.653   4.652
 4169SOL    HW213407   6.140   3.602   4.630
 4170SOL     OW13408   3.933   1.893   5.065
 4170SOL    HW113409   3.857   1.931   5.117
 4170SOL    HW213410   4.019   1.930   5.101
 4171SOL     OW13411   5.527   3.443   1.368
 4171SOL    HW113412   5.440   3.486   1.342
 4171SOL    HW213413   5.527   3.427   1.467
 4172SOL     OW13414   2.350   1.164   0.261
 4172SOL    HW113415   2.416   1.207   0.322
 4172SOL    HW213416   2.334   1.223   0.182
 4173SOL     OW13417   5.110   3.392   6.159
 4173SOL    HW113418   5.134   3.352   6.071
 4173SOL    HW213419   5.186   3.381   6.223
 4174SOL     OW13420   5.350   1.028   4.334
 4174SOL    HW113421   5.413   1.076   4.273
 4174SOL    HW213422   5.400   0.969   4.396
 4175SOL     OW13423   2.936   1.862   3.296
 4175SOL    HW113424   3.017   1.904   3.256
 4175SOL    HW213425   2.909   1.913   3.378
 4176SOL     OW13426   6.045   5.226   2.743
 4176SOL    HW113427   6.013   5.230   2.837
 4176SOL    HW213428   6.063   5.131   2.717
 4177SOL     OW13429   6.317   4.866   3.140
 4177SOL    HW113430   6.287   4.953   3.103
 4177SOL    HW213431   6.394   4.880   3.202
 4178SOL     OW13432   3.991   3.278   5.685
 4178SOL    HW113433   4.004   3.190   5.639
 4178SOL    HW213434   4.031   3.273   5.776
 4179SOL     OW13435   6.506   2.772   6.883
 4179SOL    HW113436   6.556   2.846   6.840
 4179SOL    HW213437   6.417   2.761   6.839
 4180SOL     OW13438   4.514   3.786   1.705
 4180SOL    HW113439   4.559   3.876   1.707
 4180SOL    HW213440   4.421   3.797   1.671
 4181SOL     OW13441   6.590   0.844   0.389
 4181SOL    HW113442   6.570   0.826   0.485
 4181SOL    HW213443   6.555   0.769   0.333
 4182SOL     OW13444   5.417   0.868   3.973
 4182SOL    HW113445   5.368   0.931   3.913
 4182SOL    HW213446   5.507   0.905   3.995
 4183SOL     OW13447   2.047   1.473   1.527
 4183SOL    HW113448   2.045   1.417   1.444
 4183SOL    HW213449   2.139   1.510   1.541
 4184SOL     OW13450   4.392   5.115   6.945
 4184SOL    HW113451   4.360   5.197   6.898
 4184SOL    HW213452   4.477   5.084   6.903
 4185SOL     OW13453   6.979   6.796   4.241
 4185SOL    HW113454   6.886   6.786   4.207
 4185SOL    HW213455   0.022   6.832   4.168
 4186SOL     OW13456   3.807   4.239   1.746
 4186SOL    HW113457   3.727   4.292   1.717
 4186SOL    HW213458   3.777   4.154   1.789
 4187SOL     OW13459   4.035   5.060   6.455
 4187SOL    HW113460   4.123   5.048   6.408
 4187SOL    HW213461   3.984   5.135   6.413
 4188SOL     OW13462   5.093   6.189   4.364
 4188SOL    HW113463   5.104   6.189   4.265
 4188SOL    HW213464   5.037   6.267   4.391
 4189SOL     OW13465   1.710   3.474   3.493
 4189SOL    HW113466   1.761   3.437   3.415
 4189SOL    HW213467   1.694   3.571   3.480
 4190SOL     OW13468   2.560   6.858   1.274
 4190SOL    HW113469   2.637   6.799   1.299
 4190SOL    HW213470   2.568   6.884   1.178
 4191SOL     OW13471   0.684   2.327   2.536
 4191SOL    HW113472   0.725   2.403   2.486
 4191SOL    HW213473   0.590   2.350   2.562
 4192SOL     OW13474   5.890   0.746   3.139
 4192SOL    HW113475   5.836   0.829   3.154
 4192SOL    HW213476   5.986   0.764   3.162
 4193SOL     OW13477   2.063   6.663   2.466
 4193SOL    HW113478   2.073   6.709   2.378
 4193SOL    HW213479   2.012   6.578   2.454
 4194SOL     OW13480   5.935   1.031   3.673
 4194SOL    HW113481   5.902   1.079   3.592
 4194SOL    HW213482   6.012   0.973   3.649
 4195SOL     OW13483   5.327   1.220   2.962
 4195SOL    HW113484   5.353   1.315   2.946
 4195SOL    HW213485   5.231   1.215   2.990
 4196SOL     OW13486   4.469   2.389   3.612
 4196SOL    HW113487   4.503   2.457   3.677
 4196SOL    HW213488   4.424   2.315   3.663
 4197SOL     OW13489   5.042   4.182   4.929
 4197SOL    HW113490   4.983   4.123   4.984
 4197SOL    HW213491   5.065   4.135   4.844
 4198SOL     OW13492   6.218   3.826   6.125
 4198SOL    HW113493   6.265   3.742   6.152
 4198SOL    HW213494   6.181   3.816   6.033
 4199SOL     OW13495   2.969   3.900   5.520
 4199SOL    HW113496   3.057   3.898   5.473
 4199SOL    HW213497   2.954   3.814   5.568
 4200SOL     OW13498   2.599   0.294   6.291
 4200SOL    HW113499   2.645   0.336   6.213
 4200SOL    HW213500   2.500   0.311   6.285
 4201SOL     OW13501   6.023   6.762   4.573
 4201SOL    HW113502   6.044   6.826   4.647
 4201SOL    HW213503   5.991   6.812   4.493
 4202SOL     OW13504   5.212   3.436   5.317
 4202SOL    HW113505   5.124   3.455   5.274
 4202SOL    HW213506   5.280   3.420   5.246
 4203SOL     OW13507   4.597   5.258   4.126
 4203SOL    HW113508   4.609   5.312   4.209
 4203SOL    HW213509   4.687   5.241   4.084
 4204SOL     OW13510   1.770   4.118   0.767
 4204SOL    HW113511   1.797   4.148   0.859
 4204SOL    HW213512   1.708   4.186   0.727
 4205SOL     OW13513   2.697   6.173   3.225
 4205SOL    HW113514   2.684   6.262   3.180
 4205SOL    HW213515   2.790   6.141   3.208
 4206SOL     OW13516   5.182   6.199   4.107
 4206SOL    HW113517   5.208   6.110   4.071
 4206SOL    HW213518   5.104   6.235   4.056
 4207SOL     OW13519   0.598   0.639   6.889
 4207SOL    HW113520   0.631   0.650   6.983
 4207SOL    HW213521   0.673   0.656   6.826
 4208SOL     OW13522   1.142   2.597   0.794
 4208SOL    HW113523   1.055   2.579   0.749
 4208SOL    HW213524   1.194   2.512   0.801
 4209SOL     OW13525   3.285   0.885   4.942
 4209SOL    HW113526   3.285   0.893   5.042
 4209SOL    HW213527   3.359   0.940   4.903
 4210SOL     OW13528   4.179   2.450   0.415
 4210SOL    HW113529   4.253   2.514   0.437
 4210SOL    HW213530   4.105   2.461   0.481
 4211SOL     OW13531   5.412   3.593   4.511
 4211SOL    HW113532   5.372   3.502   4.510
 4211SOL    HW213533   5.380   3.643   4.591
 4212SOL     OW13534   6.505   6.474   2.370
 4212SOL    HW113535   6.470   6.468   2.277
 4212SOL    HW213536   6.590   6.422   2.378
 4213SOL     OW13537   0.735   0.031   1.075
 4213SOL    HW113538   0.739   0.102   1.004
 4213SOL    HW213539   0.682   6.969   1.040
 4214SOL     OW13540   3.137   5.524   4.947
 4214SOL    HW113541   3.200   5.506   5.023
 4214SOL    HW213542   3.144   5.451   4.879
 4215SOL     OW13543   0.887   5.950   5.656
 4215SOL    HW113544   0.946   5.871   5.640
 4215SOL    HW213545   0.904   5.987   5.748
 4216SOL     OW13546   2.756   3.153   5.299
 4216SOL    HW113547   2.660   3.138   5.272
 4216SOL    HW213548   2.811   3.165   5.216
 4217SOL     OW13549   6.886   0.767   3.776
 4217SOL    HW113550   6.827   0.727   3.705
 4217SOL    HW213551   6.981   0.764   3.746
 4218SOL     OW13552   3.451   6.402   2.444
 4218SOL    HW113553   3.525   6.382   2.381
 4218SOL    HW213554   3.469   6.356   2.532
 4219SOL     OW13555   5.373   0.077   3.072
 4219SOL    HW113556   5.394   0.021   3.152
 4219SOL    HW213557   5.347   0.017   2.996
 4220SOL     OW13558   0.472   4.085   3.480
 4220SOL    HW113559   0.418   4.116   3.402
 4220SOL    HW213560   0.433   3.999   3.515
 4221SOL     OW13561   5.621   6.278   5.787
 4221SOL    HW113562   5.587   6.357   5.837
 4221SOL    HW213563   5.578   6.195   5.822
 4222SOL     OW13564   3.050   3.061   0.253
 4222SOL    HW113565   2.964   3.084   0.300
 4222SOL    HW213566   3.044   3.087   0.157
 4223SOL     OW13567   2.916   3.833   2.705
 4223SOL    HW113568   2.904   3.931   2.724
 4223SOL    HW213569   2.975   3.823   2.625
 4224SOL     OW13570   4.110   1.984   5.905
 4224SOL    HW113571   4.014   1.996   5.929
 4224SOL    HW213572   4.117   1.951   5.811
 4225SOL     OW13573   4.952   0.600   4.430
 4225SOL    HW113574   4.902   0.637   4.352
 4225SOL    HW213575   5.046   0.579   4.403
 4226SOL     OW13576   1.661   1.524   3.057
 4226SOL    HW113577   1.565   1.501   3.045
 4226SOL    HW213578   1.717   1.441   3.052
 4227SOL     OW13579   5.107   4.006   6.506
 4227SOL    HW113580   5.171   4.083   6.498
 4227SOL    HW213581   5.153   3.929   6.551
 4228SOL     OW13582   5.215   5.161   3.297
 4228SOL    HW113583   5.175   5.101   3.366
 4228SOL    HW213584   5.309   5.131   3.279
 4229SOL     OW13585   4.470   4.880   5.342
 4229SOL    HW113586   4.462   4.849   5.436
 4229SOL    HW213587   4.404   4.954   5.325
 4230SOL     OW13588   3.322   0.888   5.524
 4230SOL    HW113589   3.382   0.904   5.603
 4230SOL    HW213590   3.304   0.790   5.515
 4231SOL     OW13591   3.791   6.665   6.333
 4231SOL    HW113592   3.847   6.611   6.395
 4231SOL    HW213593   3.845   6.739   6.295
 4232SOL     OW13594   2.439   3.994   1.373
 4232SOL    HW113595   2.440   3.991   1.273
 4232SOL    HW213596   2.501   4.066   1.405
 4233SOL     OW13597   5.422   6.392   1.002
 4233SOL    HW113598   5.369   6.324   1.051
 4233SOL    HW213599   5.437   6.361   0.908
 4234SOL     OW13600   3.849   4.004   5.288
 4234SOL    HW113601   3.781   4.061   5.334
 4234SOL    HW213602   3.806   3.918   5.260
 4235SOL     OW13603   0.342   4.131   5.000
 4235SOL    HW113604   0.350   4.054   4.936
 4235SOL    HW213605   0.346   4.217   4.948
 4236SOL     OW13606   0.762   3.799   4.992
 4236SOL    HW113607   0.809   3.753   4.916
 4236SOL    HW213608   0.795   3.761   5.078
 4237SOL     OW13609   6.150   4.099   5.523
 4237SOL    HW113610   6.094   4.180   5.539
 4237SOL    HW213611   6.118   4.052   5.441
 4238SOL     OW13612   4.789   4.679   4.536
 4238SOL    HW113613   4.888   4.673   4.518
 4238SOL    HW213614   4.771   4.652   4.631
 4239SOL     OW13615   4.992   5.620   5.583
 4239SOL    HW113616   4.956   5.553   5.647
 4239SOL    HW213617   5.085   5.645   5.609
 4240SOL     OW13618   2.552   5.119   6.698
 4240SOL    HW113619   2.613   5.041   6.712
 4240SOL    HW213620   2.504   5.109   6.610
 4241SOL     OW13621   4.557   2.272   0.859
 4241SOL    HW113622   4.558   2.263   0.959
 4241SOL    HW213623   4.578   2.184   0.817
 4242SOL     OW13624   1.755   0.503   1.919
 4242SOL    HW113625   1.808   0.510   2.003
 4242SOL    HW213626   1.688   0.578   1.916
 4243SOL     OW13627   1.252   2.861   2.967
 4243SOL    HW113628   1.237   2.960   2.975
 4243SOL    HW213629   1.280   2.839   2.874
 4244SOL     OW13630   3.147   0.469   0.779
 4244SOL    HW113631   3.245   0.481   0.796
 4244SOL    HW213632   3.116   0.535   0.710
 4245SOL     OW13633   6.564   1.794   0.994
 4245SOL    HW113634   6.553   1.749   0.905
 4245SOL    HW213635   6.533   1.733   1.066
 4246SOL     OW13636   4.882   2.612   3.777
 4246SOL    HW113637   4.899   2.563   3.692
 4246SOL    HW213638   4.918   2.559   3.854
 4247SOL     OW13639   2.169   5.162   6.833
 4247SOL    HW113640   2.189   5.260   6.834
 4247SOL    HW213641   2.132   5.134   6.921
 4248SOL     OW13642   1.983   1.012   3.366
 4248SOL    HW113643   1.943   1.054   3.285
 4248SOL    HW213644   2.046   1.076   3.409
 4249SOL     OW13645   5.598   0.403   5.859
 4249SOL    HW113646   5.539   0.393   5.779
 4249SOL    HW213647   5.627   0.499   5.867
 4250SOL     OW13648   0.421   5.563   4.934
 4250SOL    HW113649   0.328   5.600   4.940
 4250SOL    HW213650   0.487   5.637   4.947
 4251SOL     OW13651   4.440   1.891   5.451
 4251SOL    HW113652   4.481   1.976   5.417
 4251SOL    HW213653   4.501   1.849   5.518
 4252SOL     OW13654   6.980   6.981   6.650
 4252SOL    HW113655   7.012   0.037   6.712
 4252SOL    HW213656   6.935   0.008   6.571
 4253SOL     OW13657   4.308   6.384   2.951
 4253SOL    HW113658   4.254   6.426   2.879
 4253SOL    HW213659   4.362   6.309   2.912
 4254SOL     OW13660   1.580   2.276   6.059
 4254SOL    HW113661   1.678   2.283   6.078
 4254SOL    HW213662   1.561   2.314   5.968
 4255SOL     OW13663   0.802   2.941   3.139
 4255SOL    HW113664   0.850   3.016   3.185
 4255SOL    HW213665   0.868   2.877   3.102
 4256SOL     OW13666   5.922   6.043   0.805
 4256SOL    HW113667   5.856   6.109   0.768
 4256SOL    HW213668   5.881   5.994   0.882
 4257SOL     OW13669   6.598   1.042   3.092
 4257SOL    HW113670   6.677   1.100   3.071
 4257SOL    HW213671   6.568   1.059   3.186
 4258SOL     OW13672   3.237   5.925   1.018
 4258SOL    HW113673   3.270   5.963   0.931
 4258SOL    HW213674   3.235   5.998   1.087
 4259SOL     OW13675   0.734   6.886   0.398
 4259SOL    HW113676   0.832   6.892   0.381
 4259SOL    HW213677   0.689   6.970   0.365
 4260SOL     OW13678   6.065   0.241   4.932
 4260SOL    HW113679   5.969   0.268   4.927
 4260SOL    HW213680   6.118   0.294   4.866
 4261SOL     OW13681   2.615   6.238   3.503
 4261SOL    HW113682   2.520   6.206   3.497
 4261SOL    HW213683   2.669   6.193   3.432
 4262SOL     OW13684   2.072   4.997   5.127
 4262SOL    HW113685   2.113   4.906   5.137
 4262SOL    HW213686   2.109   5.042   5.046
 4263SOL     OW13687   2.833   1.508   2.861
 4263SOL    HW113688   2.776   1.429   2.838
 4263SOL    HW213689   2.832   1.521   2.960
 4264SOL     OW13690   4.752   1.911   6.607
 4264SOL    HW113691   4.727   1.850   6.531
 4264SOL    HW213692   4.844   1.889   6.638
 4265SOL     OW13693   3.096   6.103   6.671
 4265SOL    HW113694   3.059   6.189   6.637
 4265SOL    HW213695   3.188   6.118   6.707
 4266SOL     OW13696   0.868   5.188   1.776
 4266SOL    HW113697   0.958   5.175   1.734
 4266SOL    HW213698   0.796   5.161   1.711
 4267SOL     OW13699   1.140   3.741   4.086
 4267SOL    HW113700   1.233   3.721   4.057
 4267SOL    HW213701   1.133   3.735   4.186
 4268SOL     OW13702   1.319   4.297   6.022
 4268SOL    HW113703   1.337   4.311   5.924
 4268SOL    HW213704   1.300   4.200   6.038
 4269SOL     OW13705   2.820   1.231   3.842
 4269SOL    HW113706   2.760   1.311   3.847
 4269SOL    HW213707   2.854   1.221   3.749
 4270SOL     OW13708   4.441   4.108   0.947
 4270SOL    HW113709   4.533   4.110   0.986
 4270SOL    HW213710   4.398   4.020   0.967
 4271SOL     OW13711   6.659   0.839   1.254
 4271SOL    HW113712   6.563   0.846   1.280
 4271SOL    HW213713   6.666   0.789   1.168
 4272SOL     OW13714   7.010   1.679   5.474
 4272SOL    HW113715   0.085   1.661   5.434
 4272SOL    HW213716   6.950   1.602   5.456
 4273SOL     OW13717   3.343   6.111   3.938
 4273SOL    HW113718   3.282   6.116   3.859
 4273SOL    HW213719   3.290   6.089   4.020
 4274SOL     OW13720   0.516   1.055   1.436
 4274SOL    HW113721   0.501   1.120   1.510
 4274SOL    HW213722   0.594   1.084   1.381
 4275SOL     OW13723   6.769   2.254   3.617
 4275SOL    HW113724   6.839   2.216   3.678
 4275SOL    HW213725   6.813   2.293   3.536
 4276SOL     OW13726   1.515   6.589   2.741
 4276SOL    HW113727   1.614   6.592   2.754
 4276SOL    HW213728   1.471   6.651   2.806
 4277SOL     OW13729   6.448   5.440   3.391
 4277SOL    HW113730   6.420   5.530   3.357
 4277SOL    HW213731   6.375   5.402   3.447
 4278SOL     OW13732   6.880   6.728   1.358
 4278SOL    HW113733   6.929   6.650   1.397
 4278SOL    HW213734   6.791   6.738   1.402
 4279SOL     OW13735   0.940   2.442   3.157
 4279SOL    HW113736   0.925   2.360   3.212
 4279SOL    HW213737   0.992   2.509   3.210
 4280SOL     OW13738   2.046   6.753   6.394
 4280SOL    HW113739   1.997   6.799   6.320
 4280SOL    HW213740   2.073   6.819   6.463
 4281SOL     OW13741   6.326   5.817   2.890
 4281SOL    HW113742   6.419   5.849   2.869
 4281SOL    HW213743   6.291   5.865   2.970
 4282SOL     OW13744   5.570   5.229   1.674
 4282SOL    HW113745   5.494   5.172   1.704
 4282SOL    HW213746   5.616   5.267   1.754
 4283SOL     OW13747   6.270   1.488   4.559
 4283SOL    HW113748   6.218   1.567   4.525
 4283SOL    HW213749   6.305   1.435   4.481
 4284SOL     OW13750   4.557   6.055   6.575
 4284SOL    HW113751   4.482   6.085   6.516
 4284SOL    HW213752   4.644   6.078   6.533
 4285SOL     OW13753   3.026   1.094   6.495
 4285SOL    HW113754   2.987   1.184   6.473
 4285SOL    HW213755   3.125   1.103   6.508
 4286SOL     OW13756   4.982   6.466   0.200
 4286SOL    HW113757   4.905   6.511   0.157
 4286SOL    HW213758   5.034   6.532   0.255
 4287SOL     OW13759   3.334   1.001   1.443
 4287SOL    HW113760   3.248   0.965   1.479
 4287SOL    HW213761   3.315   1.073   1.377
 4288SOL     OW13762   6.898   5.624   2.158
 4288SOL    HW113763   6.900   5.588   2.064
 4288SOL    HW213764   6.825   5.692   2.166
 4289SOL     OW13765   0.400   4.494   5.353
 4289SOL    HW113766   0.492   4.476   5.319
 4289SOL    HW213767   0.351   4.552   5.288
 4290SOL     OW13768   6.685   1.668   3.563
 4290SOL    HW113769   6.768   1.680   3.618
 4290SOL    HW213770   6.693   1.721   3.478
 4291SOL     OW13771   4.149   4.991   6.750
 4291SOL    HW113772   4.130   5.086   6.724
 4291SOL    HW213773   4.196   4.989   6.839
 4292SOL     OW13774   6.420   0.739   1.849
 4292SOL    HW113775   6.408   0.672   1.922
 4292SOL    HW213776   6.367   0.711   1.769
 4293SOL     OW13777   3.802   2.903   6.603
 4293SOL    HW113778   3.857   2.833   6.649
 4293SOL    HW213779   3.763   2.965   6.672
 4294SOL     OW13780   2.966   1.852   6.719
 4294SOL    HW113781   2.906   1.924   6.753
 4294SOL    HW213782   2.952   1.840   6.620
 4295SOL     OW13783   4.437   6.162   2.820
 4295SOL    HW113784   4.452   6.072   2.860
 4295SOL    HW213785   4.405   6.152   2.726
 4296SOL     OW13786   2.334   5.380   2.380
 4296SOL    HW113787   2.380   5.352   2.465
 4296SOL    HW213788   2.370   5.468   2.350
 4297SOL     OW13789   4.460   5.466   0.294
 4297SOL    HW113790   4.534   5.494   0.233
 4297SOL    HW213791   4.429   5.375   0.269
 4298SOL     OW13792   1.622   7.012   0.304
 4298SOL    HW113793   1.677   0.009   0.387
 4298SOL    HW213794   1.533   0.039   0.317
 4299SOL     OW13795   0.611   2.897   6.098
 4299SOL    HW113796   0.595   2.983   6.146
 4299SOL    HW213797   0.537   2.833   6.118
 4300SOL     OW13798   3.152   0.431   2.136
 4300SOL    HW113799   3.143   0.529   2.150
 4300SOL    HW213800   3.117   0.382   2.216
 4301SOL     OW13801   1.797   6.290   5.215
 4301SOL    HW113802   1.767   6.249   5.130
 4301SOL    HW213803   1.843   6.377   5.196
 4302SOL     OW13804   3.406   5.270   6.769
 4302SOL    HW113805   3.475   5.281   6.840
 4302SOL    HW213806   3.381   5.360   6.733
 4303SOL     OW13807   4.532   5.313   3.671
 4303SOL    HW113808   4.463   5.241   3.668
 4303SOL    HW213809   4.533   5.355   3.762
 4304SOL     OW13810   3.001   3.991   1.828
 4304SOL    HW113811   3.028   4.077   1.785
 4304SOL    HW213812   2.907   3.970   1.802
 4305SOL     OW13813   0.745   6.299   5.636
 4305SOL    HW113814   0.792   6.377   5.593
 4305SOL    HW213815   0.663   6.277   5.583
 4306SOL     OW13816   5.707   3.074   5.288
 4306SOL    HW113817   5.609   3.082   5.308
 4306SOL    HW213818   5.759   3.109   5.366
 4307SOL     OW13819   6.867   1.511   5.307
 4307SOL    HW113820   6.888   1.485   5.213
 4307SOL    HW213821   6.847   1.429   5.360
 4308SOL     OW13822   4.031   5.778   6.232
 4308SOL    HW113823   4.104   5.751   6.169
 4308SOL    HW213824   4.030   5.715   6.310
 4309SOL     OW13825   2.566   1.769   0.811
 4309SOL    HW113826   2.587   1.748   0.716
 4309SOL    HW213827   2.629   1.720   0.871
 4310SOL     OW13828   6.101   2.110   3.578
 4310SOL    HW113829   6.060   2.146   3.661
 4310SOL    HW213830   6.032   2.109   3.505
 4311SOL     OW13831   0.431   6.725   1.190
 4311SOL    HW113832   0.489   6.690   1.117
 4311SOL    HW213833   0.364   6.788   1.151
 4312SOL     OW13834   0.227   3.732   2.360
 4312SOL    HW113835   0.190   3.652   2.407
 4312SOL    HW213836   0.151   3.788   2.325
 4313SOL     OW13837   0.853   3.356   0.451
 4313SOL    HW113838   0.888   3.394   0.365
 4313SOL    HW213839   0.859   3.256   0.448
 4314SOL     OW13840   1.682   1.565   5.525
 4314SOL    HW113841   1.655   1.551   5.430
 4314SOL    HW213842   1.707   1.661   5.539
 4315SOL     OW13843   2.712   2.148   5.408
 4315SOL    HW113844   2.761   2.121   5.490
 4315SOL    HW213845   2.777   2.183   5.340
 4316SOL     OW13846   4.636   5.365   2.033
 4316SOL    HW113847   4.699   5.384   1.958
 4316SOL    HW213848   4.602   5.271   2.025
 4317SOL     OW13849   4.919   0.633   4.724
 4317SOL    HW113850   4.960   0.624   4.634
 4317SOL    HW213851   4.969   0.701   4.777
 4318SOL     OW13852   1.876   5.853   3.616
 4318SOL    HW113853   1.817   5.778   3.645
 4318SOL    HW213854   1.821   5.925   3.574
 4319SOL     OW13855   1.670   5.065   2.491
 4319SOL    HW113856   1.617   4.982   2.507
 4319SOL    HW213857   1.758   5.058   2.537
 4320SOL     OW13858   3.342   0.361   1.222
 4320SOL    HW113859   3.340   0.461   1.217
 4320SOL    HW213860   3.249   0.326   1.233
 4321SOL     OW13861   6.560   5.682   2.601
 4321SOL    HW113862   6.498   5.608   2.628
 4321SOL    HW213863   6.651   5.644   2.584
 4322SOL     OW13864   2.507   2.549   3.898
 4322SOL    HW113865   2.603   2.559   3.870
 4322SOL    HW213866   2.473   2.460   3.868
 4323SOL     OW13867   4.933   4.723   1.050
 4323SOL    HW113868   4.923   4.809   1.001
 4323SOL    HW213869   5.000   4.733   1.123
 4324SOL     OW13870   0.230   4.200   5.874
 4324SOL    HW113871   0.278   4.130   5.820
 4324SOL    HW213872   0.298   4.257   5.922
 4325SOL     OW13873   1.671   0.356   1.122
 4325SOL    HW113874   1.699   0.379   1.029
 4325SOL    HW213875   1.725   0.279   1.155
 4326SOL     OW13876   4.715   2.663   3.060
 4326SOL    HW113877   4.777   2.737   3.034
 4326SOL    HW213878   4.661   2.692   3.139
 4327SOL     OW13879   3.045   6.629   3.800
 4327SOL    HW113880   3.058   6.710   3.743
 4327SOL    HW213881   2.967   6.644   3.861
 4328SOL     OW13882   6.045   0.033   3.057
 4328SOL    HW113883   5.947   0.025   3.039
 4328SOL    HW213884   6.090   6.962   3.033
 4329SOL     OW13885   6.117   3.751   0.391
 4329SOL    HW113886   6.098   3.817   0.463
 4329SOL    HW213887   6.134   3.799   0.305
 4330SOL     OW13888   2.536   5.204   4.599
 4330SOL    HW113889   2.463   5.135   4.590
 4330SOL    HW213890   2.598   5.196   4.521
 4331SOL     OW13891   5.666   1.634   2.260
 4331SOL    HW113892   5.666   1.675   2.169
 4331SOL    HW213893   5.749   1.579   2.272
 4332SOL     OW13894   6.818   5.489   1.276
 4332SOL    HW113895   6.812   5.474   1.177
 4332SOL    HW213896   6.794   5.583   1.297
 4333SOL     OW13897   3.652   2.902   6.339
 4333SOL    HW113898   3.714   2.867   6.408
 4333SOL    HW213899   3.647   2.839   6.262
 4334SOL     OW13900   0.166   2.833   4.069
 4334SOL    HW113901   0.257   2.829   4.027
 4334SOL    HW213902   0.112   2.754   4.039
 4335SOL     OW13903   2.557   4.078   1.694
 4335SOL    HW113904   2.628   4.007   1.684
 4335SOL    HW213905   2.558   4.137   1.613
 4336SOL     OW13906   2.908   5.450   5.452
 4336SOL    HW113907   2.826   5.408   5.491
 4336SOL    HW213908   2.985   5.386   5.459
 4337SOL     OW13909   6.889   4.733   3.358
 4337SOL    HW113910   6.947   4.807   3.394
 4337SOL    HW213911   6.947   4.662   3.318
 4338SOL     OW13912   3.073   2.322   6.191
 4338SOL    HW113913   3.015   2.309   6.111
 4338SOL    HW213914   3.169   2.329   6.163
 4339SOL     OW13915   4.375   4.676   5.508
 4339SOL    HW113916   4.392   4.638   5.418
 4339SOL    HW213917   4.408   4.613   5.579
 4340SOL     OW13918   6.950   4.059   0.480
 4340SOL    HW113919   6.869   4.067   0.538
 4340SOL    HW213920   0.016   4.070   0.535
 4341SOL     OW13921   6.280   5.414   1.182
 4341SOL    HW113922   6.210   5.484   1.168
 4341SOL    HW213923   6.369   5.458   1.196
 4342SOL     OW13924   5.223   3.326   2.810
 4342SOL    HW113925   5.184   3.298   2.722
 4342SOL    HW213926   5.281   3.253   2.846
 4343SOL     OW13927   3.847   0.409   6.546
 4343SOL    HW113928   3.885   0.361   6.467
 4343SOL    HW213929   3.856   0.351   6.627
 4344SOL     OW13930   1.040   4.091   2.337
 4344SOL    HW113931   0.991   4.176   2.355
 4344SOL    HW213932   0.998   4.044   2.260
 4345SOL     OW13933   3.824   3.592   3.106
 4345SOL    HW113934   3.780   3.563   3.021
 4345SOL    HW213935   3.871   3.514   3.147
 4346SOL     OW13936   0.832   3.549   2.583
 4346SOL    HW113937   0.905   3.578   2.520
 4346SOL    HW213938   0.790   3.465   2.549
 4347SOL     OW13939   6.399   5.374   0.481
 4347SOL    HW113940   6.383   5.472   0.469
 4347SOL    HW213941   6.376   5.347   0.574
 4348SOL     OW13942   5.890   4.070   5.697
 4348SOL    HW113943   5.921   4.146   5.640
 4348SOL    HW213944   5.896   4.096   5.794
 4349SOL     OW13945   0.979   4.101   4.251
 4349SOL    HW113946   0.943   4.155   4.327
 4349SOL    HW213947   1.073   4.075   4.269
 4350SOL     OW13948   4.601   0.847   3.745
 4350SOL    HW113949   4.663   0.874   3.818
 4350SOL    HW213950   4.644   0.777   3.688
 4351SOL     OW13951   0.046   5.901   0.851
 4351SOL    HW113952   0.051   5.891   0.950
 4351SOL    HW213953   6.972   5.869   0.819
 4352SOL     OW13954   3.358   4.681   1.688
 4352SOL    HW113955   3.345   4.777   1.710
 4352SOL    HW213956   3.442   4.647   1.730
 4353SOL     OW13957   2.459   3.914   0.729
 4353SOL    HW113958   2.537   3.851   0.727
 4353SOL    HW213959   2.403   3.901   0.647
 4354SOL     OW13960   5.552   5.449   2.401
 4354SOL    HW113961   5.534   5.419   2.494
 4354SOL    HW213962   5.640   5.498   2.398
 4355SOL     OW13963   2.660   5.139   3.089
 4355SOL    HW113964   2.669   5.104   3.183
 4355SOL    HW213965   2.615   5.228   3.092
 4356SOL     OW13966   5.930   2.405   5.675
 4356SOL    HW113967   5.856   2.407   5.742
 4356SOL    HW213968   5.936   2.493   5.630
 4357SOL     OW13969   5.782   5.998   2.048
 4357SOL    HW113970   5.714   5.979   2.119
 4357SOL    HW213971   5.862   5.940   2.064
 4358SOL     OW13972   2.805   0.624   0.800
 4358SOL    HW113973   2.871   0.613   0.874
 4358SOL    HW213974   2.735   0.553   0.807
 4359SOL     OW13975   2.467   2.254   1.841
 4359SOL    HW113976   2.552   2.298   1.811
 4359SOL    HW213977   2.469   2.244   1.941
 4360SOL     OW13978   2.526   5.894   3.833
 4360SOL    HW113979   2.559   5.908   3.739
 4360SOL    HW213980   2.556   5.804   3.865
 4361SOL     OW13981   1.108   1.544   0.119
 4361SOL    HW113982   1.055   1.622   0.152
 4361SOL    HW213983   1.104   1.541   0.019
 4362SOL     OW13984   0.716   5.241   2.893
 4362SOL    HW113985   0.753   5.288   2.813
 4362SOL    HW213986   0.706   5.144   2.873
 4363SOL     OW13987   3.675   0.645   2.142
 4363SOL    HW113988   3.681   0.568   2.206
 4363SOL    HW213989   3.597   0.702   2.168
 4364SOL     OW13990   3.188   4.077   2.901
 4364SOL    HW113991   3.195   4.177   2.903
 4364SOL    HW213992   3.196   4.045   2.806
 4365SOL     OW13993   2.215   0.969   0.847
 4365SOL    HW113994   2.285   0.936   0.910
 4365SOL    HW213995   2.125   0.963   0.892
 4366SOL     OW13996   5.328   5.811   4.694
 4366SOL    HW113997   5.380   5.728   4.677
 4366SOL    HW213998   5.238   5.803   4.650
 4367SOL     OW13999   2.883   6.569   2.314
 4367SOL    HW114000   2.901   6.478   2.276
 4367SOL    HW214001   2.844   6.560   2.406
 4368SOL     OW14002   4.932   3.797   4.288
 4368SOL    HW114003   4.951   3.880   4.235
 4368SOL    HW214004   4.881   3.822   4.371
 4369SOL     OW14005   6.021   4.043   3.784
 4369SOL    HW114006   6.093   4.075   3.845
 4369SOL    HW214007   5.934   4.040   3.833
 4370SOL     OW14008   4.070   5.062   0.486
 4370SOL    HW114009   4.052   5.144   0.431
 4370SOL    HW214010   4.006   5.058   0.562
 4371SOL     OW14011   3.550   1.367   2.866
 4371SOL    HW114012   3.471   1.424   2.843
 4371SOL    HW214013   3.628   1.426   2.888
 4372SOL     OW14014   1.981   4.451   4.798
 4372SOL    HW114015   2.019   4.468   4.707
 4372SOL    HW214016   1.977   4.353   4.815
 4373SOL     OW14017   4.068   0.602   0.440
 4373SOL    HW114018   4.084   0.631   0.534
 4373SOL    HW214019   4.035   0.507   0.439
 4374SOL     OW14020   2.708   6.494   0.533
 4374SOL    HW114021   2.653   6.479   0.615
 4374SOL    HW214022   2.650   6.486   0.452
 4375SOL     OW14023   3.872   1.602   5.615
 4375SOL    HW114024   3.815   1.649   5.548
 4375SOL    HW214025   3.871   1.653   5.701
 4376SOL     OW14026   1.970   6.061   0.140
 4376SOL    HW114027   2.031   5.983   0.155
 4376SOL    HW214028   1.950   6.105   0.228
 4377SOL     OW14029   4.934   5.981   6.911
 4377SOL    HW114030   5.013   5.985   6.972
 4377SOL    HW214031   4.914   5.886   6.889
 4378SOL     OW14032   3.085   5.227   2.572
 4378SOL    HW114033   3.180   5.258   2.578
 4378SOL    HW214034   3.023   5.303   2.590
 4379SOL     OW14035   7.014   6.774   0.799
 4379SOL    HW114036   7.007   6.770   0.699
 4379SOL    HW214037   0.004   6.681   0.835
 4380SOL     OW14038   2.074   5.756   4.248
 4380SOL    HW114039   2.028   5.668   4.230
 4380SOL    HW214040   2.005   5.827   4.261
 4381SOL     OW14041   4.218   5.742   5.215
 4381SOL    HW114042   4.189   5.695   5.132
 4381SOL    HW214043   4.311   5.777   5.203
 4382SOL     OW14044   5.569   4.633   2.739
 4382SOL    HW114045   5.471   4.618   2.736
 4382SOL    HW214046   5.616   4.550   2.708
 4383SOL     OW14047   1.072   0.988   0.497
 4383SOL    HW114048   1.150   1.047   0.515
 4383SOL    HW214049   0.992   1.044   0.474
 4384SOL     OW14050   3.622   0.089   2.149
 4384SOL    HW114051   3.626   0.030   2.230
 4384SOL    HW214052   3.621   0.185   2.177
 4385SOL     OW14053   5.933   2.328   2.616
 4385SOL    HW114054   6.032   2.314   2.621
 4385SOL    HW214055   5.908   2.352   2.522
 4386SOL     OW14056   1.890   4.434   6.972
 4386SOL    HW114057   1.797   4.440   6.936
 4386SOL    HW214058   1.943   4.371   6.916
 4387SOL     OW14059   6.419   2.315   1.579
 4387SOL    HW114060   6.426   2.239   1.514
 4387SOL    HW214061   6.445   2.283   1.670
 4388SOL     OW14062   3.497   1.633   5.570
 4388SOL    HW114063   3.455   1.545   5.548
 4388SOL    HW214064   3.425   1.700   5.590
 4389SOL     OW14065   6.199   2.250   2.441
 4389SOL    HW114066   6.230   2.158   2.466
 4389SOL    HW214067   6.217   2.265   2.344
 4390SOL     OW14068   4.109   3.027   0.919
 4390SOL    HW114069   4.014   3.052   0.935
 4390SOL    HW214070   4.165   3.110   0.913
 4391SOL     OW14071   0.398   6.430   0.123
 4391SOL    HW114072   0.307   6.472   0.122
 4391SOL    HW214073   0.413   6.380   0.038
 4392SOL     OW14074   5.203   4.567   5.162
 4392SOL    HW114075   5.195   4.666   5.161
 4392SOL    HW214076   5.182   4.530   5.071
 4393SOL     OW14077   5.163   6.364   2.960
 4393SOL    HW114078   5.153   6.268   2.932
 4393SOL    HW214079   5.072   6.405   2.970
 4394SOL     OW14080   4.443   0.530   2.196
 4394SOL    HW114081   4.454   0.431   2.194
 4394SOL    HW214082   4.383   0.558   2.121
 4395SOL     OW14083   4.934   1.926   0.899
 4395SOL    HW114084   4.907   1.859   0.968
 4395SOL    HW214085   4.853   1.954   0.847
 4396SOL     OW14086   1.607   1.191   3.527
 4396SOL    HW114087   1.632   1.266   3.589
 4396SOL    HW214088   1.649   1.206   3.438
 4397SOL     OW14089   5.118   7.003   6.282
 4397SOL    HW114090   5.216   6.981   6.282
 4397SOL    HW214091   5.087   7.015   6.377
 4398SOL     OW14092   0.395   5.290   4.527
 4398SOL    HW114093   0.336   5.340   4.464
 4398SOL    HW214094   0.349   5.281   4.615
 4399SOL     OW14095   3.208   1.332   2.617
 4399SOL    HW114096   3.253   1.383   2.690
 4399SOL    HW214097   3.261   1.339   2.533
 4400SOL     OW14098   3.982   5.572   3.280
 4400SOL    HW114099   4.075   5.563   3.315
 4400SOL    HW214100   3.979   5.645   3.211
 4401SOL     OW14101   5.861   5.779   4.974
 4401SOL    HW114102   5.909   5.715   4.914
 4401SOL    HW214103   5.771   5.741   4.997
 4402SOL     OW14104   6.737   6.292   2.395
 4402SOL    HW114105   6.695   6.201   2.391
 4402SOL    HW214106   6.779   6.313   2.307
 4403SOL     OW14107   0.375   1.122   2.285
 4403SOL    HW114108   0.300   1.129   2.351
 4403SOL    HW214109   0.381   1.029   2.251
 4404SOL     OW14110   2.408   4.888   2.494
 4404SOL    HW114111   2.399   4.807   2.436
 4404SOL    HW214112   2.450   4.962   2.442
 4405SOL     OW14113   2.729   3.771   5.880
 4405SOL    HW114114   2.641   3.811   5.851
 4405SOL    HW214115   2.719   3.730   5.970
 4406SOL     OW14116   6.019   3.402   2.093
 4406SOL    HW114117   5.965   3.343   2.153
 4406SOL    HW214118   6.038   3.354   2.008
 4407SOL     OW14119   0.293   1.280   0.194
 4407SOL    HW114120   0.321   1.257   0.101
 4407SOL    HW214121   0.253   1.199   0.237
 4408SOL     OW14122   3.805   6.229   1.348
 4408SOL    HW114123   3.734   6.177   1.302
 4408SOL    HW214124   3.796   6.326   1.325
 4409SOL     OW14125   2.748   1.883   2.534
 4409SOL    HW114126   2.747   1.808   2.601
 4409SOL    HW214127   2.808   1.858   2.458
 4410SOL     OW14128   1.677   5.757   1.534
 4410SOL    HW114129   1.731   5.840   1.552
 4410SOL    HW214130   1.733   5.676   1.553
 4411SOL     OW14131   4.093   3.437   2.751
 4411SOL    HW114132   4.109   3.453   2.849
 4411SOL    HW214133   4.018   3.371   2.740
 4412SOL     OW14134   3.381   1.671   5.923
 4412SOL    HW114135   3.311   1.699   5.989
 4412SOL    HW214136   3.356   1.704   5.832
 4413SOL     OW14137   4.335   5.125   3.706
 4413SOL    HW114138   4.326   5.098   3.610
 4413SOL    HW214139   4.287   5.059   3.764
 4414SOL     OW14140   3.284   5.046   1.894
 4414SOL    HW114141   3.366   5.028   1.840
 4414SOL    HW214142   3.294   5.004   1.984
 4415SOL     OW14143   4.561   1.281   1.195
 4415SOL    HW114144   4.611   1.195   1.208
 4415SOL    HW214145   4.537   1.291   1.098
 4416SOL     OW14146   2.430   2.097   4.756
 4416SOL    HW114147   2.519   2.137   4.733
 4416SOL    HW214148   2.370   2.169   4.791
 4417SOL     OW14149   5.989   6.643   1.292
 4417SOL    HW114150   5.965   6.573   1.225
 4417SOL    HW214151   6.019   6.726   1.245
 4418SOL     OW14152   4.874   0.929   3.449
 4418SOL    HW114153   4.851   0.832   3.459
 4418SOL    HW214154   4.907   0.946   3.356
 4419SOL     OW14155   6.263   5.428   6.375
 4419SOL    HW114156   6.314   5.450   6.292
 4419SOL    HW214157   6.195   5.357   6.355
 4420SOL     OW14158   4.276   0.655   0.090
 4420SOL    HW114159   4.371   0.672   0.067
 4420SOL    HW214160   4.264   0.660   0.189
 4421SOL     OW14161   0.401   1.403   3.374
 4421SOL    HW114162   0.327   1.415   3.308
 4421SOL    HW214163   0.475   1.468   3.353
 4422SOL     OW14164   1.523   4.530   5.943
 4422SOL    HW114165   1.500   4.487   5.856
 4422SOL    HW214166   1.618   4.508   5.967
 4423SOL     OW14167   0.102   1.478   6.271
 4423SOL    HW114168   0.090   1.576   6.257
 4423SOL    HW214169   0.168   1.462   6.345
 4424SOL     OW14170   1.250   5.857   3.704
 4424SOL    HW114171   1.178   5.879   3.638
 4424SOL    HW214172   1.263   5.934   3.767
 4425SOL     OW14173   5.140   4.475   0.921
 4425SOL    HW114174   5.061   4.536   0.919
 4425SOL    HW214175   5.123   4.402   0.989
 4426SOL     OW14176   0.838   0.497   5.795
 4426SOL    HW114177   0.937   0.497   5.813
 4426SOL    HW214178   0.823   0.495   5.696
 4427SOL     OW14179   1.364   5.856   3.351
 4427SOL    HW114180   1.416   5.834   3.433
 4427SOL    HW214181   1.300   5.782   3.331
 4428SOL     OW14182   1.908   0.026   3.005
 4428SOL    HW114183   1.929   0.039   3.102
 4428SOL    HW214184   1.989   7.010   2.957
 4429SOL     OW14185   3.355   0.653   3.205
 4429SOL    HW114186   3.261   0.673   3.232
 4429SOL    HW214187   3.398   0.593   3.272
 4430SOL     OW14188   1.311   0.860   2.054
 4430SOL    HW114189   1.343   0.944   2.008
 4430SOL    HW214190   1.284   0.793   1.985
 4431SOL     OW14191   2.440   2.166   3.562
 4431SOL    HW114192   2.525   2.213   3.583
 4431SOL    HW214193   2.456   2.068   3.558
 4432SOL     OW14194   2.915   3.676   3.918
 4432SOL    HW114195   3.010   3.677   3.951
 4432SOL    HW214196   2.908   3.615   3.839
 4433SOL     OW14197   6.494   0.516   2.708
 4433SOL    HW114198   6.481   0.447   2.779
 4433SOL    HW214199   6.413   0.574   2.701
 4434SOL     OW14200   5.355   2.506   4.845
 4434SOL    HW114201   5.439   2.455   4.827
 4434SOL    HW214202   5.325   2.490   4.939
 4435SOL     OW14203   3.800   3.029   2.022
 4435SOL    HW114204   3.735   3.047   1.947
 4435SOL    HW214205   3.800   3.106   2.085
 4436SOL     OW14206   5.212   0.099   0.751
 4436SOL    HW114207   5.195   0.007   0.785
 4436SOL    HW214208   5.278   0.146   0.810
 4437SOL     OW14209   3.519   0.292   5.198
 4437SOL    HW114210   3.527   0.229   5.121
 4437SOL    HW214211   3.604   0.293   5.250
 4438SOL     OW14212   3.844   3.480   6.091
 4438SOL    HW114213   3.925   3.459   6.036
 4438SOL    HW214214   3.856   3.569   6.135
 4439SOL     OW14215   2.139   4.556   2.340
 4439SOL    HW114216   2.102   4.619   2.272
 4439SOL    HW214217   2.113   4.587   2.432
 4440SOL     OW14218   6.367   1.444   0.532
 4440SOL    HW114219   6.371   1.514   0.461
 4440SOL    HW214220   6.307   1.475   0.606
 4441SOL     OW14221   5.933   0.674   3.529
 4441SOL    HW114222   5.879   0.695   3.611
 4441SOL    HW214223   6.006   0.741   3.519
 4442SOL     OW14224   1.959   6.155   1.723
 4442SOL    HW114225   2.026   6.102   1.775
 4442SOL    HW214226   1.923   6.229   1.781
 4443SOL     OW14227   2.318   1.482   6.862
 4443SOL    HW114228   2.283   1.425   6.788
 4443SOL    HW214229   2.281   1.574   6.855
 4444SOL     OW14230   4.564   1.076   2.925
 4444SOL    HW114231   4.633   1.074   2.997
 4444SOL    HW214232   4.498   1.002   2.939
 4445SOL     OW14233   0.776   0.886   6.111
 4445SOL    HW114234   0.733   0.838   6.034
 4445SOL    HW214235   0.708   0.942   6.158
 4446SOL     OW14236   5.297   4.585   3.829
 4446SOL    HW114237   5.272   4.593   3.733
 4446SOL    HW214238   5.260   4.500   3.867
 4447SOL     OW14239   5.053   3.033   5.221
 4447SOL    HW114240   5.045   3.027   5.321
 4447SOL    HW214241   4.972   3.077   5.184
 4448SOL     OW14242   2.141   3.183   6.548
 4448SOL    HW114243   2.121   3.232   6.633
 4448SOL    HW214244   2.222   3.126   6.561
 4449SOL     OW14245   0.229   0.957   5.493
 4449SOL    HW114246   0.256   1.012   5.414
 4449SOL    HW214247   0.191   1.017   5.564
 4450SOL     OW14248   3.497   3.557   2.119
 4450SOL    HW114249   3.578   3.503   2.095
 4450SOL    HW214250   3.487   3.560   2.219
 4451SOL     OW14251   0.267   4.002   0.901
 4451SOL    HW114252   0.195   4.036   0.961
 4451SOL    HW214253   0.272   3.902   0.907
 4452SOL     OW14254   6.403   3.075   6.330
 4452SOL    HW114255   6.362   3.126   6.255
 4452SOL    HW214256   6.425   3.138   6.405
 4453SOL     OW14257   5.059   1.191   0.741
 4453SOL    HW114258   5.079   1.095   0.721
 4453SOL    HW214259   5.122   1.249   0.689
 4454SOL     OW14260   4.942   3.125   1.919
 4454SOL    HW114261   4.865   3.084   1.967
 4454SOL    HW214262   4.949   3.087   1.827
 4455SOL     OW14263   4.397   2.213   2.107
 4455SOL    HW114264   4.384   2.269   2.189
 4455SOL    HW214265   4.346   2.128   2.118
 4456SOL     OW14266   1.006   5.491   2.736
 4456SOL    HW114267   0.908   5.498   2.755
 4456SOL    HW214268   1.021   5.418   2.669
 4457SOL     OW14269   4.420   1.883   6.993
 4457SOL    HW114270   4.442   1.887   6.895
 4457SOL    HW214271   4.334   1.833   7.005
 4458SOL     OW14272   4.270   1.683   1.004
 4458SOL    HW114273   4.186   1.633   0.984
 4458SOL    HW214274   4.283   1.687   1.103
 4459SOL     OW14275   5.418   6.655   5.139
 4459SOL    HW114276   5.371   6.572   5.170
 4459SOL    HW214277   5.385   6.734   5.192
 4460SOL     OW14278   1.011   1.337   6.695
 4460SOL    HW114279   0.949   1.391   6.637
 4460SOL    HW214280   1.085   1.300   6.640
 4461SOL     OW14281   2.178   6.864   2.272
 4461SOL    HW114282   2.113   6.910   2.212
 4461SOL    HW214283   2.209   6.927   2.343
 4462SOL     OW14284   6.753   4.565   0.406
 4462SOL    HW114285   6.825   4.555   0.337
 4462SOL    HW214286   6.783   4.631   0.475
 4463SOL     OW14287   1.359   4.085   6.364
 4463SOL    HW114288   1.297   4.052   6.293
 4463SOL    HW214289   1.306   4.134   6.434
 4464SOL     OW14290   6.625   2.849   0.116
 4464SOL    HW114291   6.579   2.807   0.037
 4464SOL    HW214292   6.619   2.948   0.109
 4465SOL     OW14293   0.401   5.889   0.284
 4465SOL    HW114294   0.303   5.871   0.287
 4465SOL    HW214295   0.451   5.802   0.290
 4466SOL     OW14296   6.874   2.927   3.297
 4466SOL    HW114297   6.930   2.865   3.243
 4466SOL    HW214298   6.865   3.014   3.248
 4467SOL     OW14299   1.150   0.238   3.165
 4467SOL    HW114300   1.221   0.223   3.233
 4467SOL    HW214301   1.106   0.151   3.144
 4468SOL     OW14302   2.002   2.088   0.799
 4468SOL    HW114303   2.099   2.092   0.824
 4468SOL    HW214304   1.954   2.166   0.837
 4469SOL     OW14305   4.458   0.148   0.457
 4469SOL    HW114306   4.363   0.140   0.486
 4469SOL    HW214307   4.480   0.244   0.440
 4470SOL     OW14308   4.832   5.140   1.143
 4470SOL    HW114309   4.740   5.108   1.121
 4470SOL    HW214310   4.835   5.167   1.240
 4471SOL     OW14311   6.398   2.571   0.911
 4471SOL    HW114312   6.341   2.505   0.863
 4471SOL    HW214313   6.468   2.606   0.849
 4472SOL     OW14314   2.041   4.755   1.542
 4472SOL    HW114315   2.015   4.660   1.525
 4472SOL    HW214316   1.962   4.815   1.524
 4473SOL     OW14317   6.898   0.678   6.528
 4473SOL    HW114318   6.802   0.705   6.537
 4473SOL    HW214319   6.907   0.615   6.450
 4474SOL     OW14320   6.313   0.612   4.364
 4474SOL    HW114321   6.384   0.560   4.412
 4474SOL    HW214322   6.223   0.572   4.386
 4475SOL     OW14323   1.698   3.963   0.563
 4475SOL    HW114324   1.640   3.912   0.626
 4475SOL    HW214325   1.751   4.031   0.613
 4476SOL     OW14326   5.362   6.440   2.738
 4476SOL    HW114327   5.336   6.416   2.831
 4476SOL    HW214328   5.456   6.475   2.738
 4477SOL     OW14329   1.437   2.033   0.860
 4477SOL    HW114330   1.481   2.117   0.891
 4477SOL    HW214331   1.338   2.047   0.856
 4478SOL     OW14332   1.154   4.811   2.009
 4478SOL    HW114333   1.187   4.903   1.988
 4478SOL    HW214334   1.066   4.796   1.964
 4479SOL     OW14335   1.145   0.083   6.217
 4479SOL    HW114336   1.167   0.001   6.270
 4479SOL    HW214337   1.226   0.141   6.210
 4480SOL     OW14338   6.839   4.309   3.325
 4480SOL    HW114339   6.804   4.393   3.366
 4480SOL    HW214340   6.869   4.247   3.398
 4481SOL     OW14341   0.605   0.867   4.145
 4481SOL    HW114342   0.506   0.857   4.138
 4481SOL    HW214343   0.643   0.787   4.191
 4482SOL     OW14344   1.331   3.998   2.857
 4482SOL    HW114345   1.331   3.941   2.774
 4482SOL    HW214346   1.425   4.013   2.886
 4483SOL     OW14347   6.075   2.902   1.328
 4483SOL    HW114348   6.124   2.985   1.302
 4483SOL    HW214349   5.992   2.894   1.273
 4484SOL     OW14350   3.404   3.528   6.113
 4484SOL    HW114351   3.469   3.454   6.131
 4484SOL    HW214352   3.394   3.584   6.195
 4485SOL     OW14353   4.673   0.242   0.147
 4485SOL    HW114354   4.757   0.287   0.118
 4485SOL    HW214355   4.594   0.290   0.109
 4486SOL     OW14356   5.978   3.192   3.887
 4486SOL    HW114357   5.962   3.224   3.980
 4486SOL    HW214358   5.899   3.138   3.857
 4487SOL     OW14359   3.044   2.994   5.663
 4487SOL    HW114360   3.057   3.006   5.762
 4487SOL    HW214361   3.120   2.942   5.625
 4488SOL     OW14362   6.712   1.564   6.471
 4488SOL    HW114363   6.721   1.471   6.434
 4488SOL    HW214364   6.658   1.620   6.408
 4489SOL     OW14365   0.520   1.199   2.543
 4489SOL    HW114366   0.482   1.113   2.577
 4489SOL    HW214367   0.465   1.231   2.466
 4490SOL     OW14368   6.547   2.117   3.672
 4490SOL    HW114369   6.611   2.193   3.657
 4490SOL    HW214370   6.505   2.091   3.585
 4491SOL     OW14371   2.126   3.696   2.455
 4491SOL    HW114372   2.094   3.621   2.397
 4491SOL    HW214373   2.167   3.767   2.399
 4492SOL     OW14374   4.839   4.808   6.330
 4492SOL    HW114375   4.895   4.878   6.374
 4492SOL    HW214376   4.798   4.845   6.246
 4493SOL     OW14377   5.958   4.746   3.907
 4493SOL    HW114378   5.882   4.793   3.861
 4493SOL    HW214379   6.032   4.811   3.924
 4494SOL     OW14380   5.599   2.791   2.940
 4494SOL    HW114381   5.685   2.756   2.977
 4494SOL    HW214382   5.600   2.891   2.942
 4495SOL     OW14383   4.880   6.169   2.080
 4495SOL    HW114384   4.912   6.166   1.986
 4495SOL    HW214385   4.873   6.076   2.117
 4496SOL     OW14386   5.874   4.111   5.959
 4496SOL    HW114387   5.822   4.034   5.995
 4496SOL    HW214388   5.931   4.150   6.032
 4497SOL     OW14389   6.377   5.517   0.819
 4497SOL    HW114390   6.325   5.551   0.898
 4497SOL    HW214391   6.404   5.594   0.761
 4498SOL     OW14392   1.160   3.934   6.904
 4498SOL    HW114393   1.224   3.905   6.975
 4498SOL    HW214394   1.066   3.923   6.937
 4499SOL     OW14395   4.952   3.187   6.851
 4499SOL    HW114396   4.956   3.253   6.775
 4499SOL    HW214397   5.034   3.196   6.907
 4500SOL     OW14398   3.813   4.002   2.959
 4500SOL    HW114399   3.850   4.034   3.046
 4500SOL    HW214400   3.888   3.972   2.901
 4501SOL     OW14401   1.613   4.946   4.804
 4501SOL    HW114402   1.692   4.960   4.864
 4501SOL    HW214403   1.626   4.998   4.720
 4502SOL     OW14404   5.718   2.877   6.847
 4502SOL    HW114405   5.693   2.973   6.837
 4502SOL    HW214406   5.808   2.870   6.891
 4503SOL     OW14407   1.792   3.405   2.865
 4503SOL    HW114408   1.837   3.450   2.942
 4503SOL    HW214409   1.747   3.475   2.808
 4504SOL     OW14410   4.672   2.693   4.145
 4504SOL    HW114411   4.696   2.714   4.240
 4504SOL    HW214412   4.590   2.636   4.143
 4505SOL     OW14413   1.743   5.015   6.753
 4505SOL    HW114414   1.694   5.069   6.821
 4505SOL    HW214415   1.780   5.075   6.682
 4506SOL     OW14416   3.981   6.772   4.850
 4506SOL    HW114417   3.956   6.790   4.755
 4506SOL    HW214418   4.020   6.854   4.891
 4507SOL     OW14419   6.185   3.209   2.287
 4507SOL    HW114420   6.170   3.117   2.322
 4507SOL    HW214421   6.099   3.245   2.250
 4508SOL     OW14422   2.170   4.053   0.141
 4508SOL    HW114423   2.266   4.067   0.118
 4508SOL    HW214424   2.145   4.115   0.216
 4509SOL     OW14425   0.122   1.767   3.800
 4509SOL    HW114426   0.179   1.767   3.719
 4509SOL    HW214427   0.161   1.706   3.869
 4510SOL     OW14428   3.359   6.558   6.055
 4510SOL    HW114429   3.317   6.475   6.018
 4510SOL    HW214430   3.367   6.626   5.982
 4511SOL     OW14431   6.514   2.064   6.870
 4511SOL    HW114432   6.463   2.112   6.798
 4511SOL    HW214433   6.517   1.967   6.849
 4512SOL     OW14434   2.560   4.378   6.892
 4512SOL    HW114435   2.640   4.429   6.860
 4512SOL    HW214436   2.567   4.283   6.862
 4513SOL     OW14437   5.794   1.225   2.401
 4513SOL    HW114438   5.834   1.139   2.432
 4513SOL    HW214439   5.747   1.269   2.477
 4514SOL     OW14440   3.559   0.850   6.134
 4514SOL    HW114441   3.581   0.754   6.117
 4514SOL    HW214442   3.581   0.904   6.053
 4515SOL     OW14443   6.369   4.837   0.351
 4515SOL    HW114444   6.317   4.855   0.435
 4515SOL    HW214445   6.307   4.801   0.281
 4516SOL     OW14446   0.648   6.903   4.022
 4516SOL    HW114447   0.723   6.902   4.089
 4516SOL    HW214448   0.667   6.836   3.951
 4517SOL     OW14449   3.898   0.662   6.561
 4517SOL    HW114450   3.836   0.694   6.633
 4517SOL    HW214451   3.895   0.562   6.557
 4518SOL     OW14452   1.453   0.395   3.672
 4518SOL    HW114453   1.370   0.355   3.633
 4518SOL    HW214454   1.496   0.329   3.734
 4519SOL     OW14455   6.325   2.809   5.413
 4519SOL    HW114456   6.388   2.736   5.388
 4519SOL    HW214457   6.245   2.807   5.353
 4520SOL     OW14458   0.275   3.990   2.508
 4520SOL    HW114459   0.253   3.895   2.488
 4520SOL    HW214460   0.334   3.994   2.589
 4521SOL     OW14461   5.063   1.767   6.395
 4521SOL    HW114462   5.026   1.810   6.313
 4521SOL    HW214463   5.072   1.669   6.380
 4522SOL     OW14464   5.644   0.195   3.188
 4522SOL    HW114465   5.550   0.183   3.156
 4522SOL    HW214466   5.643   0.229   3.282
 4523SOL     OW14467   4.637   2.698   6.390
 4523SOL    HW114468   4.599   2.714   6.481
 4523SOL    HW214469   4.732   2.666   6.399
 4524SOL     OW14470   6.143   0.446   4.738
 4524SOL    HW114471   6.124   0.544   4.736
 4524SOL    HW214472   6.109   0.403   4.655
 4525SOL     OW14473   6.296   2.054   5.369
 4525SOL    HW114474   6.326   1.959   5.380
 4525SOL    HW214475   6.199   2.061   5.391
 4526SOL     OW14476   3.435   1.390   1.561
 4526SOL    HW114477   3.469   1.299   1.586
 4526SOL    HW214478   3.460   1.456   1.631
 4527SOL     OW14479   4.450   6.365   3.753
 4527SOL    HW114480   4.403   6.322   3.830
 4527SOL    HW214481   4.517   6.431   3.787
 4528SOL     OW14482   4.814   6.740   5.710
 4528SOL    HW114483   4.876   6.686   5.767
 4528SOL    HW214484   4.767   6.807   5.766
 4529SOL     OW14485   3.903   0.432   3.677
 4529SOL    HW114486   3.939   0.524   3.691
 4529SOL    HW214487   3.804   0.436   3.663
 4530SOL     OW14488   0.431   3.118   5.256
 4530SOL    HW114489   0.408   3.029   5.217
 4530SOL    HW214490   0.529   3.135   5.245
 4531SOL     OW14491   0.359   3.479   3.398
 4531SOL    HW114492   0.299   3.513   3.470
 4531SOL    HW214493   0.373   3.381   3.409
 4532SOL     OW14494   6.925   1.839   0.277
 4532SOL    HW114495   6.848   1.825   0.215
 4532SOL    HW214496   6.989   1.904   0.238
 4533SOL     OW14497   2.987   5.946   2.311
 4533SOL    HW114498   2.964   5.963   2.215
 4533SOL    HW214499   3.056   6.012   2.341
 4534SOL     OW14500   0.024   4.351   5.559
 4534SOL    HW114501   0.033   4.439   5.511
 4534SOL    HW214502   0.048   4.363   5.655
 4535SOL     OW14503   5.201   2.574   3.245
 4535SOL    HW114504   5.130   2.552   3.179
 4535SOL    HW214505   5.275   2.624   3.200
 4536SOL     OW14506   6.686   0.333   4.388
 4536SOL    HW114507   6.735   0.358   4.305
 4536SOL    HW214508   6.720   0.388   4.464
 4537SOL     OW14509   4.927   3.390   6.658
 4537SOL    HW114510   4.975   3.451   6.721
 4537SOL    HW214511   4.993   3.344   6.599
 4538SOL     OW14512   3.516   1.989   1.581
 4538SOL    HW114513   3.513   2.081   1.620
 4538SOL    HW214514   3.423   1.956   1.567
 4539SOL     OW14515   2.343   2.563   2.563
 4539SOL    HW114516   2.432   2.527   2.532
 4539SOL    HW214517   2.355   2.658   2.593
 4540SOL     OW14518   3.334   3.282   5.203
 4540SOL    HW114519   3.241   3.291   5.239
 4540SOL    HW214520   3.368   3.371   5.175
 4541SOL     OW14521   5.851   0.971   1.800
 4541SOL    HW114522   5.872   1.068   1.797
 4541SOL    HW214523   5.882   0.928   1.715
 4542SOL     OW14524   5.139   6.902   3.179
 4542SOL    HW114525   5.221   6.878   3.231
 4542SOL    HW214526   5.160   6.901   3.081
 4543SOL     OW14527   5.719   1.638   1.617
 4543SOL    HW114528   5.653   1.663   1.546
 4543SOL    HW214529   5.671   1.615   1.701
 4544SOL     OW14530   4.500   5.121   6.659
 4544SOL    HW114531   4.576   5.073   6.702
 4544SOL    HW214532   4.462   5.066   6.584
 4545SOL     OW14533   4.079   3.895   5.866
 4545SOL    HW114534   4.087   3.983   5.820
 4545SOL    HW214535   3.984   3.864   5.863
 4546SOL     OW14536   0.125   6.531   0.148
 4546SOL    HW114537   0.103   6.510   0.243
 4546SOL    HW214538   0.057   6.489   0.088
 4547SOL     OW14539   4.275   1.613   1.886
 4547SOL    HW114540   4.176   1.610   1.876
 4547SOL    HW214541   4.298   1.624   1.983
 4548SOL     OW14542   0.957   3.838   3.927
 4548SOL    HW114543   1.027   3.800   3.987
 4548SOL    HW214544   0.979   3.816   3.832
 4549SOL     OW14545   4.769   1.699   2.344
 4549SOL    HW114546   4.677   1.738   2.336
 4549SOL    HW214547   4.766   1.602   2.324
 4550SOL     OW14548   1.782   5.648   4.477
 4550SOL    HW114549   1.755   5.665   4.383
 4550SOL    HW214550   1.857   5.709   4.502
 4551SOL     OW14551   6.731   3.217   6.856
 4551SOL    HW114552   6.664   3.289   6.841
 4551SOL    HW214553   6.803   3.250   6.917
 4552SOL     OW14554   6.715   3.019   4.729
 4552SOL    HW114555   6.677   3.009   4.637
 4552SOL    HW214556   6.764   3.106   4.734
 4553SOL     OW14557   5.166   5.030   0.209
 4553SOL    HW114558   5.192   5.062   0.300
 4553SOL    HW214559   5.206   4.940   0.193
 4554SOL     OW14560   6.067   6.674   3.487
 4554SOL    HW114561   6.034   6.747   3.547
 4554SOL    HW214562   6.029   6.587   3.517
 4555SOL     OW14563   4.044   3.361   6.451
 4555SOL    HW114564   4.070   3.456   6.434
 4555SOL    HW214565   3.976   3.333   6.383
 4556SOL     OW14566   4.796   0.343   5.348
 4556SOL    HW114567   4.882   0.300   5.323
 4556SOL    HW214568   4.813   0.436   5.380
 4557SOL     OW14569   5.224   0.527   4.982
 4557SOL    HW114570   5.155   0.589   5.020
 4557SOL    HW214571   5.197   0.501   4.889
 4558SOL     OW14572   5.996   2.915   5.891
 4558SOL    HW114573   6.002   2.826   5.935
 4558SOL    HW214574   6.070   2.924   5.824
 4559SOL     OW14575   1.196   6.389   1.357
 4559SOL    HW114576   1.239   6.458   1.299
 4559SOL    HW214577   1.233   6.299   1.333
 4560SOL     OW14578   5.683   2.300   2.389
 4560SOL    HW114579   5.645   2.341   2.471
 4560SOL    HW214580   5.614   2.300   2.317
 4561SOL     OW14581   3.353   0.633   6.468
 4561SOL    HW114582   3.326   0.721   6.507
 4561SOL    HW214583   3.450   0.617   6.487
 4562SOL     OW14584   2.271   4.422   5.881
 4562SOL    HW114585   2.335   4.356   5.841
 4562SOL    HW214586   2.178   4.388   5.870
 4563SOL     OW14587   5.253   2.473   6.687
 4563SOL    HW114588   5.187   2.413   6.641
 4563SOL    HW214589   5.249   2.565   6.647
 4564SOL     OW14590   0.816   5.141   6.745
 4564SOL    HW114591   0.858   5.143   6.837
 4564SOL    HW214592   0.764   5.057   6.734
 4565SOL     OW14593   2.567   1.274   3.892
 4565SOL    HW114594   2.653   1.235   3.926
 4565SOL    HW214595   2.493   1.208   3.904
 4566SOL     OW14596   1.481   0.923   0.426
 4566SOL    HW114597   1.438   0.942   0.337
 4566SOL    HW214598   1.492   1.008   0.476
 4567SOL     OW14599   5.620   1.336   0.943
 4567SOL    HW114600   5.644   1.241   0.962
 4567SOL    HW214601   5.696   1.380   0.895
 4568SOL     OW14602   4.035   4.808   4.111
 4568SOL    HW114603   4.119   4.829   4.061
 4568SOL    HW214604   3.998   4.893   4.150
 4569SOL     OW14605   0.458   2.103   3.309
 4569SOL    HW114606   0.516   2.098   3.228
 4569SOL    HW214607   0.376   2.157   3.289
 4570SOL     OW14608   5.701   5.778   4.290
 4570SOL    HW114609   5.723   5.776   4.192
 4570SOL    HW214610   5.680   5.871   4.318
 4571SOL     OW14611   3.683   2.880   4.446
 4571SOL    HW114612   3.674   2.814   4.520
 4571SOL    HW214613   3.768   2.931   4.457
 4572SOL     OW14614   1.787   5.041   1.811
 4572SOL    HW114615   1.755   5.101   1.884
 4572SOL    HW214616   1.883   5.019   1.826
 4573SOL     OW14617   4.991   0.306   1.035
 4573SOL    HW114618   4.922   0.344   1.097
 4573SOL    HW214619   5.041   0.233   1.081
 4574SOL     OW14620   6.997   4.069   1.489
 4574SOL    HW114621   6.933   4.146   1.482
 4574SOL    HW214622   0.053   4.092   1.555
 4575SOL     OW14623   6.852   6.319   2.149
 4575SOL    HW114624   6.936   6.265   2.142
 4575SOL    HW214625   6.830   6.360   2.060
 4576SOL     OW14626   3.759   6.267   3.960
 4576SOL    HW114627   3.737   6.360   3.930
 4576SOL    HW214628   3.684   6.206   3.934
 4577SOL     OW14629   1.376   2.983   4.047
 4577SOL    HW114630   1.304   3.049   4.026
 4577SOL    HW214631   1.442   3.025   4.110
 4578SOL     OW14632   0.486   5.190   3.865
 4578SOL    HW114633   0.533   5.148   3.942
 4578SOL    HW214634   0.416   5.128   3.829
 4579SOL     OW14635   5.512   1.750   4.787
 4579SOL    HW114636   5.566   1.686   4.841
 4579SOL    HW214637   5.417   1.720   4.784
 4580SOL     OW14638   0.055   5.379   6.941
 4580SOL    HW114639   0.032   5.420   6.853
 4580SOL    HW214640   6.991   5.330   6.976
 4581SOL     OW14641   3.511   6.441   3.994
 4581SOL    HW114642   3.440   6.467   3.928
 4581SOL    HW214643   3.600   6.474   3.961
 4582SOL     OW14644   4.948   6.579   3.154
 4582SOL    HW114645   4.882   6.645   3.192
 4582SOL    HW214646   4.901   6.519   3.090
 4583SOL     OW14647   3.701   1.183   5.515
 4583SOL    HW114648   3.696   1.240   5.598
 4583SOL    HW214649   3.679   1.239   5.436
 4584SOL     OW14650   1.088   5.201   5.925
 4584SOL    HW114651   1.037   5.116   5.913
 4584SOL    HW214652   1.179   5.190   5.886
 4585SOL     OW14653   3.361   6.450   2.149
 4585SOL    HW114654   3.429   6.481   2.216
 4585SOL    HW214655   3.334   6.527   2.091
 4586SOL     OW14656   2.745   6.115   1.860
 4586SOL    HW114657   2.649   6.120   1.833
 4586SOL    HW214658   2.792   6.047   1.804
 4587SOL     OW14659   3.157   5.050   0.576
 4587SOL    HW114660   3.201   5.094   0.654
 4587SOL    HW214661   3.191   5.092   0.491
 4588SOL     OW14662   3.791   4.371   5.400
 4588SOL    HW114663   3.884   4.335   5.412
 4588SOL    HW214664   3.765   4.364   5.304
 4589SOL     OW14665   0.851   1.935   3.105
 4589SOL    HW114666   0.855   1.920   3.203
 4589SOL    HW214667   0.896   1.859   3.058
 4590SOL     OW14668   4.213   6.414   3.217
 4590SOL    HW114669   4.235   6.389   3.123
 4590SOL    HW214670   4.121   6.383   3.239
 4591SOL     OW14671   6.131   6.808   4.970
 4591SOL    HW114672   6.100   6.874   4.902
 4591SOL    HW214673   6.070   6.729   4.970
 4592SOL     OW14674   3.272   1.448   6.232
 4592SOL    HW114675   3.342   1.430   6.301
 4592SOL    HW214676   3.261   1.367   6.174
 4593SOL     OW14677   4.942   6.431   1.920
 4593SOL    HW114678   4.943   6.335   1.892
 4593SOL    HW214679   5.036   6.467   1.919
 4594SOL     OW14680   3.734   1.598   2.296
 4594SOL    HW114681   3.713   1.508   2.335
 4594SOL    HW214682   3.649   1.646   2.275
 4595SOL     OW14683   4.706   3.587   6.328
 4595SOL    HW114684   4.623   3.531   6.333
 4595SOL    HW214685   4.696   3.666   6.388
 4596SOL     OW14686   5.443   0.647   2.494
 4596SOL    HW114687   5.351   0.660   2.530
 4596SOL    HW214688   5.494   0.584   2.553
 4597SOL     OW14689   6.478   4.357   5.737
 4597SOL    HW114690   6.555   4.303   5.770
 4597SOL    HW214691   6.500   4.455   5.743
 4598SOL     OW14692   3.223   3.954   0.360
 4598SOL    HW114693   3.194   3.874   0.411
 4598SOL    HW214694   3.309   3.935   0.313
 4599SOL     OW14695   2.401   5.363   0.325
 4599SOL    HW114696   2.401   5.298   0.250
 4599SOL    HW214697   2.434   5.452   0.293
 4600SOL     OW14698   3.522   4.489   1.359
 4600SOL    HW114699   3.425   4.505   1.338
 4600SOL    HW214700   3.532   4.472   1.457
 4601SOL     OW14701   1.679   5.741   4.221
 4601SOL    HW114702   1.582   5.719   4.206
 4601SOL    HW214703   1.687   5.836   4.253
 4602SOL     OW14704   1.571   1.007   0.892
 4602SOL    HW114705   1.589   1.084   0.953
 4602SOL    HW214706   1.472   0.995   0.882
 4603SOL     OW14707   2.917   1.698   1.935
 4603SOL    HW114708   2.959   1.751   2.009
 4603SOL    HW214709   2.981   1.628   1.903
 4604SOL     OW14710   1.610   0.655   2.095
 4604SOL    HW114711   1.542   0.582   2.088
 4604SOL    HW214712   1.573   0.729   2.152
 4605SOL     OW14713   4.930   6.271   5.717
 4605SOL    HW114714   4.974   6.344   5.665
 4605SOL    HW214715   4.942   6.184   5.669
 4606SOL     OW14716   6.885   5.662   4.818
 4606SOL    HW114717   6.895   5.721   4.738
 4606SOL    HW214718   6.937   5.578   4.805
 4607SOL     OW14719   2.669   2.558   1.402
 4607SOL    HW114720   2.611   2.481   1.430
 4607SOL    HW214721   2.614   2.626   1.355
 4608SOL     OW14722   1.553   3.560   4.908
 4608SOL    HW114723   1.553   3.660   4.904
 4608SOL    HW214724   1.558   3.524   4.815
 4609SOL     OW14725   3.082   6.991   0.510
 4609SOL    HW114726   3.038   6.912   0.468
 4609SOL    HW214727   3.070   0.055   0.450
 4610SOL     OW14728   0.027   3.135   6.725
 4610SOL    HW114729   0.072   3.083   6.652
 4610SOL    HW214730   0.007   3.074   6.801
 4611SOL     OW14731   1.575   3.961   6.812
 4611SOL    HW114732   1.567   4.016   6.895
 4611SOL    HW214733   1.544   3.868   6.830
 4612SOL     OW14734   2.536   0.039   6.402
 4612SOL    HW114735   2.562   0.121   6.349
 4612SOL    HW214736   2.588   0.037   6.487
 4613SOL     OW14737   3.172   5.123   1.664
 4613SOL    HW114738   3.232   5.084   1.595
 4613SOL    HW214739   3.220   5.124   1.752
 4614SOL     OW14740   2.125   4.997   0.064
 4614SOL    HW114741   2.151   4.904   0.090
 4614SOL    HW214742   2.179   5.062   0.118
 4615SOL     OW14743   6.866   3.215   0.093
 4615SOL    HW114744   6.932   3.145   0.065
 4615SOL    HW214745   6.916   3.298   0.119
 4616SOL     OW14746   5.973   0.410   0.758
 4616SOL    HW114747   5.996   0.506   0.739
 4616SOL    HW214748   5.972   0.396   0.857
 4617SOL     OW14749   0.047   3.841   1.941
 4617SOL    HW114750   0.078   3.932   1.916
 4617SOL    HW214751   0.111   3.773   1.906
 4618SOL     OW14752   0.533   2.859   6.468
 4618SOL    HW114753   0.529   2.959   6.460
 4618SOL    HW214754   0.486   2.818   6.390
 4619SOL     OW14755   3.524   0.642   3.835
 4619SOL    HW114756   3.458   0.638   3.910
 4619SOL    HW214757   3.612   0.605   3.867
 4620SOL     OW14758   2.259   5.833   6.429
 4620SOL    HW114759   2.243   5.896   6.353
 4620SOL    HW214760   2.353   5.843   6.461
 4621SOL     OW14761   0.165   0.262   5.948
 4621SOL    HW114762   0.152   0.187   5.884
 4621SOL    HW214763   0.241   0.241   6.009
 4622SOL     OW14764   2.255   3.280   1.046
 4622SOL    HW114765   2.244   3.294   1.145
 4622SOL    HW214766   2.269   3.369   1.002
 4623SOL     OW14767   5.296   4.673   2.703
 4623SOL    HW114768   5.224   4.641   2.641
 4623SOL    HW214769   5.259   4.744   2.764
 4624SOL     OW14770   4.602   6.798   5.313
 4624SOL    HW114771   4.525   6.745   5.350
 4624SOL    HW214772   4.687   6.747   5.327
 4625SOL     OW14773   1.546   3.941   6.189
 4625SOL    HW114774   1.504   4.001   6.257
 4625SOL    HW214775   1.596   3.868   6.235
 4626SOL     OW14776   5.593   5.574   1.951
 4626SOL    HW114777   5.648   5.490   1.956
 4626SOL    HW214778   5.648   5.647   1.910
 4627SOL     OW14779   1.738   0.134   5.618
 4627SOL    HW114780   1.704   0.217   5.573
 4627SOL    HW214781   1.662   0.074   5.640
 4628SOL     OW14782   6.780   2.811   2.004
 4628SOL    HW114783   6.847   2.737   2.011
 4628SOL    HW214784   6.781   2.864   2.089
 4629SOL     OW14785   4.394   4.848   4.503
 4629SOL    HW114786   4.397   4.821   4.599
 4629SOL    HW214787   4.314   4.808   4.459
 4630SOL     OW14788   1.715   6.758   2.345
 4630SOL    HW114789   1.765   6.792   2.425
 4630SOL    HW214790   1.702   6.659   2.354
 4631SOL     OW14791   1.971   0.357   2.788
 4631SOL    HW114792   1.984   0.400   2.877
 4631SOL    HW214793   1.957   0.427   2.718
 4632SOL     OW14794   6.181   5.692   4.207
 4632SOL    HW114795   6.125   5.732   4.280
 4632SOL    HW214796   6.219   5.605   4.239
 4633SOL     OW14797   5.204   2.454   5.666
 4633SOL    HW114798   5.133   2.506   5.619
 4633SOL    HW214799   5.188   2.456   5.765
 4634SOL     OW14800   3.386   4.472   0.861
 4634SOL    HW114801   3.306   4.532   0.864
 4634SOL    HW214802   3.356   4.377   0.864
 4635SOL     OW14803   5.817   3.411   1.830
 4635SOL    HW114804   5.739   3.439   1.886
 4635SOL    HW214805   5.874   3.348   1.882
 4636SOL     OW14806   0.970   5.695   1.360
 4636SOL    HW114807   0.897   5.628   1.372
 4636SOL    HW214808   0.963   5.735   1.268
 4637SOL     OW14809   1.560   0.753   4.214
 4637SOL    HW114810   1.543   0.691   4.291
 4637SOL    HW214811   1.547   0.704   4.128
 4638SOL     OW14812   4.300   4.631   6.001
 4638SOL    HW114813   4.375   4.596   5.944
 4638SOL    HW214814   4.335   4.703   6.061
 4639SOL     OW14815   0.260   2.302   4.862
 4639SOL    HW114816   0.256   2.402   4.871
 4639SOL    HW214817   0.241   2.276   4.767
 4640SOL     OW14818   6.179   4.647   2.621
 4640SOL    HW114819   6.255   4.608   2.569
 4640SOL    HW214820   6.208   4.731   2.667
 4641SOL     OW14821   2.975   3.343   5.672
 4641SOL    HW114822   2.951   3.433   5.636
 4641SOL    HW214823   2.942   3.335   5.766
 4642SOL     OW14824   6.480   5.838   3.846
 4642SOL    HW114825   6.514   5.770   3.781
 4642SOL    HW214826   6.419   5.902   3.800
 4643SOL     OW14827   3.862   2.965   0.586
 4643SOL    HW114828   3.862   3.063   0.605
 4643SOL    HW214829   3.952   2.927   0.610
 4644SOL     OW14830   3.408   4.837   5.256
 4644SOL    HW114831   3.418   4.915   5.318
 4644SOL    HW214832   3.321   4.791   5.274
 4645SOL     OW14833   1.418   6.369   4.899
 4645SOL    HW114834   1.503   6.386   4.949
 4645SOL    HW214835   1.386   6.276   4.919
 4646SOL     OW14836   3.785   0.545   1.446
 4646SOL    HW114837   3.809   0.598   1.528
 4646SOL    HW214838   3.820   0.592   1.365
 4647SOL     OW14839   6.933   0.666   4.990
 4647SOL    HW114840   6.888   0.747   5.027
 4647SOL    HW214841   6.926   0.590   5.054
 4648SOL     OW14842   2.093   5.191   2.728
 4648SOL    HW114843   2.022   5.120   2.718
 4648SOL    HW214844   2.088   5.229   2.821
 4649SOL     OW14845   5.801   6.461   6.121
 4649SOL    HW114846   5.875   6.413   6.168
 4649SOL    HW214847   5.714   6.414   6.139
 4650SOL     OW14848   6.610   4.522   1.406
 4650SOL    HW114849   6.696   4.501   1.360
 4650SOL    HW214850   6.597   4.459   1.483
 4651SOL     OW14851   6.031   2.553   2.063
 4651SOL    HW114852   6.049   2.458   2.037
 4651SOL    HW214853   6.117   2.601   2.076
 4652SOL     OW14854   0.001   5.939   5.426
 4652SOL    HW114855   6.925   5.939   5.468
 4652SOL    HW214856   0.069   5.958   5.496
 4653SOL     OW14857   0.285   5.440   6.590
 4653SOL    HW114858   0.211   5.454   6.656
 4653SOL    HW214859   0.251   5.389   6.511
 4654SOL     OW14860   1.035   1.735   6.548
 4654SOL    HW114861   0.982   1.651   6.540
 4654SOL    HW214862   1.132   1.714   6.547
 4655SOL     OW14863   0.306   5.372   3.559
 4655SOL    HW114864   0.221   5.357   3.509
 4655SOL    HW214865   0.371   5.421   3.500
 4656SOL     OW14866   2.453   6.669   2.992
 4656SOL    HW114867   2.397   6.606   3.046
 4656SOL    HW214868   2.475   6.749   3.047
 4657SOL     OW14869   6.130   0.478   6.355
 4657SOL    HW114870   6.091   0.503   6.444
 4657SOL    HW214871   6.077   0.404   6.314
 4658SOL     OW14872   5.098   0.890   3.770
 4658SOL    HW114873   5.014   0.923   3.726
 4658SOL    HW214874   5.161   0.855   3.701
 4659SOL     OW14875   1.989   2.777   4.671
 4659SOL    HW114876   2.078   2.813   4.643
 4659SOL    HW214877   1.967   2.809   4.763
 4660SOL     OW14878   6.663   1.710   5.364
 4660SOL    HW114879   6.704   1.774   5.298
 4660SOL    HW214880   6.715   1.624   5.363
 4661SOL     OW14881   3.975   3.072   3.311
 4661SOL    HW114882   3.927   2.995   3.270
 4661SOL    HW214883   3.951   3.078   3.408
 4662SOL     OW14884   5.686   0.017   3.776
 4662SOL    HW114885   5.608   6.972   3.795
 4662SOL    HW214886   5.673   0.104   3.824
 4663SOL     OW14887   0.991   2.466   1.895
 4663SOL    HW114888   0.940   2.535   1.947
 4663SOL    HW214889   1.080   2.504   1.868
 4664SOL     OW14890   3.593   4.055   0.156
 4664SOL    HW114891   3.584   4.131   0.220
 4664SOL    HW214892   3.575   3.969   0.203
 4665SOL     OW14893   5.329   0.402   6.811
 4665SOL    HW114894   5.234   0.413   6.783
 4665SOL    HW214895   5.376   0.490   6.806
 4666SOL     OW14896   1.976   1.880   0.049
 4666SOL    HW114897   2.034   1.828   0.112
 4666SOL    HW214898   1.892   1.907   0.097
 4667SOL     OW14899   0.831   5.399   4.614
 4667SOL    HW114900   0.766   5.334   4.653
 4667SOL    HW214901   0.805   5.419   4.519
 4668SOL     OW14902   5.020   0.951   5.697
 4668SOL    HW114903   4.966   0.868   5.705
 4668SOL    HW214904   4.962   1.031   5.713
 4669SOL     OW14905   2.670   1.008   1.638
 4669SOL    HW114906   2.703   1.046   1.724
 4669SOL    HW214907   2.721   1.049   1.562
 4670SOL     OW14908   2.535   1.733   4.999
 4670SOL    HW114909   2.469   1.658   4.997
 4670SOL    HW214910   2.490   1.819   4.974
 4671SOL     OW14911   5.500   2.266   1.665
 4671SOL    HW114912   5.487   2.176   1.623
 4671SOL    HW214913   5.439   2.275   1.744
 4672SOL     OW14914   2.829   2.926   5.477
 4672SOL    HW114915   2.914   2.963   5.514
 4672SOL    HW214916   2.797   2.985   5.403
 4673SOL     OW14917   4.638   0.689   2.374
 4673SOL    HW114918   4.577   0.647   2.306
 4673SOL    HW214919   4.583   0.731   2.446
 4674SOL     OW14920   4.990   6.298   4.903
 4674SOL    HW114921   4.970   6.308   4.806
 4674SOL    HW214922   5.046   6.217   4.918
 4675SOL     OW14923   1.078   4.076   6.324
 4675SOL    HW114924   1.077   4.176   6.325
 4675SOL    HW214925   1.011   4.043   6.257
 4676SOL     OW14926   0.599   4.652   4.032
 4676SOL    HW114927   0.587   4.562   3.991
 4676SOL    HW214928   0.570   4.649   4.128
 4677SOL     OW14929   1.644   2.908   0.581
 4677SOL    HW114930   1.659   2.873   0.673
 4677SOL    HW214931   1.546   2.901   0.558
 4678SOL     OW14932   0.903   4.576   2.067
 4678SOL    HW114933   0.992   4.554   2.029
 4678SOL    HW214934   0.860   4.649   2.013
 4679SOL     OW14935   4.204   6.693   1.867
 4679SOL    HW114936   4.255   6.665   1.948
 4679SOL    HW214937   4.155   6.778   1.887
 4680SOL     OW14938   2.260   0.372   6.905
 4680SOL    HW114939   2.310   0.307   6.848
 4680SOL    HW214940   2.270   0.465   6.867
 4681SOL     OW14941   5.211   5.783   2.277
 4681SOL    HW114942   5.230   5.782   2.375
 4681SOL    HW214943   5.251   5.703   2.234
 4682SOL     OW14944   3.657   3.961   5.995
 4682SOL    HW114945   3.564   3.925   6.001
 4682SOL    HW214946   3.667   4.038   6.058
 4683SOL     OW14947   6.138   4.890   3.713
 4683SOL    HW114948   6.127   4.989   3.720
 4683SOL    HW214949   6.088   4.856   3.633
 4684SOL     OW14950   5.578   6.412   6.460
 4684SOL    HW114951   5.521   6.423   6.542
 4684SOL    HW214952   5.674   6.401   6.487
 4685SOL     OW14953   3.389   4.160   4.056
 4685SOL    HW114954   3.428   4.231   3.997
 4685SOL    HW214955   3.395   4.188   4.151
 4686SOL     OW14956   1.523   0.087   6.896
 4686SOL    HW114957   1.552   0.053   6.806
 4686SOL    HW214958   1.452   0.157   6.885
 4687SOL     OW14959   2.255   0.437   2.781
 4687SOL    HW114960   2.237   0.513   2.719
 4687SOL    HW214961   2.178   0.427   2.844
 4688SOL     OW14962   5.002   2.642   6.079
 4688SOL    HW114963   4.950   2.710   6.027
 4688SOL    HW214964   4.942   2.564   6.101
 4689SOL     OW14965   6.720   0.977   0.878
 4689SOL    HW114966   6.783   1.053   0.858
 4689SOL    HW214967   6.676   0.993   0.966
 4690SOL     OW14968   3.011   2.492   1.048
 4690SOL    HW114969   2.945   2.416   1.049
 4690SOL    HW214970   2.981   2.563   1.112
 4691SOL     OW14971   6.598   3.675   1.887
 4691SOL    HW114972   6.607   3.618   1.969
 4691SOL    HW214973   6.516   3.732   1.895
 4692SOL     OW14974   5.219   2.938   3.094
 4692SOL    HW114975   5.225   3.002   3.171
 4692SOL    HW214976   5.274   2.857   3.114
 4693SOL     OW14977   1.066   0.620   2.273
 4693SOL    HW114978   1.107   0.576   2.353
 4693SOL    HW214979   1.069   0.719   2.284
 4694SOL     OW14980   2.046   0.361   6.347
 4694SOL    HW114981   2.062   0.444   6.401
 4694SOL    HW214982   2.027   0.285   6.409
 4695SOL     OW14983   2.492   5.103   2.349
 4695SOL    HW114984   2.439   5.184   2.373
 4695SOL    HW214985   2.554   5.124   2.273
 4696SOL     OW14986   1.196   6.362   5.915
 4696SOL    HW114987   1.122   6.382   5.851
 4696SOL    HW214988   1.165   6.293   5.981
 4697SOL     OW14989   4.303   5.742   1.403
 4697SOL    HW114990   4.322   5.662   1.346
 4697SOL    HW214991   4.380   5.758   1.465
 4698SOL     OW14992   5.768   1.166   4.876
 4698SOL    HW114993   5.726   1.089   4.924
 4698SOL    HW214994   5.786   1.139   4.781
 4699SOL     OW14995   1.517   1.030   2.932
 4699SOL    HW114996   1.558   1.104   2.986
 4699SOL    HW214997   1.558   1.030   2.840
 4700SOL     OW14998   6.108   1.764   2.888
 4700SOL    HW114999   6.026   1.800   2.843
 4700SOL    HW215000   6.119   1.668   2.864
 4701SOL     OW15001   3.200   2.568   1.721
 4701SOL    HW115002   3.112   2.568   1.769
 4701SOL    HW215003   3.259   2.639   1.760
 4702SOL     OW15004   6.016   5.169   6.913
 4702SOL    HW115005   6.082   5.182   6.988
 4702SOL    HW215006   5.933   5.128   6.950
 4703SOL     OW15007   0.615   5.163   3.250
 4703SOL    HW115008   0.533   5.164   3.192
 4703SOL    HW215009   0.598   5.105   3.330
 4704SOL     OW15010   1.290   4.817   4.042
 4704SOL    HW115011   1.232   4.898   4.054
 4704SOL    HW215012   1.370   4.842   3.987
 4705SOL     OW15013   3.647   1.956   1.975
 4705SOL    HW115014   3.629   2.054   1.974
 4705SOL    HW215015   3.672   1.926   1.882
 4706SOL     OW15016   2.595   0.315   1.014
 4706SOL    HW115017   2.532   0.342   1.086
 4706SOL    HW215018   2.566   0.355   0.927
 4707SOL     OW15019   1.543   5.423   2.188
 4707SOL    HW115020   1.584   5.493   2.129
 4707SOL    HW215021   1.601   5.410   2.268
 4708SOL     OW15022   1.573   3.198   5.046
 4708SOL    HW115023   1.586   3.297   5.054
 4708SOL    HW215024   1.659   3.151   5.067
 4709SOL     OW15025   5.741   3.846   5.599
 4709SOL    HW115026   5.792   3.908   5.659
 4709SOL    HW215027   5.785   3.842   5.510
 4710SOL     OW15028   6.120   5.895   5.223
 4710SOL    HW115029   6.140   5.807   5.267
 4710SOL    HW215030   6.069   5.880   5.138
 4711SOL     OW15031   4.813   4.424   2.236
 4711SOL    HW115032   4.717   4.438   2.262
 4711SOL    HW215033   4.816   4.370   2.152
 4712SOL     OW15034   4.595   3.990   5.670
 4712SOL    HW115035   4.530   4.067   5.674
 4712SOL    HW215036   4.545   3.904   5.679
 4713SOL     OW15037   5.224   3.890   1.023
 4713SOL    HW115038   5.133   3.916   0.994
 4713SOL    HW215039   5.248   3.940   1.107
 4714SOL     OW15040   4.389   2.121   6.608
 4714SOL    HW115041   4.324   2.124   6.531
 4714SOL    HW215042   4.368   2.194   6.672
 4715SOL     OW15043   6.588   1.392   1.705
 4715SOL    HW115044   6.660   1.420   1.641
 4715SOL    HW215045   6.618   1.409   1.799
 4716SOL     OW15046   3.611   4.653   5.873
 4716SOL    HW115047   3.660   4.632   5.788
 4716SOL    HW215048   3.591   4.751   5.876
 4717SOL     OW15049   2.066   4.774   5.565
 4717SOL    HW115050   2.025   4.691   5.528
 4717SOL    HW215051   2.078   4.764   5.664
 4718SOL     OW15052   4.701   4.670   1.273
 4718SOL    HW115053   4.752   4.674   1.187
 4718SOL    HW215054   4.682   4.574   1.296
 4719SOL     OW15055   6.704   4.308   3.834
 4719SOL    HW115056   6.721   4.386   3.774
 4719SOL    HW215057   6.779   4.243   3.827
 4720SOL     OW15058   2.676   3.346   6.993
 4720SOL    HW115059   2.745   3.274   7.002
 4720SOL    HW215060   2.666   3.371   6.897
 4721SOL     OW15061   0.544   2.696   3.441
 4721SOL    HW115062   0.514   2.614   3.491
 4721SOL    HW215063   0.564   2.769   3.506
 4722SOL     OW15064   0.788   5.819   6.892
 4722SOL    HW115065   0.689   5.823   6.877
 4722SOL    HW215066   0.809   5.745   6.956
 4723SOL     OW15067   3.042   4.580   6.678
 4723SOL    HW115068   3.121   4.590   6.618
 4723SOL    HW215069   3.012   4.670   6.709
 4724SOL     OW15070   0.815   0.230   4.330
 4724SOL    HW115071   0.830   0.271   4.420
 4724SOL    HW215072   0.894   0.249   4.271
 4725SOL     OW15073   5.882   5.060   1.221
 4725SOL    HW115074   5.855   5.032   1.312
 4725SOL    HW215075   5.972   5.021   1.199
 4726SOL     OW15076   1.966   2.877   5.562
 4726SOL    HW115077   1.906   2.929   5.502
 4726SOL    HW215078   1.980   2.927   5.647
 4727SOL     OW15079   6.528   4.687   1.014
 4727SOL    HW115080   6.555   4.760   0.951
 4727SOL    HW215081   6.609   4.653   1.062
 4728SOL     OW15082   5.847   1.673   4.419
 4728SOL    HW115083   5.867   1.753   4.476
 4728SOL    HW215084   5.750   1.650   4.427
 4729SOL     OW15085   5.679   1.272   1.811
 4729SOL    HW115086   5.664   1.351   1.871
 4729SOL    HW215087   5.644   1.189   1.855
 4730SOL     OW15088   3.918   0.311   3.264
 4730SOL    HW115089   3.857   0.331   3.188
 4730SOL    HW215090   3.955   0.396   3.301
 4731SOL     OW15091   3.330   6.679   1.452
 4731SOL    HW115092   3.383   6.704   1.533
 4731SOL    HW215093   3.257   6.745   1.437
 4732SOL     OW15094   7.004   4.907   4.499
 4732SOL    HW115095   0.005   4.983   4.436
 4732SOL    HW215096   0.068   4.896   4.559
 4733SOL     OW15097   1.822   4.290   2.527
 4733SOL    HW115098   1.873   4.224   2.471
 4733SOL    HW215099   1.727   4.261   2.535
 4734SOL     OW15100   4.674   4.212   0.121
 4734SOL    HW115101   4.710   4.187   0.031
 4734SOL    HW215102   4.604   4.283   0.110
 4735SOL     OW15103   0.569   0.267   5.115
 4735SOL    HW115104   0.509   0.222   5.048
 4735SOL    HW215105   0.660   0.226   5.110
 4736SOL     OW15106   6.239   1.433   4.048
 4736SOL    HW115107   6.264   1.530   4.047
 4736SOL    HW215108   6.319   1.379   4.075
 4737SOL     OW15109   1.763   4.931   0.472
 4737SOL    HW115110   1.837   4.864   0.475
 4737SOL    HW215111   1.732   4.941   0.377
 4738SOL     OW15112   0.814   5.712   3.840
 4738SOL    HW115113   0.818   5.801   3.794
 4738SOL    HW215114   0.820   5.726   3.939
 4739SOL     OW15115   5.976   3.283   3.141
 4739SOL    HW115116   5.907   3.278   3.068
 4739SOL    HW215117   6.067   3.266   3.102
 4740SOL     OW15118   1.288   0.052   0.566
 4740SOL    HW115119   1.365   0.104   0.604
 4740SOL    HW215120   1.279   0.073   0.468
 4741SOL     OW15121   5.635   4.566   0.806
 4741SOL    HW115122   5.613   4.608   0.894
 4741SOL    HW215123   5.673   4.475   0.822
 4742SOL     OW15124   2.665   5.424   2.541
 4742SOL    HW115125   2.676   5.446   2.444
 4742SOL    HW215126   2.583   5.368   2.554
 4743SOL     OW15127   2.643   3.717   0.732
 4743SOL    HW115128   2.612   3.627   0.763
 4743SOL    HW215129   2.716   3.705   0.664
 4744SOL     OW15130   2.460   2.041   5.719
 4744SOL    HW115131   2.384   1.991   5.678
 4744SOL    HW215132   2.468   2.018   5.815
 4745SOL     OW15133   4.301   5.023   4.983
 4745SOL    HW115134   4.289   5.122   4.976
 4745SOL    HW215135   4.321   4.985   4.893
 4746SOL     OW15136   5.830   1.083   1.442
 4746SOL    HW115137   5.916   1.127   1.469
 4746SOL    HW215138   5.759   1.153   1.432
 4747SOL     OW15139   0.594   2.794   2.017
 4747SOL    HW115140   0.537   2.860   1.967
 4747SOL    HW215141   0.577   2.702   1.982
 4748SOL     OW15142   2.137   0.568   0.900
 4748SOL    HW115143   2.136   0.601   0.806
 4748SOL    HW215144   2.229   0.533   0.922
 4749SOL     OW15145   2.878   0.115   6.381
 4749SOL    HW115146   2.811   0.069   6.439
 4749SOL    HW215147   2.954   0.148   6.437
 4750SOL     OW15148   0.836   1.803   4.394
 4750SOL    HW115149   0.765   1.872   4.404
 4750SOL    HW215150   0.914   1.841   4.346
 4751SOL     OW15151   1.100   3.712   5.599
 4751SOL    HW115152   1.162   3.780   5.559
 4751SOL    HW215153   1.131   3.620   5.575
 4752SOL     OW15154   1.920   6.042   1.232
 4752SOL    HW115155   1.971   6.098   1.298
 4752SOL    HW215156   1.923   6.084   1.142
 4753SOL     OW15157   0.617   6.680   5.689
 4753SOL    HW115158   0.649   6.615   5.619
 4753SOL    HW215159   0.588   6.765   5.645
 4754SOL     OW15160   1.001   1.062   6.082
 4754SOL    HW115161   0.973   1.107   6.167
 4754SOL    HW215162   0.953   0.974   6.074
 4755SOL     OW15163   3.257   0.328   1.539
 4755SOL    HW115164   3.354   0.343   1.556
 4755SOL    HW215165   3.211   0.416   1.529
 4756SOL     OW15166   5.258   2.782   1.411
 4756SOL    HW115167   5.275   2.797   1.509
 4756SOL    HW215168   5.306   2.699   1.381
 4757SOL     OW15169   2.562   1.465   1.330
 4757SOL    HW115170   2.524   1.512   1.250
 4757SOL    HW215171   2.617   1.528   1.383
 4758SOL     OW15172   5.372   3.418   5.791
 4758SOL    HW115173   5.392   3.511   5.761
 4758SOL    HW215174   5.413   3.402   5.880
 4759SOL     OW15175   6.014   4.258   6.153
 4759SOL    HW115176   6.073   4.183   6.183
 4759SOL    HW215177   5.927   4.254   6.202
 4760SOL     OW15178   1.989   2.740   0.625
 4760SOL    HW115179   1.963   2.801   0.550
 4760SOL    HW215180   2.069   2.777   0.672
 4761SOL     OW15181   1.699   5.723   5.796
 4761SOL    HW115182   1.702   5.653   5.724
 4761SOL    HW215183   1.605   5.755   5.808
 4762SOL     OW15184   3.935   6.759   2.409
 4762SOL    HW115185   3.888   6.714   2.484
 4762SOL    HW215186   3.965   6.691   2.342
 4763SOL     OW15187   5.778   5.474   5.132
 4763SOL    HW115188   5.786   5.453   5.034
 4763SOL    HW215189   5.765   5.572   5.144
 4764SOL     OW15190   3.740   3.712   4.025
 4764SOL    HW115191   3.773   3.706   4.119
 4764SOL    HW215192   3.725   3.620   3.988
 4765SOL     OW15193   6.378   5.075   5.951
 4765SOL    HW115194   6.389   5.172   5.926
 4765SOL    HW215195   6.317   5.031   5.886
 4766SOL     OW15196   3.381   0.794   3.551
 4766SOL    HW115197   3.365   0.733   3.628
 4766SOL    HW215198   3.425   0.744   3.477
 4767SOL     OW15199   3.714   6.883   6.942
 4767SOL    HW115200   3.621   6.917   6.927
 4767SOL    HW215201   3.725   6.795   6.896
 4768SOL     OW15202   1.320   1.107   5.155
 4768SOL    HW115203   1.336   1.143   5.063
 4768SOL    HW215204   1.228   1.131   5.185
 4769SOL     OW15205   3.831   1.031   1.576
 4769SOL    HW115206   3.781   1.049   1.661
 4769SOL    HW215207   3.925   1.063   1.587
 4770SOL     OW15208   1.926   0.513   3.837
 4770SOL    HW115209   1.904   0.461   3.754
 4770SOL    HW215210   1.845   0.564   3.867
 4771SOL     OW15211   4.080   4.310   5.349
 4771SOL    HW115212   4.120   4.362   5.273
 4771SOL    HW215213   4.093   4.212   5.332
 4772SOL     OW15214   2.326   3.476   6.868
 4772SOL    HW115215   2.366   3.389   6.898
 4772SOL    HW215216   2.228   3.463   6.849
 4773SOL     OW15217   0.242   5.446   4.039
 4773SOL    HW115218   0.263   5.518   3.973
 4773SOL    HW215219   0.189   5.374   3.993
 4774SOL     OW15220   1.657   4.388   6.696
 4774SOL    HW115221   1.609   4.307   6.661
 4774SOL    HW215222   1.715   4.426   6.624
 4775SOL     OW15223   2.149   1.956   2.288
 4775SOL    HW115224   2.229   2.016   2.294
 4775SOL    HW215225   2.160   1.893   2.212
 4776SOL     OW15226   4.097   4.888   2.236
 4776SOL    HW115227   4.003   4.865   2.260
 4776SOL    HW215228   4.098   4.941   2.151
 4777SOL     OW15229   2.949   3.667   1.573
 4777SOL    HW115230   3.024   3.717   1.616
 4777SOL    HW215231   2.985   3.606   1.503
 4778SOL     OW15232   5.148   3.971   2.852
 4778SOL    HW115233   5.148   3.923   2.940
 4778SOL    HW215234   5.204   3.921   2.787
 4779SOL     OW15235   4.697   0.922   2.692
 4779SOL    HW115236   4.626   0.864   2.652
 4779SOL    HW215237   4.655   0.983   2.759
 4780SOL     OW15238   1.960   0.349   5.452
 4780SOL    HW115239   1.913   0.287   5.388
 4780SOL    HW215240   1.898   0.422   5.479
 4781SOL     OW15241   2.388   5.737   2.869
 4781SOL    HW115242   2.341   5.786   2.944
 4781SOL    HW215243   2.472   5.785   2.846
 4782SOL     OW15244   5.841   5.728   0.369
 4782SOL    HW115245   5.938   5.728   0.344
 4782SOL    HW215246   5.799   5.814   0.340
 4783SOL     OW15247   6.320   3.849   2.295
 4783SOL    HW115248   6.289   3.756   2.276
 4783SOL    HW215249   6.241   3.908   2.310
 4784SOL     OW15250   5.439   4.416   5.212
 4784SOL    HW115251   5.451   4.387   5.117
 4784SOL    HW215252   5.356   4.470   5.220
 4785SOL     OW15253   5.847   6.770   0.591
 4785SOL    HW115254   5.778   6.840   0.578
 4785SOL    HW215255   5.860   6.754   0.689
 4786SOL     OW15256   1.230   3.294   1.872
 4786SOL    HW115257   1.199   3.381   1.910
 4786SOL    HW215258   1.282   3.244   1.940
 4787SOL     OW15259   4.506   2.242   2.989
 4787SOL    HW115260   4.431   2.189   3.028
 4787SOL    HW215261   4.470   2.311   2.926
 4788SOL     OW15262   2.103   6.670   5.256
 4788SOL    HW115263   2.133   6.651   5.349
 4788SOL    HW215264   2.155   6.615   5.192
 4789SOL     OW15265   5.371   6.623   0.448
 4789SOL    HW115266   5.284   6.672   0.454
 4789SOL    HW215267   5.363   6.547   0.384
 4790SOL     OW15268   5.345   0.167   6.631
 4790SOL    HW115269   5.425   0.107   6.628
 4790SOL    HW215270   5.367   0.249   6.684
 4791SOL     OW15271   4.652   1.749   3.226
 4791SOL    HW115272   4.684   1.755   3.131
 4791SOL    HW215273   4.684   1.663   3.266
 4792SOL     OW15274   3.327   2.287   1.239
 4792SOL    HW115275   3.371   2.322   1.156
 4792SOL    HW215276   3.287   2.363   1.290
 4793SOL     OW15277   0.849   0.273   6.730
 4793SOL    HW115278   0.858   0.286   6.631
 4793SOL    HW215279   0.922   0.213   6.762
 4794SOL     OW15280   4.859   1.216   1.834
 4794SOL    HW115281   4.795   1.226   1.758
 4794SOL    HW215282   4.906   1.303   1.850
 4795SOL     OW15283   6.002   2.821   4.599
 4795SOL    HW115284   6.062   2.853   4.672
 4795SOL    HW215285   6.031   2.730   4.570
 4796SOL     OW15286   5.679   3.691   0.778
 4796SOL    HW115287   5.634   3.757   0.839
 4796SOL    HW215288   5.612   3.653   0.715
 4797SOL     OW15289   0.742   4.979   4.644
 4797SOL    HW115290   0.839   4.968   4.667
 4797SOL    HW215291   0.717   5.076   4.650
 4798SOL     OW15292   6.555   5.012   5.747
 4798SOL    HW115293   6.649   5.045   5.754
 4798SOL    HW215294   6.513   5.011   5.837
 4799SOL     OW15295   4.186   0.945   4.882
 4799SOL    HW115296   4.145   0.886   4.950
 4799SOL    HW215297   4.280   0.915   4.863
 4800SOL     OW15298   2.018   2.836   3.926
 4800SOL    HW115299   2.112   2.833   3.891
 4800SOL    HW215300   2.013   2.898   4.005
 4801SOL     OW15301   0.901   2.507   0.668
 4801SOL    HW115302   0.875   2.501   0.764
 4801SOL    HW215303   0.868   2.593   0.630
 4802SOL     OW15304   1.974   0.450   1.719
 4802SOL    HW115305   1.885   0.458   1.765
 4802SOL    HW215306   1.962   0.404   1.631
 4803SOL     OW15307   0.921   0.427   1.000
 4803SOL    HW115308   0.842   0.389   1.048
 4803SOL    HW215309   0.989   0.458   1.067
 4804SOL     OW15310   3.892   5.633   6.933
 4804SOL    HW115311   3.797   5.609   6.910
 4804SOL    HW215312   3.950   5.552   6.925
 4805SOL     OW15313   0.209   0.529   1.419
 4805SOL    HW115314   0.116   0.517   1.453
 4805SOL    HW215315   0.207   0.584   1.335
 4806SOL     OW15316   6.902   2.500   3.772
 4806SOL    HW115317   6.956   2.575   3.733
 4806SOL    HW215318   6.870   2.440   3.699
 4807SOL     OW15319   0.488   6.663   2.085
 4807SOL    HW115320   0.562   6.614   2.039
 4807SOL    HW215321   0.467   6.618   2.172
 4808SOL     OW15322   5.579   2.879   1.152
 4808SOL    HW115323   5.506   2.811   1.150
 4808SOL    HW215324   5.580   2.931   1.066
 4809SOL     OW15325   3.900   0.047   6.994
 4809SOL    HW115326   3.831   6.996   6.966
 4809SOL    HW215327   3.856   0.126   0.021
 4810SOL     OW15328   1.473   0.243   0.741
 4810SOL    HW115329   1.438   0.336   0.754
 4810SOL    HW215330   1.567   0.248   0.708
 4811SOL     OW15331   5.480   5.042   3.317
 4811SOL    HW115332   5.565   4.996   3.291
 4811SOL    HW215333   5.408   4.974   3.331
 4812SOL     OW15334   6.492   5.301   4.248
 4812SOL    HW115335   6.516   5.212   4.287
 4812SOL    HW215336   6.563   5.329   4.183
 4813SOL     OW15337   5.733   3.300   3.024
 4813SOL    HW115338   5.685   3.381   2.989
 4813SOL    HW215339   5.668   3.243   3.073
 4814SOL     OW15340   6.456   3.375   1.476
 4814SOL    HW115341   6.457   3.310   1.552
 4814SOL    HW215342   6.361   3.403   1.457
 4815SOL     OW15343   4.395   0.631   3.371
 4815SOL    HW115344   4.402   0.569   3.293
 4815SOL    HW215345   4.370   0.723   3.339
 4816SOL     OW15346   5.430   4.502   3.540
 4816SOL    HW115347   5.335   4.497   3.568
 4816SOL    HW215348   5.458   4.598   3.532
 4817SOL     OW15349   0.142   1.740   0.031
 4817SOL    HW115350   0.121   1.662   6.987
 4817SOL    HW215351   0.133   1.712   0.126
 4818SOL     OW15352   0.350   6.135   3.657
 4818SOL    HW115353   0.310   6.078   3.729
 4818SOL    HW215354   0.343   6.231   3.683
 4819SOL     OW15355   2.339   3.240   0.728
 4819SOL    HW115356   2.360   3.275   0.819
 4819SOL    HW215357   2.424   3.215   0.682
 4820SOL     OW15358   0.454   2.805   2.694
 4820SOL    HW115359   0.508   2.764   2.768
 4820SOL    HW215360   0.516   2.840   2.624
 4821SOL     OW15361   0.694   5.556   3.584
 4821SOL    HW115362   0.719   5.623   3.654
 4821SOL    HW215363   0.681   5.467   3.627
 4822SOL     OW15364   2.455   4.471   4.237
 4822SOL    HW115365   2.531   4.533   4.255
 4822SOL    HW215366   2.419   4.437   4.324
 4823SOL     OW15367   2.235   2.890   0.695
 4823SOL    HW115368   2.264   2.813   0.752
 4823SOL    HW215369   2.225   2.971   0.753
 4824SOL     OW15370   6.350   1.581   0.036
 4824SOL    HW115371   6.275   1.614   6.996
 4824SOL    HW215372   6.339   1.614   0.130
 4825SOL     OW15373   1.392   6.711   3.794
 4825SOL    HW115374   1.436   6.801   3.804
 4825SOL    HW215375   1.431   6.647   3.861
 4826SOL     OW15376   3.614   6.067   1.211
 4826SOL    HW115377   3.598   6.121   1.129
 4826SOL    HW215378   3.688   6.002   1.195
 4827SOL     OW15379   6.715   1.207   1.341
 4827SOL    HW115380   6.761   1.286   1.381
 4827SOL    HW215381   6.684   1.146   1.414
 4828SOL     OW15382   4.915   1.169   5.846
 4828SOL    HW115383   4.824   1.199   5.875
 4828SOL    HW215384   4.982   1.193   5.917
 4829SOL     OW15385   4.251   6.344   5.530
 4829SOL    HW115386   4.252   6.377   5.436
 4829SOL    HW215387   4.168   6.375   5.576
 4830SOL     OW15388   1.715   6.425   3.684
 4830SOL    HW115389   1.721   6.525   3.689
 4830SOL    HW215390   1.802   6.388   3.653
 4831SOL     OW15391   3.166   4.572   5.506
 4831SOL    HW115392   3.254   4.593   5.549
 4831SOL    HW215393   3.171   4.589   5.408
 4832SOL     OW15394   4.084   3.720   4.716
 4832SOL    HW115395   4.077   3.819   4.716
 4832SOL    HW215396   4.087   3.686   4.622
 4833SOL     OW15397   6.062   2.220   5.829
 4833SOL    HW115398   6.145   2.200   5.776
 4833SOL    HW215399   5.998   2.271   5.772
 4834SOL     OW15400   0.678   5.563   1.638
 4834SOL    HW115401   0.708   5.563   1.543
 4834SOL    HW215402   0.681   5.656   1.675
 4835SOL     OW15403   0.358   3.186   6.735
 4835SOL    HW115404   0.376   3.274   6.691
 4835SOL    HW215405   0.312   3.126   6.670
 4836SOL     OW15406   4.180   1.932   5.579
 4836SOL    HW115407   4.277   1.944   5.559
 4836SOL    HW215408   4.155   1.835   5.567
 4837SOL     OW15409   1.113   3.740   4.377
 4837SOL    HW115410   1.199   3.785   4.402
 4837SOL    HW215411   1.098   3.661   4.435
 4838SOL     OW15412   1.654   3.731   6.565
 4838SOL    HW115413   1.575   3.760   6.510
 4838SOL    HW215414   1.717   3.809   6.576
 4839SOL     OW15415   2.919   1.301   1.475
 4839SOL    HW115416   2.861   1.225   1.445
 4839SOL    HW215417   2.872   1.351   1.548
 4840SOL     OW15418   5.237   2.860   5.441
 4840SOL    HW115419   5.205   2.951   5.416
 4840SOL    HW215420   5.199   2.834   5.530
 4841SOL     OW15421   2.695   6.419   3.115
 4841SOL    HW115422   2.673   6.446   3.022
 4841SOL    HW215423   2.684   6.497   3.176
 4842SOL     OW15424   3.904   5.843   3.556
 4842SOL    HW115425   3.978   5.788   3.595
 4842SOL    HW215426   3.933   5.877   3.466
 4843SOL     OW15427   6.172   1.451   0.728
 4843SOL    HW115428   6.136   1.369   0.774
 4843SOL    HW215429   6.148   1.532   0.782
 4844SOL     OW15430   1.281   5.448   6.730
 4844SOL    HW115431   1.228   5.425   6.812
 4844SOL    HW215432   1.236   5.523   6.682
 4845SOL     OW15433   4.831   3.764   5.278
 4845SOL    HW115434   4.925   3.772   5.244
 4845SOL    HW215435   4.779   3.703   5.219
 4846SOL     OW15436   6.802   3.730   5.055
 4846SOL    HW115437   6.804   3.764   4.962
 4846SOL    HW215438   6.718   3.759   5.100
 4847SOL     OW15439   3.136   6.881   0.075
 4847SOL    HW115440   3.090   6.968   0.057
 4847SOL    HW215441   3.140   6.827   7.007
 4848SOL     OW15442   4.923   1.617   3.268
 4848SOL    HW115443   4.918   1.549   3.341
 4848SOL    HW215444   4.967   1.700   3.302
 4849SOL     OW15445   2.121   6.478   1.533
 4849SOL    HW115446   2.124   6.472   1.633
 4849SOL    HW215447   2.121   6.386   1.494
 4850SOL     OW15448   3.498   6.729   1.960
 4850SOL    HW115449   3.513   6.656   2.026
 4850SOL    HW215450   3.577   6.790   1.959
 4851SOL     OW15451   4.244   4.882   7.000
 4851SOL    HW115452   4.295   4.796   6.992
 4851SOL    HW215453   4.308   4.959   7.001
 4852SOL     OW15454   4.780   4.920   6.047
 4852SOL    HW115455   4.705   4.865   6.082
 4852SOL    HW215456   4.743   4.999   5.997
 4853SOL     OW15457   4.431   0.471   3.128
 4853SOL    HW115458   4.396   0.407   3.198
 4853SOL    HW215459   4.414   0.433   3.037
 4854SOL     OW15460   4.495   6.470   2.686
 4854SOL    HW115461   4.566   6.419   2.638
 4854SOL    HW215462   4.412   6.473   2.629
 4855SOL     OW15463   4.987   5.200   5.765
 4855SOL    HW115464   5.082   5.219   5.790
 4855SOL    HW215465   4.979   5.104   5.737
 4856SOL     OW15466   0.285   2.690   3.270
 4856SOL    HW115467   0.313   2.693   3.174
 4856SOL    HW215468   0.356   2.645   3.324
 4857SOL     OW15469   1.867   2.347   4.882
 4857SOL    HW115470   1.787   2.309   4.927
 4857SOL    HW215471   1.911   2.413   4.943
 4858SOL     OW15472   1.680   5.652   4.963
 4858SOL    HW115473   1.670   5.558   4.994
 4858SOL    HW215474   1.591   5.688   4.934
 4859SOL     OW15475   6.502   5.843   3.460
 4859SOL    HW115476   6.531   5.816   3.368
 4859SOL    HW215477   6.411   5.807   3.478
 4860SOL     OW15478   3.592   5.539   1.607
 4860SOL    HW115479   3.545   5.467   1.658
 4860SOL    HW215480   3.529   5.615   1.590
 4861SOL     OW15481   6.826   4.715   5.822
 4861SOL    HW115482   6.851   4.744   5.730
 4861SOL    HW215483   6.862   4.780   5.889
 4862SOL     OW15484   1.914   6.121   4.179
 4862SOL    HW115485   2.009   6.090   4.188
 4862SOL    HW215486   1.861   6.089   4.258
 4863SOL     OW15487   5.668   1.463   2.002
 4863SOL    HW115488   5.699   1.555   2.027
 4863SOL    HW215489   5.569   1.456   2.015
 4864SOL     OW15490   2.202   2.088   1.259
 4864SOL    HW115491   2.258   2.005   1.252
 4864SOL    HW215492   2.260   2.165   1.286
 4865SOL     OW15493   4.048   6.392   5.077
 4865SOL    HW115494   4.042   6.314   5.016
 4865SOL    HW215495   3.989   6.376   5.157
 4866SOL     OW15496   0.416   5.515   1.693
 4866SOL    HW115497   0.382   5.477   1.607
 4866SOL    HW215498   0.513   5.538   1.683
 4867SOL     OW15499   5.622   4.807   4.951
 4867SOL    HW115500   5.646   4.904   4.960
 4867SOL    HW215501   5.647   4.774   4.860
 4868SOL     OW15502   1.707   5.640   1.890
 4868SOL    HW115503   1.613   5.674   1.893
 4868SOL    HW215504   1.770   5.718   1.891
 4869SOL     OW15505   6.580   1.154   2.116
 4869SOL    HW115506   6.582   1.227   2.047
 4869SOL    HW215507   6.579   1.065   2.070
 4870SOL     OW15508   5.911   1.085   0.936
 4870SOL    HW115509   5.815   1.079   0.963
 4870SOL    HW215510   5.920   1.061   0.839
 4871SOL     OW15511   1.542   3.579   4.382
 4871SOL    HW115512   1.640   3.558   4.381
 4871SOL    HW215513   1.508   3.583   4.288
 4872SOL     OW15514   1.403   1.471   3.796
 4872SOL    HW115515   1.348   1.391   3.821
 4872SOL    HW215516   1.486   1.473   3.852
 4873SOL     OW15517   1.349   6.907   5.341
 4873SOL    HW115518   1.291   6.834   5.376
 4873SOL    HW215519   1.444   6.886   5.361
 4874SOL     OW15520   6.042   2.365   3.245
 4874SOL    HW115521   6.073   2.413   3.327
 4874SOL    HW215522   6.117   2.362   3.178
 4875SOL     OW15523   0.262   2.702   6.515
 4875SOL    HW115524   0.342   2.642   6.506
 4875SOL    HW215525   0.197   2.680   6.442
 4876SOL     OW15526   0.079   1.522   6.892
 4876SOL    HW115527   0.121   1.431   6.890
 4876SOL    HW215528   7.000   1.515   6.859
 4877SOL     OW15529   5.540   1.715   1.445
 4877SOL    HW115530   5.451   1.760   1.449
 4877SOL    HW215531   5.584   1.735   1.358
 4878SOL     OW15532   0.807   2.940   1.380
 4878SOL    HW115533   0.818   3.035   1.352
 4878SOL    HW215534   0.890   2.910   1.426
 4879SOL     OW15535   4.407   5.838   3.425
 4879SOL    HW115536   4.366   5.799   3.507
 4879SOL    HW215537   4.420   5.937   3.438
 4880SOL     OW15538   5.756   1.856   5.590
 4880SOL    HW115539   5.737   1.761   5.565
 4880SOL    HW215540   5.807   1.901   5.517
 4881SOL     OW15541   2.646   5.947   5.801
 4881SOL    HW115542   2.692   5.910   5.720
 4881SOL    HW215543   2.668   5.890   5.880
 4882SOL     OW15544   5.197   6.023   6.966
 4882SOL    HW115545   5.252   6.012   6.883
 4882SOL    HW215546   5.186   6.120   6.986
 4883SOL     OW15547   6.321   5.119   6.646
 4883SOL    HW115548   6.357   5.061   6.719
 4883SOL    HW215549   6.380   5.199   6.634
 4884SOL     OW15550   3.887   6.396   1.995
 4884SOL    HW115551   3.791   6.379   1.977
 4884SOL    HW215552   3.925   6.456   1.925
 4885SOL     OW15553   1.664   0.265   1.864
 4885SOL    HW115554   1.681   0.205   1.942
 4885SOL    HW215555   1.710   0.352   1.878
 4886SOL     OW15556   5.821   0.532   5.521
 4886SOL    HW115557   5.791   0.438   5.502
 4886SOL    HW215558   5.880   0.531   5.602
 4887SOL     OW15559   0.741   1.508   4.969
 4887SOL    HW115560   0.833   1.531   5.001
 4887SOL    HW215561   0.688   1.591   4.958
 4888SOL     OW15562   3.263   6.248   2.014
 4888SOL    HW115563   3.298   6.325   2.068
 4888SOL    HW215564   3.317   6.167   2.034
 4889SOL     OW15565   1.405   3.434   6.795
 4889SOL    HW115566   1.447   3.524   6.807
 4889SOL    HW215567   1.362   3.429   6.705
 4890SOL     OW15568   0.385   0.598   4.151
 4890SOL    HW115569   0.361   0.515   4.101
 4890SOL    HW215570   0.326   0.607   4.231
 4891SOL     OW15571   1.028   4.087   0.712
 4891SOL    HW115572   1.095   4.069   0.640
 4891SOL    HW215573   1.014   4.186   0.721
 4892SOL     OW15574   2.392   5.283   2.053
 4892SOL    HW115575   2.474   5.282   2.109
 4892SOL    HW215576   2.355   5.191   2.045
 4893SOL     OW15577   0.156   3.747   6.393
 4893SOL    HW115578   0.186   3.738   6.488
 4893SOL    HW215579   0.071   3.696   6.380
 4894SOL     OW15580   0.587   0.029   2.698
 4894SOL    HW115581   0.574   6.969   2.635
 4894SOL    HW215582   0.641   0.101   2.654
 4895SOL     OW15583   5.994   3.960   6.467
 4895SOL    HW115584   5.953   3.871   6.484
 4895SOL    HW215585   5.923   4.024   6.439
 4896SOL     OW15586   4.479   6.905   4.229
 4896SOL    HW115587   4.555   6.919   4.166
 4896SOL    HW215588   4.393   6.933   4.185
 4897SOL     OW15589   2.671   6.147   6.668
 4897SOL    HW115590   2.710   6.134   6.576
 4897SOL    HW215591   2.659   6.245   6.685
 4898SOL     OW15592   5.919   1.675   4.842
 4898SOL    HW115593   5.865   1.591   4.843
 4898SOL    HW215594   5.865   1.749   4.804
 4899SOL     OW15595   5.311   4.534   4.238
 4899SOL    HW115596   5.311   4.631   4.262
 4899SOL    HW215597   5.396   4.492   4.269
 4900SOL     OW15598   1.082   6.553   4.527
 4900SOL    HW115599   1.031   6.504   4.598
 4900SOL    HW215600   1.179   6.554   4.551
 4901SOL     OW15601   0.085   6.282   3.011
 4901SOL    HW115602   0.151   6.209   2.992
 4901SOL    HW215603   7.008   6.245   3.009
 4902SOL     OW15604   3.688   4.687   1.311
 4902SOL    HW115605   3.645   4.598   1.330
 4902SOL    HW215606   3.787   4.675   1.305
 4903SOL     OW15607   5.652   5.400   5.858
 4903SOL    HW115608   5.650   5.323   5.921
 4903SOL    HW215609   5.563   5.408   5.812
 4904SOL     OW15610   2.561   0.456   3.540
 4904SOL    HW115611   2.606   0.421   3.622
 4904SOL    HW215612   2.620   0.523   3.495
 4905SOL     OW15613   6.479   3.111   3.592
 4905SOL    HW115614   6.438   3.119   3.683
 4905SOL    HW215615   6.485   3.201   3.550
 4906SOL     OW15616   4.874   0.455   1.236
 4906SOL    HW115617   4.918   0.421   1.319
 4906SOL    HW215618   4.829   0.542   1.256
 4907SOL     OW15619   2.766   2.178   1.836
 4907SOL    HW115620   2.748   2.224   1.749
 4907SOL    HW215621   2.818   2.238   1.896
 4908SOL     OW15622   4.010   6.165   0.543
 4908SOL    HW115623   4.042   6.202   0.630
 4908SOL    HW215624   4.005   6.239   0.475
 4909SOL     OW15625   6.354   6.847   5.116
 4909SOL    HW115626   6.340   6.836   5.214
 4909SOL    HW215627   6.278   6.805   5.066
 4910SOL     OW15628   5.563   6.327   6.179
 4910SOL    HW115629   5.539   6.340   6.275
 4910SOL    HW215630   5.501   6.382   6.122
 4911SOL     OW15631   0.710   3.893   6.495
 4911SOL    HW115632   0.805   3.890   6.527
 4911SOL    HW215633   0.695   3.823   6.426
 4912SOL     OW15634   2.372   2.497   1.416
 4912SOL    HW115635   2.295   2.557   1.398
 4912SOL    HW215636   2.381   2.482   1.514
 4913SOL     OW15637   2.438   3.135   1.582
 4913SOL    HW115638   2.504   3.198   1.623
 4913SOL    HW215639   2.363   3.186   1.540
 4914SOL     OW15640   1.459   6.941   2.464
 4914SOL    HW115641   1.541   6.911   2.416
 4914SOL    HW215642   1.484   7.000   2.541
 4915SOL     OW15643   2.884   6.443   3.446
 4915SOL    HW115644   2.908   6.353   3.411
 4915SOL    HW215645   2.912   6.450   3.542
 4916SOL     OW15646   1.716   1.991   2.413
 4916SOL    HW115647   1.743   1.957   2.323
 4916SOL    HW215648   1.619   2.018   2.411
 4917SOL     OW15649   1.924   4.060   6.309
 4917SOL    HW115650   1.920   3.997   6.232
 4917SOL    HW215651   1.833   4.099   6.324
 4918SOL     OW15652   2.061   6.991   3.804
 4918SOL    HW115653   2.099   6.939   3.727
 4918SOL    HW215654   2.125   0.048   3.829
 4919SOL     OW15655   2.179   3.265   1.729
 4919SOL    HW115656   2.239   3.318   1.789
 4919SOL    HW215657   2.133   3.194   1.783
 4920SOL     OW15658   3.317   0.752   0.428
 4920SOL    HW115659   3.414   0.734   0.408
 4920SOL    HW215660   3.274   0.791   0.347
 4921SOL     OW15661   6.889   4.748   1.381
 4921SOL    HW115662   6.976   4.700   1.377
 4921SOL    HW215663   6.838   4.718   1.462
 4922SOL     OW15664   1.007   2.885   6.159
 4922SOL    HW115665   1.081   2.901   6.093
 4922SOL    HW215666   0.966   2.796   6.141
 4923SOL     OW15667   2.726   2.424   6.600
 4923SOL    HW115668   2.658   2.436   6.672
 4923SOL    HW215669   2.791   2.352   6.627
 4924SOL     OW15670   0.162   3.683   4.231
 4924SOL    HW115671   0.216   3.761   4.202
 4924SOL    HW215672   0.074   3.714   4.266
 4925SOL     OW15673   4.921   5.458   5.776
 4925SOL    HW115674   4.929   5.360   5.759
 4925SOL    HW215675   4.986   5.485   5.848
 4926SOL     OW15676   4.172   3.440   0.650
 4926SOL    HW115677   4.270   3.459   0.664
 4926SOL    HW215678   4.162   3.351   0.606
 4927SOL     OW15679   3.291   3.808   2.217
 4927SOL    HW115680   3.210   3.824   2.160
 4927SOL    HW215681   3.269   3.829   2.312
 4928SOL     OW15682   0.766   0.183   0.353
 4928SOL    HW115683   0.863   0.166   0.337
 4928SOL    HW215684   0.754   0.273   0.396
 4929SOL     OW15685   1.323   4.754   4.287
 4929SOL    HW115686   1.305   4.774   4.191
 4929SOL    HW215687   1.412   4.709   4.295
 4930SOL     OW15688   0.350   3.200   0.454
 4930SOL    HW115689   0.285   3.233   0.386
 4930SOL    HW215690   0.303   3.187   0.541
 4931SOL     OW15691   5.856   6.655   1.537
 4931SOL    HW115692   5.863   6.748   1.573
 4931SOL    HW215693   5.888   6.654   1.442
 4932SOL     OW15694   3.540   1.763   1.104
 4932SOL    HW115695   3.580   1.854   1.099
 4932SOL    HW215696   3.608   1.694   1.079
 4933SOL     OW15697   2.954   0.270   4.726
 4933SOL    HW115698   2.957   0.233   4.634
 4933SOL    HW215699   3.034   0.329   4.741
 4934SOL     OW15700   2.230   5.636   5.330
 4934SOL    HW115701   2.193   5.555   5.286
 4934SOL    HW215702   2.201   5.718   5.280
 4935SOL     OW15703   2.225   2.074   0.218
 4935SOL    HW115704   2.166   2.134   0.164
 4935SOL    HW215705   2.236   2.112   0.310
 4936SOL     OW15706   5.743   4.705   1.089
 4936SOL    HW115707   5.802   4.643   1.140
 4936SOL    HW215708   5.798   4.759   1.026
 4937SOL     OW15709   0.920   3.515   4.479
 4937SOL    HW115710   0.949   3.444   4.415
 4937SOL    HW215711   0.836   3.558   4.446
 4938SOL     OW15712   3.593   4.364   1.666
 4938SOL    HW115713   3.526   4.304   1.710
 4938SOL    HW215714   3.580   4.458   1.698
 4939SOL     OW15715   1.152   1.392   0.991
 4939SOL    HW115716   1.250   1.390   1.014
 4939SOL    HW215717   1.109   1.469   1.038
 4940SOL     OW15718   1.186   2.041   5.652
 4940SOL    HW115719   1.198   2.063   5.555
 4940SOL    HW215720   1.101   2.082   5.685
 4941SOL     OW15721   4.048   2.463   5.392
 4941SOL    HW115722   4.094   2.501   5.312
 4941SOL    HW215723   4.054   2.363   5.390
 4942SOL     OW15724   6.910   1.381   3.269
 4942SOL    HW115725   6.872   1.313   3.207
 4942SOL    HW215726   6.870   1.471   3.250
 4943SOL     OW15727   4.524   2.531   6.654
 4943SOL    HW115728   4.602   2.469   6.663
 4943SOL    HW215729   4.490   2.555   6.745
 4944SOL     OW15730   0.778   4.757   0.301
 4944SOL    HW115731   0.802   4.711   0.215
 4944SOL    HW215732   0.788   4.856   0.290
 4945SOL     OW15733   2.827   0.428   5.542
 4945SOL    HW115734   2.882   0.421   5.459
 4945SOL    HW215735   2.823   0.524   5.571
 4946SOL     OW15736   2.891   5.756   0.322
 4946SOL    HW115737   2.900   5.700   0.404
 4946SOL    HW215738   2.982   5.775   0.284
 4947SOL     OW15739   0.607   0.256   0.939
 4947SOL    HW115740   0.613   0.332   1.004
 4947SOL    HW215741   0.556   0.180   0.981
 4948SOL     OW15742   1.711   2.635   1.938
 4948SOL    HW115743   1.698   2.537   1.953
 4948SOL    HW215744   1.646   2.666   1.868
 4949SOL     OW15745   6.612   4.626   5.541
 4949SOL    HW115746   6.585   4.645   5.635
 4949SOL    HW215747   6.675   4.548   5.539
 4950SOL     OW15748   4.086   4.378   5.630
 4950SOL    HW115749   4.099   4.365   5.532
 4950SOL    HW215750   4.062   4.473   5.649
 4951SOL     OW15751   4.939   5.210   2.958
 4951SOL    HW115752   4.932   5.306   2.930
 4951SOL    HW215753   5.034   5.178   2.946
 4952SOL     OW15754   0.690   0.977   6.770
 4952SOL    HW115755   0.637   0.997   6.687
 4952SOL    HW215756   0.776   1.027   6.767
 4953SOL     OW15757   1.606   2.295   4.971
 4953SOL    HW115758   1.549   2.215   4.950
 4953SOL    HW215759   1.558   2.378   4.942
 4954SOL     OW15760   2.860   3.776   5.255
 4954SOL    HW115761   2.777   3.831   5.262
 4954SOL    HW215762   2.923   3.800   5.328
 4955SOL     OW15763   3.808   5.964   6.591
 4955SOL    HW115764   3.875   5.948   6.664
 4955SOL    HW215765   3.856   5.990   6.507
 4956SOL     OW15766   2.507   0.294   4.751
 4956SOL    HW115767   2.489   0.304   4.653
 4956SOL    HW215768   2.421   0.278   4.799
 4957SOL     OW15769   5.665   5.350   0.046
 4957SOL    HW115770   5.748   5.398   0.077
 4957SOL    HW215771   5.686   5.254   0.031
 4958SOL     OW15772   3.205   5.517   0.480
 4958SOL    HW115773   3.175   5.532   0.574
 4958SOL    HW215774   3.184   5.423   0.453
 4959SOL     OW15775   6.804   2.526   2.871
 4959SOL    HW115776   6.877   2.512   2.805
 4959SOL    HW215777   6.791   2.443   2.925
 4960SOL     OW15778   5.329   4.346   4.027
 4960SOL    HW115779   5.417   4.372   3.989
 4960SOL    HW215780   5.297   4.416   4.090
 4961SOL     OW15781   3.320   2.757   1.889
 4961SOL    HW115782   3.418   2.773   1.876
 4961SOL    HW215783   3.298   2.766   1.986
 4962SOL     OW15784   1.818   2.651   0.224
 4962SOL    HW115785   1.762   2.605   0.155
 4962SOL    HW215786   1.882   2.586   0.265
 4963SOL     OW15787   0.837   3.999   6.166
 4963SOL    HW115788   0.756   3.942   6.179
 4963SOL    HW215789   0.813   4.080   6.115
 4964SOL     OW15790   2.009   5.222   4.382
 4964SOL    HW115791   1.995   5.252   4.288
 4964SOL    HW215792   1.995   5.299   4.444
 4965SOL     OW15793   2.160   0.006   2.901
 4965SOL    HW115794   2.186   6.933   2.862
 4965SOL    HW215795   2.201   0.079   2.847
 4966SOL     OW15796   4.007   0.110   5.348
 4966SOL    HW115797   4.048   0.128   5.258
 4966SOL    HW215798   4.079   0.092   5.415
 4967SOL     OW15799   4.438   4.631   4.137
 4967SOL    HW115800   4.381   4.631   4.220
 4967SOL    HW215801   4.471   4.539   4.119
 4968SOL     OW15802   7.000   3.150   3.874
 4968SOL    HW115803   0.039   3.162   3.956
 4968SOL    HW215804   0.032   3.089   3.810
 4969SOL     OW15805   0.522   5.984   4.213
 4969SOL    HW115806   0.509   6.002   4.310
 4969SOL    HW215807   0.474   6.054   4.159
 4970SOL     OW15808   1.742   2.010   1.713
 4970SOL    HW115809   1.784   1.953   1.643
 4970SOL    HW215810   1.758   2.106   1.692
 4971SOL     OW15811   0.126   5.716   1.162
 4971SOL    HW115812   0.149   5.637   1.106
 4971SOL    HW215813   0.201   5.783   1.157
 4972SOL     OW15814   0.032   4.284   0.343
 4972SOL    HW115815   6.995   4.219   0.397
 4972SOL    HW215816   0.109   4.237   0.300
 4973SOL     OW15817   5.683   1.686   0.234
 4973SOL    HW115818   5.725   1.765   0.190
 4973SOL    HW215819   5.736   1.660   0.315
 4974SOL     OW15820   3.508   6.892   4.912
 4974SOL    HW115821   3.529   6.797   4.936
 4974SOL    HW215822   3.464   6.894   4.822
 4975SOL     OW15823   5.132   4.832   1.198
 4975SOL    HW115824   5.226   4.800   1.188
 4975SOL    HW215825   5.128   4.929   1.174
 4976SOL     OW15826   0.692   6.740   3.807
 4976SOL    HW115827   0.775   6.785   3.773
 4976SOL    HW215828   0.614   6.772   3.753
 4977SOL     OW15829   1.662   3.777   5.525
 4977SOL    HW115830   1.623   3.731   5.445
 4977SOL    HW215831   1.599   3.848   5.556
 4978SOL     OW15832   6.163   4.232   4.780
 4978SOL    HW115833   6.206   4.209   4.867
 4978SOL    HW215834   6.064   4.240   4.793
 4979SOL     OW15835   2.524   6.680   6.698
 4979SOL    HW115836   2.558   6.746   6.632
 4979SOL    HW215837   2.569   6.695   6.786
 4980SOL     OW15838   5.770   2.744   4.304
 4980SOL    HW115839   5.866   2.716   4.302
 4980SOL    HW215840   5.761   2.837   4.269
 4981SOL     OW15841   3.495   5.958   3.390
 4981SOL    HW115842   3.490   5.905   3.305
 4981SOL    HW215843   3.581   6.009   3.392
 4982SOL     OW15844   4.126   2.121   4.851
 4982SOL    HW115845   4.059   2.150   4.783
 4982SOL    HW215846   4.080   2.099   4.937
 4983SOL     OW15847   6.052   3.920   2.778
 4983SOL    HW115848   5.977   3.970   2.822
 4983SOL    HW215849   6.014   3.853   2.715
 4984SOL     OW15850   4.960   3.743   4.936
 4984SOL    HW115851   4.979   3.720   4.841
 4984SOL    HW215852   4.891   3.680   4.972
 4985SOL     OW15853   5.578   0.284   2.238
 4985SOL    HW115854   5.507   0.354   2.243
 4985SOL    HW215855   5.615   0.268   2.329
 4986SOL     OW15856   0.670   5.245   1.206
 4986SOL    HW115857   0.603   5.219   1.275
 4986SOL    HW215858   0.623   5.283   1.126
 4987SOL     OW15859   1.685   2.105   2.807
 4987SOL    HW115860   1.678   2.120   2.708
 4987SOL    HW215861   1.777   2.074   2.830
 4988SOL     OW15862   6.300   5.470   4.319
 4988SOL    HW115863   6.360   5.391   4.307
 4988SOL    HW215864   6.267   5.472   4.414
 4989SOL     OW15865   6.320   6.783   3.617
 4989SOL    HW115866   6.230   6.817   3.590
 4989SOL    HW215867   6.366   6.744   3.537
 4990SOL     OW15868   4.450   1.929   6.288
 4990SOL    HW115869   4.523   1.864   6.308
 4990SOL    HW215870   4.490   2.014   6.253
 4991SOL     OW15871   2.035   5.791   6.055
 4991SOL    HW115872   2.075   5.877   6.023
 4991SOL    HW215873   2.059   5.776   6.151
 4992SOL     OW15874   1.359   3.864   4.433
 4992SOL    HW115875   1.321   3.890   4.522
 4992SOL    HW215876   1.454   3.833   4.446
 4993SOL     OW15877   1.989   6.247   3.562
 4993SOL    HW115878   1.987   6.178   3.490
 4993SOL    HW215879   2.038   6.211   3.641
 4994SOL     OW15880   3.883   5.238   5.173
 4994SOL    HW115881   3.864   5.284   5.086
 4994SOL    HW215882   3.818   5.163   5.185
 4995SOL     OW15883   0.339   0.772   6.173
 4995SOL    HW115884   0.388   0.690   6.202
 4995SOL    HW215885   0.399   0.829   6.117
 4996SOL     OW15886   6.799   0.690   4.043
 4996SOL    HW115887   6.815   0.701   3.945
 4996SOL    HW215888   6.872   0.736   4.093
 4997SOL     OW15889   4.020   1.716   0.746
 4997SOL    HW115890   3.949   1.656   0.710
 4997SOL    HW215891   4.074   1.667   0.815
 4998SOL     OW15892   0.691   3.861   3.496
 4998SOL    HW115893   0.644   3.949   3.488
 4998SOL    HW215894   0.736   3.839   3.409
 4999SOL     OW15895   0.841   2.699   3.521
 4999SOL    HW115896   0.907   2.729   3.589
 4999SOL    HW215897   0.867   2.734   3.431
 5000SOL     OW15898   2.723   6.653   3.261
 5000SOL    HW115899   2.652   6.720   3.239
 5000SOL    HW215900   2.809   6.700   3.281
 5001SOL     OW15901   0.465   5.636   3.029
 5001SOL    HW115902   0.457   5.707   3.099
 5001SOL    HW215903   0.498   5.678   2.944
 5002SOL     OW15904   1.133   4.624   3.904
 5002SOL    HW115905   1.173   4.699   3.957
 5002SOL    HW215906   1.140   4.539   3.957
 5003SOL     OW15907   3.521   0.743   2.533
 5003SOL    HW115908   3.573   0.658   2.540
 5003SOL    HW215909   3.447   0.742   2.600
 5004SOL     OW15910   3.808   5.988   7.003
 5004SOL    HW115911   3.731   5.926   0.008
 5004SOL    HW215912   3.775   6.063   6.946
 5005SOL     OW15913   3.523   2.435   1.063
 5005SOL    HW115914   3.589   2.407   1.132
 5005SOL    HW215915   3.571   2.486   0.991
 5006SOL     OW15916   5.307   0.918   2.299
 5006SOL    HW115917   5.357   1.000   2.327
 5006SOL    HW215918   5.371   0.842   2.289
 5007SOL     OW15919   6.270   5.724   1.996
 5007SOL    HW115920   6.202   5.774   1.942
 5007SOL    HW215921   6.237   5.632   2.016
 5008SOL     OW15922   5.431   0.534   3.662
 5008SOL    HW115923   5.392   0.495   3.579
 5008SOL    HW215924   5.461   0.628   3.644
 5009SOL     OW15925   0.277   1.800   0.701
 5009SOL    HW115926   0.189   1.828   0.739
 5009SOL    HW215927   0.310   1.870   0.638
 5010SOL     OW15928   4.618   3.589   1.376
 5010SOL    HW115929   4.537   3.553   1.421
 5010SOL    HW215930   4.601   3.684   1.348
 5011SOL     OW15931   1.896   2.563   6.128
 5011SOL    HW115932   1.949   2.492   6.174
 5011SOL    HW215933   1.915   2.560   6.030
 5012SOL     OW15934   6.123   1.200   6.242
 5012SOL    HW115935   6.196   1.158   6.297
 5012SOL    HW215936   6.163   1.266   6.179
 5013SOL     OW15937   5.169   6.877   5.687
 5013SOL    HW115938   5.081   6.920   5.668
 5013SOL    HW215939   5.210   6.919   5.767
 5014SOL     OW15940   5.929   3.486   1.553
 5014SOL    HW115941   5.945   3.392   1.524
 5014SOL    HW215942   5.857   3.487   1.623
 5015SOL     OW15943   6.184   5.431   4.556
 5015SOL    HW115944   6.135   5.514   4.582
 5015SOL    HW215945   6.230   5.393   4.637
 5016SOL     OW15946   1.522   3.226   6.333
 5016SOL    HW115947   1.466   3.184   6.261
 5016SOL    HW215948   1.492   3.192   6.422
 5017SOL     OW15949   0.307   2.863   2.143
 5017SOL    HW115950   0.324   2.880   2.046
 5017SOL    HW215951   0.212   2.885   2.165
 5018SOL     OW15952   1.341   0.671   6.832
 5018SOL    HW115953   1.346   0.640   6.737
 5018SOL    HW215954   1.410   0.742   6.848
 5019SOL     OW15955   1.797   4.266   3.962
 5019SOL    HW115956   1.723   4.224   4.015
 5019SOL    HW215957   1.758   4.325   3.892
 5020SOL     OW15958   2.068   0.443   4.289
 5020SOL    HW115959   2.074   0.418   4.192
 5020SOL    HW215960   1.995   0.509   4.302
 5021SOL     OW15961   2.609   0.892   1.275
 5021SOL    HW115962   2.651   0.852   1.193
 5021SOL    HW215963   2.528   0.839   1.300
 5022SOL     OW15964   6.772   3.062   0.851
 5022SOL    HW115965   6.832   3.061   0.931
 5022SOL    HW215966   6.704   2.989   0.860
 5023SOL     OW15967   0.529   4.229   2.775
 5023SOL    HW115968   0.609   4.168   2.781
 5023SOL    HW215969   0.505   4.243   2.679
 5024SOL     OW15970   4.725   3.573   0.818
 5024SOL    HW115971   4.817   3.589   0.853
 5024SOL    HW215972   4.659   3.583   0.892
 5025SOL     OW15973   4.839   2.121   4.569
 5025SOL    HW115974   4.879   2.123   4.661
 5025SOL    HW215975   4.748   2.079   4.574
 5026SOL     OW15976   5.528   6.438   4.361
 5026SOL    HW115977   5.552   6.355   4.411
 5026SOL    HW215978   5.549   6.519   4.416
 5027SOL     OW15979   5.184   6.437   0.650
 5027SOL    HW115980   5.257   6.369   0.640
 5027SOL    HW215981   5.110   6.417   0.586
 5028SOL     OW15982   5.832   2.070   2.164
 5028SOL    HW115983   5.841   1.973   2.140
 5028SOL    HW215984   5.814   2.078   2.262
 5029SOL     OW15985   5.085   1.952   2.220
 5029SOL    HW115986   5.054   2.033   2.270
 5029SOL    HW215987   5.061   1.870   2.271
 5030SOL     OW15988   0.325   3.730   6.853
 5030SOL    HW115989   0.410   3.768   6.815
 5030SOL    HW215990   0.263   3.707   6.778
 5031SOL     OW15991   6.226   0.323   5.900
 5031SOL    HW115992   6.219   0.420   5.922
 5031SOL    HW215993   6.237   0.311   5.801
 5032SOL     OW15994   2.575   3.461   6.040
 5032SOL    HW115995   2.638   3.436   6.113
 5032SOL    HW215996   2.491   3.497   6.079
 5033SOL     OW15997   2.316   0.078   6.112
 5033SOL    HW115998   2.298   0.092   6.209
 5033SOL    HW215999   2.415   0.083   6.096
 5034SOL     OW16000   4.284   6.239   4.582
 5034SOL    HW116001   4.199   6.235   4.635
 5034SOL    HW216002   4.269   6.291   4.498
 5035SOL     OW16003   1.835   3.644   4.028
 5035SOL    HW116004   1.916   3.592   4.003
 5035SOL    HW216005   1.861   3.738   4.050
 5036SOL     OW16006   1.263   2.642   4.698
 5036SOL    HW116007   1.345   2.679   4.654
 5036SOL    HW216008   1.205   2.717   4.730
 5037SOL     OW16009   4.705   4.074   1.063
 5037SOL    HW116010   4.709   4.053   1.161
 5037SOL    HW216011   4.748   4.163   1.047
 5038SOL     OW16012   3.157   3.654   3.295
 5038SOL    HW116013   3.142   3.752   3.284
 5038SOL    HW216014   3.255   3.634   3.286
 5039SOL     OW16015   1.401   3.708   0.371
 5039SOL    HW116016   1.453   3.623   0.374
 5039SOL    HW216017   1.395   3.740   0.276
 5040SOL     OW16018   0.274   1.466   5.769
 5040SOL    HW116019   0.333   1.419   5.836
 5040SOL    HW216020   0.323   1.476   5.683
 5041SOL     OW16021   6.770   2.157   1.349
 5041SOL    HW116022   6.840   2.227   1.339
 5041SOL    HW216023   6.781   2.087   1.278
 5042SOL     OW16024   1.262   2.489   5.969
 5042SOL    HW116025   1.259   2.419   5.898
 5042SOL    HW216026   1.314   2.568   5.936
 5043SOL     OW16027   3.840   6.484   1.578
 5043SOL    HW116028   3.819   6.562   1.636
 5043SOL    HW216029   3.803   6.499   1.487
 5044SOL     OW16030   6.817   5.707   0.000
 5044SOL    HW116031   6.885   5.763   6.968
 5044SOL    HW216032   6.854   5.679   0.089
 5045SOL     OW16033   5.680   2.680   0.161
 5045SOL    HW116034   5.686   2.779   0.149
 5045SOL    HW216035   5.618   2.642   0.093
 5046SOL     OW16036   3.823   3.257   2.208
 5046SOL    HW116037   3.793   3.289   2.297
 5046SOL    HW216038   3.915   3.217   2.215
 5047SOL     OW16039   2.099   3.509   3.678
 5047SOL    HW116040   2.113   3.607   3.664
 5047SOL    HW216041   2.001   3.490   3.686
 5048SOL     OW16042   2.553   0.372   6.612
 5048SOL    HW116043   2.487   0.445   6.591
 5048SOL    HW216044   2.645   0.404   6.590
 5049SOL     OW16045   4.542   2.099   0.124
 5049SOL    HW116046   4.579   2.051   0.203
 5049SOL    HW216047   4.516   2.033   0.053
 5050SOL     OW16048   1.713   0.474   0.552
 5050SOL    HW116049   1.628   0.500   0.507
 5050SOL    HW216050   1.772   0.554   0.563
 5051SOL     OW16051   4.871   5.211   1.414
 5051SOL    HW116052   4.855   5.119   1.450
 5051SOL    HW216053   4.967   5.222   1.392
 5052SOL     OW16054   1.994   2.488   4.667
 5052SOL    HW116055   1.951   2.442   4.745
 5052SOL    HW216056   2.010   2.584   4.691
 5053SOL     OW16057   0.457   1.293   1.581
 5053SOL    HW116058   0.378   1.353   1.565
 5053SOL    HW216059   0.514   1.332   1.653
 5054SOL     OW16060   3.936   5.366   3.894
 5054SOL    HW116061   3.890   5.310   3.962
 5054SOL    HW216062   4.035   5.358   3.906
 5055SOL     OW16063   0.237   3.708   5.948
 5055SOL    HW116064   0.162   3.774   5.940
 5055SOL    HW216065   0.207   3.619   5.916
 5056SOL     OW16066   5.961   3.731   3.954
 5056SOL    HW116067   5.884   3.675   3.923
 5056SOL    HW216068   5.943   3.827   3.934
 5057SOL     OW16069   0.272   5.508   2.329
 5057SOL    HW116070   0.328   5.558   2.396
 5057SOL    HW216071   0.206   5.570   2.288
 5058SOL     OW16072   2.818   5.361   5.758
 5058SOL    HW116073   2.798   5.455   5.784
 5058SOL    HW216074   2.900   5.329   5.806
 5059SOL     OW16075   6.878   0.332   2.198
 5059SOL    HW116076   6.891   0.247   2.248
 5059SOL    HW216077   6.909   0.409   2.254
 5060SOL     OW16078   0.003   2.375   5.873
 5060SOL    HW116079   6.963   2.324   5.939
 5060SOL    HW216080   6.961   2.403   5.796
 5061SOL     OW16081   5.109   4.301   1.294
 5061SOL    HW116082   5.204   4.328   1.307
 5061SOL    HW216083   5.049   4.367   1.339
 5062SOL     OW16084   6.554   0.453   0.971
 5062SOL    HW116085   6.516   0.541   0.945
 5062SOL    HW216086   6.548   0.442   1.070
 5063SOL     OW16087   1.221   6.298   2.151
 5063SOL    HW116088   1.262   6.222   2.202
 5063SOL    HW216089   1.122   6.285   2.147
 5064SOL     OW16090   4.792   3.662   0.278
 5064SOL    HW116091   4.787   3.609   0.363
 5064SOL    HW216092   4.704   3.656   0.231
 5065SOL     OW16093   3.053   6.474   5.714
 5065SOL    HW116094   3.151   6.467   5.733
 5065SOL    HW216095   3.005   6.497   5.798
 5066SOL     OW16096   4.879   5.377   0.981
 5066SOL    HW116097   4.819   5.446   1.023
 5066SOL    HW216098   4.867   5.289   1.028
 5067SOL     OW16099   5.304   1.120   6.489
 5067SOL    HW116100   5.217   1.132   6.441
 5067SOL    HW216101   5.307   1.029   6.530
 5068SOL     OW16102   3.596   4.869   1.479
 5068SOL    HW116103   3.691   4.892   1.499
 5068SOL    HW216104   3.593   4.796   1.410
 5069SOL     OW16105   6.688   5.396   2.537
 5069SOL    HW116106   6.666   5.439   2.624
 5069SOL    HW216107   6.636   5.311   2.528
 5070SOL     OW16108   5.022   3.574   4.181
 5070SOL    HW116109   4.973   3.639   4.240
 5070SOL    HW216110   5.000   3.593   4.086
 5071SOL     OW16111   4.433   0.985   6.998
 5071SOL    HW116112   4.497   1.054   6.965
 5071SOL    HW216113   4.464   0.894   6.969
 5072SOL     OW16114   0.946   4.136   1.312
 5072SOL    HW116115   1.041   4.144   1.280
 5072SOL    HW216116   0.915   4.224   1.346
 5073SOL     OW16117   4.455   2.098   4.349
 5073SOL    HW116118   4.477   2.059   4.260
 5073SOL    HW216119   4.432   2.195   4.339
 5074SOL     OW16120   4.066   4.833   5.020
 5074SOL    HW116121   4.139   4.892   5.052
 5074SOL    HW216122   4.073   4.743   5.063
 5075SOL     OW16123   6.473   6.807   4.136
 5075SOL    HW116124   6.459   6.819   4.038
 5075SOL    HW216125   6.385   6.790   4.180
 5076SOL     OW16126   3.888   0.900   1.268
 5076SOL    HW116127   3.870   0.816   1.217
 5076SOL    HW216128   3.806   0.926   1.320
 5077SOL     OW16129   6.852   2.787   2.447
 5077SOL    HW116130   6.859   2.816   2.542
 5077SOL    HW216131   6.938   2.742   2.419
 5078SOL     OW16132   7.001   1.160   3.951
 5078SOL    HW116133   0.029   1.202   4.030
 5078SOL    HW216134   6.915   1.206   3.931
 5079SOL     OW16135   4.520   4.763   5.000
 5079SOL    HW116136   4.482   4.852   4.976
 5079SOL    HW216137   4.449   4.693   4.990
 5080SOL     OW16138   5.769   0.122   5.743
 5080SOL    HW116139   5.695   0.135   5.810
 5080SOL    HW216140   5.832   0.199   5.747
 5081SOL     OW16141   3.468   3.968   2.824
 5081SOL    HW116142   3.382   3.925   2.851
 5081SOL    HW216143   3.456   4.067   2.820
 5082SOL     OW16144   6.836   0.172   5.879
 5082SOL    HW116145   6.867   0.242   5.943
 5082SOL    HW216146   6.738   0.180   5.866
 5083SOL     OW16147   1.590   6.146   2.058
 5083SOL    HW116148   1.549   6.060   2.027
 5083SOL    HW216149   1.555   6.221   2.003
 5084SOL     OW16150   1.629   5.831   2.366
 5084SOL    HW116151   1.686   5.898   2.414
 5084SOL    HW216152   1.686   5.754   2.336
 5085SOL     OW16153   6.315   3.231   6.774
 5085SOL    HW116154   6.402   3.183   6.765
 5085SOL    HW216155   6.293   3.242   6.871
 5086SOL     OW16156   0.010   5.131   4.344
 5086SOL    HW116157   6.933   5.146   4.309
 5086SOL    HW216158   0.077   5.160   4.275
 5087SOL     OW16159   6.759   5.504   5.127
 5087SOL    HW116160   6.715   5.415   5.139
 5087SOL    HW216161   6.703   5.560   5.067
 5088SOL     OW16162   5.990   0.786   0.533
 5088SOL    HW116163   6.056   0.845   0.487
 5088SOL    HW216164   5.993   0.695   0.491
 5089SOL     OW16165   5.572   2.574   4.261
 5089SOL    HW116166   5.485   2.621   4.274
 5089SOL    HW216167   5.647   2.638   4.273
 5090SOL     OW16168   0.917   5.195   0.837
 5090SOL    HW116169   0.956   5.140   0.763
 5090SOL    HW216170   0.896   5.136   0.915
 5091SOL     OW16171   1.246   6.483   3.665
 5091SOL    HW116172   1.322   6.512   3.607
 5091SOL    HW216173   1.238   6.546   3.742
 5092SOL     OW16174   3.580   2.956   1.262
 5092SOL    HW116175   3.631   2.926   1.342
 5092SOL    HW216176   3.483   2.964   1.285
 5093SOL     OW16177   0.908   1.940   1.308
 5093SOL    HW116178   0.921   2.039   1.296
 5093SOL    HW216179   0.925   1.893   1.221
 5094SOL     OW16180   6.918   0.456   6.968
 5094SOL    HW116181   6.948   0.362   6.987
 5094SOL    HW216182   6.954   0.517   0.023
 5095SOL     OW16183   3.245   7.010   5.049
 5095SOL    HW116184   3.226   6.926   5.101
 5095SOL    HW216185   3.247   6.989   4.951
 5096SOL     OW16186   3.540   5.956   2.949
 5096SOL    HW116187   3.556   6.043   2.996
 5096SOL    HW216188   3.608   5.945   2.876
 5097SOL     OW16189   0.858   1.465   6.247
 5097SOL    HW116190   0.911   1.433   6.168
 5097SOL    HW216191   0.785   1.525   6.216
 5098SOL     OW16192   6.848   2.827   2.717
 5098SOL    HW116193   6.802   2.802   2.803
 5098SOL    HW216194   6.931   2.879   2.738
 5099SOL     OW16195   1.074   0.470   4.034
 5099SOL    HW116196   1.103   0.471   3.939
 5099SOL    HW216197   1.022   0.386   4.052
 5100SOL     OW16198   4.497   5.302   6.322
 5100SOL    HW116199   4.467   5.390   6.360
 5100SOL    HW216200   4.596   5.299   6.320
 5101SOL     OW16201   4.388   6.290   0.444
 5101SOL    HW116202   4.346   6.204   0.473
 5101SOL    HW216203   4.442   6.275   0.361
 5102SOL     OW16204   3.611   5.486   4.256
 5102SOL    HW116205   3.552   5.455   4.330
 5102SOL    HW216206   3.560   5.551   4.198
 5103SOL     OW16207   1.502   1.473   4.078
 5103SOL    HW116208   1.537   1.426   4.159
 5103SOL    HW216209   1.402   1.472   4.080
 5104SOL     OW16210   1.091   0.533   1.201
 5104SOL    HW116211   1.015   0.551   1.264
 5104SOL    HW216212   1.172   0.584   1.230
 5105SOL     OW16213   2.073   3.168   6.107
 5105SOL    HW116214   2.040   3.078   6.077
 5105SOL    HW216215   1.999   3.235   6.100
 5106SOL     OW16216   2.548   0.199   2.623
 5106SOL    HW116217   2.565   0.109   2.582
 5106SOL    HW216218   2.485   0.189   2.699
 5107SOL     OW16219   1.966   0.186   6.570
 5107SOL    HW116220   1.989   0.099   6.614
 5107SOL    HW216221   1.922   0.247   6.636
 5108SOL     OW16222   3.262   3.805   3.695
 5108SOL    HW116223   3.201   3.790   3.773
 5108SOL    HW216224   3.215   3.857   3.624
 5109SOL     OW16225   6.891   1.807   2.088
 5109SOL    HW116226   6.818   1.749   2.051
 5109SOL    HW216227   6.928   1.764   2.170
 5110SOL     OW16228   2.149   5.723   5.601
 5110SOL    HW116229   2.080   5.668   5.647
 5110SOL    HW216230   2.183   5.674   5.521
 5111SOL     OW16231   1.882   1.384   0.415
 5111SOL    HW116232   1.876   1.342   0.324
 5111SOL    HW216233   1.889   1.483   0.405
 5112SOL     OW16234   0.134   0.067   3.335
 5112SOL    HW116235   0.136   6.985   3.356
 5112SOL    HW216236   0.157   0.081   3.239
 5113SOL     OW16237   0.415   0.227   6.110
 5113SOL    HW116238   0.346   0.272   6.167
 5113SOL    HW216239   0.502   0.277   6.118
 5114SOL     OW16240   4.000   5.605   6.475
 5114SOL    HW116241   3.942   5.529   6.503
 5114SOL    HW216242   4.072   5.618   6.543
 5115SOL     OW16243   2.135   3.854   4.834
 5115SOL    HW116244   2.124   3.758   4.861
 5115SOL    HW216245   2.212   3.893   4.885
 5116SOL     OW16246   6.571   3.412   0.504
 5116SOL    HW116247   6.572   3.507   0.536
 5116SOL    HW216248   6.514   3.405   0.422
 5117SOL     OW16249   2.904   4.985   3.065
 5117SOL    HW116250   2.878   4.893   3.096
 5117SOL    HW216251   2.825   5.045   3.070
 5118SOL     OW16252   3.916   6.631   1.825
 5118SOL    HW116253   4.007   6.672   1.822
 5118SOL    HW216254   3.854   6.690   1.877
 5119SOL     OW16255   6.335   0.177   2.680
 5119SOL    HW116256   6.247   0.131   2.693
 5119SOL    HW216257   6.407   0.121   2.720
 5120SOL     OW16258   3.350   1.397   2.362
 5120SOL    HW116259   3.375   1.395   2.265
 5120SOL    HW216260   3.275   1.462   2.375
 5121SOL     OW16261   0.706   3.269   4.019
 5121SOL    HW116262   0.803   3.268   4.042
 5121SOL    HW216263   0.652   3.285   4.102
 5122SOL     OW16264   2.200   5.362   3.230
 5122SOL    HW116265   2.265   5.300   3.274
 5122SOL    HW216266   2.249   5.438   3.189
 5123SOL     OW16267   6.354   3.531   1.991
 5123SOL    HW116268   6.402   3.520   2.078
 5123SOL    HW216269   6.289   3.606   1.998
 5124SOL     OW16270   2.321   6.371   0.586
 5124SOL    HW116271   2.319   6.299   0.518
 5124SOL    HW216272   2.234   6.376   0.634
 5125SOL     OW16273   6.964   2.041   5.747
 5125SOL    HW116274   0.027   2.102   5.739
 5125SOL    HW216275   6.932   2.016   5.655
 5126SOL     OW16276   4.566   2.356   0.247
 5126SOL    HW116277   4.581   2.260   0.221
 5126SOL    HW216278   4.537   2.360   0.343
 5127SOL     OW16279   5.558   3.322   6.646
 5127SOL    HW116280   5.563   3.223   6.641
 5127SOL    HW216281   5.478   3.349   6.700
 5128SOL     OW16282   6.870   0.093   6.449
 5128SOL    HW116283   6.792   0.041   6.414
 5128SOL    HW216284   6.838   0.174   6.497
 5129SOL     OW16285   4.941   2.468   3.553
 5129SOL    HW116286   4.874   2.436   3.487
 5129SOL    HW216287   4.996   2.541   3.512
 5130SOL     OW16288   1.535   6.636   5.207
 5130SOL    HW116289   1.456   6.646   5.147
 5130SOL    HW216290   1.504   6.602   5.296
 5131SOL     OW16291   3.589   4.892   3.631
 5131SOL    HW116292   3.493   4.872   3.651
 5131SOL    HW216293   3.604   4.888   3.532
 5132SOL     OW16294   4.257   2.274   6.923
 5132SOL    HW116295   4.178   2.255   6.866
 5132SOL    HW216296   4.230   2.328   7.003
 5133SOL     OW16297   4.995   4.814   6.917
 5133SOL    HW116298   4.943   4.754   6.856
 5133SOL    HW216299   4.974   4.791   7.012
 5134SOL     OW16300   6.080   5.746   0.215
 5134SOL    HW116301   6.071   5.661   0.164
 5134SOL    HW216302   6.129   5.813   0.160
 5135SOL     OW16303   6.787   2.973   2.260
 5135SOL    HW116304   6.700   3.023   2.258
 5135SOL    HW216305   6.789   2.912   2.339
 5136SOL     OW16306   0.840   0.947   4.709
 5136SOL    HW116307   0.821   0.850   4.724
 5136SOL    HW216308   0.937   0.965   4.724
 5137SOL     OW16309   5.362   0.403   3.400
 5137SOL    HW116310   5.361   0.317   3.450
 5137SOL    HW216311   5.279   0.409   3.343
 5138SOL     OW16312   3.178   3.030   2.544
 5138SOL    HW116313   3.079   3.031   2.559
 5138SOL    HW216314   3.200   3.077   2.459
 5139SOL     OW16315   4.410   0.496   4.969
 5139SOL    HW116316   4.381   0.553   5.046
 5139SOL    HW216317   4.507   0.511   4.951
 5140SOL     OW16318   3.334   3.649   6.366
 5140SOL    HW116319   3.268   3.721   6.349
 5140SOL    HW216320   3.376   3.662   6.456
 5141SOL     OW16321   1.523   2.665   1.747
 5141SOL    HW116322   1.492   2.686   1.654
 5141SOL    HW216323   1.444   2.651   1.806
 5142SOL     OW16324   0.808   0.216   2.552
 5142SOL    HW116325   0.754   0.301   2.553
 5142SOL    HW216326   0.905   0.239   2.566
 5143SOL     OW16327   6.915   5.943   2.117
 5143SOL    HW116328   6.879   5.893   2.196
 5143SOL    HW216329   6.962   6.025   2.148
 5144SOL     OW16330   2.139   3.056   4.953
 5144SOL    HW116331   2.239   3.051   4.954
 5144SOL    HW216332   2.102   3.015   5.036
 5145SOL     OW16333   2.586   5.586   5.755
 5145SOL    HW116334   2.516   5.645   5.796
 5145SOL    HW216335   2.633   5.635   5.682
 5146SOL     OW16336   6.056   5.555   6.555
 5146SOL    HW116337   5.985   5.584   6.491
 5146SOL    HW216338   6.039   5.460   6.583
 5147SOL     OW16339   5.705   2.320   3.572
 5147SOL    HW116340   5.805   2.329   3.579
 5147SOL    HW216341   5.681   2.223   3.569
 5148SOL     OW16342   6.670   1.307   0.254
 5148SOL    HW116343   6.588   1.270   0.298
 5148SOL    HW216344   6.672   1.280   0.158
 5149SOL     OW16345   4.346   5.525   4.190
 5149SOL    HW116346   4.352   5.484   4.281
 5149SOL    HW216347   4.430   5.507   4.140
 5150SOL     OW16348   6.602   0.570   3.763
 5150SOL    HW116349   6.546   0.499   3.806
 5150SOL    HW216350   6.545   0.651   3.748
 5151SOL     OW16351   5.733   5.150   1.486
 5151SOL    HW116352   5.751   5.054   1.508
 5151SOL    HW216353   5.665   5.187   1.549
 5152SOL     OW16354   2.465   1.923   0.175
 5152SOL    HW116355   2.445   1.865   0.254
 5152SOL    HW216356   2.389   1.988   0.162
 5153SOL     OW16357   2.512   2.157   0.375
 5153SOL    HW116358   2.519   2.180   0.278
 5153SOL    HW216359   2.602   2.127   0.409
 5154SOL     OW16360   0.649   2.512   0.412
 5154SOL    HW116361   0.590   2.445   0.455
 5154SOL    HW216362   0.745   2.483   0.420
 5155SOL     OW16363   1.624   1.370   0.520
 5155SOL    HW116364   1.722   1.370   0.497
 5155SOL    HW216365   1.608   1.436   0.593
 5156SOL     OW16366   5.565   4.834   5.874
 5156SOL    HW116367   5.602   4.757   5.822
 5156SOL    HW216368   5.609   4.919   5.843
 5157SOL     OW16369   3.674   1.018   1.825
 5157SOL    HW116370   3.719   1.003   1.913
 5157SOL    HW216371   3.653   0.929   1.783
 5158SOL     OW16372   1.361   2.209   1.610
 5158SOL    HW116373   1.368   2.131   1.548
 5158SOL    HW216374   1.296   2.187   1.683
 5159SOL     OW16375   6.506   2.979   5.882
 5159SOL    HW116376   6.443   3.014   5.813
 5159SOL    HW216377   6.454   2.936   5.956
 5160SOL     OW16378   6.751   0.013   3.224
 5160SOL    HW116379   6.797   0.018   3.312
 5160SOL    HW216380   6.751   0.104   3.181
 5161SOL     OW16381   1.463   2.603   6.137
 5161SOL    HW116382   1.369   2.570   6.130
 5161SOL    HW216383   1.521   2.532   6.177
 5162SOL     OW16384   0.156   6.721   5.000
 5162SOL    HW116385   0.224   6.647   5.007
 5162SOL    HW216386   0.126   6.747   5.092
 5163SOL     OW16387   3.016   0.437   1.818
 5163SOL    HW116388   3.083   0.508   1.839
 5163SOL    HW216389   2.963   0.464   1.737
 5164SOL     OW16390   2.880   3.747   0.216
 5164SOL    HW116391   2.869   3.807   0.295
 5164SOL    HW216392   2.791   3.730   0.173
 5165SOL     OW16393   1.743   5.090   6.240
 5165SOL    HW116394   1.735   4.992   6.221
 5165SOL    HW216395   1.704   5.110   6.330
 5166SOL     OW16396   6.988   5.112   6.232
 5166SOL    HW116397   6.980   5.014   6.248
 5166SOL    HW216398   6.904   5.147   6.191
 5167SOL     OW16399   5.668   3.700   5.941
 5167SOL    HW116400   5.591   3.694   5.878
 5167SOL    HW216401   5.644   3.656   6.028
 5168SOL     OW16402   4.359   1.762   3.423
 5168SOL    HW116403   4.269   1.751   3.467
 5168SOL    HW216404   4.419   1.688   3.453
 5169SOL     OW16405   5.322   5.854   4.216
 5169SOL    HW116406   5.374   5.782   4.260
 5169SOL    HW216407   5.303   5.927   4.282
 5170SOL     OW16408   2.069   4.122   6.001
 5170SOL    HW116409   2.155   4.072   5.988
 5170SOL    HW216410   1.993   4.056   6.008
 5171SOL     OW16411   2.033   6.582   5.964
 5171SOL    HW116412   1.938   6.612   5.956
 5171SOL    HW216413   2.044   6.526   6.046
 5172SOL     OW16414   5.779   5.478   6.461
 5172SOL    HW116415   5.755   5.398   6.406
 5172SOL    HW216416   5.733   5.472   6.550
 5173SOL     OW16417   4.544   5.686   4.804
 5173SOL    HW116418   4.592   5.761   4.850
 5173SOL    HW216419   4.445   5.699   4.813
 5174SOL     OW16420   1.428   6.767   2.946
 5174SOL    HW116421   1.336   6.745   2.979
 5174SOL    HW216422   1.492   6.764   3.023
 5175SOL     OW16423   2.680   2.502   6.333
 5175SOL    HW116424   2.689   2.451   6.419
 5175SOL    HW216425   2.645   2.442   6.262
 5176SOL     OW16426   6.265   5.944   6.483
 5176SOL    HW116427   6.276   5.858   6.433
 5176SOL    HW216428   6.207   6.005   6.430
 5177SOL     OW16429   5.214   6.150   0.388
 5177SOL    HW116430   5.188   6.087   0.314
 5177SOL    HW216431   5.223   6.243   0.351
 5178SOL     OW16432   0.603   4.312   1.031
 5178SOL    HW116433   0.665   4.236   1.050
 5178SOL    HW216434   0.524   4.278   0.978
 5179SOL     OW16435   5.199   5.525   3.422
 5179SOL    HW116436   5.195   5.465   3.342
 5179SOL    HW216437   5.108   5.560   3.442
 5180SOL     OW16438   1.650   4.569   2.122
 5180SOL    HW116439   1.578   4.592   2.188
 5180SOL    HW216440   1.683   4.653   2.079
 5181SOL     OW16441   0.072   1.299   5.628
 5181SOL    HW116442   0.118   1.388   5.628
 5181SOL    HW216443   0.076   1.260   5.536
 5182SOL     OW16444   2.604   6.406   2.319
 5182SOL    HW116445   2.604   6.462   2.236
 5182SOL    HW216446   2.591   6.466   2.398
 5183SOL     OW16447   4.603   2.635   3.431
 5183SOL    HW116448   4.634   2.541   3.446
 5183SOL    HW216449   4.504   2.640   3.441
 5184SOL     OW16450   2.126   1.711   2.905
 5184SOL    HW116451   2.035   1.744   2.880
 5184SOL    HW216452   2.191   1.735   2.832
 5185SOL     OW16453   6.547   6.886   2.205
 5185SOL    HW116454   6.469   6.895   2.268
 5185SOL    HW216455   6.577   6.977   2.176
 5186SOL     OW16456   6.170   2.270   6.947
 5186SOL    HW116457   6.262   2.283   6.911
 5186SOL    HW216458   6.124   2.359   6.954
 5187SOL     OW16459   1.382   4.513   4.895
 5187SOL    HW116460   1.338   4.521   4.805
 5187SOL    HW216461   1.436   4.595   4.913
 5188SOL     OW16462   6.879   0.899   1.650
 5188SOL    HW116463   6.966   0.944   1.628
 5188SOL    HW216464   6.877   0.875   1.747
 5189SOL     OW16465   4.702   6.137   6.976
 5189SOL    HW116466   4.721   6.206   6.905
 5189SOL    HW216467   4.783   6.079   6.988
 5190SOL     OW16468   1.576   4.907   0.854
 5190SOL    HW116469   1.613   4.997   0.873
 5190SOL    HW216470   1.537   4.905   0.762
 5191SOL     OW16471   2.704   4.433   1.665
 5191SOL    HW116472   2.781   4.464   1.722
 5191SOL    HW216473   2.649   4.367   1.716
 5192SOL     OW16474   0.735   4.651   2.596
 5192SOL    HW116475   0.706   4.595   2.674
 5192SOL    HW216476   0.832   4.635   2.579
 5193SOL     OW16477   4.527   0.909   5.538
 5193SOL    HW116478   4.460   0.981   5.558
 5193SOL    HW216479   4.583   0.937   5.460
 5194SOL     OW16480   4.609   1.749   4.850
 5194SOL    HW116481   4.630   1.846   4.864
 5194SOL    HW216482   4.512   1.739   4.829
 5195SOL     OW16483   1.821   0.579   5.464
 5195SOL    HW116484   1.840   0.586   5.366
 5195SOL    HW216485   1.793   0.669   5.498
 5196SOL     OW16486   5.707   6.441   2.959
 5196SOL    HW116487   5.747   6.361   3.003
 5196SOL    HW216488   5.770   6.519   2.968
 5197SOL     OW16489   1.162   3.240   4.544
 5197SOL    HW116490   1.151   3.281   4.635
 5197SOL    HW216491   1.245   3.276   4.501
 5198SOL     OW16492   5.941   4.840   2.949
 5198SOL    HW116493   5.989   4.869   3.032
 5198SOL    HW216494   5.915   4.744   2.957
 5199SOL     OW16495   6.759   4.623   1.126
 5199SOL    HW116496   6.811   4.599   1.208
 5199SOL    HW216497   6.809   4.693   1.075
 5200SOL     OW16498   6.370   3.493   5.246
 5200SOL    HW116499   6.284   3.540   5.227
 5200SOL    HW216500   6.350   3.400   5.278
 5201SOL     OW16501   0.790   6.313   4.579
 5201SOL    HW116502   0.766   6.404   4.545
 5201SOL    HW216503   0.882   6.289   4.548
 5202SOL     OW16504   0.632   4.252   1.908
 5202SOL    HW116505   0.625   4.351   1.919
 5202SOL    HW216506   0.542   4.215   1.884
 5203SOL     OW16507   6.340   3.275   0.033
 5203SOL    HW116508   6.408   3.340   0.067
 5203SOL    HW216509   6.261   3.273   0.094
 5204SOL     OW16510   5.026   5.372   6.197
 5204SOL    HW116511   4.978   5.421   6.269
 5204SOL    HW216512   5.105   5.324   6.236
 5205SOL     OW16513   2.418   6.555   0.356
 5205SOL    HW116514   2.354   6.548   0.280
 5205SOL    HW216515   2.392   6.489   0.427
 5206SOL     OW16516   0.344   3.938   4.572
 5206SOL    HW116517   0.380   3.935   4.478
 5206SOL    HW216518   0.268   4.002   4.577
 5207SOL     OW16519   1.879   4.629   3.455
 5207SOL    HW116520   1.858   4.571   3.534
 5207SOL    HW216521   1.935   4.578   3.390
 5208SOL     OW16522   5.398   0.888   0.028
 5208SOL    HW116523   5.359   0.796   0.023
 5208SOL    HW216524   5.325   0.956   0.033
 5209SOL     OW16525   5.592   5.371   3.288
 5209SOL    HW116526   5.574   5.304   3.216
 5209SOL    HW216527   5.532   5.353   3.366
 5210SOL     OW16528   4.834   4.360   2.977
 5210SOL    HW116529   4.843   4.460   2.978
 5210SOL    HW216530   4.757   4.333   3.035
 5211SOL     OW16531   3.253   3.435   2.240
 5211SOL    HW116532   3.307   3.491   2.177
 5211SOL    HW216533   3.254   3.478   2.331
 5212SOL     OW16534   0.568   0.332   6.395
 5212SOL    HW116535   0.486   0.371   6.352
 5212SOL    HW216536   0.640   0.401   6.399
 5213SOL     OW16537   4.228   2.058   6.380
 5213SOL    HW116538   4.218   2.146   6.334
 5213SOL    HW216539   4.306   2.009   6.342
 5214SOL     OW16540   5.136   1.568   0.124
 5214SOL    HW116541   5.167   1.556   0.030
 5214SOL    HW216542   5.078   1.649   0.130
 5215SOL     OW16543   5.705   5.020   3.787
 5215SOL    HW116544   5.669   5.082   3.718
 5215SOL    HW216545   5.647   4.938   3.792
 5216SOL     OW16546   4.211   5.876   1.854
 5216SOL    HW116547   4.179   5.965   1.821
 5216SOL    HW216548   4.145   5.839   1.919
 5217SOL     OW16549   3.042   4.818   3.346
 5217SOL    HW116550   3.039   4.743   3.278
 5217SOL    HW216551   3.007   4.784   3.433
 5218SOL     OW16552   2.363   6.946   4.288
 5218SOL    HW116553   2.341   6.873   4.223
 5218SOL    HW216554   2.278   6.990   4.318
 5219SOL     OW16555   2.115   6.899   0.769
 5219SOL    HW116556   2.091   6.838   0.693
 5219SOL    HW216557   2.099   6.852   0.855
 5220SOL     OW16558   1.306   6.647   1.718
 5220SOL    HW116559   1.346   6.736   1.737
 5220SOL    HW216560   1.282   6.602   1.804
 5221SOL     OW16561   4.213   1.364   6.914
 5221SOL    HW116562   4.249   1.305   6.841
 5221SOL    HW216563   4.288   1.415   6.956
 5222SOL     OW16564   0.489   6.871   2.414
 5222SOL    HW116565   0.540   6.910   2.337
 5222SOL    HW216566   0.401   6.917   2.423
 5223SOL     OW16567   4.836   6.602   1.073
 5223SOL    HW116568   4.759   6.630   1.015
 5223SOL    HW216569   4.871   6.681   1.122
 5224SOL     OW16570   5.522   1.406   3.099
 5224SOL    HW116571   5.608   1.454   3.082
 5224SOL    HW216572   5.448   1.453   3.051
 5225SOL     OW16573   0.172   6.872   5.599
 5225SOL    HW116574   0.214   6.843   5.685
 5225SOL    HW216575   0.193   6.806   5.527
 5226SOL     OW16576   2.966   6.120   4.126
 5226SOL    HW116577   2.882   6.102   4.177
 5226SOL    HW216578   2.943   6.153   4.035
 5227SOL     OW16579   5.145   3.663   3.923
 5227SOL    HW116580   5.212   3.714   3.978
 5227SOL    HW216581   5.193   3.614   3.850
 5228SOL     OW16582   5.103   0.845   1.395
 5228SOL    HW116583   5.158   0.761   1.389
 5228SOL    HW216584   5.068   0.868   1.305
 5229SOL     OW16585   1.336   4.274   3.712
 5229SOL    HW116586   1.319   4.223   3.627
 5229SOL    HW216587   1.257   4.330   3.733
 5230SOL     OW16588   1.324   6.765   5.606
 5230SOL    HW116589   1.412   6.810   5.618
 5230SOL    HW216590   1.337   6.676   5.563
 5231SOL     OW16591   3.540   3.090   2.846
 5231SOL    HW116592   3.617   3.036   2.812
 5231SOL    HW216593   3.575   3.177   2.881
 5232SOL     OW16594   5.326   2.768   4.963
 5232SOL    HW116595   5.402   2.719   4.919
 5232SOL    HW216596   5.357   2.859   4.990
 5233SOL     OW16597   0.515   0.421   3.022
 5233SOL    HW116598   0.502   0.476   2.940
 5233SOL    HW216599   0.612   0.418   3.046
 5234SOL     OW16600   3.705   5.416   1.399
 5234SOL    HW116601   3.676   5.452   1.487
 5234SOL    HW216602   3.791   5.366   1.410
 5235SOL     OW16603   0.530   3.307   1.290
 5235SOL    HW116604   0.540   3.212   1.323
 5235SOL    HW216605   0.619   3.341   1.259
 5236SOL     OW16606   6.030   3.179   0.992
 5236SOL    HW116607   6.044   3.111   0.921
 5236SOL    HW216608   6.060   3.269   0.959
 5237SOL     OW16609   1.873   1.730   3.902
 5237SOL    HW116610   1.971   1.714   3.910
 5237SOL    HW216611   1.856   1.798   3.831
 5238SOL     OW16612   2.293   3.705   1.163
 5238SOL    HW116613   2.288   3.635   1.092
 5238SOL    HW216614   2.229   3.683   1.237
 5239SOL     OW16615   2.963   3.394   4.587
 5239SOL    HW116616   2.874   3.359   4.556
 5239SOL    HW216617   2.958   3.493   4.598
 5240SOL     OW16618   3.623   1.839   4.834
 5240SOL    HW116619   3.610   1.870   4.739
 5240SOL    HW216620   3.612   1.917   4.896
 5241SOL     OW16621   2.898   5.845   5.694
 5241SOL    HW116622   2.933   5.829   5.601
 5241SOL    HW216623   2.953   5.915   5.739
 5242SOL     OW16624   4.610   0.782   5.156
 5242SOL    HW116625   4.511   0.772   5.152
 5242SOL    HW216626   4.649   0.768   5.065
 5243SOL     OW16627   0.866   4.071   0.242
 5243SOL    HW116628   0.895   4.126   0.164
 5243SOL    HW216629   0.830   4.131   0.313
 5244SOL     OW16630   6.102   3.317   0.205
 5244SOL    HW116631   6.029   3.321   0.136
 5244SOL    HW216632   6.064   3.341   0.294
 5245SOL     OW16633   4.715   4.921   6.623
 5245SOL    HW116634   4.792   4.966   6.669
 5245SOL    HW216635   4.747   4.835   6.582
 5246SOL     OW16636   1.055   3.435   3.170
 5246SOL    HW116637   1.154   3.433   3.155
 5246SOL    HW216638   1.035   3.438   3.268
 5247SOL     OW16639   0.027   4.513   0.680
 5247SOL    HW116640   0.081   4.462   0.612
 5247SOL    HW216641   0.047   4.610   0.673
 5248SOL     OW16642   4.925   0.287   0.410
 5248SOL    HW116643   4.987   0.338   0.350
 5248SOL    HW216644   4.921   0.331   0.499
 5249SOL     OW16645   1.333   5.582   6.084
 5249SOL    HW116646   1.306   5.507   6.144
 5249SOL    HW216647   1.366   5.659   6.139
 5250SOL     OW16648   1.313   1.536   5.619
 5250SOL    HW116649   1.299   1.635   5.627
 5250SOL    HW216650   1.344   1.514   5.527
 5251SOL     OW16651   1.029   2.977   0.451
 5251SOL    HW116652   1.054   3.074   0.462
 5251SOL    HW216653   1.019   2.957   0.354
 5252SOL     OW16654   5.091   6.678   1.359
 5252SOL    HW116655   5.029   6.724   1.296
 5252SOL    HW216656   5.043   6.604   1.405
 5253SOL     OW16657   5.840   2.752   3.236
 5253SOL    HW116658   5.860   2.730   3.332
 5253SOL    HW216659   5.919   2.798   3.196
 5254SOL     OW16660   4.773   0.750   4.242
 5254SOL    HW116661   4.693   0.750   4.182
 5254SOL    HW216662   4.856   0.763   4.187
 5255SOL     OW16663   3.191   6.147   4.787
 5255SOL    HW116664   3.095   6.140   4.813
 5255SOL    HW216665   3.227   6.055   4.768
 5256SOL     OW16666   5.130   6.518   2.311
 5256SOL    HW116667   5.146   6.617   2.305
 5256SOL    HW216668   5.198   6.477   2.372
 5257SOL     OW16669   2.938   1.289   3.277
 5257SOL    HW116670   3.017   1.335   3.238
 5257SOL    HW216671   2.914   1.331   3.364
 5258SOL     OW16672   6.023   2.294   1.983
 5258SOL    HW116673   5.925   2.276   1.981
 5258SOL    HW216674   6.061   2.285   1.891
 5259SOL     OW16675   5.371   4.374   1.360
 5259SOL    HW116676   5.365   4.323   1.446
 5259SOL    HW216677   5.466   4.401   1.343
 5260SOL     OW16678   5.119   2.708   2.019
 5260SOL    HW116679   5.037   2.733   1.967
 5260SOL    HW216680   5.112   2.745   2.111
 5261SOL     OW16681   2.632   2.294   4.735
 5261SOL    HW116682   2.688   2.293   4.818
 5261SOL    HW216683   2.692   2.307   4.656
 5262SOL     OW16684   1.605   0.150   1.609
 5262SOL    HW116685   1.603   0.156   1.709
 5262SOL    HW216686   1.527   0.200   1.571
 5263SOL     OW16687   0.970   6.377   0.103
 5263SOL    HW116688   0.906   6.301   0.097
 5263SOL    HW216689   0.928   6.460   0.067
 5264SOL     OW16690   1.023   1.568   1.167
 5264SOL    HW116691   0.927   1.592   1.150
 5264SOL    HW216692   1.040   1.562   1.265
 5265SOL     OW16693   5.608   5.152   3.551
 5265SOL    HW116694   5.576   5.086   3.484
 5265SOL    HW216695   5.530   5.187   3.603
 5266SOL     OW16696   1.072   6.769   1.280
 5266SOL    HW116697   0.996   6.820   1.239
 5266SOL    HW216698   1.149   6.767   1.216
 5267SOL     OW16699   4.436   3.675   5.295
 5267SOL    HW116700   4.450   3.774   5.294
 5267SOL    HW216701   4.512   3.631   5.245
 5268SOL     OW16702   5.720   5.352   5.437
 5268SOL    HW116703   5.666   5.349   5.353
 5268SOL    HW216704   5.802   5.296   5.425
 5269SOL     OW16705   2.135   4.670   5.899
 5269SOL    HW116706   2.121   4.594   5.963
 5269SOL    HW216707   2.057   4.732   5.904
 5270SOL     OW16708   6.367   2.719   3.117
 5270SOL    HW116709   6.394   2.695   3.024
 5270SOL    HW216710   6.319   2.642   3.159
 5271SOL     OW16711   5.446   3.815   5.593
 5271SOL    HW116712   5.546   3.819   5.582
 5271SOL    HW216713   5.404   3.891   5.544
 5272SOL     OW16714   1.729   1.393   3.915
 5272SOL    HW116715   1.671   1.448   3.976
 5272SOL    HW216716   1.825   1.405   3.941
 5273SOL     OW16717   0.382   0.062   4.932
 5273SOL    HW116718   0.337   0.149   4.954
 5273SOL    HW216719   0.320   0.005   4.878
 5274SOL     OW16720   0.582   5.724   4.571
 5274SOL    HW116721   0.628   5.659   4.631
 5274SOL    HW216722   0.508   5.677   4.522
 5275SOL     OW16723   1.522   6.656   6.942
 5275SOL    HW116724   1.587   6.608   7.001
 5275SOL    HW216725   1.451   6.698   6.999
 5276SOL     OW16726   0.058   0.200   0.471
 5276SOL    HW116727   0.017   0.131   0.531
 5276SOL    HW216728   0.151   0.219   0.502
 5277SOL     OW16729   0.797   1.255   2.571
 5277SOL    HW116730   0.828   1.253   2.476
 5277SOL    HW216731   0.701   1.228   2.576
 5278SOL     OW16732   0.726   3.630   6.029
 5278SOL    HW116733   0.820   3.620   5.997
 5278SOL    HW216734   0.670   3.670   5.956
 5279SOL     OW16735   2.608   6.404   6.712
 5279SOL    HW116736   2.533   6.363   6.661
 5279SOL    HW216737   2.593   6.503   6.719
 5280SOL     OW16738   4.853   6.383   5.146
 5280SOL    HW116739   4.911   6.367   5.066
 5280SOL    HW216740   4.791   6.458   5.127
 5281SOL     OW16741   2.664   6.967   5.052
 5281SOL    HW116742   2.592   6.946   5.119
 5281SOL    HW216743   2.753   6.941   5.089
 5282SOL     OW16744   0.390   0.001   0.780
 5282SOL    HW116745   0.400   6.925   0.819
 5282SOL    HW216746   0.408   0.069   0.851
 5283SOL     OW16747   1.031   1.139   3.626
 5283SOL    HW116748   1.057   1.086   3.546
 5283SOL    HW216749   0.931   1.144   3.632
 5284SOL     OW16750   4.961   3.388   1.987
 5284SOL    HW116751   4.895   3.448   1.940
 5284SOL    HW216752   4.965   3.300   1.940
 5285SOL     OW16753   1.355   1.939   3.902
 5285SOL    HW116754   1.284   1.876   3.935
 5285SOL    HW216755   1.442   1.891   3.897
 5286SOL     OW16756   6.486   2.951   1.578
 5286SOL    HW116757   6.564   2.900   1.615
 5286SOL    HW216758   6.444   2.897   1.505
 5287SOL     OW16759   1.221   5.205   1.345
 5287SOL    HW116760   1.179   5.289   1.380
 5287SOL    HW216761   1.167   5.170   1.268
 5288SOL     OW16762   3.858   0.766   1.633
 5288SOL    HW116763   3.907   0.736   1.715
 5288SOL    HW216764   3.891   0.856   1.605
 5289SOL     OW16765   2.396   4.612   6.068
 5289SOL    HW116766   2.425   4.691   6.014
 5289SOL    HW216767   2.356   4.544   6.007
 5290SOL     OW16768   1.945   3.479   4.703
 5290SOL    HW116769   1.855   3.435   4.704
 5290SOL    HW216770   2.007   3.431   4.766
 5291SOL     OW16771   3.378   4.937   4.511
 5291SOL    HW116772   3.409   4.914   4.418
 5291SOL    HW216773   3.288   4.897   4.527
 5292SOL     OW16774   0.366   3.536   5.038
 5292SOL    HW116775   0.407   3.608   4.982
 5292SOL    HW216776   0.438   3.477   5.074
 5293SOL     OW16777   2.051   0.022   4.788
 5293SOL    HW116778   1.964   7.010   4.748
 5293SOL    HW216779   2.105   6.957   4.810
 5294SOL     OW16780   4.955   6.903   5.130
 5294SOL    HW116781   4.904   6.989   5.132
 5294SOL    HW216782   4.968   6.875   5.034
 5295SOL     OW16783   1.998   1.030   2.593
 5295SOL    HW116784   2.014   1.115   2.543
 5295SOL    HW216785   2.043   0.955   2.544
 5296SOL     OW16786   4.618   4.549   1.617
 5296SOL    HW116787   4.707   4.515   1.648
 5296SOL    HW216788   4.598   4.512   1.527
 5297SOL     OW16789   2.656   5.756   5.997
 5297SOL    HW116790   2.641   5.666   6.039
 5297SOL    HW216791   2.645   5.827   6.066
 5298SOL     OW16792   2.419   1.440   0.560
 5298SOL    HW116793   2.457   1.376   0.493
 5298SOL    HW216794   2.430   1.402   0.652
 5299SOL     OW16795   2.173   1.169   1.626
 5299SOL    HW116796   2.096   1.214   1.671
 5299SOL    HW216797   2.254   1.227   1.632
 5300SOL     OW16798   2.964   4.826   6.719
 5300SOL    HW116799   3.042   4.887   6.703
 5300SOL    HW216800   2.880   4.873   6.693
 5301SOL     OW16801   5.893   0.062   6.080
 5301SOL    HW116802   5.930   0.052   5.988
 5301SOL    HW216803   5.800   0.098   6.074
 5302SOL     OW16804   5.502   5.812   2.479
 5302SOL    HW116805   5.532   5.907   2.493
 5302SOL    HW216806   5.579   5.751   2.495
 5303SOL     OW16807   0.973   5.339   5.523
 5303SOL    HW116808   1.060   5.299   5.493
 5303SOL    HW216809   0.991   5.413   5.587
 5304SOL     OW16810   0.322   0.548   3.172
 5304SOL    HW116811   0.395   0.504   3.121
 5304SOL    HW216812   0.242   0.488   3.175
 5305SOL     OW16813   0.023   5.024   3.689
 5305SOL    HW116814   0.079   5.015   3.607
 5305SOL    HW216815   6.995   4.936   3.710
 5306SOL     OW16816   0.572   2.513   5.861
 5306SOL    HW116817   0.595   2.501   5.764
 5306SOL    HW216818   0.482   2.471   5.879
 5307SOL     OW16819   6.609   1.787   1.646
 5307SOL    HW116820   6.563   1.702   1.671
 5307SOL    HW216821   6.691   1.799   1.701
 5308SOL     OW16822   1.620   4.104   3.080
 5308SOL    HW116823   1.718   4.122   3.092
 5308SOL    HW216824   1.606   4.050   2.997
 5309SOL     OW16825   6.169   5.193   3.336
 5309SOL    HW116826   6.247   5.229   3.388
 5309SOL    HW216827   6.133   5.112   3.382
 5310SOL     OW16828   5.912   2.590   2.808
 5310SOL    HW116829   5.938   2.509   2.756
 5310SOL    HW216830   5.861   2.563   2.889
 5311SOL     OW16831   5.792   0.074   0.831
 5311SOL    HW116832   5.886   0.101   0.809
 5311SOL    HW216833   5.746   0.042   0.748
 5312SOL     OW16834   6.416   6.423   0.650
 5312SOL    HW116835   6.476   6.394   0.725
 5312SOL    HW216836   6.433   6.519   0.629
 5313SOL     OW16837   1.103   6.434   5.484
 5313SOL    HW116838   1.043   6.361   5.451
 5313SOL    HW216839   1.069   6.468   5.572
 5314SOL     OW16840   6.169   0.930   1.931
 5314SOL    HW116841   6.133   1.002   1.989
 5314SOL    HW216842   6.249   0.889   1.974
 5315SOL     OW16843   4.318   1.880   3.993
 5315SOL    HW116844   4.272   1.831   3.918
 5315SOL    HW216845   4.363   1.814   4.053
 5316SOL     OW16846   0.852   2.279   4.830
 5316SOL    HW116847   0.864   2.375   4.855
 5316SOL    HW216848   0.758   2.264   4.799
 5317SOL     OW16849   5.940   2.626   0.017
 5317SOL    HW116850   5.997   2.663   0.090
 5317SOL    HW216851   5.844   2.627   0.044
 5318SOL     OW16852   0.422   4.056   6.691
 5318SOL    HW116853   0.354   4.057   6.617
 5318SOL    HW216854   0.514   4.067   6.652
 5319SOL     OW16855   4.139   6.267   2.084
 5319SOL    HW116856   4.192   6.234   2.006
 5319SOL    HW216857   4.046   6.287   2.055
 5320SOL     OW16858   3.890   5.592   0.909
 5320SOL    HW116859   3.896   5.493   0.922
 5320SOL    HW216860   3.959   5.637   0.965
 5321SOL     OW16861   2.015   4.225   5.588
 5321SOL    HW116862   1.975   4.223   5.496
 5321SOL    HW216863   2.114   4.237   5.582
 5322SOL     OW16864   4.741   6.770   2.134
 5322SOL    HW116865   4.724   6.673   2.117
 5322SOL    HW216866   4.655   6.815   2.163
 5323SOL     OW16867   4.612   0.619   5.805
 5323SOL    HW116868   4.526   0.584   5.841
 5323SOL    HW216869   4.623   0.592   5.709
 5324SOL     OW16870   2.369   1.898   1.154
 5324SOL    HW116871   2.330   1.811   1.183
 5324SOL    HW216872   2.436   1.929   1.222
 5325SOL     OW16873   2.251   2.292   4.864
 5325SOL    HW116874   2.162   2.315   4.824
 5325SOL    HW216875   2.278   2.364   4.928
 5326SOL     OW16876   6.266   6.531   1.854
 5326SOL    HW116877   6.223   6.599   1.796
 5326SOL    HW216878   6.363   6.524   1.832
 5327SOL     OW16879   0.119   3.301   5.687
 5327SOL    HW116880   0.203   3.319   5.738
 5327SOL    HW216881   0.117   3.357   5.605
 5328SOL     OW16882   4.498   5.513   0.010
 5328SOL    HW116883   4.482   5.606   6.992
 5328SOL    HW216884   4.487   5.449   6.950
 5329SOL     OW16885   1.335   6.575   6.016
 5329SOL    HW116886   1.309   6.660   5.970
 5329SOL    HW216887   1.298   6.497   5.967
 5330SOL     OW16888   2.230   4.761   1.288
 5330SOL    HW116889   2.307   4.823   1.273
 5330SOL    HW216890   2.162   4.804   1.347
 5331SOL     OW16891   6.353   0.890   6.215
 5331SOL    HW116892   6.357   0.981   6.256
 5331SOL    HW216893   6.266   0.847   6.237
 5332SOL     OW16894   0.312   4.835   1.668
 5332SOL    HW116895   0.337   4.780   1.588
 5332SOL    HW216896   0.243   4.787   1.722
 5333SOL     OW16897   1.284   6.262   4.567
 5333SOL    HW116898   1.205   6.208   4.538
 5333SOL    HW216899   1.365   6.231   4.518
 5334SOL     OW16900   3.630   0.593   4.345
 5334SOL    HW116901   3.650   0.679   4.299
 5334SOL    HW216902   3.694   0.581   4.421
 5335SOL     OW16903   0.008   5.904   6.949
 5335SOL    HW116904   0.056   5.963   7.014
 5335SOL    HW216905   6.979   5.960   6.880
 5336SOL     OW16906   1.205   3.779   1.867
 5336SOL    HW116907   1.129   3.791   1.804
 5336SOL    HW216908   1.230   3.867   1.907
 5337SOL     OW16909   5.444   3.848   1.433
 5337SOL    HW116910   5.534   3.808   1.415
 5337SOL    HW216911   5.409   3.814   1.520
 5338SOL     OW16912   6.198   1.355   6.799
 5338SOL    HW116913   6.155   1.445   6.803
 5338SOL    HW216914   6.246   1.344   6.713
 5339SOL     OW16915   6.539   0.560   2.246
 5339SOL    HW116916   6.533   0.505   2.329
 5339SOL    HW216917   6.551   0.500   2.167
 5340SOL     OW16918   5.154   2.485   5.935
 5340SOL    HW116919   5.224   2.461   6.002
 5340SOL    HW216920   5.082   2.538   5.979
 5341SOL     OW16921   3.703   0.464   0.624
 5341SOL    HW116922   3.723   0.379   0.673
 5341SOL    HW216923   3.661   0.529   0.687
 5342SOL     OW16924   2.487   0.787   6.128
 5342SOL    HW116925   2.572   0.773   6.179
 5342SOL    HW216926   2.435   0.701   6.126
 5343SOL     OW16927   3.685   3.975   2.095
 5343SOL    HW116928   3.760   4.010   2.151
 5343SOL    HW216929   3.608   3.950   2.153
 5344SOL     OW16930   2.324   2.371   3.135
 5344SOL    HW116931   2.279   2.310   3.070
 5344SOL    HW216932   2.255   2.426   3.183
 5345SOL     OW16933   4.697   0.127   2.205
 5345SOL    HW116934   4.767   0.189   2.168
 5345SOL    HW216935   4.669   0.063   2.134
 5346SOL     OW16936   2.540   6.528   3.464
 5346SOL    HW116937   2.611   6.568   3.407
 5346SOL    HW216938   2.567   6.435   3.491
 5347SOL     OW16939   0.183   2.092   2.219
 5347SOL    HW116940   0.197   1.995   2.236
 5347SOL    HW216941   0.099   2.122   2.265
 5348SOL     OW16942   6.916   0.599   0.222
 5348SOL    HW116943   6.891   0.552   0.307
 5348SOL    HW216944   6.978   0.674   0.244
 5349SOL     OW16945   6.584   0.459   1.681
 5349SOL    HW116946   6.504   0.417   1.724
 5349SOL    HW216947   6.634   0.513   1.748
 5350SOL     OW16948   2.553   0.653   6.769
 5350SOL    HW116949   2.588   0.691   6.684
 5350SOL    HW216950   2.456   0.632   6.759
 5351SOL     OW16951   4.284   0.268   1.994
 5351SOL    HW116952   4.299   0.201   1.921
 5351SOL    HW216953   4.340   0.244   2.073
 5352SOL     OW16954   3.207   6.152   3.670
 5352SOL    HW116955   3.179   6.247   3.676
 5352SOL    HW216956   3.238   6.132   3.577
 5353SOL     OW16957   5.692   0.302   5.497
 5353SOL    HW116958   5.606   0.272   5.456
 5353SOL    HW216959   5.747   0.222   5.521
 5354SOL     OW16960   1.425   3.335   1.263
 5354SOL    HW116961   1.401   3.404   1.332
 5354SOL    HW216962   1.347   3.273   1.250
 5355SOL     OW16963   4.148   1.692   4.963
 5355SOL    HW116964   4.110   1.784   4.949
 5355SOL    HW216965   4.099   1.648   5.038
 5356SOL     OW16966   5.772   3.467   0.955
 5356SOL    HW116967   5.783   3.529   0.876
 5356SOL    HW216968   5.842   3.488   1.023
 5357SOL     OW16969   3.381   6.807   0.542
 5357SOL    HW116970   3.312   6.741   0.512
 5357SOL    HW216971   3.344   6.862   0.617
 5358SOL     OW16972   4.645   3.158   1.342
 5358SOL    HW116973   4.646   3.166   1.442
 5358SOL    HW216974   4.675   3.066   1.316
 5359SOL     OW16975   2.710   6.994   6.588
 5359SOL    HW116976   2.772   6.919   6.611
 5359SOL    HW216977   2.715   0.049   6.659
 5360SOL     OW16978   4.108   0.221   6.818
 5360SOL    HW116979   4.085   0.124   6.824
 5360SOL    HW216980   4.190   0.233   6.762
 5361SOL     OW16981   1.900   0.650   5.997
 5361SOL    HW116982   1.883   0.567   6.051
 5361SOL    HW216983   1.991   0.686   6.019
 5362SOL     OW16984   4.263   6.001   3.987
 5362SOL    HW116985   4.343   5.949   3.957
 5362SOL    HW216986   4.180   5.950   3.966
 5363SOL     OW16987   0.732   5.138   5.450
 5363SOL    HW116988   0.752   5.223   5.402
 5363SOL    HW216989   0.742   5.152   5.548
 5364SOL     OW16990   0.491   6.437   6.777
 5364SOL    HW116991   0.508   6.526   6.819
 5364SOL    HW216992   0.517   6.441   6.680
 5365SOL     OW16993   3.881   1.829   6.592
 5365SOL    HW116994   3.871   1.741   6.546
 5365SOL    HW216995   3.826   1.897   6.545
 5366SOL     OW16996   3.709   4.267   6.907
 5366SOL    HW116997   3.759   4.191   6.950
 5366SOL    HW216998   3.620   4.234   6.875
 5367SOL     OW16999   0.239   4.524   0.898
 5367SOL    HW117000   0.207   4.570   0.815
 5367SOL    HW217001   0.206   4.429   0.898
 5368SOL     OW17002   6.467   0.821   3.656
 5368SOL    HW117003   6.495   0.895   3.717
 5368SOL    HW217004   6.497   0.841   3.563
 5369SOL     OW17005   1.736   3.962   2.510
 5369SOL    HW117006   1.732   3.877   2.458
 5369SOL    HW217007   1.832   3.989   2.523
 5370SOL     OW17008   4.092   3.015   1.333
 5370SOL    HW117009   3.999   3.050   1.334
 5370SOL    HW217010   4.110   2.973   1.244
 5371SOL     OW17011   1.552   4.414   5.072
 5371SOL    HW117012   1.491   4.437   4.996
 5371SOL    HW217013   1.558   4.491   5.134
 5372SOL     OW17014   2.845   5.421   2.998
 5372SOL    HW117015   2.761   5.460   2.960
 5372SOL    HW217016   2.875   5.345   2.940
 5373SOL     OW17017   1.952   4.903   4.008
 5373SOL    HW117018   1.873   4.877   3.953
 5373SOL    HW217019   1.931   4.889   4.105
 5374SOL     OW17020   3.281   2.492   0.709
 5374SOL    HW117021   3.366   2.477   0.660
 5374SOL    HW217022   3.298   2.551   0.788
 5375SOL     OW17023   1.825   4.186   4.585
 5375SOL    HW117024   1.748   4.249   4.587
 5375SOL    HW217025   1.795   4.098   4.548
 5376SOL     OW17026   2.964   4.038   0.166
 5376SOL    HW117027   2.977   3.947   0.127
 5376SOL    HW217028   2.957   4.032   0.265
 5377SOL     OW17029   0.794   1.575   1.433
 5377SOL    HW117030   0.887   1.605   1.416
 5377SOL    HW217031   0.775   1.575   1.531
 5378SOL     OW17032   4.439   6.858   0.197
 5378SOL    HW117033   4.355   6.829   0.151
 5378SOL    HW217034   4.417   6.894   0.287
 5379SOL     OW17035   6.618   6.530   1.229
 5379SOL    HW117036   6.658   6.582   1.154
 5379SOL    HW217037   6.606   6.590   1.308
 5380SOL     OW17038   2.319   0.394   4.365
 5380SOL    HW117039   2.225   0.414   4.337
 5380SOL    HW217040   2.364   0.479   4.392
 5381SOL     OW17041   5.475   3.460   1.644
 5381SOL    HW117042   5.439   3.371   1.672
 5381SOL    HW217043   5.521   3.503   1.722
 5382SOL     OW17044   2.004   0.624   1.419
 5382SOL    HW117045   2.061   0.666   1.490
 5382SOL    HW217046   1.907   0.642   1.439
 5383SOL     OW17047   1.922   2.212   4.433
 5383SOL    HW117048   1.890   2.302   4.461
 5383SOL    HW217049   1.880   2.187   4.346
 5384SOL     OW17050   5.917   6.827   4.134
 5384SOL    HW117051   5.845   6.764   4.164
 5384SOL    HW217052   5.954   6.794   4.047
 5385SOL     OW17053   3.207   3.968   2.639
 5385SOL    HW117054   3.174   3.909   2.566
 5385SOL    HW217055   3.304   3.987   2.626
 5386SOL     OW17056   5.376   6.997   5.872
 5386SOL    HW117057   5.438   6.968   5.945
 5386SOL    HW217058   5.428   7.010   5.788
 5387SOL     OW17059   3.231   5.444   1.263
 5387SOL    HW117060   3.184   5.509   1.323
 5387SOL    HW217061   3.311   5.488   1.223
 5388SOL     OW17062   6.217   6.639   2.590
 5388SOL    HW117063   6.209   6.643   2.490
 5388SOL    HW217064   6.289   6.573   2.614
 5389SOL     OW17065   5.102   2.084   1.053
 5389SOL    HW117066   5.044   2.052   0.978
 5389SOL    HW217067   5.143   2.172   1.028
 5390SOL     OW17068   6.501   4.820   5.983
 5390SOL    HW117069   6.513   4.753   6.056
 5390SOL    HW217070   6.504   4.912   6.022
 5391SOL     OW17071   2.700   3.664   7.015
 5391SOL    HW117072   2.635   3.721   0.051
 5391SOL    HW217073   2.697   3.571   0.035
 5392SOL     OW17074   6.467   2.607   2.559
 5392SOL    HW117075   6.371   2.601   2.531
 5392SOL    HW217076   6.525   2.617   2.478
 5393SOL     OW17077   6.047   6.905   6.225
 5393SOL    HW117078   5.975   6.952   6.175
 5393SOL    HW217079   6.060   6.948   6.314
 5394SOL     OW17080   1.721   3.926   5.775
 5394SOL    HW117081   1.711   3.931   5.676
 5394SOL    HW217082   1.669   3.999   5.818
 5395SOL     OW17083   4.579   0.593   0.200
 5395SOL    HW117084   4.667   0.617   0.241
 5395SOL    HW217085   4.506   0.645   0.244
 5396SOL     OW17086   5.085   2.805   2.348
 5396SOL    HW117087   5.059   2.897   2.318
 5396SOL    HW217088   5.173   2.809   2.395
 5397SOL     OW17089   0.568   2.824   1.426
 5397SOL    HW117090   0.573   2.770   1.510
 5397SOL    HW217091   0.661   2.849   1.398
 5398SOL     OW17092   3.407   3.306   1.807
 5398SOL    HW117093   3.482   3.364   1.774
 5398SOL    HW217094   3.320   3.355   1.797
 5399SOL     OW17095   1.154   6.397   0.314
 5399SOL    HW117096   1.081   6.413   0.247
 5399SOL    HW217097   1.114   6.370   0.402
 5400SOL     OW17098   2.317   4.257   6.728
 5400SOL    HW117099   2.281   4.166   6.706
 5400SOL    HW217100   2.371   4.290   6.651
 5401SOL     OW17101   6.426   2.012   1.687
 5401SOL    HW117102   6.508   1.993   1.633
 5401SOL    HW217103   6.358   1.940   1.670
 5402SOL     OW17104   1.684   6.192   2.535
 5402SOL    HW117105   1.710   6.096   2.528
 5402SOL    HW217106   1.715   6.228   2.623
 5403SOL     OW17107   5.895   3.717   0.022
 5403SOL    HW117108   5.911   3.787   0.092
 5403SOL    HW217109   5.981   3.670   0.003
 5404SOL     OW17110   1.209   3.132   2.959
 5404SOL    HW117111   1.300   3.173   2.953
 5404SOL    HW217112   1.149   3.174   2.891
 5405SOL     OW17113   6.783   3.907   5.882
 5405SOL    HW117114   6.782   3.989   5.824
 5405SOL    HW217115   6.836   3.925   5.964
 5406SOL     OW17116   1.933   6.903   4.472
 5406SOL    HW117117   1.890   6.861   4.393
 5406SOL    HW217118   1.863   6.927   4.539
 5407SOL     OW17119   4.212   3.108   6.904
 5407SOL    HW117120   4.149   3.174   6.946
 5407SOL    HW217121   4.159   3.043   6.849
 5408SOL     OW17122   2.954   1.402   0.404
 5408SOL    HW117123   2.974   1.442   0.493
 5408SOL    HW217124   2.960   1.473   0.333
 5409SOL     OW17125   3.928   0.731   2.454
 5409SOL    HW117126   3.931   0.811   2.394
 5409SOL    HW217127   3.972   0.654   2.408
 5410SOL     OW17128   1.582   2.332   2.936
 5410SOL    HW117129   1.597   2.233   2.934
 5410SOL    HW217130   1.615   2.372   2.851
 5411SOL     OW17131   1.603   4.979   4.330
 5411SOL    HW117132   1.597   4.881   4.350
 5411SOL    HW217133   1.522   5.026   4.366
 5412SOL     OW17134   5.841   2.599   1.614
 5412SOL    HW117135   5.849   2.696   1.590
 5412SOL    HW217136   5.846   2.589   1.713
 5413SOL     OW17137   2.625   0.363   2.252
 5413SOL    HW117138   2.683   0.427   2.204
 5413SOL    HW217139   2.529   0.389   2.240
 5414SOL     OW17140   4.772   0.823   5.750
 5414SOL    HW117141   4.696   0.871   5.707
 5414SOL    HW217142   4.736   0.762   5.821
 5415SOL     OW17143   5.953   3.903   2.256
 5415SOL    HW117144   5.980   3.807   2.261
 5415SOL    HW217145   6.011   3.956   2.318
 5416SOL     OW17146   4.396   5.057   4.119
 5416SOL    HW117147   4.308   5.077   4.163
 5416SOL    HW217148   4.461   5.130   4.138
 5417SOL     OW17149   3.767   6.983   5.292
 5417SOL    HW117150   3.753   6.894   5.248
 5417SOL    HW217151   3.865   6.996   5.310
 5418SOL     OW17152   3.478   0.896   3.137
 5418SOL    HW117153   3.434   0.982   3.162
 5418SOL    HW217154   3.424   0.819   3.171
 5419SOL     OW17155   3.291   4.269   6.763
 5419SOL    HW117156   3.194   4.244   6.772
 5419SOL    HW217157   3.339   4.244   6.847
 5420SOL     OW17158   1.318   2.232   2.657
 5420SOL    HW117159   1.274   2.169   2.593
 5420SOL    HW217160   1.367   2.180   2.727
 5421SOL     OW17161   1.483   2.962   1.342
 5421SOL    HW117162   1.517   2.878   1.300
 5421SOL    HW217163   1.536   2.981   1.425
 5422SOL     OW17164   1.808   3.967   0.213
 5422SOL    HW117165   1.827   4.024   0.293
 5422SOL    HW217166   1.779   4.024   0.137
 5423SOL     OW17167   5.606   3.642   6.228
 5423SOL    HW117168   5.634   3.564   6.283
 5423SOL    HW217169   5.508   3.637   6.210
 5424SOL     OW17170   5.287   3.314   5.574
 5424SOL    HW117171   5.263   3.375   5.498
 5424SOL    HW217172   5.308   3.369   5.655
 5425SOL     OW17173   5.478   0.625   4.889
 5425SOL    HW117174   5.394   0.611   4.942
 5425SOL    HW217175   5.481   0.559   4.814
 5426SOL     OW17176   0.057   7.006   4.943
 5426SOL    HW117177   0.108   6.997   4.858
 5426SOL    HW217178   0.118   6.990   5.020
 5427SOL     OW17179   3.830   6.593   0.074
 5427SOL    HW117180   3.783   6.605   7.002
 5427SOL    HW217181   3.864   6.500   0.081
 5428SOL     OW17182   1.943   0.587   6.754
 5428SOL    HW117183   1.869   0.647   6.784
 5428SOL    HW217184   1.928   0.495   6.791
 5429SOL     OW17185   1.443   2.647   6.615
 5429SOL    HW117186   1.454   2.603   6.704
 5429SOL    HW217187   1.434   2.577   6.544
 5430SOL     OW17188   1.942   2.018   5.112
 5430SOL    HW117189   1.910   2.053   5.024
 5430SOL    HW217190   2.034   1.979   5.101
 5431SOL     OW17191   3.663   6.022   4.369
 5431SOL    HW117192   3.761   6.044   4.365
 5431SOL    HW217193   3.637   5.971   4.287
 5432SOL     OW17194   6.051   6.428   1.510
 5432SOL    HW117195   6.043   6.522   1.476
 5432SOL    HW217196   5.980   6.411   1.578
 5433SOL     OW17197   0.052   2.226   4.440
 5433SOL    HW117198   0.049   2.151   4.373
 5433SOL    HW217199   0.010   2.307   4.401
 5434SOL     OW17200   2.695   0.066   5.407
 5434SOL    HW117201   2.627   0.130   5.371
 5434SOL    HW217202   2.780   0.077   5.357
 5435SOL     OW17203   4.441   1.271   1.810
 5435SOL    HW117204   4.341   1.275   1.803
 5435SOL    HW217205   4.480   1.266   1.718
 5436SOL     OW17206   5.000   3.911   2.398
 5436SOL    HW117207   4.938   3.845   2.356
 5436SOL    HW217208   4.956   3.952   2.478
 5437SOL     OW17209   3.390   4.282   6.490
 5437SOL    HW117210   3.467   4.346   6.489
 5437SOL    HW217211   3.358   4.271   6.584
 5438SOL     OW17212   6.776   1.151   1.662
 5438SOL    HW117213   6.771   1.052   1.650
 5438SOL    HW217214   6.696   1.182   1.714
 5439SOL     OW17215   1.712   2.537   1.031
 5439SOL    HW117216   1.683   2.444   1.006
 5439SOL    HW217217   1.804   2.553   0.996
 5440SOL     OW17218   1.566   1.846   0.679
 5440SOL    HW117219   1.508   1.893   0.746
 5440SOL    HW217220   1.648   1.900   0.663
 5441SOL     OW17221   4.005   1.903   4.072
 5441SOL    HW117222   3.992   1.959   4.154
 5441SOL    HW217223   4.093   1.925   4.030
 5442SOL     OW17224   3.388   0.795   2.811
 5442SOL    HW117225   3.472   0.779   2.862
 5442SOL    HW217226   3.309   0.771   2.868
 5443SOL     OW17227   2.975   6.850   5.669
 5443SOL    HW117228   3.000   6.753   5.664
 5443SOL    HW217229   2.890   6.865   5.619
 5444SOL     OW17230   0.272   0.303   4.046
 5444SOL    HW117231   0.177   0.311   4.079
 5444SOL    HW217232   0.272   0.263   3.955
 5445SOL     OW17233   5.789   3.726   1.905
 5445SOL    HW117234   5.851   3.689   1.836
 5445SOL    HW217235   5.824   3.703   1.996
 5446SOL     OW17236   0.051   5.978   5.731
 5446SOL    HW117237   6.970   5.976   5.706
 5446SOL    HW217238   0.060   5.977   5.831
 5447SOL     OW17239   3.088   2.143   1.174
 5447SOL    HW117240   3.152   2.213   1.205
 5447SOL    HW217241   3.032   2.180   1.099
 5448SOL     OW17242   5.421   2.164   6.315
 5448SOL    HW117243   5.411   2.142   6.412
 5448SOL    HW217244   5.480   2.244   6.305
 5449SOL     OW17245   0.351   3.430   6.586
 5449SOL    HW117246   0.333   3.518   6.628
 5449SOL    HW217247   0.379   3.443   6.491
 5450SOL     OW17248   2.018   6.677   0.648
 5450SOL    HW117249   2.012   6.620   0.730
 5450SOL    HW217250   1.938   6.660   0.589
 5451SOL     OW17251   1.754   0.279   2.380
 5451SOL    HW117252   1.692   0.355   2.399
 5451SOL    HW217253   1.727   0.199   2.435
 5452SOL     OW17254   2.668   3.695   5.613
 5452SOL    HW117255   2.683   3.793   5.624
 5452SOL    HW217256   2.685   3.649   5.700
 5453SOL     OW17257   6.887   4.810   6.421
 5453SOL    HW117258   6.981   4.812   6.454
 5453SOL    HW217259   6.881   4.751   6.340
 5454SOL     OW17260   0.612   3.894   5.396
 5454SOL    HW117261   0.597   3.813   5.453
 5454SOL    HW217262   0.552   3.890   5.316
 5455SOL     OW17263   0.271   3.029   0.722
 5455SOL    HW117264   0.354   2.999   0.676
 5455SOL    HW217265   0.191   3.001   0.669
 5456SOL     OW17266   3.210   6.580   1.808
 5456SOL    HW117267   3.278   6.644   1.770
 5456SOL    HW217268   3.137   6.632   1.853
 5457SOL     OW17269   5.810   3.769   0.352
 5457SOL    HW117270   5.758   3.842   0.396
 5457SOL    HW217271   5.908   3.792   0.355
 5458SOL     OW17272   2.241   4.658   6.425
 5458SOL    HW117273   2.175   4.701   6.364
 5458SOL    HW217274   2.333   4.691   6.405
 5459SOL     OW17275   2.222   4.918   6.034
 5459SOL    HW117276   2.235   4.827   5.994
 5459SOL    HW217277   2.205   4.910   6.132
 5460SOL     OW17278   3.434   0.122   2.412
 5460SOL    HW117279   3.336   0.143   2.413
 5460SOL    HW217280   3.466   0.111   2.506
 5461SOL     OW17281   4.651   6.463   4.881
 5461SOL    HW117282   4.716   6.533   4.910
 5461SOL    HW217283   4.678   6.426   4.793
 5462SOL     OW17284   0.594   0.146   1.355
 5462SOL    HW117285   0.553   0.234   1.378
 5462SOL    HW217286   0.644   0.155   1.268
 5463SOL     OW17287   6.985   2.986   0.691
 5463SOL    HW117288   6.908   3.022   0.744
 5463SOL    HW217289   6.962   2.895   0.658
 5464SOL     OW17290   2.392   6.363   3.945
 5464SOL    HW117291   2.425   6.269   3.945
 5464SOL    HW217292   2.449   6.419   4.004
 5465SOL     OW17293   1.868   6.229   6.182
 5465SOL    HW117294   1.855   6.328   6.183
 5465SOL    HW217295   1.936   6.205   6.112
 5466SOL     OW17296   5.337   4.872   4.909
 5466SOL    HW117297   5.325   4.971   4.910
 5466SOL    HW217298   5.426   4.849   4.948
 5467SOL     OW17299   5.909   1.634   2.514
 5467SOL    HW117300   5.938   1.723   2.478
 5467SOL    HW217301   5.888   1.573   2.437
 5468SOL     OW17302   4.167   1.594   5.675
 5468SOL    HW117303   4.243   1.564   5.618
 5468SOL    HW217304   4.085   1.543   5.651
 5469SOL     OW17305   4.399   4.442   0.980
 5469SOL    HW117306   4.405   4.502   0.900
 5469SOL    HW217307   4.349   4.359   0.956
 5470SOL     OW17308   0.304   5.203   3.208
 5470SOL    HW117309   0.351   5.273   3.155
 5470SOL    HW217310   0.283   5.239   3.299
 5471SOL     OW17311   6.538   4.899   2.431
 5471SOL    HW117312   6.560   4.865   2.340
 5471SOL    HW217313   6.440   4.916   2.437
 5472SOL     OW17314   3.663   5.294   5.923
 5472SOL    HW117315   3.674   5.390   5.945
 5472SOL    HW217316   3.680   5.238   6.004
 5473SOL     OW17317   1.140   3.899   3.534
 5473SOL    HW117318   1.173   3.991   3.511
 5473SOL    HW217319   1.216   3.845   3.570
 5474SOL     OW17320   1.606   6.171   3.752
 5474SOL    HW117321   1.677   6.152   3.821
 5474SOL    HW217322   1.605   6.270   3.733
 5475SOL     OW17323   3.207   2.522   1.346
 5475SOL    HW117324   3.267   2.601   1.340
 5475SOL    HW217325   3.113   2.549   1.322
 5476SOL     OW17326   1.860   3.552   6.602
 5476SOL    HW117327   1.925   3.594   6.539
 5476SOL    HW217328   1.783   3.614   6.617
 5477SOL     OW17329   1.695   2.905   2.493
 5477SOL    HW117330   1.747   2.960   2.558
 5477SOL    HW217331   1.600   2.896   2.525
 5478SOL     OW17332   0.123   6.014   6.244
 5478SOL    HW117333   0.056   6.012   6.318
 5478SOL    HW217334   0.196   5.948   6.262
 5479SOL     OW17335   4.457   0.018   4.474
 5479SOL    HW117336   4.458   6.960   4.407
 5479SOL    HW217337   4.543   0.069   4.470
 5480SOL     OW17338   0.916   2.641   5.268
 5480SOL    HW117339   0.893   2.652   5.365
 5480SOL    HW217340   1.014   2.626   5.258
 5481SOL     OW17341   4.878   6.597   3.633
 5481SOL    HW117342   4.787   6.563   3.657
 5481SOL    HW217343   4.938   6.589   3.713
 5482SOL     OW17344   1.395   4.700   1.913
 5482SOL    HW117345   1.312   4.742   1.949
 5482SOL    HW217346   1.425   4.628   1.976
 5483SOL     OW17347   0.600   3.177   6.151
 5483SOL    HW117348   0.593   3.270   6.114
 5483SOL    HW217349   0.696   3.149   6.153
 5484SOL     OW17350   5.207   0.572   4.699
 5484SOL    HW117351   5.193   0.666   4.668
 5484SOL    HW217352   5.245   0.517   4.625
 5485SOL     OW17353   3.853   0.719   4.938
 5485SOL    HW117354   3.793   0.640   4.950
 5485SOL    HW217355   3.799   0.803   4.945
 5486SOL     OW17356   2.784   5.476   4.342
 5486SOL    HW117357   2.749   5.564   4.374
 5486SOL    HW217358   2.878   5.464   4.374
 5487SOL     OW17359   3.280   5.398   5.444
 5487SOL    HW117360   3.354   5.414   5.510
 5487SOL    HW217361   3.251   5.485   5.405
 5488SOL     OW17362   4.992   1.774   0.132
 5488SOL    HW117363   4.936   1.789   0.050
 5488SOL    HW217364   5.017   1.862   0.171
 5489SOL     OW17365   0.239   3.622   3.592
 5489SOL    HW117366   0.309   3.576   3.647
 5489SOL    HW217367   0.149   3.609   3.634
 5490SOL     OW17368   1.305   5.745   2.713
 5490SOL    HW117369   1.293   5.669   2.649
 5490SOL    HW217370   1.248   5.730   2.794
 5491SOL     OW17371   6.045   3.966   0.599
 5491SOL    HW117372   5.968   3.978   0.662
 5491SOL    HW217373   6.110   4.042   0.610
 5492SOL     OW17374   0.289   1.846   6.093
 5492SOL    HW117375   0.193   1.819   6.077
 5492SOL    HW217376   0.337   1.771   6.140
 5493SOL     OW17377   4.405   3.889   0.720
 5493SOL    HW117378   4.443   3.981   0.713
 5493SOL    HW217379   4.337   3.886   0.793
 5494SOL     OW17380   5.787   3.141   5.557
 5494SOL    HW117381   5.841   3.209   5.607
 5494SOL    HW217382   5.756   3.070   5.621
 5495SOL     OW17383   5.547   6.945   0.223
 5495SOL    HW117384   5.561   0.028   0.231
 5495SOL    HW217385   5.540   6.919   0.127
 5496SOL     OW17386   4.357   7.001   5.369
 5496SOL    HW117387   4.309   6.918   5.340
 5496SOL    HW217388   4.413   0.020   5.294
 5497SOL     OW17389   0.648   0.313   4.653
 5497SOL    HW117390   0.563   0.359   4.680
 5497SOL    HW217391   0.656   0.226   4.701
 5498SOL     OW17392   0.301   5.526   1.044
 5498SOL    HW117393   0.310   5.455   0.974
 5498SOL    HW217394   0.391   5.548   1.082
 5499SOL     OW17395   2.107   0.051   4.343
 5499SOL    HW117396   2.032   0.110   4.314
 5499SOL    HW217397   2.078   7.013   4.422
 5500SOL     OW17398   2.371   0.052   1.311
 5500SOL    HW117399   2.431   6.989   1.298
 5500SOL    HW217400   2.357   0.098   1.223
 5501SOL     OW17401   4.065   3.308   0.015
 5501SOL    HW117402   4.103   3.393   0.051
 5501SOL    HW217403   3.970   3.298   0.045
 5502SOL     OW17404   4.576   3.696   0.071
 5502SOL    HW117405   4.641   3.744   0.012
 5502SOL    HW217406   4.551   3.609   0.028
 5503SOL     OW17407   6.056   2.990   0.803
 5503SOL    HW117408   6.044   3.035   0.714
 5503SOL    HW217409   6.092   2.898   0.789
 5504SOL     OW17410   4.199   2.069   0.177
 5504SOL    HW117411   4.268   2.087   0.106
 5504SOL    HW217412   4.224   1.985   0.226
 5505SOL     OW17413   3.034   4.879   2.852
 5505SOL    HW117414   2.982   4.928   2.782
 5505SOL    HW217415   3.000   4.905   2.942
 5506SOL     OW17416   6.292   2.368   6.423
 5506SOL    HW117417   6.367   2.396   6.363
 5506SOL    HW217418   6.254   2.448   6.469
 5507SOL     OW17419   3.814   0.009   0.265
 5507SOL    HW117420   3.909   0.011   0.296
 5507SOL    HW217421   3.792   0.094   0.217
 5508SOL     OW17422   0.593   1.019   6.301
 5508SOL    HW117423   0.603   1.119   6.303
 5508SOL    HW217424   0.534   0.992   6.225
 5509SOL     OW17425   6.465   4.310   0.234
 5509SOL    HW117426   6.370   4.303   0.267
 5509SOL    HW217427   6.505   4.396   0.265
 5510SOL     OW17428   5.093   5.358   6.486
 5510SOL    HW117429   5.172   5.313   6.446
 5510SOL    HW217430   5.019   5.292   6.498
 5511SOL     OW17431   0.800   2.661   6.171
 5511SOL    HW117432   0.744   2.732   6.128
 5511SOL    HW217433   0.820   2.686   6.265
 5512SOL     OW17434   1.698   0.151   2.134
 5512SOL    HW117435   1.740   0.060   2.132
 5512SOL    HW217436   1.720   0.196   2.221
 5513SOL     OW17437   3.804   4.676   6.903
 5513SOL    HW117438   3.862   4.718   6.973
 5513SOL    HW217439   3.854   4.671   6.817
 5514SOL     OW17440   3.201   0.851   0.224
 5514SOL    HW117441   3.210   0.921   0.154
 5514SOL    HW217442   3.107   0.850   0.258
 5515SOL     OW17443   3.318   5.399   2.241
 5515SOL    HW117444   3.224   5.410   2.274
 5515SOL    HW217445   3.320   5.332   2.167
 5516SOL     OW17446   1.944   2.127   5.506
 5516SOL    HW117447   2.030   2.091   5.469
 5516SOL    HW217448   1.962   2.212   5.554
 5517SOL     OW17449   1.175   2.302   3.534
 5517SOL    HW117450   1.230   2.385   3.540
 5517SOL    HW217451   1.078   2.326   3.536
 5518SOL     OW17452   4.637   5.014   6.898
 5518SOL    HW117453   4.735   5.031   6.908
 5518SOL    HW217454   4.622   4.917   6.877
 5519SOL     OW17455   5.182   2.467   5.239
 5519SOL    HW117456   5.164   2.432   5.147
 5519SOL    HW217457   5.240   2.548   5.234
 5520SOL     OW17458   4.789   0.223   1.516
 5520SOL    HW117459   4.765   0.197   1.423
 5520SOL    HW217460   4.721   0.286   1.552
 5521SOL     OW17461   4.716   6.492   2.476
 5521SOL    HW117462   4.638   6.510   2.417
 5521SOL    HW217463   4.788   6.447   2.423
 5522SOL     OW17464   5.906   6.279   0.595
 5522SOL    HW117465   5.921   6.189   0.555
 5522SOL    HW217466   5.994   6.325   0.609
 5523SOL     OW17467   5.143   1.689   0.826
 5523SOL    HW117468   5.118   1.785   0.837
 5523SOL    HW217469   5.069   1.631   0.861
 5524SOL     OW17470   2.266   1.105   3.149
 5524SOL    HW117471   2.226   1.187   3.190
 5524SOL    HW217472   2.346   1.077   3.202
 5525SOL     OW17473   6.663   1.495   1.040
 5525SOL    HW117474   6.597   1.522   1.110
 5525SOL    HW217475   6.633   1.527   0.951
 5526SOL     OW17476   5.613   4.415   3.971
 5526SOL    HW117477   5.625   4.489   4.037
 5526SOL    HW217478   5.671   4.338   3.996
 5527SOL     OW17479   6.453   0.357   2.937
 5527SOL    HW117480   6.391   0.286   2.971
 5527SOL    HW217481   6.547   0.329   2.954
 5528SOL     OW17482   1.314   2.096   0.064
 5528SOL    HW117483   1.257   2.177   0.072
 5528SOL    HW217484   1.266   2.027   0.010
 5529SOL     OW17485   3.142   0.535   2.584
 5529SOL    HW117486   3.143   0.631   2.555
 5529SOL    HW217487   3.154   0.531   2.683
 5530SOL     OW17488   0.013   1.842   0.899
 5530SOL    HW117489   0.014   1.754   0.852
 5530SOL    HW217490   6.982   1.832   0.987
 5531SOL     OW17491   1.626   4.313   1.787
 5531SOL    HW117492   1.683   4.395   1.789
 5531SOL    HW217493   1.543   4.328   1.840
 5532SOL     OW17494   0.641   3.548   6.876
 5532SOL    HW117495   0.587   3.610   6.933
 5532SOL    HW217496   0.657   3.590   6.787
 5533SOL     OW17497   3.905   1.081   2.874
 5533SOL    HW117498   3.943   1.171   2.896
 5533SOL    HW217499   3.825   1.064   2.932
 5534SOL     OW17500   1.286   0.146   4.485
 5534SOL    HW117501   1.217   0.106   4.545
 5534SOL    HW217502   1.368   0.089   4.486
 5535SOL     OW17503   6.806   2.056   3.014
 5535SOL    HW117504   6.832   1.999   3.092
 5535SOL    HW217505   6.706   2.052   3.002
 5536SOL     OW17506   4.919   6.390   4.364
 5536SOL    HW117507   4.827   6.407   4.329
 5536SOL    HW217508   4.962   6.478   4.387
 5537SOL     OW17509   2.696   2.282   3.556
 5537SOL    HW117510   2.749   2.292   3.640
 5537SOL    HW217511   2.696   2.368   3.506
 5538SOL     OW17512   4.603   5.362   4.384
 5538SOL    HW117513   4.702   5.357   4.373
 5538SOL    HW217514   4.580   5.435   4.449
 5539SOL     OW17515   2.233   4.602   6.699
 5539SOL    HW117516   2.253   4.627   6.604
 5539SOL    HW217517   2.197   4.682   6.747
 5540SOL     OW17518   3.936   5.587   1.739
 5540SOL    HW117519   3.873   5.513   1.718
 5540SOL    HW217520   3.983   5.615   1.655
 5541SOL     OW17521   4.574   1.111   5.778
 5541SOL    HW117522   4.501   1.175   5.755
 5541SOL    HW217523   4.629   1.093   5.696
 5542SOL     OW17524   5.284   4.394   6.533
 5542SOL    HW117525   5.302   4.396   6.434
 5542SOL    HW217526   5.335   4.467   6.578
 5543SOL     OW17527   0.528   1.529   5.215
 5543SOL    HW117528   0.535   1.619   5.172
 5543SOL    HW217529   0.556   1.535   5.310
 5544SOL     OW17530   5.441   0.646   6.860
 5544SOL    HW117531   5.438   0.714   6.787
 5544SOL    HW217532   5.527   0.656   6.911
 5545SOL     OW17533   2.303   2.760   1.954
 5545SOL    HW117534   2.345   2.821   1.886
 5545SOL    HW217535   2.369   2.691   1.982
 5546SOL     OW17536   3.935   5.094   5.850
 5546SOL    HW117537   3.859   5.069   5.790
 5546SOL    HW217538   3.941   5.194   5.855
 5547SOL     OW17539   3.358   5.685   4.466
 5547SOL    HW117540   3.331   5.728   4.380
 5547SOL    HW217541   3.423   5.612   4.449
 5548SOL     OW17542   0.654   2.000   4.665
 5548SOL    HW117543   0.642   2.008   4.566
 5548SOL    HW217544   0.644   2.090   4.707
 5549SOL     OW17545   3.200   5.115   7.010
 5549SOL    HW117546   3.177   5.164   6.927
 5549SOL    HW217547   3.271   5.164   0.045
 5550SOL     OW17548   2.507   6.168   2.287
 5550SOL    HW117549   2.567   6.110   2.342
 5550SOL    HW217550   2.543   6.261   2.285
 5551SOL     OW17551   0.438   1.053   2.856
 5551SOL    HW117552   0.520   1.023   2.905
 5551SOL    HW217553   0.430   1.001   2.771
 5552SOL     OW17554   1.372   2.604   2.548
 5552SOL    HW117555   1.299   2.572   2.610
 5552SOL    HW217556   1.416   2.525   2.506
 5553SOL     OW17557   4.662   6.066   6.299
 5553SOL    HW117558   4.615   6.127   6.236
 5553SOL    HW217559   4.653   5.972   6.267
 5554SOL     OW17560   3.391   1.253   4.587
 5554SOL    HW117561   3.429   1.167   4.555
 5554SOL    HW217562   3.314   1.280   4.529
 5555SOL     OW17563   1.098   6.131   1.528
 5555SOL    HW117564   1.099   6.031   1.526
 5555SOL    HW217565   1.154   6.167   1.454
 5556SOL     OW17566   0.389   0.778   4.585
 5556SOL    HW117567   0.317   0.726   4.630
 5556SOL    HW217568   0.395   0.870   4.625
 5557SOL     OW17569   2.671   0.449   2.666
 5557SOL    HW117570   2.634   0.356   2.656
 5557SOL    HW217571   2.597   0.515   2.661
 5558SOL     OW17572   5.017   1.786   5.410
 5558SOL    HW117573   4.983   1.804   5.503
 5558SOL    HW217574   5.113   1.814   5.404
 5559SOL     OW17575   1.986   0.925   0.997
 5559SOL    HW117576   1.970   0.978   1.080
 5559SOL    HW217577   1.975   0.827   1.018
 5560SOL     OW17578   0.413   1.439   4.760
 5560SOL    HW117579   0.476   1.443   4.683
 5560SOL    HW217580   0.459   1.398   4.839
 5561SOL     OW17581   1.544   4.121   2.395
 5561SOL    HW117582   1.455   4.077   2.381
 5561SOL    HW217583   1.606   4.056   2.440
 5562SOL     OW17584   3.410   2.240   6.733
 5562SOL    HW117585   3.475   2.278   6.799
 5562SOL    HW217586   3.440   2.264   6.640
 5563SOL     OW17587   3.933   4.288   1.355
 5563SOL    HW117588   3.960   4.229   1.431
 5563SOL    HW217589   3.836   4.275   1.336
 5564SOL     OW17590   5.479   2.062   1.445
 5564SOL    HW117591   5.381   2.046   1.436
 5564SOL    HW217592   5.511   2.118   1.368
 5565SOL     OW17593   2.317   2.520   5.028
 5565SOL    HW117594   2.354   2.437   5.070
 5565SOL    HW217595   2.337   2.598   5.086
 5566SOL     OW17596   2.254   3.885   0.550
 5566SOL    HW117597   2.272   3.799   0.501
 5566SOL    HW217598   2.169   3.877   0.602
 5567SOL     OW17599   1.411   5.274   2.986
 5567SOL    HW117600   1.340   5.342   3.001
 5567SOL    HW217601   1.479   5.279   3.059
 5568SOL     OW17602   3.651   2.507   0.061
 5568SOL    HW117603   3.740   2.507   0.108
 5568SOL    HW217604   3.596   2.584   0.095
 5569SOL     OW17605   4.755   1.735   0.292
 5569SOL    HW117606   4.820   1.774   0.227
 5569SOL    HW217607   4.697   1.668   0.245
 5570SOL     OW17608   1.132   2.771   5.565
 5570SOL    HW117609   1.204   2.777   5.634
 5570SOL    HW217610   1.172   2.776   5.474
 5571SOL     OW17611   6.719   4.463   6.409
 5571SOL    HW117612   6.691   4.544   6.358
 5571SOL    HW217613   6.657   4.387   6.386
 5572SOL     OW17614   0.524   3.165   5.516
 5572SOL    HW117615   0.599   3.100   5.525
 5572SOL    HW217616   0.471   3.144   5.434
 5573SOL     OW17617   6.472   3.873   6.902
 5573SOL    HW117618   6.420   3.927   6.967
 5573SOL    HW217619   6.510   3.933   6.831
 5574SOL     OW17620   1.630   6.826   3.965
 5574SOL    HW117621   1.729   6.836   3.963
 5574SOL    HW217622   1.606   6.736   4.003
 5575SOL     OW17623   1.215   1.383   2.768
 5575SOL    HW117624   1.137   1.375   2.830
 5575SOL    HW217625   1.216   1.305   2.706
 5576SOL     OW17626   5.387   6.442   5.530
 5576SOL    HW117627   5.443   6.522   5.511
 5576SOL    HW217628   5.446   6.364   5.554
 5577SOL     OW17629   2.254   4.261   4.591
 5577SOL    HW117630   2.246   4.178   4.536
 5577SOL    HW217631   2.232   4.240   4.686
 5578SOL     OW17632   3.597   2.531   5.946
 5578SOL    HW117633   3.684   2.497   5.912
 5578SOL    HW217634   3.551   2.583   5.875
 5579SOL     OW17635   5.393   5.064   1.797
 5579SOL    HW117636   5.398   4.969   1.769
 5579SOL    HW217637   5.304   5.102   1.770
 5580SOL     OW17638   5.188   1.392   1.384
 5580SOL    HW117639   5.288   1.387   1.389
 5580SOL    HW217640   5.161   1.468   1.324
 5581SOL     OW17641   3.105   2.721   0.548
 5581SOL    HW117642   3.100   2.804   0.604
 5581SOL    HW217643   3.068   2.644   0.600
 5582SOL     OW17644   3.507   2.918   3.075
 5582SOL    HW117645   3.515   2.975   2.994
 5582SOL    HW217646   3.413   2.923   3.111
 5583SOL     OW17647   3.747   0.539   0.354
 5583SOL    HW117648   3.791   0.629   0.348
 5583SOL    HW217649   3.768   0.498   0.442
 5584SOL     OW17650   4.944   3.606   3.729
 5584SOL    HW117651   4.917   3.687   3.779
 5584SOL    HW217652   4.944   3.527   3.790
 5585SOL     OW17653   0.536   0.058   3.502
 5585SOL    HW117654   0.537   0.120   3.580
 5585SOL    HW217655   0.517   0.110   3.419
 5586SOL     OW17656   2.193   0.686   6.781
 5586SOL    HW117657   2.195   0.725   6.873
 5586SOL    HW217658   2.100   0.658   6.758
 5587SOL     OW17659   3.499   6.321   3.647
 5587SOL    HW117660   3.492   6.254   3.720
 5587SOL    HW217661   3.408   6.354   3.622
 5588SOL     OW17662   5.373   6.495   6.633
 5588SOL    HW117663   5.325   6.409   6.649
 5588SOL    HW217664   5.307   6.570   6.627
 5589SOL     OW17665   1.986   3.758   0.378
 5589SOL    HW117666   1.989   3.679   0.317
 5589SOL    HW217667   1.962   3.840   0.325
 5590SOL     OW17668   6.919   0.227   3.394
 5590SOL    HW117669   6.995   0.181   3.348
 5590SOL    HW217670   6.869   0.160   3.450
 5591SOL     OW17671   5.644   0.049   0.601
 5591SOL    HW117672   5.707   0.118   0.566
 5591SOL    HW217673   5.628   6.995   0.532
 5592SOL     OW17674   1.299   2.835   2.695
 5592SOL    HW117675   1.345   2.915   2.659
 5592SOL    HW217676   1.327   2.754   2.643
 5593SOL     OW17677   2.212   4.188   4.855
 5593SOL    HW117678   2.113   4.172   4.852
 5593SOL    HW217679   2.255   4.116   4.909
 5594SOL     OW17680   2.475   1.414   6.310
 5594SOL    HW117681   2.573   1.398   6.321
 5594SOL    HW217682   2.425   1.337   6.350
 5595SOL     OW17683   0.619   3.135   6.608
 5595SOL    HW117684   0.550   3.110   6.677
 5595SOL    HW217685   0.576   3.137   6.518
 5596SOL     OW17686   4.980   3.472   4.502
 5596SOL    HW117687   4.978   3.511   4.410
 5596SOL    HW217688   5.004   3.375   4.497
 5597SOL     OW17689   6.862   1.789   6.640
 5597SOL    HW117690   6.822   1.866   6.590
 5597SOL    HW217691   6.874   1.814   6.736
 5598SOL     OW17692   6.194   0.938   3.867
 5598SOL    HW117693   6.240   1.008   3.813
 5598SOL    HW217694   6.163   0.978   3.953
 5599SOL     OW17695   5.522   3.154   3.162
 5599SOL    HW117696   5.531   3.063   3.203
 5599SOL    HW217697   5.508   3.222   3.234
 5600SOL     OW17698   2.022   2.727   1.980
 5600SOL    HW117699   1.966   2.805   1.953
 5600SOL    HW217700   2.118   2.756   1.986
 5601SOL     OW17701   5.905   2.734   6.535
 5601SOL    HW117702   5.828   2.693   6.585
 5601SOL    HW217703   5.871   2.812   6.481
 5602SOL     OW17704   6.142   1.997   3.023
 5602SOL    HW117705   6.116   2.058   2.948
 5602SOL    HW217706   6.115   1.903   3.000
 5603SOL     OW17707   3.580   2.302   6.225
 5603SOL    HW117708   3.498   2.334   6.178
 5603SOL    HW217709   3.598   2.206   6.200
 5604SOL     OW17710   1.223   5.471   3.078
 5604SOL    HW117711   1.169   5.483   3.161
 5604SOL    HW217712   1.303   5.531   3.081
 5605SOL     OW17713   3.925   6.948   4.179
 5605SOL    HW117714   4.016   6.911   4.199
 5605SOL    HW217715   3.855   6.884   4.211
 5606SOL     OW17716   4.382   3.403   1.136
 5606SOL    HW117717   4.480   3.387   1.122
 5606SOL    HW217718   4.368   3.498   1.165
 5607SOL     OW17719   0.359   2.620   3.013
 5607SOL    HW117720   0.378   2.523   3.030
 5607SOL    HW217721   0.316   2.629   2.923
 5608SOL     OW17722   6.011   0.416   3.634
 5608SOL    HW117723   5.987   0.345   3.568
 5608SOL    HW217724   5.991   0.506   3.594
 5609SOL     OW17725   6.394   0.498   0.131
 5609SOL    HW117726   6.485   0.472   0.164
 5609SOL    HW217727   6.377   0.594   0.151
 5610SOL     OW17728   5.903   6.243   5.902
 5610SOL    HW117729   5.819   6.224   5.852
 5610SOL    HW217730   5.897   6.334   5.945
 5611SOL     OW17731   6.775   3.663   1.358
 5611SOL    HW117732   6.867   3.701   1.351
 5611SOL    HW217733   6.733   3.692   1.444
 5612SOL     OW17734   4.528   2.109   1.368
 5612SOL    HW117735   4.441   2.061   1.365
 5612SOL    HW217736   4.531   2.169   1.448
 5613SOL     OW17737   6.637   5.247   5.194
 5613SOL    HW117738   6.692   5.293   5.263
 5613SOL    HW217739   6.627   5.150   5.217
 5614SOL     OW17740   5.085   1.998   4.974
 5614SOL    HW117741   5.055   1.941   5.051
 5614SOL    HW217742   5.185   2.003   4.973
 5615SOL     OW17743   0.430   3.236   2.875
 5615SOL    HW117744   0.499   3.185   2.927
 5615SOL    HW217745   0.467   3.325   2.849
 5616SOL     OW17746   1.546   3.276   1.607
 5616SOL    HW117747   1.644   3.258   1.621
 5616SOL    HW217748   1.533   3.373   1.587
 5617SOL     OW17749   0.978   4.934   5.820
 5617SOL    HW117750   1.036   4.893   5.891
 5617SOL    HW217751   0.936   4.862   5.766
 5618SOL     OW17752   4.929   0.074   2.831
 5618SOL    HW117753   4.836   0.087   2.863
 5618SOL    HW217754   4.971   0.163   2.811
 5619SOL     OW17755   3.022   3.096   3.549
 5619SOL    HW117756   3.023   3.191   3.577
 5619SOL    HW217757   3.042   3.037   3.628
 5620SOL     OW17758   5.053   4.948   5.567
 5620SOL    HW117759   4.981   4.942   5.636
 5620SOL    HW217760   5.093   4.857   5.552
 5621SOL     OW17761   1.157   3.215   6.394
 5621SOL    HW117762   1.200   3.142   6.341
 5621SOL    HW217763   1.063   3.189   6.417
 5622SOL     OW17764   5.566   5.663   3.504
 5622SOL    HW117765   5.574   5.618   3.415
 5622SOL    HW217766   5.602   5.756   3.499
 5623SOL     OW17767   4.673   4.718   4.023
 5623SOL    HW117768   4.731   4.680   4.095
 5623SOL    HW217769   4.578   4.721   4.055
 5624SOL     OW17770   4.940   3.838   3.936
 5624SOL    HW117771   5.014   3.771   3.933
 5624SOL    HW217772   4.945   3.890   4.021
 5625SOL     OW17773   2.714   6.574   6.147
 5625SOL    HW117774   2.670   6.496   6.192
 5625SOL    HW217775   2.685   6.659   6.191
 5626SOL     OW17776   1.544   5.384   6.729
 5626SOL    HW117777   1.550   5.297   6.778
 5626SOL    HW217778   1.448   5.408   6.714
 5627SOL     OW17779   1.200   5.516   0.689
 5627SOL    HW117780   1.154   5.457   0.622
 5627SOL    HW217781   1.169   5.610   0.678
 5628SOL     OW17782   1.740   3.024   0.053
 5628SOL    HW117783   1.717   3.110   0.008
 5628SOL    HW217784   1.831   2.994   0.023
 5629SOL     OW17785   6.918   3.502   4.646
 5629SOL    HW117786   6.884   3.589   4.612
 5629SOL    HW217787   6.883   3.487   4.739
 5630SOL     OW17788   1.665   4.636   0.338
 5630SOL    HW117789   1.705   4.553   0.300
 5630SOL    HW217790   1.657   4.628   0.437
 5631SOL     OW17791   4.086   0.421   2.420
 5631SOL    HW117792   4.154   0.495   2.423
 5631SOL    HW217793   4.013   0.446   2.356
 5632SOL     OW17794   3.761   6.439   6.635
 5632SOL    HW117795   3.692   6.410   6.569
 5632SOL    HW217796   3.831   6.493   6.589
 5633SOL     OW17797   1.284   5.471   5.259
 5633SOL    HW117798   1.312   5.489   5.165
 5633SOL    HW217799   1.346   5.517   5.322
 5634SOL     OW17800   2.660   0.449   1.865
 5634SOL    HW117801   2.561   0.447   1.879
 5634SOL    HW217802   2.689   0.364   1.820
 5635SOL     OW17803   3.591   0.359   2.200
 5635SOL    HW117804   3.491   0.367   2.199
 5635SOL    HW217805   3.622   0.349   2.294
 5636SOL     OW17806   5.018   0.121   4.907
 5636SOL    HW117807   5.097   0.163   4.953
 5636SOL    HW217808   4.986   0.181   4.834
 5637SOL     OW17809   5.092   6.703   5.261
 5637SOL    HW117810   5.131   6.736   5.346
 5637SOL    HW217811   5.027   6.771   5.226
 5638SOL     OW17812   0.245   5.607   0.061
 5638SOL    HW117813   0.232   5.628   0.157
 5638SOL    HW217814   0.185   5.531   0.035
 5639SOL     OW17815   3.086   6.973   2.196
 5639SOL    HW117816   3.130   6.902   2.251
 5639SOL    HW217817   3.018   0.006   2.252
 5640SOL     OW17818   3.594   0.433   3.652
 5640SOL    HW117819   3.565   0.340   3.677
 5640SOL    HW217820   3.598   0.490   3.735
 5641SOL     OW17821   6.758   4.544   3.697
 5641SOL    HW117822   6.752   4.529   3.598
 5641SOL    HW217823   6.719   4.633   3.720
 5642SOL     OW17824   2.519   2.716   6.333
 5642SOL    HW117825   2.422   2.695   6.329
 5642SOL    HW217826   2.571   2.634   6.356
 5643SOL     OW17827   6.034   3.031   4.276
 5643SOL    HW117828   5.989   3.016   4.364
 5643SOL    HW217829   6.035   2.946   4.224
 5644SOL     OW17830   3.533   0.594   6.028
 5644SOL    HW117831   3.627   0.564   6.012
 5644SOL    HW217832   3.489   0.533   6.093
 5645SOL     OW17833   5.948   6.678   2.757
 5645SOL    HW117834   6.029   6.736   2.764
 5645SOL    HW217835   5.896   6.683   2.842
 5646SOL     OW17836   6.201   0.248   3.415
 5646SOL    HW117837   6.107   0.255   3.381
 5646SOL    HW217838   6.213   0.311   3.492
 5647SOL     OW17839   5.941   3.632   6.726
 5647SOL    HW117840   5.853   3.649   6.769
 5647SOL    HW217841   6.006   3.703   6.754
 5648SOL     OW17842   2.616   1.763   4.189
 5648SOL    HW117843   2.584   1.768   4.094
 5648SOL    HW217844   2.589   1.846   4.238
 5649SOL     OW17845   0.777   0.250   5.399
 5649SOL    HW117846   0.825   0.206   5.323
 5649SOL    HW217847   0.679   0.247   5.382
 5650SOL     OW17848   0.160   4.948   4.955
 5650SOL    HW117849   0.089   4.902   5.008
 5650SOL    HW217850   0.236   4.974   5.015
 5651SOL     OW17851   5.896   0.661   2.578
 5651SOL    HW117852   5.992   0.673   2.602
 5651SOL    HW217853   5.839   0.701   2.650
 5652SOL     OW17854   4.936   4.477   0.103
 5652SOL    HW117855   4.955   4.460   0.007
 5652SOL    HW217856   4.942   4.575   0.123
 5653SOL     OW17857   1.652   6.033   6.796
 5653SOL    HW117858   1.735   5.986   6.766
 5653SOL    HW217859   1.676   6.107   6.860
 5654SOL     OW17860   1.671   0.201   0.092
 5654SOL    HW117861   1.685   0.161   0.182
 5654SOL    HW217862   1.606   0.146   0.041
 5655SOL     OW17863   6.213   5.121   3.063
 5655SOL    HW117864   6.169   5.162   3.143
 5655SOL    HW217865   6.163   5.149   2.980
 5656SOL     OW17866   3.641   5.518   6.523
 5656SOL    HW117867   3.550   5.521   6.564
 5656SOL    HW217868   3.644   5.582   6.446
 5657SOL     OW17869   4.673   5.046   1.864
 5657SOL    HW117870   4.714   5.131   1.829
 5657SOL    HW217871   4.727   4.968   1.833
 5658SOL     OW17872   4.448   6.376   5.863
 5658SOL    HW117873   4.430   6.474   5.853
 5658SOL    HW217874   4.538   6.356   5.825
 5659SOL     OW17875   3.291   4.123   3.229
 5659SOL    HW117876   3.375   4.069   3.235
 5659SOL    HW217877   3.285   4.184   3.308
 5660SOL     OW17878   6.991   5.697   1.651
 5660SOL    HW117879   6.901   5.736   1.631
 5660SOL    HW217880   0.015   5.743   1.730
 5661SOL     OW17881   6.217   5.999   4.656
 5661SOL    HW117882   6.248   6.013   4.750
 5661SOL    HW217883   6.284   5.943   4.607
 5662SOL     OW17884   1.883   5.010   4.540
 5662SOL    HW117885   1.936   5.086   4.501
 5662SOL    HW217886   1.937   4.964   4.610
 5663SOL     OW17887   2.530   3.858   1.110
 5663SOL    HW117888   2.448   3.803   1.127
 5663SOL    HW217889   2.533   3.884   1.014
 5664SOL     OW17890   6.537   5.993   1.966
 5664SOL    HW117891   6.586   6.065   1.918
 5664SOL    HW217892   6.517   6.021   2.059
 5665SOL     OW17893   1.329   1.152   5.924
 5665SOL    HW117894   1.332   1.146   6.024
 5665SOL    HW217895   1.304   1.063   5.886
 5666SOL     OW17896   5.655   5.545   6.795
 5666SOL    HW117897   5.671   5.625   6.736
 5666SOL    HW217898   5.700   5.559   6.883
 5667SOL     OW17899   5.680   4.470   2.130
 5667SOL    HW117900   5.584   4.475   2.156
 5667SOL    HW217901   5.728   4.552   2.162
 5668SOL     OW17902   6.379   2.234   6.683
 5668SOL    HW117903   6.373   2.276   6.593
 5668SOL    HW217904   6.391   2.305   6.752
 5669SOL     OW17905   0.358   2.953   4.814
 5669SOL    HW117906   0.415   2.873   4.797
 5669SOL    HW217907   0.385   2.996   4.899
 5670SOL     OW17908   1.717   3.740   2.361
 5670SOL    HW117909   1.694   3.647   2.391
 5670SOL    HW217910   1.676   3.756   2.271
 5671SOL     OW17911   1.183   0.744   4.995
 5671SOL    HW117912   1.193   0.671   4.927
 5671SOL    HW217913   1.172   0.832   4.947
 5672SOL     OW17914   4.774   4.169   5.898
 5672SOL    HW117915   4.680   4.144   5.919
 5672SOL    HW217916   4.833   4.144   5.975
 5673SOL     OW17917   1.759   0.022   0.559
 5673SOL    HW117918   1.741   6.961   0.621
 5673SOL    HW217919   1.745   0.108   0.608
 5674SOL     OW17920   0.057   2.836   1.262
 5674SOL    HW117921   0.057   2.920   1.316
 5674SOL    HW217922   0.032   2.759   1.320
 5675SOL     OW17923   3.941   1.061   5.723
 5675SOL    HW117924   3.930   0.973   5.677
 5675SOL    HW217925   3.910   1.134   5.662
 5676SOL     OW17926   2.622   6.956   2.233
 5676SOL    HW117927   2.556   6.908   2.175
 5676SOL    HW217928   2.647   0.027   2.192
 5677SOL     OW17929   6.514   0.023   2.829
 5677SOL    HW117930   6.461   6.981   2.892
 5677SOL    HW217931   6.611   0.006   2.842
 5678SOL     OW17932   1.035   5.249   2.943
 5678SOL    HW117933   1.097   5.183   2.901
 5678SOL    HW217934   1.060   5.342   2.915
 5679SOL     OW17935   3.552   5.803   5.275
 5679SOL    HW117936   3.525   5.865   5.202
 5679SOL    HW217937   3.533   5.845   5.364
 5680SOL     OW17938   1.850   6.709   6.683
 5680SOL    HW117939   1.757   6.698   6.649
 5680SOL    HW217940   1.860   6.800   6.724
 5681SOL     OW17941   2.793   4.338   6.621
 5681SOL    HW117942   2.781   4.435   6.644
 5681SOL    HW217943   2.789   4.327   6.522
 5682SOL     OW17944   1.949   3.087   4.297
 5682SOL    HW117945   2.038   3.060   4.259
 5682SOL    HW217946   1.960   3.116   4.392
 5683SOL     OW17947   4.113   3.613   4.954
 5683SOL    HW117948   4.119   3.513   4.956
 5683SOL    HW217949   4.108   3.644   4.859
 5684SOL     OW17950   2.891   3.451   3.280
 5684SOL    HW117951   2.894   3.534   3.335
 5684SOL    HW217952   2.889   3.476   3.183
 5685SOL     OW17953   0.329   6.015   1.478
 5685SOL    HW117954   0.413   6.023   1.425
 5685SOL    HW217955   0.252   6.000   1.416
 5686SOL     OW17956   3.339   4.660   0.134
 5686SOL    HW117957   3.269   4.665   0.063
 5686SOL    HW217958   3.423   4.705   0.102
 5687SOL     OW17959   4.502   5.561   6.436
 5687SOL    HW117960   4.519   5.587   6.531
 5687SOL    HW217961   4.404   5.543   6.424
 5688SOL     OW17962   5.247   1.436   1.751
 5688SOL    HW117963   5.271   1.533   1.752
 5688SOL    HW217964   5.148   1.426   1.759
 5689SOL     OW17965   4.329   3.754   5.885
 5689SOL    HW117966   4.238   3.795   5.873
 5689SOL    HW217967   4.373   3.747   5.795
 5690SOL     OW17968   4.098   6.779   2.988
 5690SOL    HW117969   4.079   6.868   2.948
 5690SOL    HW217970   4.060   6.707   2.931
 5691SOL     OW17971   3.649   0.332   4.273
 5691SOL    HW117972   3.633   0.425   4.305
 5691SOL    HW217973   3.742   0.304   4.295
 5692SOL     OW17974   5.512   2.758   6.596
 5692SOL    HW117975   5.557   2.669   6.588
 5692SOL    HW217976   5.416   2.749   6.571
 5693SOL     OW17977   5.081   2.536   2.619
 5693SOL    HW117978   5.062   2.528   2.521
 5693SOL    HW217979   5.004   2.498   2.670
 5694SOL     OW17980   1.895   1.681   4.188
 5694SOL    HW117981   1.869   1.690   4.092
 5694SOL    HW217982   1.834   1.738   4.244
 5695SOL     OW17983   2.075   3.990   3.253
 5695SOL    HW117984   2.134   4.069   3.267
 5695SOL    HW217985   2.047   3.952   3.341
 5696SOL     OW17986   2.860   0.374   5.948
 5696SOL    HW117987   2.856   0.309   5.872
 5696SOL    HW217988   2.933   0.440   5.931
 5697SOL     OW17989   5.922   4.043   0.137
 5697SOL    HW117990   5.906   4.077   0.044
 5697SOL    HW217991   6.002   3.983   0.137
 5698SOL     OW17992   1.277   4.544   3.439
 5698SOL    HW117993   1.308   4.457   3.400
 5698SOL    HW217994   1.356   4.593   3.477
 5699SOL     OW17995   0.093   2.398   5.194
 5699SOL    HW117996   0.031   2.372   5.268
 5699SOL    HW217997   0.157   2.323   5.177
 5700SOL     OW17998   1.223   5.270   3.670
 5700SOL    HW117999   1.204   5.179   3.709
 5700SOL    HW218000   1.172   5.339   3.721
 5701SOL     OW18001   5.079   4.151   2.554
 5701SOL    HW118002   5.136   4.220   2.599
 5701SOL    HW218003   4.992   4.192   2.526
 5702SOL     OW18004   3.192   0.472   6.638
 5702SOL    HW118005   3.104   0.515   6.659
 5702SOL    HW218006   3.251   0.537   6.591
 5703SOL     OW18007   4.574   4.549   1.901
 5703SOL    HW118008   4.564   4.454   1.930
 5703SOL    HW218009   4.544   4.558   1.806
 5704SOL     OW18010   5.039   4.031   3.224
 5704SOL    HW118011   4.957   4.042   3.168
 5704SOL    HW218012   5.110   3.984   3.171
 5705SOL     OW18013   6.422   1.799   3.534
 5705SOL    HW118014   6.424   1.899   3.541
 5705SOL    HW218015   6.497   1.760   3.587
 5706SOL     OW18016   1.880   1.180   6.539
 5706SOL    HW118017   1.787   1.145   6.529
 5706SOL    HW218018   1.945   1.113   6.503
 5707SOL     OW18019   3.497   1.533   0.170
 5707SOL    HW118020   3.461   1.624   0.191
 5707SOL    HW218021   3.596   1.538   0.158
 5708SOL     OW18022   6.619   6.950   1.079
 5708SOL    HW118023   6.696   6.886   1.082
 5708SOL    HW218024   6.650   0.025   1.108
 5709SOL     OW18025   1.364   2.376   1.033
 5709SOL    HW118026   1.438   2.309   1.032
 5709SOL    HW218027   1.403   2.468   1.024
 5710SOL     OW18028   3.276   4.366   0.175
 5710SOL    HW118029   3.193   4.363   0.121
 5710SOL    HW218030   3.319   4.456   0.167
 5711SOL     OW18031   5.173   1.557   5.076
 5711SOL    HW118032   5.216   1.619   5.011
 5711SOL    HW218033   5.224   1.471   5.079
 5712SOL     OW18034   6.318   6.447   0.085
 5712SOL    HW118035   6.237   6.501   0.107
 5712SOL    HW218036   6.368   6.426   0.169
 5713SOL     OW18037   7.005   2.526   2.664
 5713SOL    HW118038   0.072   2.582   2.662
 5713SOL    HW218039   0.014   2.431   2.687
 5714SOL     OW18040   2.071   0.557   6.524
 5714SOL    HW118041   2.020   0.633   6.483
 5714SOL    HW218042   2.049   0.552   6.621
 5715SOL     OW18043   1.757   0.124   3.408
 5715SOL    HW118044   1.791   0.169   3.491
 5715SOL    HW218045   1.700   0.188   3.356
 5716SOL     OW18046   1.772   2.358   5.202
 5716SOL    HW118047   1.706   2.354   5.127
 5716SOL    HW218048   1.854   2.407   5.173
 5717SOL     OW18049   0.533   3.403   6.034
 5717SOL    HW118050   0.597   3.472   5.999
 5717SOL    HW218051   0.455   3.396   5.973
 5718SOL     OW18052   2.555   4.992   6.024
 5718SOL    HW118053   2.594   5.061   5.963
 5718SOL    HW218054   2.458   5.011   6.038
 5719SOL     OW18055   2.133   0.821   0.621
 5719SOL    HW118056   2.172   0.868   0.699
 5719SOL    HW218057   2.090   0.888   0.559
 5720SOL     OW18058   1.554   5.911   3.939
 5720SOL    HW118059   1.461   5.940   3.916
 5720SOL    HW218060   1.610   5.992   3.957
 5721SOL     OW18061   6.622   4.087   0.187
 5721SOL    HW118062   6.562   4.143   0.244
 5721SOL    HW218063   6.638   4.134   0.100
 5722SOL     OW18064   5.645   1.449   3.980
 5722SOL    HW118065   5.630   1.416   3.886
 5722SOL    HW218066   5.740   1.480   3.989
 5723SOL     OW18067   0.721   4.624   1.405
 5723SOL    HW118068   0.652   4.582   1.347
 5723SOL    HW218069   0.749   4.712   1.366
 5724SOL     OW18070   4.888   2.774   5.674
 5724SOL    HW118071   4.862   2.792   5.769
 5724SOL    HW218072   4.985   2.795   5.662
 5725SOL     OW18073   5.112   6.447   5.567
 5725SOL    HW118074   5.209   6.456   5.590
 5725SOL    HW218075   5.103   6.430   5.469
 5726SOL     OW18076   4.258   4.398   5.842
 5726SOL    HW118077   4.237   4.481   5.893
 5726SOL    HW218078   4.183   4.378   5.778
 5727SOL     OW18079   5.562   2.309   4.254
 5727SOL    HW118080   5.467   2.281   4.266
 5727SOL    HW218081   5.567   2.409   4.253
 5728SOL     OW18082   4.653   0.484   5.585
 5728SOL    HW118083   4.685   0.541   5.509
 5728SOL    HW218084   4.615   0.399   5.549
 5729SOL     OW18085   1.157   2.831   3.908
 5729SOL    HW118086   1.249   2.870   3.912
 5729SOL    HW218087   1.099   2.877   3.976
 5730SOL     OW18088   4.012   4.813   0.404
 5730SOL    HW118089   3.913   4.823   0.411
 5730SOL    HW218090   4.057   4.890   0.449
 5731SOL     OW18091   4.370   1.306   4.885
 5731SOL    HW118092   4.434   1.379   4.907
 5731SOL    HW218093   4.289   1.344   4.840
 5732SOL     OW18094   5.557   4.484   4.380
 5732SOL    HW118095   5.634   4.445   4.329
 5732SOL    HW218096   5.573   4.581   4.395
 5733SOL     OW18097   2.671   0.160   2.082
 5733SOL    HW118098   2.764   0.176   2.049
 5733SOL    HW218099   2.642   0.238   2.139
 5734SOL     OW18100   1.822   6.784   6.060
 5734SOL    HW118101   1.729   6.809   6.031
 5734SOL    HW218102   1.888   6.838   6.008
 5735SOL     OW18103   5.537   0.885   1.666
 5735SOL    HW118104   5.611   0.909   1.603
 5735SOL    HW218105   5.453   0.870   1.613
 5736SOL     OW18106   5.540   3.656   6.629
 5736SOL    HW118107   5.599   3.636   6.707
 5736SOL    HW218108   5.548   3.753   6.604
 5737SOL     OW18109   5.594   5.874   2.191
 5737SOL    HW118110   5.563   5.964   2.221
 5737SOL    HW218111   5.568   5.805   2.259
 5738SOL     OW18112   2.425   0.597   0.983
 5738SOL    HW118113   2.469   0.559   0.902
 5738SOL    HW218114   2.428   0.697   0.978
 5739SOL     OW18115   2.421   0.957   5.205
 5739SOL    HW118116   2.491   0.975   5.136
 5739SOL    HW218117   2.455   0.984   5.296
 5740SOL     OW18118   4.886   3.724   2.264
 5740SOL    HW118119   4.788   3.707   2.250
 5740SOL    HW218120   4.931   3.737   2.176
 5741SOL     OW18121   1.403   3.323   4.386
 5741SOL    HW118122   1.463   3.260   4.435
 5741SOL    HW218123   1.436   3.417   4.396
 5742SOL     OW18124   6.129   5.848   2.554
 5742SOL    HW118125   6.074   5.904   2.616
 5742SOL    HW218126   6.123   5.752   2.581
 5743SOL     OW18127   3.486   5.714   0.365
 5743SOL    HW118128   3.420   5.690   0.436
 5743SOL    HW218129   3.567   5.655   0.373
 5744SOL     OW18130   5.250   6.111   3.501
 5744SOL    HW118131   5.261   6.012   3.506
 5744SOL    HW218132   5.167   6.138   3.550
 5745SOL     OW18133   1.483   3.004   2.611
 5745SOL    HW118134   1.499   3.071   2.683
 5745SOL    HW218135   1.472   3.051   2.524
 5746SOL     OW18136   5.396   0.547   2.938
 5746SOL    HW118137   5.478   0.491   2.926
 5746SOL    HW218138   5.326   0.494   2.984
 5747SOL     OW18139   2.127   0.247   1.506
 5747SOL    HW118140   2.146   0.305   1.427
 5747SOL    HW218141   2.129   0.151   1.479
 5748SOL     OW18142   5.714   6.521   0.183
 5748SOL    HW118143   5.750   6.496   0.273
 5748SOL    HW218144   5.749   6.458   0.114
 5749SOL     OW18145   1.688   5.883   6.110
 5749SOL    HW118146   1.784   5.882   6.138
 5749SOL    HW218147   1.670   5.964   6.054
 5750SOL     OW18148   6.611   2.923   4.123
 5750SOL    HW118149   6.669   2.851   4.084
 5750SOL    HW218150   6.663   3.008   4.131
 5751SOL     OW18151   0.531   3.578   4.649
 5751SOL    HW118152   0.546   3.646   4.721
 5751SOL    HW218153   0.558   3.617   4.560
 5752SOL     OW18154   5.131   0.684   0.303
 5752SOL    HW118155   5.228   0.663   0.310
 5752SOL    HW218156   5.092   0.699   0.394
 5753SOL     OW18157   3.961   4.016   4.563
 5753SOL    HW118158   3.994   4.110   4.551
 5753SOL    HW218159   3.868   4.018   4.599
 5754SOL     OW18160   6.570   5.825   1.069
 5754SOL    HW118161   6.620   5.882   1.134
 5754SOL    HW218162   6.491   5.875   1.033
 5755SOL     OW18163   1.314   3.013   6.901
 5755SOL    HW118164   1.340   2.938   6.961
 5755SOL    HW218165   1.349   2.996   6.809
 5756SOL     OW18166   6.373   6.262   2.078
 5756SOL    HW118167   6.325   6.238   1.994
 5756SOL    HW218168   6.395   6.179   2.129
 5757SOL     OW18169   0.008   1.366   3.612
 5757SOL    HW118170   6.981   1.440   3.665
 5757SOL    HW218171   0.105   1.386   3.598
 5758SOL     OW18172   6.167   6.754   3.008
 5758SOL    HW118173   6.152   6.664   2.966
 5758SOL    HW218174   6.145   6.750   3.105
 5759SOL     OW18175   2.355   6.868   2.550
 5759SOL    HW118176   2.303   6.951   2.532
 5759SOL    HW218177   2.337   6.836   2.643
 5760SOL     OW18178   0.998   2.001   6.629
 5760SOL    HW118179   1.026   2.052   6.547
 5760SOL    HW218180   1.014   1.903   6.614
 5761SOL     OW18181   6.773   6.362   4.777
 5761SOL    HW118182   6.777   6.387   4.874
 5761SOL    HW218183   6.849   6.405   4.729
 5762SOL     OW18184   1.029   5.506   5.725
 5762SOL    HW118185   1.129   5.498   5.727
 5762SOL    HW218186   0.992   5.488   5.816
 5763SOL     OW18187   5.408   0.337   0.637
 5763SOL    HW118188   5.444   0.415   0.688
 5763SOL    HW218189   5.426   0.253   0.688
 5764SOL     OW18190   4.867   6.460   4.079
 5764SOL    HW118191   4.784   6.453   4.135
 5764SOL    HW218192   4.948   6.446   4.137
 5765SOL     OW18193   6.623   4.878   2.128
 5765SOL    HW118194   6.574   4.915   2.049
 5765SOL    HW218195   6.721   4.884   2.113
 5766SOL     OW18196   0.765   1.529   4.060
 5766SOL    HW118197   0.685   1.565   4.108
 5766SOL    HW218198   0.735   1.483   3.976
 5767SOL     OW18199   4.063   6.939   0.378
 5767SOL    HW118200   4.063   6.840   0.369
 5767SOL    HW218201   4.087   6.981   0.290
 5768SOL     OW18202   1.372   0.772   5.211
 5768SOL    HW118203   1.333   0.781   5.119
 5768SOL    HW218204   1.333   0.843   5.270
 5769SOL     OW18205   0.805   3.057   5.805
 5769SOL    HW118206   0.854   3.121   5.863
 5769SOL    HW218207   0.742   3.107   5.745
 5770SOL     OW18208   1.983   4.472   2.027
 5770SOL    HW118209   2.029   4.408   2.089
 5770SOL    HW218210   1.995   4.566   2.061
 5771SOL     OW18211   2.662   4.926   3.777
 5771SOL    HW118212   2.577   4.878   3.798
 5771SOL    HW218213   2.641   5.018   3.744
 5772SOL     OW18214   3.309   0.289   3.045
 5772SOL    HW118215   3.393   0.344   3.052
 5772SOL    HW218216   3.257   0.296   3.130
 5773SOL     OW18217   5.649   1.147   3.067
 5773SOL    HW118218   5.703   1.232   3.074
 5773SOL    HW218219   5.553   1.170   3.054
 5774SOL     OW18220   0.777   0.124   3.094
 5774SOL    HW118221   0.855   0.106   3.034
 5774SOL    HW218222   0.731   0.038   3.116
 5775SOL     OW18223   6.138   4.920   2.230
 5775SOL    HW118224   6.050   4.948   2.269
 5775SOL    HW218225   6.123   4.866   2.147
 5776SOL     OW18226   2.746   1.141   4.230
 5776SOL    HW118227   2.713   1.050   4.203
 5776SOL    HW218228   2.814   1.172   4.165
 5777SOL     OW18229   1.047   0.341   1.561
 5777SOL    HW118230   0.954   0.305   1.564
 5777SOL    HW218231   1.088   0.332   1.652
 5778SOL     OW18232   6.917   0.524   0.756
 5778SOL    HW118233   6.859   0.593   0.713
 5778SOL    HW218234   6.935   0.550   0.851
 5779SOL     OW18235   5.630   1.271   6.884
 5779SOL    HW118236   5.644   1.185   6.933
 5779SOL    HW218237   5.579   1.334   6.942
 5780SOL     OW18238   5.003   4.824   4.205
 5780SOL    HW118239   4.986   4.828   4.106
 5780SOL    HW218240   4.939   4.884   4.252
 5781SOL     OW18241   1.601   5.457   6.024
 5781SOL    HW118242   1.511   5.495   6.045
 5781SOL    HW218243   1.672   5.521   6.055
 5782SOL     OW18244   0.123   0.834   6.792
 5782SOL    HW118245   0.099   0.738   6.776
 5782SOL    HW218246   0.153   0.845   6.887
 5783SOL     OW18247   2.556   2.600   0.047
 5783SOL    HW118248   2.544   2.616   0.145
 5783SOL    HW218249   2.526   2.681   7.012
 5784SOL     OW18250   6.870   6.536   6.634
 5784SOL    HW118251   6.799   6.553   6.565
 5784SOL    HW218252   6.949   6.593   6.616
 5785SOL     OW18253   1.529   1.121   0.606
 5785SOL    HW118254   1.553   1.212   0.572
 5785SOL    HW218255   1.602   1.088   0.666
 5786SOL     OW18256   6.244   5.240   1.380
 5786SOL    HW118257   6.241   5.295   1.296
 5786SOL    HW218258   6.336   5.204   1.393
 5787SOL     OW18259   2.211   3.043   5.811
 5787SOL    HW118260   2.238   3.130   5.853
 5787SOL    HW218261   2.267   3.027   5.730
 5788SOL     OW18262   3.253   0.789   3.839
 5788SOL    HW118263   3.186   0.863   3.843
 5788SOL    HW218264   3.345   0.827   3.846
 5789SOL     OW18265   3.546   5.110   6.594
 5789SOL    HW118266   3.487   5.164   6.654
 5789SOL    HW218267   3.536   5.142   6.500
 5790SOL     OW18268   0.990   3.721   3.688
 5790SOL    HW118269   0.964   3.647   3.626
 5790SOL    HW218270   1.054   3.782   3.641
 5791SOL     OW18271   2.045   0.518   3.009
 5791SOL    HW118272   1.974   0.570   3.056
 5791SOL    HW218273   2.118   0.495   3.073
 5792SOL     OW18274   6.930   2.287   2.798
 5792SOL    HW118275   6.862   2.242   2.741
 5792SOL    HW218276   0.000   2.235   2.794
 5793SOL     OW18277   6.518   0.676   4.671
 5793SOL    HW118278   6.458   0.625   4.609
 5793SOL    HW218279   6.581   0.732   4.617
 5794SOL     OW18280   6.191   4.627   6.364
 5794SOL    HW118281   6.155   4.646   6.273
 5794SOL    HW218282   6.219   4.713   6.407
 5795SOL     OW18283   5.521   3.961   6.619
 5795SOL    HW118284   5.448   4.024   6.647
 5795SOL    HW218285   5.543   3.976   6.523
 5796SOL     OW18286   3.041   2.441   0.532
 5796SOL    HW118287   3.135   2.457   0.563
 5796SOL    HW218288   3.042   2.389   0.447
 5797SOL     OW18289   2.976   2.622   5.608
 5797SOL    HW118290   2.921   2.541   5.587
 5797SOL    HW218291   2.918   2.693   5.647
 5798SOL     OW18292   6.649   5.336   4.532
 5798SOL    HW118293   6.603   5.261   4.485
 5798SOL    HW218294   6.748   5.331   4.515
 5799SOL     OW18295   5.219   1.072   3.924
 5799SOL    HW118296   5.160   1.134   3.975
 5799SOL    HW218297   5.164   0.999   3.883
 5800SOL     OW18298   6.127   5.512   6.838
 5800SOL    HW118299   6.110   5.436   6.774
 5800SOL    HW218300   6.168   5.588   6.789
 5801SOL     OW18301   1.890   1.085   2.831
 5801SOL    HW118302   1.941   1.064   2.748
 5801SOL    HW218303   1.953   1.088   2.909
 5802SOL     OW18304   0.939   2.548   4.841
 5802SOL    HW118305   0.871   2.608   4.884
 5802SOL    HW218306   1.028   2.564   4.884
 5803SOL     OW18307   1.334   4.699   0.728
 5803SOL    HW118308   1.371   4.642   0.801
 5803SOL    HW218309   1.404   4.717   0.659
 5804SOL     OW18310   6.452   2.788   6.096
 5804SOL    HW118311   6.517   2.756   6.027
 5804SOL    HW218312   6.502   2.812   6.179
 5805SOL     OW18313   5.939   3.373   7.013
 5805SOL    HW118314   5.904   3.461   0.032
 5805SOL    HW218315   5.896   3.353   6.925
 5806SOL     OW18316   0.069   6.771   6.477
 5806SOL    HW118317   0.053   6.856   6.527
 5806SOL    HW218318   7.005   6.750   6.420
 5807SOL     OW18319   2.193   3.728   1.813
 5807SOL    HW118320   2.203   3.756   1.908
 5807SOL    HW218321   2.283   3.707   1.774
 5808SOL     OW18322   6.390   2.072   3.453
 5808SOL    HW118323   6.318   2.135   3.484
 5808SOL    HW218324   6.382   2.059   3.354
 5809SOL     OW18325   0.292   3.177   4.326
 5809SOL    HW118326   0.370   3.126   4.362
 5809SOL    HW218327   0.258   3.239   4.396
 5810SOL     OW18328   2.585   2.072   2.677
 5810SOL    HW118329   2.618   1.994   2.623
 5810SOL    HW218330   2.538   2.039   2.758
 5811SOL     OW18331   2.952   0.855   2.257
 5811SOL    HW118332   2.900   0.782   2.302
 5811SOL    HW218333   2.891   0.904   2.194
 5812SOL     OW18334   4.664   0.782   4.492
 5812SOL    HW118335   4.712   0.845   4.552
 5812SOL    HW218336   4.709   0.779   4.403
 5813SOL     OW18337   1.638   1.422   5.296
 5813SOL    HW118338   1.624   1.351   5.365
 5813SOL    HW218339   1.559   1.424   5.234
 5814SOL     OW18340   0.166   5.272   0.649
 5814SOL    HW118341   0.108   5.201   0.608
 5814SOL    HW218342   0.115   5.358   0.652
 5815SOL     OW18343   3.438   1.559   3.426
 5815SOL    HW118344   3.516   1.621   3.427
 5815SOL    HW218345   3.354   1.611   3.413
 5816SOL     OW18346   4.899   6.822   1.223
 5816SOL    HW118347   4.803   6.834   1.247
 5816SOL    HW218348   4.940   6.912   1.204
 5817SOL     OW18349   5.672   2.047   6.034
 5817SOL    HW118350   5.717   2.117   6.089
 5817SOL    HW218351   5.741   1.986   5.994
 5818SOL     OW18352   5.893   6.515   5.621
 5818SOL    HW118353   5.988   6.535   5.597
 5818SOL    HW218354   5.881   6.526   5.719
 5819SOL     OW18355   5.305   0.369   1.117
 5819SOL    HW118356   5.244   0.395   1.043
 5819SOL    HW218357   5.256   0.313   1.184
 5820SOL     OW18358   5.914   5.370   2.560
 5820SOL    HW118359   5.818   5.375   2.587
 5820SOL    HW218360   5.960   5.299   2.614
 5821SOL     OW18361   3.450   6.862   2.419
 5821SOL    HW118362   3.396   6.855   2.502
 5821SOL    HW218363   3.420   6.942   2.366
 5822SOL     OW18364   0.894   1.195   2.310
 5822SOL    HW118365   0.859   1.254   2.237
 5822SOL    HW218366   0.986   1.224   2.336
 5823SOL     OW18367   2.279   2.945   4.347
 5823SOL    HW118368   2.330   2.883   4.407
 5823SOL    HW218369   2.265   3.032   4.394
 5824SOL     OW18370   4.085   0.508   3.357
 5824SOL    HW118371   4.027   0.579   3.318
 5824SOL    HW218372   4.111   0.534   3.450
 5825SOL     OW18373   3.048   1.038   1.326
 5825SOL    HW118374   3.087   0.980   1.397
 5825SOL    HW218375   2.949   1.044   1.338
 5826SOL     OW18376   6.468   0.001   4.308
 5826SOL    HW118377   6.418   0.076   4.264
 5826SOL    HW218378   6.485   6.944   4.241
 5827SOL     OW18379   1.628   4.941   5.525
 5827SOL    HW118380   1.595   4.856   5.567
 5827SOL    HW218381   1.720   4.961   5.557
 5828SOL     OW18382   6.696   2.518   1.859
 5828SOL    HW118383   6.654   2.433   1.828
 5828SOL    HW218384   6.792   2.520   1.832
 5829SOL     OW18385   1.547   1.796   1.983
 5829SOL    HW118386   1.513   1.827   2.072
 5829SOL    HW218387   1.573   1.700   1.989
 5830SOL     OW18388   2.222   1.311   5.343
 5830SOL    HW118389   2.237   1.384   5.276
 5830SOL    HW218390   2.126   1.309   5.370
 5831SOL     OW18391   5.791   6.189   3.093
 5831SOL    HW118392   5.889   6.210   3.095
 5831SOL    HW218393   5.750   6.213   3.181
 5832SOL     OW18394   3.354   3.495   4.667
 5832SOL    HW118395   3.368   3.396   4.675
 5832SOL    HW218396   3.440   3.543   4.684
 5833SOL     OW18397   3.722   3.293   4.984
 5833SOL    HW118398   3.775   3.369   5.022
 5833SOL    HW218399   3.705   3.225   5.055
 5834SOL     OW18400   6.290   0.762   0.294
 5834SOL    HW118401   6.270   0.844   0.348
 5834SOL    HW218402   6.319   0.789   0.203
 5835SOL     OW18403   5.319   2.771   4.256
 5835SOL    HW118404   5.383   2.798   4.328
 5835SOL    HW218405   5.262   2.849   4.231
 5836SOL     OW18406   3.404   6.587   2.739
 5836SOL    HW118407   3.347   6.610   2.660
 5836SOL    HW218408   3.378   6.644   2.817
 5837SOL     OW18409   4.949   4.608   6.709
 5837SOL    HW118410   4.851   4.600   6.691
 5837SOL    HW218411   4.987   4.517   6.726
 5838SOL     OW18412   0.424   1.531   5.547
 5838SOL    HW118413   0.357   1.603   5.531
 5838SOL    HW218414   0.513   1.560   5.512
 5839SOL     OW18415   0.177   2.948   2.488
 5839SOL    HW118416   0.151   2.855   2.460
 5839SOL    HW218417   0.167   2.957   2.587
 5840SOL     OW18418   2.479   5.589   0.205
 5840SOL    HW118419   2.537   5.668   0.227
 5840SOL    HW218420   2.525   5.531   0.138
 5841SOL     OW18421   6.314   2.033   2.609
 5841SOL    HW118422   6.387   2.102   2.603
 5841SOL    HW218423   6.312   1.980   2.524
 5842SOL     OW18424   3.952   3.363   0.304
 5842SOL    HW118425   3.907   3.320   0.226
 5842SOL    HW218426   3.910   3.452   0.322
 5843SOL     OW18427   1.247   3.011   1.217
 5843SOL    HW118428   1.314   2.987   1.287
 5843SOL    HW218429   1.229   2.932   1.160
 5844SOL     OW18430   1.313   5.853   6.469
 5844SOL    HW118431   1.410   5.856   6.491
 5844SOL    HW218432   1.302   5.848   6.369
 5845SOL     OW18433   1.241   2.402   4.580
 5845SOL    HW118434   1.210   2.492   4.612
 5845SOL    HW218435   1.222   2.334   4.650
 5846SOL     OW18436   0.776   3.535   6.283
 5846SOL    HW118437   0.867   3.495   6.293
 5846SOL    HW218438   0.753   3.541   6.186
 5847SOL     OW18439   1.477   2.332   3.678
 5847SOL    HW118440   1.386   2.313   3.717
 5847SOL    HW218441   1.517   2.411   3.724
 5848SOL     OW18442   1.258   5.035   3.803
 5848SOL    HW118443   1.263   4.966   3.731
 5848SOL    HW218444   1.324   5.013   3.875
 5849SOL     OW18445   3.053   6.965   5.425
 5849SOL    HW118446   3.029   6.929   5.515
 5849SOL    HW218447   3.001   0.033   5.407
 5850SOL     OW18448   0.898   4.403   3.282
 5850SOL    HW118449   0.845   4.388   3.199
 5850SOL    HW218450   0.858   4.349   3.357
 5851SOL     OW18451   5.265   3.092   2.390
 5851SOL    HW118452   5.199   3.074   2.318
 5851SOL    HW218453   5.352   3.121   2.350
 5852SOL     OW18454   4.120   5.652   2.798
 5852SOL    HW118455   4.092   5.643   2.894
 5852SOL    HW218456   4.158   5.743   2.782
 5853SOL     OW18457   4.471   4.331   5.601
 5853SOL    HW118458   4.402   4.283   5.655
 5853SOL    HW218459   4.467   4.299   5.506
 5854SOL     OW18460   0.919   1.100   6.831
 5854SOL    HW118461   0.990   1.036   6.862
 5854SOL    HW218462   0.962   1.184   6.799
 5855SOL     OW18463   1.818   0.930   4.894
 5855SOL    HW118464   1.755   0.866   4.848
 5855SOL    HW218465   1.876   0.879   4.958
 5856SOL     OW18466   2.283   4.987   3.229
 5856SOL    HW118467   2.303   5.061   3.293
 5856SOL    HW218468   2.290   5.022   3.135
 5857SOL     OW18469   0.210   2.251   5.711
 5857SOL    HW118470   0.263   2.189   5.769
 5857SOL    HW218471   0.130   2.284   5.762
 5858SOL     OW18472   3.502   6.790   3.336
 5858SOL    HW118473   3.492   6.829   3.428
 5858SOL    HW218474   3.521   6.692   3.344
 5859SOL     OW18475   6.694   5.771   1.608
 5859SOL    HW118476   6.669   5.681   1.572
 5859SOL    HW218477   6.629   5.798   1.679
 5860SOL     OW18478   0.757   3.413   1.178
 5860SOL    HW118479   0.792   3.501   1.211
 5860SOL    HW218480   0.827   3.369   1.122
 5861SOL     OW18481   5.909   2.136   4.095
 5861SOL    HW118482   5.914   2.115   3.997
 5861SOL    HW218483   5.814   2.152   4.121
 5862SOL     OW18484   4.901   4.120   3.480
 5862SOL    HW118485   4.973   4.125   3.411
 5862SOL    HW218486   4.900   4.029   3.521
 5863SOL     OW18487   2.030   1.686   1.106
 5863SOL    HW118488   1.935   1.656   1.113
 5863SOL    HW218489   2.032   1.785   1.090
 5864SOL     OW18490   4.217   5.562   0.612
 5864SOL    HW118491   4.266   5.481   0.579
 5864SOL    HW218492   4.256   5.644   0.570
 5865SOL     OW18493   4.398   0.999   3.498
 5865SOL    HW118494   4.457   0.967   3.424
 5865SOL    HW218495   4.424   0.953   3.583
 5866SOL     OW18496   3.033   1.474   6.825
 5866SOL    HW118497   2.967   1.522   6.882
 5866SOL    HW218498   2.988   1.400   6.776
 5867SOL     OW18499   0.293   2.744   1.210
 5867SOL    HW118500   0.201   2.783   1.206
 5867SOL    HW218501   0.361   2.818   1.209
 5868SOL     OW18502   1.540   6.864   4.314
 5868SOL    HW118503   1.550   6.927   4.391
 5868SOL    HW218504   1.631   6.830   4.287
 5869SOL     OW18505   3.091   4.911   3.892
 5869SOL    HW118506   3.071   5.008   3.905
 5869SOL    HW218507   3.145   4.899   3.809
 5870SOL     OW18508   5.376   5.052   4.328
 5870SOL    HW118509   5.458   5.109   4.330
 5870SOL    HW218510   5.353   5.029   4.234
 5871SOL     OW18511   2.554   3.472   0.712
 5871SOL    HW118512   2.623   3.399   0.712
 5871SOL    HW218513   2.521   3.487   0.619
 5872SOL     OW18514   3.952   5.686   4.062
 5872SOL    HW118515   3.928   5.689   3.964
 5872SOL    HW218516   4.042   5.727   4.075
 5873SOL     OW18517   1.991   3.467   0.044
 5873SOL    HW118518   2.017   3.413   0.125
 5873SOL    HW218519   1.945   3.550   0.073
 5874SOL     OW18520   1.099   4.216   6.866
 5874SOL    HW118521   1.117   4.262   6.953
 5874SOL    HW218522   1.096   4.117   6.880
 5875SOL     OW18523   4.498   2.005   0.594
 5875SOL    HW118524   4.412   2.041   0.630
 5875SOL    HW218525   4.486   1.981   0.498
 5876SOL     OW18526   3.657   4.168   6.164
 5876SOL    HW118527   3.670   4.265   6.184
 5876SOL    HW218528   3.571   4.137   6.204
 5877SOL     OW18529   5.936   0.388   2.601
 5877SOL    HW118530   5.891   0.478   2.599
 5877SOL    HW218531   5.994   0.382   2.683
 5878SOL     OW18532   5.126   4.542   2.005
 5878SOL    HW118533   5.072   4.622   2.030
 5878SOL    HW218534   5.221   4.570   1.990
 5879SOL     OW18535   3.484   3.727   5.246
 5879SOL    HW118536   3.531   3.745   5.159
 5879SOL    HW218537   3.398   3.680   5.229
 5880SOL     OW18538   5.979   2.473   6.815
 5880SOL    HW118539   5.965   2.504   6.909
 5880SOL    HW218540   5.934   2.537   6.752
 5881SOL     OW18541   1.767   6.663   2.812
 5881SOL    HW118542   1.855   6.636   2.849
 5881SOL    HW218543   1.732   6.742   2.863
 5882SOL     OW18544   1.194   4.631   5.789
 5882SOL    HW118545   1.193   4.724   5.753
 5882SOL    HW218546   1.207   4.566   5.714
 5883SOL     OW18547   6.667   5.421   0.393
 5883SOL    HW118548   6.685   5.465   0.305
 5883SOL    HW218549   6.571   5.395   0.398
 5884SOL     OW18550   7.004   0.954   2.310
 5884SOL    HW118551   0.021   0.993   2.395
 5884SOL    HW218552   6.929   0.891   2.329
 5885SOL     OW18553   0.347   5.381   0.822
 5885SOL    HW118554   0.375   5.460   0.768
 5885SOL    HW218555   0.299   5.316   0.764
 5886SOL     OW18556   1.859   4.897   3.556
 5886SOL    HW118557   1.868   4.956   3.476
 5886SOL    HW218558   1.870   4.801   3.528
 5887SOL     OW18559   2.994   2.698   0.318
 5887SOL    HW118560   3.051   2.728   0.241
 5887SOL    HW218561   3.051   2.688   0.399
 5888SOL     OW18562   2.836   6.197   1.369
 5888SOL    HW118563   2.879   6.281   1.335
 5888SOL    HW218564   2.771   6.163   1.300
 5889SOL     OW18565   5.965   0.891   2.202
 5889SOL    HW118566   5.872   0.861   2.186
 5889SOL    HW218567   5.982   0.978   2.155
 5890SOL     OW18568   2.638   5.201   3.593
 5890SOL    HW118569   2.718   5.244   3.634
 5890SOL    HW218570   2.557   5.259   3.608
 5891SOL     OW18571   2.464   3.880   6.690
 5891SOL    HW118572   2.502   3.937   6.617
 5891SOL    HW218573   2.522   3.800   6.703
 5892SOL     OW18574   1.257   2.666   0.551
 5892SOL    HW118575   1.223   2.652   0.458
 5892SOL    HW218576   1.180   2.672   0.614
 5893SOL     OW18577   0.731   6.331   1.342
 5893SOL    HW118578   0.769   6.287   1.423
 5893SOL    HW218579   0.802   6.342   1.273
 5894SOL     OW18580   1.881   5.901   6.677
 5894SOL    HW118581   1.879   5.808   6.714
 5894SOL    HW218582   1.854   5.899   6.580
 5895SOL     OW18583   5.400   4.228   3.194
 5895SOL    HW118584   5.403   4.238   3.095
 5895SOL    HW218585   5.447   4.144   3.221
 5896SOL     OW18586   5.517   2.135   2.188
 5896SOL    HW118587   5.428   2.151   2.231
 5896SOL    HW218588   5.503   2.099   2.096
 5897SOL     OW18589   3.616   2.394   0.670
 5897SOL    HW118590   3.562   2.321   0.628
 5897SOL    HW218591   3.666   2.444   0.599
 5898SOL     OW18592   2.278   0.820   0.022
 5898SOL    HW118593   2.184   0.850   0.039
 5898SOL    HW218594   2.305   0.753   0.091
 5899SOL     OW18595   0.232   6.713   6.786
 5899SOL    HW118596   0.321   6.728   6.827
 5899SOL    HW218597   0.233   6.742   6.690
 5900SOL     OW18598   6.286   6.306   2.403
 5900SOL    HW118599   6.357   6.374   2.385
 5900SOL    HW218600   6.230   6.294   2.321
 5901SOL     OW18601   2.852   0.593   4.807
 5901SOL    HW118602   2.905   0.622   4.887
 5901SOL    HW218603   2.885   0.642   4.726
 5902SOL     OW18604   4.124   4.065   5.633
 5902SOL    HW118605   4.100   4.162   5.637
 5902SOL    HW218606   4.074   4.021   5.559
 5903SOL     OW18607   6.576   2.069   5.382
 5903SOL    HW118608   6.478   2.058   5.397
 5903SOL    HW218609   6.591   2.102   5.288
 5904SOL     OW18610   0.362   4.655   1.470
 5904SOL    HW118611   0.282   4.639   1.412
 5904SOL    HW218612   0.432   4.702   1.417
 5905SOL     OW18613   5.927   2.269   4.872
 5905SOL    HW118614   5.876   2.233   4.950
 5905SOL    HW218615   5.941   2.367   4.885
 5906SOL     OW18616   3.893   1.456   5.942
 5906SOL    HW118617   3.971   1.454   6.005
 5906SOL    HW218618   3.879   1.550   5.910
 5907SOL     OW18619   1.222   3.274   5.996
 5907SOL    HW118620   1.256   3.232   6.080
 5907SOL    HW218621   1.260   3.366   5.987
 5908SOL     OW18622   4.401   4.259   6.596
 5908SOL    HW118623   4.420   4.283   6.501
 5908SOL    HW218624   4.480   4.212   6.635
 5909SOL     OW18625   6.184   4.871   4.077
 5909SOL    HW118626   6.248   4.895   4.003
 5909SOL    HW218627   6.157   4.954   4.125
 5910SOL     OW18628   3.187   4.665   0.806
 5910SOL    HW118629   3.199   4.733   0.878
 5910SOL    HW218630   3.166   4.711   0.720
 5911SOL     OW18631   6.496   0.041   6.885
 5911SOL    HW118632   6.528   0.091   6.804
 5911SOL    HW218633   6.575   0.012   6.939
 5912SOL     OW18634   0.791   3.248   5.291
 5912SOL    HW118635   0.821   3.246   5.195
 5912SOL    HW218636   0.828   3.169   5.340
 5913SOL     OW18637   1.574   2.303   4.399
 5913SOL    HW118638   1.511   2.365   4.354
 5913SOL    HW218639   1.639   2.355   4.454
 5914SOL     OW18640   1.552   6.040   0.885
 5914SOL    HW118641   1.468   6.031   0.832
 5914SOL    HW218642   1.546   6.119   0.945
 5915SOL     OW18643   5.688   3.525   4.457
 5915SOL    HW118644   5.751   3.553   4.530
 5915SOL    HW218645   5.595   3.554   4.480
 5916SOL     OW18646   3.221   0.058   5.963
 5916SOL    HW118647   3.308   0.018   5.993
 5916SOL    HW218648   3.185   0.117   6.035
 5917SOL     OW18649   3.840   3.943   2.576
 5917SOL    HW118650   3.936   3.956   2.549
 5917SOL    HW218651   3.836   3.924   2.674
 5918SOL     OW18652   2.664   2.025   4.326
 5918SOL    HW118653   2.581   2.017   4.381
 5918SOL    HW218654   2.673   2.119   4.294
 5919SOL     OW18655   1.318   2.255   6.740
 5919SOL    HW118656   1.393   2.198   6.773
 5919SOL    HW218657   1.322   2.262   6.641
 5920SOL     OW18658   2.262   5.282   0.092
 5920SOL    HW118659   2.279   5.325   0.004
 5920SOL    HW218660   2.190   5.331   0.141
 5921SOL     OW18661   3.985   5.366   5.851
 5921SOL    HW118662   3.945   5.444   5.899
 5921SOL    HW218663   4.084   5.374   5.849
 5922SOL     OW18664   6.141   4.578   1.223
 5922SOL    HW118665   6.183   4.515   1.157
 5922SOL    HW218666   6.209   4.645   1.253
 5923SOL     OW18667   0.550   0.819   3.652
 5923SOL    HW118668   0.458   0.779   3.654
 5923SOL    HW218669   0.603   0.782   3.729
 5924SOL     OW18670   6.126   1.902   4.770
 5924SOL    HW118671   6.071   1.833   4.817
 5924SOL    HW218672   6.065   1.963   4.718
 5925SOL     OW18673   6.407   6.038   0.530
 5925SOL    HW118674   6.447   6.032   0.621
 5925SOL    HW218675   6.325   6.096   0.533
 5926SOL     OW18676   3.048   5.434   2.276
 5926SOL    HW118677   2.991   5.515   2.259
 5926SOL    HW218678   2.991   5.362   2.315
 5927SOL     OW18679   2.193   5.458   2.062
 5927SOL    HW118680   2.257   5.385   2.085
 5927SOL    HW218681   2.167   5.450   1.966
 5928SOL     OW18682   0.911   6.251   1.114
 5928SOL    HW118683   1.003   6.275   1.082
 5928SOL    HW218684   0.843   6.284   1.049
 5929SOL     OW18685   0.680   6.665   5.172
 5929SOL    HW118686   0.613   6.687   5.101
 5929SOL    HW218687   0.641   6.598   5.235
 5930SOL     OW18688   6.602   1.289   4.896
 5930SOL    HW118689   6.527   1.222   4.896
 5930SOL    HW218690   6.580   1.363   4.960
 5931SOL     OW18691   5.939   4.843   0.937
 5931SOL    HW118692   6.025   4.842   0.886
 5931SOL    HW218693   5.957   4.869   1.032
 5932SOL     OW18694   2.422   0.093   0.218
 5932SOL    HW118695   2.486   0.124   0.147
 5932SOL    HW218696   2.444   7.014   0.243
 5933SOL     OW18697   6.279   3.593   3.128
 5933SOL    HW118698   6.199   3.631   3.174
 5933SOL    HW218699   6.281   3.624   3.033
 5934SOL     OW18700   3.807   3.732   2.189
 5934SOL    HW118701   3.770   3.751   2.280
 5934SOL    HW218702   3.771   3.799   2.124
 5935SOL     OW18703   4.050   3.185   3.068
 5935SOL    HW118704   4.079   3.098   3.029
 5935SOL    HW218705   4.046   3.177   3.168
 5936SOL     OW18706   6.443   6.111   6.634
 5936SOL    HW118707   6.408   6.049   6.564
 5936SOL    HW218708   6.376   6.120   6.708
 5937SOL     OW18709   1.254   4.380   0.381
 5937SOL    HW118710   1.265   4.341   0.472
 5937SOL    HW218711   1.157   4.381   0.357
 5938SOL     OW18712   2.180   4.405   1.241
 5938SOL    HW118713   2.136   4.491   1.212
 5938SOL    HW218714   2.165   4.336   1.171
 5939SOL     OW18715   2.048   1.444   2.855
 5939SOL    HW118716   1.974   1.486   2.802
 5939SOL    HW218717   2.113   1.514   2.884
 5940SOL     OW18718   4.159   5.102   3.292
 5940SOL    HW118719   4.137   5.167   3.220
 5940SOL    HW218720   4.120   5.133   3.378
 5941SOL     OW18721   6.699   3.341   3.152
 5941SOL    HW118722   6.621   3.396   3.180
 5941SOL    HW218723   6.712   3.266   3.217
 5942SOL     OW18724   6.877   2.143   4.668
 5942SOL    HW118725   6.946   2.160   4.738
 5942SOL    HW218726   6.897   2.197   4.586
 5943SOL     OW18727   1.310   4.880   0.364
 5943SOL    HW118728   1.255   4.835   0.294
 5943SOL    HW218729   1.266   4.870   0.453
 5944SOL     OW18730   4.992   2.072   3.432
 5944SOL    HW118731   4.903   2.105   3.398
 5944SOL    HW218732   5.052   2.053   3.355
 5945SOL     OW18733   6.700   5.079   6.062
 5945SOL    HW118734   6.670   5.040   6.149
 5945SOL    HW218735   6.693   5.179   6.066
 5946SOL     OW18736   3.816   2.774   5.256
 5946SOL    HW118737   3.851   2.815   5.171
 5946SOL    HW218738   3.729   2.817   5.281
 5947SOL     OW18739   4.608   4.074   1.708
 5947SOL    HW118740   4.528   4.118   1.748
 5947SOL    HW218741   4.664   4.142   1.661
 5948SOL     OW18742   3.385   5.094   3.474
 5948SOL    HW118743   3.476   5.094   3.432
 5948SOL    HW218744   3.317   5.067   3.406
 5949SOL     OW18745   4.600   4.314   2.485
 5949SOL    HW118746   4.569   4.312   2.390
 5949SOL    HW218747   4.549   4.384   2.535
 5950SOL     OW18748   6.034   2.809   4.073
 5950SOL    HW118749   6.002   2.740   4.008
 5950SOL    HW218750   6.082   2.881   4.023
 5951SOL     OW18751   2.090   6.608   4.027
 5951SOL    HW118752   2.044   6.541   4.086
 5951SOL    HW218753   2.143   6.559   3.957
 5952SOL     OW18754   0.027   5.406   4.757
 5952SOL    HW118755   0.097   5.478   4.763
 5952SOL    HW218756   0.024   5.355   4.842
 5953SOL     OW18757   1.029   3.451   6.360
 5953SOL    HW118758   1.106   3.513   6.344
 5953SOL    HW218759   1.064   3.360   6.384
 5954SOL     OW18760   1.139   4.970   6.511
 5954SOL    HW118761   1.144   4.940   6.607
 5954SOL    HW218762   1.205   5.042   6.495
 5955SOL     OW18763   4.572   5.191   2.784
 5955SOL    HW118764   4.652   5.131   2.791
 5955SOL    HW218765   4.576   5.241   2.698
 5956SOL     OW18766   0.077   2.156   6.875
 5956SOL    HW118767   0.135   2.093   6.928
 5956SOL    HW218768   7.003   2.164   6.919
 5957SOL     OW18769   4.819   6.678   5.446
 5957SOL    HW118770   4.876   6.596   5.453
 5957SOL    HW218771   4.806   6.717   5.537
 5958SOL     OW18772   1.301   5.185   2.535
 5958SOL    HW118773   1.316   5.283   2.543
 5958SOL    HW218774   1.298   5.143   2.626
 5959SOL     OW18775   1.789   0.874   6.577
 5959SOL    HW118776   1.729   0.810   6.625
 5959SOL    HW218777   1.810   0.837   6.486
 5960SOL     OW18778   3.597   6.653   4.987
 5960SOL    HW118779   3.600   6.590   4.909
 5960SOL    HW218780   3.576   6.601   5.070
 5961SOL     OW18781   2.560   1.060   5.430
 5961SOL    HW118782   2.508   1.141   5.458
 5961SOL    HW218783   2.548   0.988   5.498
 5962SOL     OW18784   5.173   4.519   2.914
 5962SOL    HW118785   5.168   4.563   2.824
 5962SOL    HW218786   5.126   4.431   2.911
 5963SOL     OW18787   4.062   3.979   1.863
 5963SOL    HW118788   4.135   3.993   1.930
 5963SOL    HW218789   4.074   4.043   1.787
 5964SOL     OW18790   1.897   3.624   5.530
 5964SOL    HW118791   1.833   3.699   5.517
 5964SOL    HW218792   1.944   3.635   5.618
 5965SOL     OW18793   2.378   1.635   3.691
 5965SOL    HW118794   2.399   1.562   3.757
 5965SOL    HW218795   2.388   1.600   3.598
 5966SOL     OW18796   1.796   6.110   3.944
 5966SOL    HW118797   1.834   6.132   4.034
 5966SOL    HW218798   1.864   6.063   3.889
 5967SOL     OW18799   4.567   6.248   2.129
 5967SOL    HW118800   4.498   6.237   2.058
 5967SOL    HW218801   4.636   6.176   2.120
 5968SOL     OW18802   0.286   1.964   4.289
 5968SOL    HW118803   0.194   1.994   4.265
 5968SOL    HW218804   0.289   1.864   4.294
 5969SOL     OW18805   5.620   2.778   2.605
 5969SOL    HW118806   5.528   2.788   2.641
 5969SOL    HW218807   5.653   2.685   2.622
 5970SOL     OW18808   1.907   3.156   3.588
 5970SOL    HW118809   1.910   3.078   3.650
 5970SOL    HW218810   1.814   3.166   3.552
 5971SOL     OW18811   2.837   6.665   2.788
 5971SOL    HW118812   2.920   6.675   2.842
 5971SOL    HW218813   2.775   6.602   2.835
 5972SOL     OW18814   4.986   0.058   1.837
 5972SOL    HW118815   4.979   0.019   1.746
 5972SOL    HW218816   4.911   0.123   1.851
 5973SOL     OW18817   1.444   3.877   2.623
 5973SOL    HW118818   1.414   3.917   2.536
 5973SOL    HW218819   1.430   3.778   2.620
 5974SOL     OW18820   1.367   3.750   6.477
 5974SOL    HW118821   1.386   3.845   6.452
 5974SOL    HW218822   1.283   3.746   6.530
 5975SOL     OW18823   2.392   3.196   6.956
 5975SOL    HW118824   2.325   3.127   6.930
 5975SOL    HW218825   2.459   3.155   0.002
 5976SOL     OW18826   3.559   3.142   4.540
 5976SOL    HW118827   3.483   3.093   4.500
 5976SOL    HW218828   3.613   3.186   4.468
 5977SOL     OW18829   0.837   3.767   3.251
 5977SOL    HW118830   0.792   3.696   3.197
 5977SOL    HW218831   0.879   3.834   3.189
 5978SOL     OW18832   5.178   5.119   2.875
 5978SOL    HW118833   5.155   5.123   2.778
 5978SOL    HW218834   5.247   5.188   2.896
 5979SOL     OW18835   1.108   1.300   1.983
 5979SOL    HW118836   1.049   1.373   1.950
 5979SOL    HW218837   1.172   1.273   1.910
 5980SOL     OW18838   6.302   3.567   6.137
 5980SOL    HW118839   6.318   3.566   6.236
 5980SOL    HW218840   6.351   3.490   6.095
 5981SOL     OW18841   4.005   2.066   1.080
 5981SOL    HW118842   4.053   2.068   1.168
 5981SOL    HW218843   4.045   2.135   1.020
 5982SOL     OW18844   5.857   2.367   0.135
 5982SOL    HW118845   5.850   2.325   0.045
 5982SOL    HW218846   5.765   2.378   0.174
 5983SOL     OW18847   0.865   0.427   4.859
 5983SOL    HW118848   0.808   0.394   4.783
 5983SOL    HW218849   0.846   0.524   4.874
 5984SOL     OW18850   0.645   6.851   5.904
 5984SOL    HW118851   0.617   6.786   5.974
 5984SOL    HW218852   0.678   6.801   5.823
 5985SOL     OW18853   5.139   2.937   4.191
 5985SOL    HW118854   5.175   3.011   4.134
 5985SOL    HW218855   5.040   2.941   4.193
 5986SOL     OW18856   3.408   2.877   2.625
 5986SOL    HW118857   3.324   2.909   2.582
 5986SOL    HW218858   3.388   2.849   2.719
 5987SOL     OW18859   4.570   6.589   5.678
 5987SOL    HW118860   4.636   6.658   5.707
 5987SOL    HW218861   4.605   6.498   5.701
 5988SOL     OW18862   3.585   0.071   5.065
 5988SOL    HW118863   3.617   0.043   5.156
 5988SOL    HW218864   3.557   7.006   5.013
 5989SOL     OW18865   2.823   1.644   6.572
 5989SOL    HW118866   2.913   1.629   6.530
 5989SOL    HW218867   2.836   1.678   6.666
 5990SOL     OW18868   3.519   4.960   2.254
 5990SOL    HW118869   3.450   4.923   2.191
 5990SOL    HW218870   3.504   4.921   2.345
 5991SOL     OW18871   3.095   5.190   3.973
 5991SOL    HW118872   3.050   5.269   3.933
 5991SOL    HW218873   3.141   5.216   4.058
 5992SOL     OW18874   4.497   2.495   4.225
 5992SOL    HW118875   4.429   2.456   4.287
 5992SOL    HW218876   4.478   2.464   4.132
 5993SOL     OW18877   3.448   5.647   4.077
 5993SOL    HW118878   3.356   5.663   4.113
 5993SOL    HW218879   3.451   5.673   3.980
 5994SOL     OW18880   6.524   2.541   1.462
 5994SOL    HW118881   6.468   2.469   1.504
 5994SOL    HW218882   6.466   2.618   1.437
 5995SOL     OW18883   0.907   4.412   1.366
 5995SOL    HW118884   0.875   4.494   1.414
 5995SOL    HW218885   0.998   4.429   1.328
 5996SOL     OW18886   0.657   5.431   5.586
 5996SOL    HW118887   0.645   5.405   5.490
 5996SOL    HW218888   0.626   5.356   5.645
 5997SOL     OW18889   0.648   0.434   1.164
 5997SOL    HW118890   0.585   0.501   1.123
 5997SOL    HW218891   0.669   0.461   1.257
 5998SOL     OW18892   4.314   2.250   3.448
 5998SOL    HW118893   4.370   2.173   3.477
 5998SOL    HW218894   4.344   2.333   3.495
 5999SOL     OW18895   2.332   2.774   3.312
 5999SOL    HW118896   2.403   2.739   3.372
 5999SOL    HW218897   2.287   2.853   3.355
 6000SOL     OW18898   5.051   0.426   3.347
 6000SOL    HW118899   5.010   0.339   3.320
 6000SOL    HW218900   5.018   0.498   3.286
 6001SOL     OW18901   6.072   1.596   6.825
 6001SOL    HW118902   6.036   1.622   6.735
 6001SOL    HW218903   6.045   1.664   6.893
 6002SOL     OW18904   1.663   0.683   1.679
 6002SOL    HW118905   1.673   0.646   1.587
 6002SOL    HW218906   1.653   0.782   1.674
 6003SOL     OW18907   5.771   3.937   3.873
 6003SOL    HW118908   5.738   3.993   3.949
 6003SOL    HW218909   5.693   3.905   3.819
 6004SOL     OW18910   6.944   3.216   1.719
 6004SOL    HW118911   6.981   3.288   1.777
 6004SOL    HW218912   0.003   3.166   1.675
 6005SOL     OW18913   1.996   6.045   2.318
 6005SOL    HW118914   1.954   6.079   2.234
 6005SOL    HW218915   2.079   6.096   2.337
 6006SOL     OW18916   1.624   5.801   0.042
 6006SOL    HW118917   1.621   5.701   0.037
 6006SOL    HW218918   1.536   5.838   0.014
 6007SOL     OW18919   5.216   3.074   4.874
 6007SOL    HW118920   5.277   3.084   4.796
 6007SOL    HW218921   5.126   3.111   4.852
 6008SOL     OW18922   4.770   4.015   1.346
 6008SOL    HW118923   4.839   3.962   1.296
 6008SOL    HW218924   4.808   4.045   1.433
 6009SOL     OW18925   3.855   1.807   4.653
 6009SOL    HW118926   3.764   1.833   4.623
 6009SOL    HW218927   3.872   1.845   4.744
 6010SOL     OW18928   1.061   3.696   3.390
 6010SOL    HW118929   1.090   3.780   3.434
 6010SOL    HW218930   0.963   3.701   3.370
 6011SOL     OW18931   6.608   2.768   1.791
 6011SOL    HW118932   6.648   2.815   1.869
 6011SOL    HW218933   6.628   2.671   1.796
 6012SOL     OW18934   0.293   3.045   1.589
 6012SOL    HW118935   0.387   3.078   1.576
 6012SOL    HW218936   0.236   3.074   1.512
 6013SOL     OW18937   6.090   0.647   2.296
 6013SOL    HW118938   6.005   0.633   2.348
 6013SOL    HW218939   6.093   0.742   2.263
 6014SOL     OW18940   5.532   0.604   0.851
 6014SOL    HW118941   5.461   0.647   0.906
 6014SOL    HW218942   5.571   0.527   0.902
 6015SOL     OW18943   5.620   0.842   4.789
 6015SOL    HW118944   5.616   0.893   4.875
 6015SOL    HW218945   5.564   0.760   4.797
 6016SOL     OW18946   2.035   6.893   5.104
 6016SOL    HW118947   1.937   6.875   5.113
 6016SOL    HW218948   2.087   6.812   5.130
 6017SOL     OW18949   6.918   3.729   2.499
 6017SOL    HW118950   6.980   3.654   2.479
 6017SOL    HW218951   6.940   3.768   2.588
 6018SOL     OW18952   2.125   5.323   1.178
 6018SOL    HW118953   2.111   5.404   1.120
 6018SOL    HW218954   2.128   5.351   1.274
 6019SOL     OW18955   5.628   6.288   3.318
 6019SOL    HW118956   5.629   6.385   3.341
 6019SOL    HW218957   5.535   6.253   3.324
 6020SOL     OW18958   2.751   6.948   3.076
 6020SOL    HW118959   2.724   0.026   3.052
 6020SOL    HW218960   2.808   6.911   3.002
 6021SOL     OW18961   4.195   1.222   3.924
 6021SOL    HW118962   4.244   1.186   3.844
 6021SOL    HW218963   4.260   1.256   3.991
 6022SOL     OW18964   4.678   0.964   6.055
 6022SOL    HW118965   4.745   0.899   6.091
 6022SOL    HW218966   4.689   0.972   5.956
 6023SOL     OW18967   0.455   1.839   2.705
 6023SOL    HW118968   0.509   1.860   2.786
 6023SOL    HW218969   0.497   1.882   2.625
 6024SOL     OW18970   0.122   5.750   2.505
 6024SOL    HW118971   0.023   5.742   2.516
 6024SOL    HW218972   0.145   5.750   2.408
 6025SOL     OW18973   4.294   1.731   2.245
 6025SOL    HW118974   4.206   1.763   2.210
 6025SOL    HW218975   4.278   1.659   2.313
 6026SOL     OW18976   0.818   4.308   5.584
 6026SOL    HW118977   0.873   4.376   5.535
 6026SOL    HW218978   0.758   4.260   5.519
 6027SOL     OW18979   3.447   2.739   0.203
 6027SOL    HW118980   3.501   2.819   0.228
 6027SOL    HW218981   3.368   2.768   0.149
 6028SOL     OW18982   0.929   4.437   0.213
 6028SOL    HW118983   0.896   4.370   0.146
 6028SOL    HW218984   0.925   4.397   0.305
 6029SOL     OW18985   0.751   5.013   1.952
 6029SOL    HW118986   0.660   5.030   1.988
 6029SOL    HW218987   0.778   5.088   1.892
 6030SOL     OW18988   2.089   0.183   1.080
 6030SOL    HW118989   2.104   0.106   1.142
 6030SOL    HW218990   2.114   0.268   1.126
 6031SOL     OW18991   5.174   0.852   4.200
 6031SOL    HW118992   5.221   0.765   4.184
 6031SOL    HW218993   5.241   0.923   4.223
 6032SOL     OW18994   0.252   3.655   2.725
 6032SOL    HW118995   0.155   3.662   2.746
 6032SOL    HW218996   0.265   3.597   2.644
 6033SOL     OW18997   6.881   6.871   4.670
 6033SOL    HW118998   6.800   6.822   4.638
 6033SOL    HW218999   6.885   6.866   4.770
 6034SOL     OW19000   2.175   4.174   5.205
 6034SOL    HW119001   2.184   4.107   5.131
 6034SOL    HW219002   2.264   4.185   5.250
 6035SOL     OW19003   5.443   6.903   3.822
 6035SOL    HW119004   5.439   6.914   3.921
 6035SOL    HW219005   5.350   6.894   3.786
 6036SOL     OW19006   0.310   0.902   4.102
 6036SOL    HW119007   0.282   0.848   4.181
 6036SOL    HW219008   0.239   0.896   4.031
 6037SOL     OW19009   0.197   5.617   4.696
 6037SOL    HW119010   0.207   5.710   4.661
 6037SOL    HW219011   0.267   5.558   4.655
 6038SOL     OW19012   5.816   4.128   6.362
 6038SOL    HW119013   5.750   4.063   6.325
 6038SOL    HW219014   5.769   4.209   6.395
 6039SOL     OW19015   3.927   3.143   4.319
 6039SOL    HW119016   3.934   3.094   4.406
 6039SOL    HW219017   3.918   3.077   4.245
 6040SOL     OW19018   1.523   1.373   0.269
 6040SOL    HW119019   1.452   1.443   0.263
 6040SOL    HW219020   1.551   1.362   0.364
 6041SOL     OW19021   0.866   2.355   0.455
 6041SOL    HW119022   0.895   2.405   0.373
 6041SOL    HW219023   0.881   2.411   0.536
 6042SOL     OW19024   5.585   5.938   4.717
 6042SOL    HW119025   5.490   5.923   4.689
 6042SOL    HW219026   5.587   5.981   4.807
 6043SOL     OW19027   0.052   4.547   4.039
 6043SOL    HW119028   0.024   4.504   3.953
 6043SOL    HW219029   0.050   4.646   4.029
 6044SOL     OW19030   1.059   0.604   1.478
 6044SOL    HW119031   1.069   0.506   1.496
 6044SOL    HW219032   1.098   0.656   1.554
 6045SOL     OW19033   0.135   4.164   1.064
 6045SOL    HW119034   0.067   4.119   1.122
 6045SOL    HW219035   0.091   4.235   1.009
 6046SOL     OW19036   2.723   3.256   0.657
 6046SOL    HW119037   2.652   3.192   0.627
 6046SOL    HW219038   2.788   3.209   0.716
 6047SOL     OW19039   0.351   6.107   4.709
 6047SOL    HW119040   0.286   6.124   4.783
 6047SOL    HW219041   0.432   6.164   4.722
 6048SOL     OW19042   5.081   5.767   4.564
 6048SOL    HW119043   5.047   5.673   4.553
 6048SOL    HW219044   5.016   5.831   4.524
 6049SOL     OW19045   6.287   5.633   0.472
 6049SOL    HW119046   6.207   5.693   0.472
 6049SOL    HW219047   6.347   5.658   0.547
 6050SOL     OW19048   5.729   4.398   5.567
 6050SOL    HW119049   5.679   4.313   5.583
 6050SOL    HW219050   5.720   4.458   5.647
 6051SOL     OW19051   2.807   1.947   2.848
 6051SOL    HW119052   2.780   1.872   2.787
 6051SOL    HW219053   2.744   1.952   2.925
 6052SOL     OW19054   6.474   1.108   0.355
 6052SOL    HW119055   6.519   1.020   0.370
 6052SOL    HW219056   6.420   1.133   0.436
 6053SOL     OW19057   1.922   0.368   6.088
 6053SOL    HW119058   1.979   0.327   6.017
 6053SOL    HW219059   1.969   0.362   6.176
 6054SOL     OW19060   2.065   4.396   6.529
 6054SOL    HW119061   2.090   4.360   6.439
 6054SOL    HW219062   2.142   4.446   6.567
 6055SOL     OW19063   4.964   0.399   3.756
 6055SOL    HW119064   4.994   0.487   3.719
 6055SOL    HW219065   4.900   0.355   3.692
 6056SOL     OW19066   5.083   3.873   6.245
 6056SOL    HW119067   5.117   3.894   6.336
 6056SOL    HW219068   5.015   3.800   6.251
 6057SOL     OW19069   3.951   0.696   6.262
 6057SOL    HW119070   3.961   0.792   6.234
 6057SOL    HW219071   3.930   0.692   6.360
 6058SOL     OW19072   5.143   1.647   4.500
 6058SOL    HW119073   5.056   1.696   4.489
 6058SOL    HW219074   5.218   1.713   4.503
 6059SOL     OW19075   6.319   6.642   5.950
 6059SOL    HW119076   6.265   6.634   6.034
 6059SOL    HW219077   6.416   6.637   5.972
 6060SOL     OW19078   3.180   6.637   6.584
 6060SOL    HW119079   3.102   6.684   6.542
 6060SOL    HW219080   3.153   6.545   6.611
 6061SOL     OW19081   2.031   1.825   6.593
 6061SOL    HW119082   2.045   1.734   6.631
 6061SOL    HW219083   2.013   1.890   6.667
 6062SOL     OW19084   1.568   0.141   4.199
 6062SOL    HW119085   1.663   0.141   4.167
 6062SOL    HW219086   1.542   0.049   4.227
 6063SOL     OW19087   5.469   6.060   0.210
 6063SOL    HW119088   5.449   6.005   0.129
 6063SOL    HW219089   5.461   6.157   0.187
 6064SOL     OW19090   0.743   5.377   3.171
 6064SOL    HW119091   0.760   5.355   3.075
 6064SOL    HW219092   0.693   5.301   3.214
 6065SOL     OW19093   5.897   6.882   1.737
 6065SOL    HW119094   5.844   6.934   1.669
 6065SOL    HW219095   5.883   6.922   1.828
 6066SOL     OW19096   4.760   2.080   6.072
 6066SOL    HW119097   4.839   2.140   6.078
 6066SOL    HW219098   4.678   2.128   6.104
 6067SOL     OW19099   5.044   2.119   6.466
 6067SOL    HW119100   5.064   2.074   6.553
 6067SOL    HW219101   5.079   2.064   6.391
 6068SOL     OW19102   4.939   1.573   5.706
 6068SOL    HW119103   5.027   1.601   5.669
 6068SOL    HW219104   4.931   1.605   5.801
 6069SOL     OW19105   5.935   4.090   4.572
 6069SOL    HW119106   5.852   4.046   4.539
 6069SOL    HW219107   5.991   4.118   4.494
 6070SOL     OW19108   4.064   2.947   6.537
 6070SOL    HW119109   3.969   2.964   6.563
 6070SOL    HW219110   4.070   2.863   6.484
 6071SOL     OW19111   4.680   6.330   5.711
 6071SOL    HW119112   4.646   6.266   5.642
 6071SOL    HW219113   4.776   6.312   5.730
 6072SOL     OW19114   0.013   1.594   0.747
 6072SOL    HW119115   0.042   1.514   0.695
 6072SOL    HW219116   6.975   1.654   0.687
 6073SOL     OW19117   6.468   1.633   1.201
 6073SOL    HW119118   6.418   1.554   1.237
 6073SOL    HW219119   6.443   1.715   1.252
 6074SOL     OW19120   0.929   0.013   5.374
 6074SOL    HW119121   0.888   0.083   5.432
 6074SOL    HW219122   0.856   6.975   5.330
 6075SOL     OW19123   5.088   4.446   6.226
 6075SOL    HW119124   5.026   4.411   6.156
 6075SOL    HW219125   5.182   4.436   6.195
 6076SOL     OW19126   2.769   0.259   4.117
 6076SOL    HW119127   2.716   0.218   4.043
 6076SOL    HW219128   2.722   0.244   4.204
 6077SOL     OW19129   5.588   5.211   3.058
 6077SOL    HW119130   5.576   5.114   3.081
 6077SOL    HW219131   5.591   5.221   2.959
 6078SOL     OW19132   2.224   4.626   3.590
 6078SOL    HW119133   2.190   4.650   3.500
 6078SOL    HW219134   2.237   4.709   3.644
 6079SOL     OW19135   2.760   1.586   0.912
 6079SOL    HW119136   2.680   1.539   0.948
 6079SOL    HW219137   2.805   1.637   0.985
 6080SOL     OW19138   5.603   2.442   2.599
 6080SOL    HW119139   5.515   2.473   2.634
 6080SOL    HW219140   5.647   2.384   2.667
 6081SOL     OW19141   1.063   3.737   2.496
 6081SOL    HW119142   1.131   3.665   2.481
 6081SOL    HW219143   1.005   3.745   2.415
 6082SOL     OW19144   3.577   2.131   4.370
 6082SOL    HW119145   3.524   2.166   4.293
 6082SOL    HW219146   3.531   2.154   4.456
 6083SOL     OW19147   1.993   0.091   0.414
 6083SOL    HW119148   1.900   0.059   0.433
 6083SOL    HW219149   1.998   0.190   0.426
 6084SOL     OW19150   0.341   5.035   5.673
 6084SOL    HW119151   0.397   4.955   5.654
 6084SOL    HW219152   0.263   5.009   5.730
 6085SOL     OW19153   5.135   5.411   1.603
 6085SOL    HW119154   5.232   5.433   1.616
 6085SOL    HW219155   5.125   5.339   1.536
 6086SOL     OW19156   2.701   1.713   2.741
 6086SOL    HW119157   2.755   1.631   2.762
 6086SOL    HW219158   2.606   1.698   2.768
 6087SOL     OW19159   3.465   0.360   0.962
 6087SOL    HW119160   3.487   0.267   0.932
 6087SOL    HW219161   3.413   0.355   1.048
 6088SOL     OW19162   0.192   6.844   5.863
 6088SOL    HW119163   0.285   6.861   5.897
 6088SOL    HW219164   0.126   6.890   5.923
 6089SOL     OW19165   6.011   3.413   0.430
 6089SOL    HW119166   6.028   3.385   0.525
 6089SOL    HW219167   6.045   3.505   0.416
 6090SOL     OW19168   0.458   5.730   3.843
 6090SOL    HW119169   0.460   5.735   3.943
 6090SOL    HW219170   0.541   5.686   3.810
 6091SOL     OW19171   6.317   2.192   1.180
 6091SOL    HW119172   6.266   2.113   1.212
 6091SOL    HW219173   6.255   2.269   1.166
 6092SOL     OW19174   1.739   2.755   0.817
 6092SOL    HW119175   1.768   2.814   0.892
 6092SOL    HW219176   1.818   2.731   0.761
 6093SOL     OW19177   1.262   3.786   0.581
 6093SOL    HW119178   1.191   3.718   0.597
 6093SOL    HW219179   1.300   3.772   0.489
 6094SOL     OW19180   0.642   0.938   0.832
 6094SOL    HW119181   0.741   0.932   0.826
 6094SOL    HW219182   0.605   0.982   0.750
 6095SOL     OW19183   6.331   3.886   5.414
 6095SOL    HW119184   6.306   3.954   5.483
 6095SOL    HW219185   6.250   3.835   5.386
 6096SOL     OW19186   4.421   1.504   2.826
 6096SOL    HW119187   4.498   1.459   2.871
 6096SOL    HW219188   4.454   1.583   2.774
 6097SOL     OW19189   3.130   1.822   2.075
 6097SOL    HW119190   3.084   1.898   2.030
 6097SOL    HW219191   3.225   1.817   2.044
 6098SOL     OW19192   1.445   0.911   6.480
 6098SOL    HW119193   1.456   0.916   6.579
 6098SOL    HW219194   1.530   0.880   6.438
 6099SOL     OW19195   5.796   4.423   5.288
 6099SOL    HW119196   5.760   4.516   5.281
 6099SOL    HW219197   5.767   4.382   5.374
 6100SOL     OW19198   6.958   2.212   0.157
 6100SOL    HW119199   7.003   2.293   0.194
 6100SOL    HW219200   6.869   2.199   0.200
 6101SOL     OW19201   6.011   6.895   3.622
 6101SOL    HW119202   5.952   6.924   3.546
 6101SOL    HW219203   5.977   6.935   3.707
 6102SOL     OW19204   2.985   0.127   5.003
 6102SOL    HW119205   3.078   0.125   4.964
 6102SOL    HW219206   2.926   0.067   4.949
 6103SOL     OW19207   6.134   0.998   5.609
 6103SOL    HW119208   6.058   0.936   5.629
 6103SOL    HW219209   6.186   1.015   5.692
 6104SOL     OW19210   1.523   3.457   1.000
 6104SOL    HW119211   1.514   3.420   1.093
 6104SOL    HW219212   1.619   3.453   0.972
 6105SOL     OW19213   3.621   5.011   4.623
 6105SOL    HW119214   3.545   4.950   4.602
 6105SOL    HW219215   3.633   5.077   4.548
 6106SOL     OW19216   3.285   4.915   4.069
 6106SOL    HW119217   3.339   4.996   4.047
 6106SOL    HW219218   3.228   4.891   3.991
 6107SOL     OW19219   2.187   5.016   5.551
 6107SOL    HW119220   2.177   5.075   5.632
 6107SOL    HW219221   2.156   4.924   5.573
 6108SOL     OW19222   5.781   1.356   4.505
 6108SOL    HW119223   5.851   1.424   4.483
 6108SOL    HW219224   5.823   1.266   4.513
 6109SOL     OW19225   6.529   4.318   1.615
 6109SOL    HW119226   6.575   4.231   1.598
 6109SOL    HW219227   6.430   4.306   1.605
 6110SOL     OW19228   3.551   2.143   3.304
 6110SOL    HW119229   3.551   2.202   3.223
 6110SOL    HW219230   3.645   2.129   3.335
 6111SOL     OW19231   0.265   4.598   3.182
 6111SOL    HW119232   0.267   4.584   3.083
 6111SOL    HW219233   0.334   4.539   3.225
 6112SOL     OW19234   0.931   2.231   1.244
 6112SOL    HW119235   0.990   2.257   1.167
 6112SOL    HW219236   0.977   2.253   1.330
 6113SOL     OW19237   1.938   5.293   5.537
 6113SOL    HW119238   1.955   5.288   5.439
 6113SOL    HW219239   1.934   5.201   5.575
 6114SOL     OW19240   5.407   5.214   0.982
 6114SOL    HW119241   5.349   5.220   1.063
 6114SOL    HW219242   5.432   5.306   0.951
 6115SOL     OW19243   6.555   4.283   2.056
 6115SOL    HW119244   6.591   4.195   2.025
 6115SOL    HW219245   6.471   4.267   2.109
 6116SOL     OW19246   3.580   2.070   1.045
 6116SOL    HW119247   3.658   2.114   1.001
 6116SOL    HW219248   3.578   2.095   1.142
 6117SOL     OW19249   5.778   6.700   3.671
 6117SOL    HW119250   5.815   6.635   3.736
 6117SOL    HW219251   5.729   6.772   3.720
 6118SOL     OW19252   6.382   0.420   3.238
 6118SOL    HW119253   6.422   0.359   3.170
 6118SOL    HW219254   6.327   0.367   3.303
 6119SOL     OW19255   6.143   5.818   3.978
 6119SOL    HW119256   6.173   5.910   4.002
 6119SOL    HW219257   6.163   5.755   4.053
 6120SOL     OW19258   2.410   1.492   3.443
 6120SOL    HW119259   2.417   1.460   3.349
 6120SOL    HW219260   2.458   1.428   3.504
 6121SOL     OW19261   6.665   1.822   4.364
 6121SOL    HW119262   6.633   1.742   4.313
 6121SOL    HW219263   6.587   1.871   4.402
 6122SOL     OW19264   4.320   6.287   3.982
 6122SOL    HW119265   4.296   6.192   3.966
 6122SOL    HW219266   4.240   6.345   3.964
 6123SOL     OW19267   6.373   1.836   2.319
 6123SOL    HW119268   6.276   1.860   2.324
 6123SOL    HW219269   6.382   1.737   2.307
 6124SOL     OW19270   2.766   0.414   5.120
 6124SOL    HW119271   2.766   0.354   5.040
 6124SOL    HW219272   2.672   0.439   5.143
 6125SOL     OW19273   0.898   5.167   2.224
 6125SOL    HW119274   0.849   5.080   2.218
 6125SOL    HW219275   0.947   5.172   2.311
 6126SOL     OW19276   4.252   5.899   2.205
 6126SOL    HW119277   4.342   5.867   2.176
 6126SOL    HW219278   4.182   5.861   2.145
 6127SOL     OW19279   2.005   4.958   2.001
 6127SOL    HW119280   2.039   4.889   1.938
 6127SOL    HW219281   2.083   5.000   2.049
 6128SOL     OW19282   5.025   3.210   1.303
 6128SOL    HW119283   5.071   3.122   1.296
 6128SOL    HW219284   4.961   3.209   1.380
 6129SOL     OW19285   6.319   3.922   3.519
 6129SOL    HW119286   6.311   3.935   3.421
 6129SOL    HW219287   6.412   3.944   3.549
 6130SOL     OW19288   5.366   4.631   2.159
 6130SOL    HW119289   5.408   4.714   2.196
 6130SOL    HW219290   5.374   4.631   2.059
 6131SOL     OW19291   6.568   1.507   5.161
 6131SOL    HW119292   6.565   1.429   5.224
 6131SOL    HW219293   6.578   1.592   5.214
 6132SOL     OW19294   6.823   2.908   0.318
 6132SOL    HW119295   6.805   2.994   0.366
 6132SOL    HW219296   6.741   2.880   0.267
 6133SOL     OW19297   1.001   4.342   0.796
 6133SOL    HW119298   0.946   4.425   0.795
 6133SOL    HW219299   1.042   4.330   0.886
 6134SOL     OW19300   4.224   3.607   0.082
 6134SOL    HW119301   4.243   3.601   7.000
 6134SOL    HW219302   4.257   3.694   0.118
 6135SOL     OW19303   5.577   0.306   2.913
 6135SOL    HW119304   5.592   0.209   2.893
 6135SOL    HW219305   5.664   0.350   2.933
 6136SOL     OW19306   0.538   1.553   2.705
 6136SOL    HW119307   0.633   1.556   2.738
 6136SOL    HW219308   0.496   1.643   2.715
 6137SOL     OW19309   3.176   6.781   6.172
 6137SOL    HW119310   3.217   6.695   6.142
 6137SOL    HW219311   3.238   6.857   6.152
 6138SOL     OW19312   5.228   0.349   3.047
 6138SOL    HW119313   5.163   0.355   3.123
 6138SOL    HW219314   5.266   0.257   3.042
 6139SOL     OW19315   2.304   5.659   3.252
 6139SOL    HW119316   2.391   5.610   3.262
 6139SOL    HW219317   2.248   5.643   3.333
 6140SOL     OW19318   1.051   5.194   1.137
 6140SOL    HW119319   1.036   5.291   1.153
 6140SOL    HW219320   0.971   5.155   1.090
 6141SOL     OW19321   6.805   5.780   6.119
 6141SOL    HW119322   6.799   5.873   6.157
 6141SOL    HW219323   6.899   5.761   6.092
 6142SOL     OW19324   0.964   3.976   3.101
 6142SOL    HW119325   1.022   3.916   3.045
 6142SOL    HW219326   0.945   4.060   3.051
 6143SOL     OW19327   6.507   4.272   6.417
 6143SOL    HW119328   6.477   4.196   6.475
 6143SOL    HW219329   6.434   4.340   6.411
 6144SOL     OW19330   6.914   4.575   4.313
 6144SOL    HW119331   6.851   4.650   4.290
 6144SOL    HW219332   7.006   4.600   4.282
 6145SOL     OW19333   5.578   5.628   3.235
 6145SOL    HW119334   5.489   5.655   3.198
 6145SOL    HW219335   5.579   5.529   3.252
 6146SOL     OW19336   5.581   2.517   3.285
 6146SOL    HW119337   5.667   2.486   3.325
 6146SOL    HW219338   5.504   2.474   3.333
 6147SOL     OW19339   1.035   3.912   2.707
 6147SOL    HW119340   1.052   3.859   2.791
 6147SOL    HW219341   1.043   3.852   2.628
 6148SOL     OW19342   6.124   5.436   3.235
 6148SOL    HW119343   6.164   5.347   3.254
 6148SOL    HW219344   6.036   5.424   3.188
 6149SOL     OW19345   1.970   6.574   4.788
 6149SOL    HW119346   2.024   6.598   4.707
 6149SOL    HW219347   1.954   6.475   4.789
 6150SOL     OW19348   4.381   5.921   6.098
 6150SOL    HW119349   4.468   5.924   6.051
 6150SOL    HW219350   4.396   5.924   6.197
 6151SOL     OW19351   4.568   0.192   5.568
 6151SOL    HW119352   4.665   0.171   5.554
 6151SOL    HW219353   4.518   0.108   5.589
 6152SOL     OW19354   7.016   4.800   5.110
 6152SOL    HW119355   7.012   4.807   5.210
 6152SOL    HW219356   6.924   4.813   5.072
 6153SOL     OW19357   4.658   4.605   6.673
 6153SOL    HW119358   4.629   4.638   6.763
 6153SOL    HW219359   4.578   4.572   6.623
 6154SOL     OW19360   5.298   2.753   3.600
 6154SOL    HW119361   5.356   2.816   3.548
 6154SOL    HW219362   5.248   2.805   3.669
 6155SOL     OW19363   2.275   4.690   4.145
 6155SOL    HW119364   2.356   4.633   4.142
 6155SOL    HW219365   2.212   4.665   4.071
 6156SOL     OW19366   6.057   0.714   4.706
 6156SOL    HW119367   6.019   0.730   4.797
 6156SOL    HW219368   6.106   0.797   4.676
 6157SOL     OW19369   1.070   1.414   3.572
 6157SOL    HW119370   1.074   1.332   3.630
 6157SOL    HW219371   1.093   1.494   3.627
 6158SOL     OW19372   5.220   6.939   0.254
 6158SOL    HW119373   5.320   6.947   0.255
 6158SOL    HW219374   5.182   6.990   0.331
 6159SOL     OW19375   5.309   3.322   6.764
 6159SOL    HW119376   5.261   3.330   6.852
 6159SOL    HW219377   5.249   3.276   6.698
 6160SOL     OW19378   6.469   4.666   0.714
 6160SOL    HW119379   6.400   4.732   0.685
 6160SOL    HW219380   6.429   4.575   0.720
 6161SOL     OW19381   5.743   0.249   6.492
 6161SOL    HW119382   5.761   0.169   6.549
 6161SOL    HW219383   5.726   0.329   6.551
 6162SOL     OW19384   5.654   5.287   4.359
 6162SOL    HW119385   5.657   5.234   4.443
 6162SOL    HW219386   5.738   5.340   4.350
 6163SOL     OW19387   6.686   4.056   1.986
 6163SOL    HW119388   6.685   4.042   1.887
 6163SOL    HW219389   6.756   3.998   2.027
 6164SOL     OW19390   4.741   2.498   0.608
 6164SOL    HW119391   4.793   2.498   0.523
 6164SOL    HW219392   4.772   2.574   0.665
 6165SOL     OW19393   4.185   0.128   1.571
 6165SOL    HW119394   4.183   0.178   1.485
 6165SOL    HW219395   4.099   0.078   1.582
 6166SOL     OW19396   3.927   1.476   0.427
 6166SOL    HW119397   3.870   1.507   0.502
 6166SOL    HW219398   3.876   1.483   0.341
 6167SOL     OW19399   0.037   5.405   3.490
 6167SOL    HW119400   7.003   5.490   3.508
 6167SOL    HW219401   6.992   5.328   3.507
 6168SOL     OW19402   0.754   2.937   0.888
 6168SOL    HW119403   0.681   2.880   0.849
 6168SOL    HW219404   0.716   2.996   0.959
 6169SOL     OW19405   1.900   4.512   1.504
 6169SOL    HW119406   1.803   4.512   1.529
 6169SOL    HW219407   1.920   4.431   1.448
 6170SOL     OW19408   6.746   1.950   3.774
 6170SOL    HW119409   6.708   2.021   3.715
 6170SOL    HW219410   6.671   1.898   3.816
 6171SOL     OW19411   5.963   0.900   5.974
 6171SOL    HW119412   5.881   0.878   5.921
 6171SOL    HW219413   5.939   0.962   6.048
 6172SOL     OW19414   1.054   4.378   4.374
 6172SOL    HW119415   0.969   4.395   4.324
 6172SOL    HW219416   1.102   4.465   4.388
 6173SOL     OW19417   5.651   5.947   3.122
 6173SOL    HW119418   5.678   5.869   3.066
 6173SOL    HW219419   5.693   6.030   3.085
 6174SOL     OW19420   6.417   2.746   2.835
 6174SOL    HW119421   6.467   2.728   2.750
 6174SOL    HW219422   6.411   2.845   2.850
 6175SOL     OW19423   3.797   1.921   6.928
 6175SOL    HW119424   3.814   1.970   7.013
 6175SOL    HW219425   3.873   1.858   6.911
 6176SOL     OW19426   3.037   3.618   5.959
 6176SOL    HW119427   3.087   3.679   5.897
 6176SOL    HW219428   3.101   3.554   6.001
 6177SOL     OW19429   5.745   5.375   1.341
 6177SOL    HW119430   5.748   5.291   1.395
 6177SOL    HW219431   5.752   5.353   1.244
 6178SOL     OW19432   4.106   5.008   1.946
 6178SOL    HW119433   4.038   5.078   1.922
 6178SOL    HW219434   4.088   4.925   1.892
 6179SOL     OW19435   5.726   5.054   4.934
 6179SOL    HW119436   5.666   5.134   4.929
 6179SOL    HW219437   5.822   5.083   4.925
 6180SOL     OW19438   2.363   3.912   6.339
 6180SOL    HW119439   2.285   3.973   6.321
 6180SOL    HW219440   2.444   3.967   6.356
 6181SOL     OW19441   6.070   6.303   0.057
 6181SOL    HW119442   6.151   6.246   0.042
 6181SOL    HW219443   6.095   6.400   0.048
 6182SOL     OW19444   2.822   2.717   6.444
 6182SOL    HW119445   2.921   2.734   6.440
 6182SOL    HW219446   2.805   2.618   6.444
 6183SOL     OW19447   0.144   0.530   0.609
 6183SOL    HW119448   0.179   0.623   0.619
 6183SOL    HW219449   0.067   0.516   0.671
 6184SOL     OW19450   3.197   6.590   5.123
 6184SOL    HW119451   3.192   6.572   5.025
 6184SOL    HW219452   3.284   6.634   5.145
 6185SOL     OW19453   3.678   3.373   5.361
 6185SOL    HW119454   3.669   3.443   5.291
 6185SOL    HW219455   3.723   3.293   5.323
 6186SOL     OW19456   1.188   1.928   2.778
 6186SOL    HW119457   1.264   1.986   2.806
 6186SOL    HW219458   1.104   1.956   2.825
 6187SOL     OW19459   2.918   2.015   6.069
 6187SOL    HW119460   2.855   2.076   6.021
 6187SOL    HW219461   2.878   1.986   6.155
 6188SOL     OW19462   2.388   1.324   5.584
 6188SOL    HW119463   2.325   1.353   5.512
 6188SOL    HW219464   2.473   1.376   5.575
 6189SOL     OW19465   6.687   5.232   0.603
 6189SOL    HW119466   6.662   5.142   0.567
 6189SOL    HW219467   6.682   5.300   0.530
 6190SOL     OW19468   0.341   3.225   3.691
 6190SOL    HW119469   0.353   3.212   3.593
 6190SOL    HW219470   0.349   3.322   3.713
 6191SOL     OW19471   2.241   4.014   0.855
 6191SOL    HW119472   2.322   3.970   0.816
 6191SOL    HW219473   2.171   3.945   0.872
 6192SOL     OW19474   2.949   1.680   1.445
 6192SOL    HW119475   3.020   1.616   1.413
 6192SOL    HW219476   2.984   1.733   1.522
 6193SOL     OW19477   3.974   6.300   7.010
 6193SOL    HW119478   4.023   6.354   6.942
 6193SOL    HW219479   3.900   6.249   6.966
 6194SOL     OW19480   5.377   6.967   6.290
 6194SOL    HW119481   5.419   6.948   6.201
 6194SOL    HW219482   5.396   6.892   6.352
 6195SOL     OW19483   5.107   6.207   6.155
 6195SOL    HW119484   5.055   6.157   6.224
 6195SOL    HW219485   5.164   6.144   6.102
 6196SOL     OW19486   6.019   3.416   3.371
 6196SOL    HW119487   5.997   3.400   3.275
 6196SOL    HW219488   6.079   3.343   3.404
 6197SOL     OW19489   0.966   5.462   1.122
 6197SOL    HW119490   1.044   5.522   1.108
 6197SOL    HW219491   0.902   5.472   1.046
 6198SOL     OW19492   5.659   1.301   6.415
 6198SOL    HW119493   5.676   1.396   6.441
 6198SOL    HW219494   5.719   1.275   6.340
 6199SOL     OW19495   2.116   6.531   6.263
 6199SOL    HW119496   2.150   6.461   6.326
 6199SOL    HW219497   2.097   6.615   6.314
 6200SOL     OW19498   1.392   0.503   0.799
 6200SOL    HW119499   1.406   0.534   0.706
 6200SOL    HW219500   1.473   0.522   0.854
 6201SOL     OW19501   0.544   4.851   3.252
 6201SOL    HW119502   0.610   4.861   3.177
 6201SOL    HW219503   0.453   4.877   3.218
 6202SOL     OW19504   5.816   0.602   2.327
 6202SOL    HW119505   5.820   0.643   2.418
 6202SOL    HW219506   5.793   0.672   2.260
 6203SOL     OW19507   6.035   0.265   2.037
 6203SOL    HW119508   6.016   0.269   1.939
 6203SOL    HW219509   5.965   0.317   2.086
 6204SOL     OW19510   1.401   5.803   4.957
 6204SOL    HW119511   1.342   5.729   4.989
 6204SOL    HW219512   1.389   5.815   4.859
 6205SOL     OW19513   5.897   4.812   3.575
 6205SOL    HW119514   5.809   4.773   3.603
 6205SOL    HW219515   5.955   4.740   3.538
 6206SOL     OW19516   5.587   2.062   3.460
 6206SOL    HW119517   5.523   2.029   3.529
 6206SOL    HW219518   5.562   2.024   3.371
 6207SOL     OW19519   1.688   5.638   3.669
 6207SOL    HW119520   1.712   5.558   3.614
 6207SOL    HW219521   1.660   5.608   3.760
 6208SOL     OW19522   4.123   4.487   6.314
 6208SOL    HW119523   4.104   4.553   6.242
 6208SOL    HW219524   4.175   4.410   6.277
 6209SOL     OW19525   3.916   1.322   1.896
 6209SOL    HW119526   3.923   1.373   1.982
 6209SOL    HW219527   3.864   1.376   1.829
 6210SOL     OW19528   5.886   1.164   4.218
 6210SOL    HW119529   5.936   1.101   4.276
 6210SOL    HW219530   5.902   1.142   4.122
 6211SOL     OW19531   5.422   3.375   5.135
 6211SOL    HW119532   5.374   3.290   5.158
 6211SOL    HW219533   5.411   3.393   5.038
 6212SOL     OW19534   5.415   4.346   4.920
 6212SOL    HW119535   5.372   4.257   4.940
 6212SOL    HW219536   5.344   4.417   4.919
 6213SOL     OW19537   4.616   6.062   0.434
 6213SOL    HW119538   4.558   6.012   0.369
 6213SOL    HW219539   4.658   6.140   0.388
 6214SOL     OW19540   6.228   0.080   6.874
 6214SOL    HW119541   6.183   0.121   6.954
 6214SOL    HW219542   6.325   0.104   6.874
 6215SOL     OW19543   5.937   2.064   5.423
 6215SOL    HW119544   5.897   2.155   5.428
 6215SOL    HW219545   5.936   2.032   5.329
 6216SOL     OW19546   4.698   1.670   5.166
 6216SOL    HW119547   4.674   1.656   5.070
 6216SOL    HW219548   4.615   1.692   5.218
 6217SOL     OW19549   0.590   4.161   2.286
 6217SOL    HW119550   0.523   4.207   2.345
 6217SOL    HW219551   0.583   4.199   2.193
 6218SOL     OW19552   4.476   6.351   1.130
 6218SOL    HW119553   4.427   6.396   1.056
 6218SOL    HW219554   4.493   6.417   1.204
 6219SOL     OW19555   2.076   0.323   0.094
 6219SOL    HW119556   2.098   0.226   0.101
 6219SOL    HW219557   2.135   0.367   0.027
 6220SOL     OW19558   3.353   6.973   1.606
 6220SOL    HW119559   3.361   6.962   1.507
 6220SOL    HW219560   3.267   6.932   1.637
 6221SOL     OW19561   4.734   5.350   5.992
 6221SOL    HW119562   4.684   5.437   5.998
 6221SOL    HW219563   4.826   5.367   5.958
 6222SOL     OW19564   6.733   1.350   2.423
 6222SOL    HW119565   6.692   1.300   2.347
 6222SOL    HW219566   6.762   1.441   2.392
 6223SOL     OW19567   6.690   4.708   4.507
 6223SOL    HW119568   6.591   4.709   4.521
 6223SOL    HW219569   6.724   4.802   4.505
 6224SOL     OW19570   3.322   6.499   0.182
 6224SOL    HW119571   3.224   6.490   0.166
 6224SOL    HW219572   3.357   6.576   0.128
 6225SOL     OW19573   4.898   6.494   6.316
 6225SOL    HW119574   4.869   6.423   6.251
 6225SOL    HW219575   4.823   6.511   6.380
 6226SOL     OW19576   0.754   0.907   3.873
 6226SOL    HW119577   0.691   0.909   3.951
 6226SOL    HW219578   0.823   0.836   3.887
 6227SOL     OW19579   2.735   5.109   5.810
 6227SOL    HW119580   2.743   5.203   5.777
 6227SOL    HW219581   2.683   5.055   5.744
 6228SOL     OW19582   1.025   3.430   3.433
 6228SOL    HW119583   1.020   3.365   3.509
 6228SOL    HW219584   1.085   3.507   3.459
 6229SOL     OW19585   0.356   4.165   4.108
 6229SOL    HW119586   0.454   4.157   4.091
 6229SOL    HW219587   0.311   4.080   4.081
 6230SOL     OW19588   0.758   0.767   1.571
 6230SOL    HW119589   0.821   0.836   1.606
 6230SOL    HW219590   0.729   0.708   1.646
 6231SOL     OW19591   2.487   5.354   5.881
 6231SOL    HW119592   2.535   5.267   5.869
 6231SOL    HW219593   2.544   5.429   5.848
 6232SOL     OW19594   4.310   0.445   6.675
 6232SOL    HW119595   4.244   0.487   6.737
 6232SOL    HW219596   4.378   0.513   6.648
 6233SOL     OW19597   0.016   3.386   1.011
 6233SOL    HW119598   0.106   3.429   1.019
 6233SOL    HW219599   6.996   3.400   0.919
 6234SOL     OW19600   5.140   5.302   4.180
 6234SOL    HW119601   5.160   5.205   4.161
 6234SOL    HW219602   5.226   5.350   4.197
 6235SOL     OW19603   0.746   1.066   1.987
 6235SOL    HW119604   0.844   1.085   1.982
 6235SOL    HW219605   0.713   1.035   1.898
 6236SOL     OW19606   6.246   5.874   1.267
 6236SOL    HW119607   6.198   5.909   1.186
 6236SOL    HW219608   6.344   5.892   1.258
 6237SOL     OW19609   3.433   0.942   2.343
 6237SOL    HW119610   3.466   0.865   2.398
 6237SOL    HW219611   3.409   1.018   2.404
 6238SOL     OW19612   2.429   1.075   3.469
 6238SOL    HW119613   2.499   1.084   3.541
 6238SOL    HW219614   2.457   1.004   3.405
 6239SOL     OW19615   4.589   1.716   4.418
 6239SOL    HW119616   4.628   1.674   4.500
 6239SOL    HW219617   4.656   1.716   4.345
 6240SOL     OW19618   4.108   3.499   4.074
 6240SOL    HW119619   4.111   3.441   3.993
 6240SOL    HW219620   4.144   3.449   4.152
 6241SOL     OW19621   3.946   0.070   3.380
 6241SOL    HW119622   3.999   0.067   3.465
 6241SOL    HW219623   3.926   0.164   3.357
 6242SOL     OW19624   3.409   2.148   4.138
 6242SOL    HW119625   3.370   2.227   4.091
 6242SOL    HW219626   3.397   2.066   4.082
 6243SOL     OW19627   4.061   1.469   0.092
 6243SOL    HW119628   4.003   1.402   0.139
 6243SOL    HW219629   4.133   1.420   0.042
 6244SOL     OW19630   4.446   2.573   1.803
 6244SOL    HW119631   4.498   2.630   1.865
 6244SOL    HW219632   4.403   2.630   1.732
 6245SOL     OW19633   0.137   5.251   2.256
 6245SOL    HW119634   0.206   5.319   2.281
 6245SOL    HW219635   0.064   5.252   2.324
 6246SOL     OW19636   0.507   6.735   4.956
 6246SOL    HW119637   0.562   6.776   4.883
 6246SOL    HW219638   0.446   6.666   4.917
 6247SOL     OW19639   5.763   5.419   2.935
 6247SOL    HW119640   5.749   5.453   3.028
 6247SOL    HW219641   5.803   5.327   2.938
 6248SOL     OW19642   4.249   2.785   5.719
 6248SOL    HW119643   4.339   2.795   5.676
 6248SOL    HW219644   4.253   2.825   5.811
 6249SOL     OW19645   5.743   3.685   3.499
 6249SOL    HW119646   5.762   3.670   3.402
 6249SOL    HW219647   5.742   3.783   3.519
 6250SOL     OW19648   5.543   6.924   6.075
 6250SOL    HW119649   5.587   6.834   6.073
 6250SOL    HW219650   5.610   6.993   6.102
 6251SOL     OW19651   2.895   0.586   4.537
 6251SOL    HW119652   2.904   0.523   4.614
 6251SOL    HW219653   2.958   0.559   4.465
 6252SOL     OW19654   2.797   5.366   0.391
 6252SOL    HW119655   2.869   5.301   0.415
 6252SOL    HW219656   2.734   5.323   0.326
 6253SOL     OW19657   4.960   6.241   3.941
 6253SOL    HW119658   4.908   6.169   3.986
 6253SOL    HW219659   4.933   6.330   3.979
 6254SOL     OW19660   0.294   0.042   1.609
 6254SOL    HW119661   0.313   0.130   1.651
 6254SOL    HW219662   0.246   0.056   1.522
 6255SOL     OW19663   1.697   1.426   0.916
 6255SOL    HW119664   1.793   1.417   0.892
 6255SOL    HW219665   1.651   1.485   0.850
 6256SOL     OW19666   6.159   5.498   2.092
 6256SOL    HW119667   6.125   5.516   2.184
 6256SOL    HW219668   6.131   5.406   2.063
 6257SOL     OW19669   3.525   3.818   0.879
 6257SOL    HW119670   3.481   3.847   0.964
 6257SOL    HW219671   3.568   3.729   0.892
 6258SOL     OW19672   4.199   5.256   4.875
 6258SOL    HW119673   4.196   5.192   4.798
 6258SOL    HW219674   4.155   5.342   4.848
 6259SOL     OW19675   4.066   0.784   5.100
 6259SOL    HW119676   4.002   0.843   5.148
 6259SOL    HW219677   4.018   0.702   5.067
 6260SOL     OW19678   2.918   1.862   0.899
 6260SOL    HW119679   2.831   1.885   0.943
 6260SOL    HW219680   2.923   1.763   0.886
 6261SOL     OW19681   3.774   0.222   0.754
 6261SOL    HW119682   3.810   0.158   0.687
 6261SOL    HW219683   3.680   0.197   0.777
 6262SOL     OW19684   6.107   1.066   2.471
 6262SOL    HW119685   6.114   1.125   2.391
 6262SOL    HW219686   6.029   1.004   2.460
 6263SOL     OW19687   5.870   5.934   6.175
 6263SOL    HW119688   5.801   5.999   6.205
 6263SOL    HW219689   5.850   5.844   6.213
 6264SOL     OW19690   1.245   6.028   0.438
 6264SOL    HW119691   1.223   6.023   0.341
 6264SOL    HW219692   1.341   6.004   0.452
 6265SOL     OW19693   3.480   6.990   6.867
 6265SOL    HW119694   3.392   6.962   6.826
 6265SOL    HW219695   3.504   0.065   6.833
 6266SOL     OW19696   3.617   5.356   3.099
 6266SOL    HW119697   3.669   5.328   3.180
 6266SOL    HW219698   3.598   5.276   3.042
 6267SOL     OW19699   0.541   6.228   4.464
 6267SOL    HW119700   0.629   6.253   4.504
 6267SOL    HW219701   0.527   6.129   4.475
 6268SOL     OW19702   3.436   1.649   1.354
 6268SOL    HW119703   3.451   1.557   1.316
 6268SOL    HW219704   3.466   1.717   1.288
 6269SOL     OW19705   6.632   6.252   6.945
 6269SOL    HW119706   6.660   6.298   0.014
 6269SOL    HW219707   6.694   6.280   6.871
 6270SOL     OW19708   1.421   6.257   0.956
 6270SOL    HW119709   1.442   6.297   1.046
 6270SOL    HW219710   1.421   6.330   0.888
 6271SOL     OW19711   6.819   2.810   6.621
 6271SOL    HW119712   6.851   2.898   6.586
 6271SOL    HW219713   6.895   2.763   6.667
 6272SOL     OW19714   0.562   1.620   6.787
 6272SOL    HW119715   0.568   1.718   6.805
 6272SOL    HW219716   0.611   1.570   6.859
 6273SOL     OW19717   0.323   6.155   2.917
 6273SOL    HW119718   0.403   6.211   2.897
 6273SOL    HW219719   0.269   6.143   2.834
 6274SOL     OW19720   2.847   5.907   3.729
 6274SOL    HW119721   2.942   5.886   3.704
 6274SOL    HW219722   2.787   5.885   3.653
 6275SOL     OW19723   2.332   5.790   0.095
 6275SOL    HW119724   2.394   5.868   0.096
 6275SOL    HW219725   2.376   5.711   0.139
 6276SOL     OW19726   2.098   5.398   2.533
 6276SOL    HW119727   2.103   5.342   2.616
 6276SOL    HW219728   2.172   5.372   2.471
 6277SOL     OW19729   5.113   2.501   1.200
 6277SOL    HW119730   5.135   2.479   1.295
 6277SOL    HW219731   5.101   2.599   1.190
 6278SOL     OW19732   4.010   2.463   0.633
 6278SOL    HW119733   4.038   2.505   0.719
 6278SOL    HW219734   3.988   2.367   0.649
 6279SOL     OW19735   2.467   6.426   2.057
 6279SOL    HW119736   2.519   6.367   1.995
 6279SOL    HW219737   2.383   6.380   2.084
 6280SOL     OW19738   5.145   1.551   6.055
 6280SOL    HW119739   5.204   1.593   5.987
 6280SOL    HW219740   5.052   1.543   6.018
 6281SOL     OW19741   5.232   4.170   6.030
 6281SOL    HW119742   5.220   4.266   6.005
 6281SOL    HW219743   5.273   4.121   5.953
 6282SOL     OW19744   0.887   3.592   5.494
 6282SOL    HW119745   0.902   3.498   5.522
 6282SOL    HW219746   0.949   3.652   5.545
 6283SOL     OW19747   2.647   0.225   4.367
 6283SOL    HW119748   2.570   0.186   4.417
 6283SOL    HW219749   2.639   0.325   4.366
 6284SOL     OW19750   1.393   2.894   5.529
 6284SOL    HW119751   1.463   2.848   5.584
 6284SOL    HW219752   1.412   2.880   5.432
 6285SOL     OW19753   1.400   3.598   2.885
 6285SOL    HW119754   1.429   3.622   2.978
 6285SOL    HW219755   1.475   3.615   2.821
 6286SOL     OW19756   0.623   2.374   6.686
 6286SOL    HW119757   0.617   2.373   6.786
 6286SOL    HW219758   0.665   2.289   6.654
 6287SOL     OW19759   4.615   4.643   4.789
 6287SOL    HW119760   4.520   4.625   4.764
 6287SOL    HW219761   4.617   4.704   4.868
 6288SOL     OW19762   2.976   3.329   6.200
 6288SOL    HW119763   3.067   3.367   6.186
 6288SOL    HW219764   2.972   3.236   6.164
 6289SOL     OW19765   2.160   4.519   4.529
 6289SOL    HW119766   2.245   4.466   4.527
 6289SOL    HW219767   2.169   4.599   4.469
 6290SOL     OW19768   6.392   6.851   3.882
 6290SOL    HW119769   6.361   6.817   3.793
 6290SOL    HW219770   6.339   6.932   3.907
 6291SOL     OW19771   3.565   3.496   1.736
 6291SOL    HW119772   3.571   3.579   1.791
 6291SOL    HW219773   3.651   3.481   1.687
 6292SOL     OW19774   1.530   4.720   4.957
 6292SOL    HW119775   1.543   4.740   5.054
 6292SOL    HW219776   1.557   4.799   4.902
 6293SOL     OW19777   2.840   1.306   6.165
 6293SOL    HW119778   2.806   1.381   6.221
 6293SOL    HW219779   2.812   1.219   6.205
 6294SOL     OW19780   1.774   1.313   2.441
 6294SOL    HW119781   1.749   1.226   2.485
 6294SOL    HW219782   1.866   1.339   2.469
 6295SOL     OW19783   4.521   3.627   6.582
 6295SOL    HW119784   4.595   3.590   6.638
 6295SOL    HW219785   4.554   3.707   6.531
 6296SOL     OW19786   0.947   2.896   7.014
 6296SOL    HW119787   0.905   2.888   6.923
 6296SOL    HW219788   0.987   2.987   0.009
 6297SOL     OW19789   6.491   1.294   4.133
 6297SOL    HW119790   6.555   1.233   4.179
 6297SOL    HW219791   6.486   1.271   4.036
 6298SOL     OW19792   0.242   6.770   0.147
 6298SOL    HW119793   0.195   6.683   0.134
 6298SOL    HW219794   0.245   6.791   0.244
 6299SOL     OW19795   3.789   2.184   3.995
 6299SOL    HW119796   3.727   2.106   3.983
 6299SOL    HW219797   3.739   2.260   4.037
 6300SOL     OW19798   2.944   2.219   0.967
 6300SOL    HW119799   2.861   2.256   0.925
 6300SOL    HW219800   3.010   2.195   0.896
 6301SOL     OW19801   3.466   6.034   0.213
 6301SOL    HW119802   3.522   6.056   0.293
 6301SOL    HW219803   3.514   5.965   0.158
 6302SOL     OW19804   1.485   3.454   0.418
 6302SOL    HW119805   1.440   3.365   0.411
 6302SOL    HW219806   1.480   3.486   0.512
 6303SOL     OW19807   6.760   4.952   4.409
 6303SOL    HW119808   6.757   4.911   4.318
 6303SOL    HW219809   6.852   4.942   4.447
 6304SOL     OW19810   2.627   0.881   4.143
 6304SOL    HW119811   2.531   0.865   4.167
 6304SOL    HW219812   2.673   0.793   4.129
 6305SOL     OW19813   0.604   5.721   5.819
 6305SOL    HW119814   0.537   5.647   5.827
 6305SOL    HW219815   0.671   5.698   5.749
 6306SOL     OW19816   0.510   4.217   4.466
 6306SOL    HW119817   0.566   4.150   4.514
 6306SOL    HW219818   0.565   4.260   4.393
 6307SOL     OW19819   3.271   3.063   2.823
 6307SOL    HW119820   3.242   3.049   2.728
 6307SOL    HW219821   3.371   3.063   2.827
 6308SOL     OW19822   0.967   1.913   0.981
 6308SOL    HW119823   0.872   1.942   0.994
 6308SOL    HW219824   0.969   1.818   0.950
 6309SOL     OW19825   1.750   6.001   4.626
 6309SOL    HW119826   1.814   5.966   4.694
 6309SOL    HW219827   1.663   6.024   4.671
 6310SOL     OW19828   0.491   6.827   3.651
 6310SOL    HW119829   0.393   6.838   3.669
 6310SOL    HW219830   0.522   6.900   3.590
 6311SOL     OW19831   6.489   1.268   6.576
 6311SOL    HW119832   6.440   1.353   6.560
 6311SOL    HW219833   6.583   1.276   6.541
 6312SOL     OW19834   2.973   5.563   1.137
 6312SOL    HW119835   3.032   5.484   1.121
 6312SOL    HW219836   3.029   5.642   1.162
 6313SOL     OW19837   5.812   5.178   4.014
 6313SOL    HW119838   5.785   5.109   3.947
 6313SOL    HW219839   5.911   5.190   4.012
 6314SOL     OW19840   2.095   6.715   3.164
 6314SOL    HW119841   2.140   6.803   3.181
 6314SOL    HW219842   1.998   6.722   3.189
 6315SOL     OW19843   2.376   2.327   3.774
 6315SOL    HW119844   2.378   2.271   3.857
 6315SOL    HW219845   2.385   2.267   3.694
 6316SOL     OW19846   4.527   0.433   5.230
 6316SOL    HW119847   4.522   0.464   5.135
 6316SOL    HW219848   4.621   0.443   5.263
 6317SOL     OW19849   4.741   4.683   2.524
 6317SOL    HW119850   4.805   4.643   2.459
 6317SOL    HW219851   4.791   4.714   2.605
 6318SOL     OW19852   6.684   0.056   0.323
 6318SOL    HW119853   6.734   0.132   0.365
 6318SOL    HW219854   6.742   6.990   0.321
 6319SOL     OW19855   4.835   2.508   4.623
 6319SOL    HW119856   4.752   2.544   4.668
 6319SOL    HW219857   4.877   2.581   4.569
 6320SOL     OW19858   6.427   1.840   6.058
 6320SOL    HW119859   6.338   1.864   6.021
 6320SOL    HW219860   6.459   1.755   6.017
 6321SOL     OW19861   0.762   3.101   0.550
 6321SOL    HW119862   0.704   3.041   0.494
 6321SOL    HW219863   0.841   3.050   0.583
 6322SOL     OW19864   1.649   1.780   2.970
 6322SOL    HW119865   1.552   1.785   2.994
 6322SOL    HW219866   1.682   1.687   2.985
 6323SOL     OW19867   1.822   5.533   1.242
 6323SOL    HW119868   1.887   5.457   1.237
 6323SOL    HW219869   1.795   5.560   1.150
 6324SOL     OW19870   4.681   2.882   1.302
 6324SOL    HW119871   4.694   2.805   1.240
 6324SOL    HW219872   4.584   2.905   1.307
 6325SOL     OW19873   1.305   3.594   3.339
 6325SOL    HW119874   1.210   3.623   3.326
 6325SOL    HW219875   1.333   3.609   3.434
 6326SOL     OW19876   4.918   5.079   5.360
 6326SOL    HW119877   4.927   5.179   5.368
 6326SOL    HW219878   4.984   5.036   5.422
 6327SOL     OW19879   0.760   1.046   3.189
 6327SOL    HW119880   0.725   1.031   3.097
 6327SOL    HW219881   0.854   1.012   3.196
 6328SOL     OW19882   4.012   3.491   5.340
 6328SOL    HW119883   3.938   3.507   5.274
 6328SOL    HW219884   4.099   3.488   5.292
 6329SOL     OW19885   0.398   2.831   5.485
 6329SOL    HW119886   0.469   2.849   5.552
 6329SOL    HW219887   0.439   2.787   5.404
 6330SOL     OW19888   4.372   2.199   3.811
 6330SOL    HW119889   4.445   2.131   3.796
 6330SOL    HW219890   4.283   2.153   3.810
 6331SOL     OW19891   1.495   3.806   4.006
 6331SOL    HW119892   1.519   3.819   3.910
 6331SOL    HW219893   1.526   3.885   4.059
 6332SOL     OW19894   4.199   1.609   0.422
 6332SOL    HW119895   4.107   1.570   0.412
 6332SOL    HW219896   4.257   1.544   0.471
 6333SOL     OW19897   5.375   0.644   0.486
 6333SOL    HW119898   5.380   0.582   0.408
 6333SOL    HW219899   5.467   0.662   0.520
 6334SOL     OW19900   2.134   1.033   1.961
 6334SOL    HW119901   2.185   0.984   1.890
 6334SOL    HW219902   2.036   1.021   1.945
 6335SOL     OW19903   6.867   3.169   6.140
 6335SOL    HW119904   6.838   3.120   6.222
 6335SOL    HW219905   6.795   3.164   6.071
 6336SOL     OW19906   1.233   4.467   5.541
 6336SOL    HW119907   1.298   4.445   5.467
 6336SOL    HW219908   1.140   4.459   5.507
 6337SOL     OW19909   6.033   6.961   4.759
 6337SOL    HW119910   5.944   6.995   4.730
 6337SOL    HW219911   6.088   0.021   4.793
 6338SOL     OW19912   0.833   0.710   3.263
 6338SOL    HW119913   0.766   0.757   3.320
 6338SOL    HW219914   0.829   0.745   3.170
 6339SOL     OW19915   0.343   3.460   3.125
 6339SOL    HW119916   0.349   3.493   3.219
 6339SOL    HW219917   0.400   3.379   3.114
 6340SOL     OW19918   2.495   5.406   6.751
 6340SOL    HW119919   2.528   5.474   6.685
 6340SOL    HW219920   2.479   5.320   6.704
 6341SOL     OW19921   0.359   4.732   2.425
 6341SOL    HW119922   0.325   4.671   2.496
 6341SOL    HW219923   0.368   4.824   2.461
 6342SOL     OW19924   2.307   0.952   1.731
 6342SOL    HW119925   2.263   1.022   1.674
 6342SOL    HW219926   2.345   0.881   1.673
 6343SOL     OW19927   1.377   5.803   6.976
 6343SOL    HW119928   1.293   5.762   7.011
 6343SOL    HW219929   1.355   5.887   6.927
 6344SOL     OW19930   1.145   1.209   4.643
 6344SOL    HW119931   1.059   1.220   4.593
 6344SOL    HW219932   1.194   1.296   4.642
 6345SOL     OW19933   6.386   2.988   2.601
 6345SOL    HW119934   6.451   3.059   2.573
 6345SOL    HW219935   6.357   2.936   2.521
 6346SOL     OW19936   0.481   4.538   4.945
 6346SOL    HW119937   0.489   4.615   4.882
 6346SOL    HW219938   0.422   4.563   5.022
 6347SOL     OW19939   2.233   2.570   3.701
 6347SOL    HW119940   2.225   2.601   3.796
 6347SOL    HW219941   2.284   2.484   3.698
 6348SOL     OW19942   0.887   2.512   6.698
 6348SOL    HW119943   0.912   2.496   6.602
 6348SOL    HW219944   0.793   2.482   6.713
 6349SOL     OW19945   5.349   0.735   1.028
 6349SOL    HW119946   5.251   0.724   1.011
 6349SOL    HW219947   5.365   0.739   1.127
 6350SOL     OW19948   0.625   6.092   0.992
 6350SOL    HW119949   0.547   6.095   0.930
 6350SOL    HW219950   0.676   6.178   0.986
 6351SOL     OW19951   5.871   2.956   2.085
 6351SOL    HW119952   5.824   2.868   2.085
 6351SOL    HW219953   5.943   2.955   2.015
 6352SOL     OW19954   4.104   0.755   4.100
 6352SOL    HW119955   4.155   0.732   4.182
 6352SOL    HW219956   4.097   0.855   4.091
 6353SOL     OW19957   3.339   6.721   5.542
 6353SOL    HW119958   3.294   6.793   5.488
 6353SOL    HW219959   3.324   6.739   5.640
 6354SOL     OW19960   5.496   4.855   2.560
 6354SOL    HW119961   5.450   4.807   2.635
 6354SOL    HW219962   5.565   4.796   2.519
 6355SOL     OW19963   4.176   6.021   0.375
 6355SOL    HW119964   4.117   6.066   0.442
 6355SOL    HW219965   4.184   6.078   0.294
 6356SOL     OW19966   6.583   6.633   5.947
 6356SOL    HW119967   6.638   6.716   5.933
 6356SOL    HW219968   6.633   6.554   5.912
 6357SOL     OW19969   4.678   1.723   2.954
 6357SOL    HW119970   4.774   1.716   2.928
 6357SOL    HW219971   4.631   1.787   2.892
 6358SOL     OW19972   1.239   1.497   4.352
 6358SOL    HW119973   1.245   1.587   4.309
 6358SOL    HW219974   1.226   1.427   4.282
 6359SOL     OW19975   5.890   5.246   0.849
 6359SOL    HW119976   5.834   5.262   0.931
 6359SOL    HW219977   5.843   5.285   0.770
 6360SOL     OW19978   1.967   2.521   0.913
 6360SOL    HW119979   2.062   2.528   0.946
 6360SOL    HW219980   1.964   2.548   0.817
 6361SOL     OW19981   0.585   2.169   1.958
 6361SOL    HW119982   0.621   2.211   2.041
 6361SOL    HW219983   0.485   2.181   1.956
 6362SOL     OW19984   1.530   5.277   0.452
 6362SOL    HW119985   1.448   5.221   0.465
 6362SOL    HW219986   1.604   5.241   0.508
 6363SOL     OW19987   0.860   2.737   2.098
 6363SOL    HW119988   0.881   2.793   2.178
 6363SOL    HW219989   0.767   2.757   2.066
 6364SOL     OW19990   3.054   1.393   3.922
 6364SOL    HW119991   3.108   1.313   3.947
 6364SOL    HW219992   2.957   1.376   3.943
 6365SOL     OW19993   6.417   6.899   3.029
 6365SOL    HW119994   6.470   6.929   3.109
 6365SOL    HW219995   6.356   6.825   3.056
 6366SOL     OW19996   5.914   1.409   5.366
 6366SOL    HW119997   6.006   1.406   5.328
 6366SOL    HW219998   5.875   1.317   5.364
 6367SOL     OW19999   1.153   2.335   4.331
 6367SOL    HW120000   1.168   2.366   4.425
 6367SOL    HW220001   1.095   2.253   4.331
 6368SOL     OW20002   4.958   3.374   4.887
 6368SOL    HW120003   5.028   3.355   4.956
 6368SOL    HW220004   4.892   3.439   4.924
 6369SOL     OW20005   3.980   4.322   0.845
 6369SOL    HW120006   3.913   4.359   0.781
 6369SOL    HW220007   4.071   4.324   0.804
 6370SOL     OW20008   5.663   4.094   4.944
 6370SOL    HW120009   5.590   4.117   5.009
 6370SOL    HW220010   5.623   4.060   4.859
 6371SOL     OW20011   5.375   4.150   0.834
 6371SOL    HW120012   5.350   4.192   0.921
 6371SOL    HW220013   5.292   4.134   0.779
 6372SOL     OW20014   6.641   1.210   1.073
 6372SOL    HW120015   6.661   1.201   1.170
 6372SOL    HW220016   6.640   1.307   1.048
 6373SOL     OW20017   5.204   2.794   1.762
 6373SOL    HW120018   5.224   2.790   1.860
 6373SOL    HW220019   5.186   2.702   1.728
 6374SOL     OW20020   4.584   3.979   6.022
 6374SOL    HW120021   4.546   3.959   6.113
 6374SOL    HW220022   4.671   3.929   6.011
 6375SOL     OW20023   4.658   1.022   1.556
 6375SOL    HW120024   4.651   1.122   1.563
 6375SOL    HW220025   4.739   0.990   1.606
 6376SOL     OW20026   2.722   0.126   0.376
 6376SOL    HW120027   2.758   0.050   0.431
 6376SOL    HW220028   2.623   0.130   0.385
 6377SOL     OW20029   0.043   0.576   6.744
 6377SOL    HW120030   7.001   0.518   6.801
 6377SOL    HW220031   7.005   0.613   6.668
 6378SOL     OW20032   5.685   3.909   2.406
 6378SOL    HW120033   5.751   3.887   2.335
 6378SOL    HW220034   5.599   3.939   2.363
 6379SOL     OW20035   2.128   5.798   6.957
 6379SOL    HW120036   2.195   5.806   0.016
 6379SOL    HW220037   2.175   5.766   6.875
 6380SOL     OW20038   2.005   2.769   5.220
 6380SOL    HW120039   2.050   2.858   5.212
 6380SOL    HW220040   1.906   2.782   5.231
 6381SOL     OW20041   3.541   4.123   0.619
 6381SOL    HW120042   3.556   4.171   0.706
 6381SOL    HW220043   3.483   4.044   0.635
 6382SOL     OW20044   1.085   1.193   0.801
 6382SOL    HW120045   1.124   1.240   0.881
 6382SOL    HW220046   1.147   1.203   0.724
 6383SOL     OW20047   2.562   2.449   2.468
 6383SOL    HW120048   2.600   2.469   2.377
 6383SOL    HW220049   2.638   2.433   2.532
 6384SOL     OW20050   6.446   1.950   1.955
 6384SOL    HW120051   6.420   1.973   1.861
 6384SOL    HW220052   6.506   2.021   1.991
 6385SOL     OW20053   6.755   3.426   0.996
 6385SOL    HW120054   6.701   3.348   1.027
 6385SOL    HW220055   6.847   3.394   0.971
 6386SOL     OW20056   3.575   3.622   0.204
 6386SOL    HW120057   3.580   3.562   0.284
 6386SOL    HW220058   3.664   3.625   0.158
 6387SOL     OW20059   6.343   0.462   6.537
 6387SOL    HW120060   6.261   0.481   6.483
 6387SOL    HW220061   6.336   0.508   6.626
 6388SOL     OW20062   6.031   5.295   1.530
 6388SOL    HW120063   6.121   5.275   1.492
 6388SOL    HW220064   5.960   5.264   1.466
 6389SOL     OW20065   6.747   6.552   0.851
 6389SOL    HW120066   6.693   6.632   0.877
 6389SOL    HW220067   6.837   6.557   0.894
 6390SOL     OW20068   5.225   6.710   6.605
 6390SOL    HW120069   5.170   6.715   6.522
 6390SOL    HW220070   5.165   6.689   6.683
 6391SOL     OW20071   1.734   1.883   4.332
 6391SOL    HW120072   1.647   1.872   4.285
 6391SOL    HW220073   1.776   1.970   4.305
 6392SOL     OW20074   4.803   0.170   4.148
 6392SOL    HW120075   4.882   0.207   4.099
 6392SOL    HW220076   4.752   0.109   4.088
 6393SOL     OW20077   2.048   5.183   0.553
 6393SOL    HW120078   2.104   5.164   0.472
 6393SOL    HW220079   2.069   5.275   0.587
 6394SOL     OW20080   1.732   5.214   2.036
 6394SOL    HW120081   1.677   5.164   2.104
 6394SOL    HW220082   1.776   5.292   2.080
 6395SOL     OW20083   1.539   4.334   4.662
 6395SOL    HW120084   1.587   4.397   4.724
 6395SOL    HW220085   1.567   4.352   4.568
 6396SOL     OW20086   1.846   3.091   5.041
 6396SOL    HW120087   1.888   3.133   5.121
 6396SOL    HW220088   1.903   3.015   5.009
 6397SOL     OW20089   6.461   3.085   5.075
 6397SOL    HW120090   6.396   3.126   5.140
 6397SOL    HW220091   6.492   2.997   5.109
 6398SOL     OW20092   1.766   0.039   2.572
 6398SOL    HW120093   1.786   0.078   2.662
 6398SOL    HW220094   1.793   6.959   2.571
 6399SOL     OW20095   2.676   0.102   6.938
 6399SOL    HW120096   2.629   0.013   6.942
 6399SOL    HW220097   2.616   0.173   6.976
 6400SOL     OW20098   0.579   6.688   2.611
 6400SOL    HW120099   0.620   6.625   2.545
 6400SOL    HW220100   0.542   6.767   2.563
 6401SOL     OW20101   3.884   5.166   1.936
 6401SOL    HW120102   3.902   5.163   2.034
 6401SOL    HW220103   3.829   5.086   1.910
 6402SOL     OW20104   3.592   4.435   6.185
 6402SOL    HW120105   3.545   4.464   6.102
 6402SOL    HW220106   3.668   4.496   6.204
 6403SOL     OW20107   4.694   5.541   5.694
 6403SOL    HW120108   4.781   5.504   5.725
 6403SOL    HW220109   4.668   5.497   5.608
 6404SOL     OW20110   4.542   5.635   6.695
 6404SOL    HW120111   4.626   5.648   6.748
 6404SOL    HW220112   4.468   5.689   6.737
 6405SOL     OW20113   4.447   0.844   2.527
 6405SOL    HW120114   4.373   0.858   2.593
 6405SOL    HW220115   4.440   0.914   2.455
 6406SOL     OW20116   0.401   3.314   2.521
 6406SOL    HW120117   0.432   3.407   2.539
 6406SOL    HW220118   0.320   3.317   2.461
 6407SOL     OW20119   0.311   0.064   2.212
 6407SOL    HW120120   0.362   0.143   2.176
 6407SOL    HW220121   0.292   0.001   2.137
 6408SOL     OW20122   0.484   1.537   1.766
 6408SOL    HW120123   0.425   1.568   1.692
 6408SOL    HW220124   0.434   1.477   1.827
 6409SOL     OW20125   6.023   4.135   3.527
 6409SOL    HW120126   6.039   4.094   3.617
 6409SOL    HW220127   6.111   4.159   3.485
 6410SOL     OW20128   1.926   0.964   0.496
 6410SOL    HW120129   1.892   0.997   0.584
 6410SOL    HW220130   1.855   0.976   0.426
 6411SOL     OW20131   0.704   2.248   3.462
 6411SOL    HW120132   0.708   2.218   3.557
 6411SOL    HW220133   0.633   2.196   3.414
 6412SOL     OW20134   3.706   0.743   6.744
 6412SOL    HW120135   3.635   0.794   6.694
 6412SOL    HW220136   3.744   0.801   6.816
 6413SOL     OW20137   4.460   5.883   2.890
 6413SOL    HW120138   4.547   5.875   2.841
 6413SOL    HW220139   4.465   5.832   2.976
 6414SOL     OW20140   2.944   0.326   0.065
 6414SOL    HW120141   2.859   0.377   0.053
 6414SOL    HW220142   3.016   0.367   0.010
 6415SOL     OW20143   0.732   1.589   3.700
 6415SOL    HW120144   0.732   1.512   3.764
 6415SOL    HW220145   0.767   1.559   3.611
 6416SOL     OW20146   3.111   5.051   0.262
 6416SOL    HW120147   3.149   4.960   0.274
 6416SOL    HW220148   3.114   5.077   0.165
 6417SOL     OW20149   4.284   3.585   6.827
 6417SOL    HW120150   4.369   3.593   6.774
 6417SOL    HW220151   4.223   3.520   6.781
 6418SOL     OW20152   4.947   5.302   0.345
 6418SOL    HW120153   5.020   5.370   0.336
 6418SOL    HW220154   4.956   5.235   0.272
 6419SOL     OW20155   0.661   6.851   6.686
 6419SOL    HW120156   0.700   6.870   6.596
 6419SOL    HW220157   0.629   6.936   6.728
 6420SOL     OW20158   2.532   4.583   3.953
 6420SOL    HW120159   2.507   4.490   3.927
 6420SOL    HW220160   2.546   4.588   4.052
 6421SOL     OW20161   5.453   6.762   2.157
 6421SOL    HW120162   5.471   6.761   2.255
 6421SOL    HW220163   5.422   6.853   2.130
 6422SOL     OW20164   0.581   2.240   4.802
 6422SOL    HW120165   0.573   2.191   4.889
 6422SOL    HW220166   0.492   2.281   4.780
 6423SOL     OW20167   1.011   4.452   4.751
 6423SOL    HW120168   0.964   4.535   4.779
 6423SOL    HW220169   1.108   4.472   4.739
 6424SOL     OW20170   6.569   4.151   6.079
 6424SOL    HW120171   6.643   4.130   6.143
 6424SOL    HW220172   6.602   4.142   5.985
 6425SOL     OW20173   0.377   6.440   4.587
 6425SOL    HW120174   0.306   6.472   4.525
 6425SOL    HW220175   0.406   6.349   4.560
 6426SOL     OW20176   4.499   5.442   3.954
 6426SOL    HW120177   4.514   5.362   4.012
 6426SOL    HW220178   4.584   5.495   3.947
 6427SOL     OW20179   4.021   3.110   3.831
 6427SOL    HW120180   4.040   3.209   3.832
 6427SOL    HW220181   4.000   3.081   3.738
 6428SOL     OW20182   5.784   2.602   0.402
 6428SOL    HW120183   5.778   2.639   0.309
 6428SOL    HW220184   5.703   2.546   0.420
 6429SOL     OW20185   2.320   1.529   5.201
 6429SOL    HW120186   2.406   1.479   5.207
 6429SOL    HW220187   2.270   1.500   5.119
 6430SOL     OW20188   5.505   1.532   5.022
 6430SOL    HW120189   5.584   1.526   5.082
 6430SOL    HW220190   5.497   1.448   4.968
 6431SOL     OW20191   3.366   5.309   2.478
 6431SOL    HW120192   3.443   5.362   2.515
 6431SOL    HW220193   3.350   5.335   2.383
 6432SOL     OW20194   4.322   3.458   6.244
 6432SOL    HW120195   4.333   3.372   6.195
 6432SOL    HW220196   4.306   3.439   6.341
 6433SOL     OW20197   3.509   5.285   6.371
 6433SOL    HW120198   3.586   5.253   6.315
 6433SOL    HW220199   3.545   5.343   6.445
 6434SOL     OW20200   5.979   5.269   5.727
 6434SOL    HW120201   5.918   5.345   5.703
 6434SOL    HW220202   6.044   5.253   5.653
 6435SOL     OW20203   4.286   1.053   0.939
 6435SOL    HW120204   4.310   0.992   0.863
 6435SOL    HW220205   4.358   1.121   0.951
 6436SOL     OW20206   0.388   3.484   3.793
 6436SOL    HW120207   0.473   3.518   3.834
 6436SOL    HW220208   0.317   3.477   3.863
 6437SOL     OW20209   1.580   2.783   5.753
 6437SOL    HW120210   1.578   2.684   5.740
 6437SOL    HW220211   1.592   2.803   5.851
 6438SOL     OW20212   0.294   4.980   0.753
 6438SOL    HW120213   0.246   5.066   0.735
 6438SOL    HW220214   0.330   4.982   0.846
 6439SOL     OW20215   5.236   6.699   2.637
 6439SOL    HW120216   5.237   6.604   2.670
 6439SOL    HW220217   5.152   6.743   2.670
 6440SOL     OW20218   2.374   1.677   5.990
 6440SOL    HW120219   2.306   1.747   5.968
 6440SOL    HW220220   2.328   1.598   6.031
 6441SOL     OW20221   0.496   2.549   1.934
 6441SOL    HW120222   0.491   2.481   1.861
 6441SOL    HW220223   0.469   2.507   2.020
 6442SOL     OW20224   2.213   1.850   4.450
 6442SOL    HW120225   2.308   1.879   4.446
 6442SOL    HW220226   2.168   1.870   4.363
 6443SOL     OW20227   3.350   3.010   6.404
 6443SOL    HW120228   3.304   3.037   6.320
 6443SOL    HW220229   3.363   2.911   6.405
 6444SOL     OW20230   6.989   3.577   5.158
 6444SOL    HW120231   6.948   3.515   5.224
 6444SOL    HW220232   6.920   3.639   5.122
 6445SOL     OW20233   3.413   2.935   3.756
 6445SOL    HW120234   3.318   2.961   3.776
 6445SOL    HW220235   3.469   3.018   3.751
 6446SOL     OW20236   1.033   1.208   1.197
 6446SOL    HW120237   1.068   1.133   1.141
 6446SOL    HW220238   1.066   1.295   1.161
 6447SOL     OW20239   5.986   3.594   1.304
 6447SOL    HW120240   5.967   3.531   1.380
 6447SOL    HW220241   6.065   3.560   1.252
 6448SOL     OW20242   4.136   4.848   1.129
 6448SOL    HW120243   4.089   4.761   1.143
 6448SOL    HW220244   4.174   4.852   1.037
 6449SOL     OW20245   3.652   5.275   0.255
 6449SOL    HW120246   3.669   5.177   0.262
 6449SOL    HW220247   3.563   5.296   0.296
 6450SOL     OW20248   5.373   3.765   0.043
 6450SOL    HW120249   5.463   3.798   0.073
 6450SOL    HW220250   5.384   3.680   7.007
 6451SOL     OW20251   4.382   2.728   1.575
 6451SOL    HW120252   4.474   2.692   1.560
 6451SOL    HW220253   4.354   2.782   1.495
 6452SOL     OW20254   4.338   1.995   4.724
 6452SOL    HW120255   4.386   2.031   4.805
 6452SOL    HW220256   4.242   2.021   4.729
 6453SOL     OW20257   2.543   0.357   2.948
 6453SOL    HW120258   2.460   0.337   2.897
 6453SOL    HW220259   2.553   0.456   2.960
 6454SOL     OW20260   5.318   3.334   4.471
 6454SOL    HW120261   5.377   3.255   4.456
 6454SOL    HW220262   5.226   3.304   4.496
 6455SOL     OW20263   0.600   2.809   4.297
 6455SOL    HW120264   0.569   2.904   4.303
 6455SOL    HW220265   0.522   2.749   4.283
 6456SOL     OW20266   6.729   1.801   2.562
 6456SOL    HW120267   6.644   1.748   2.572
 6456SOL    HW220268   6.796   1.770   2.630
 6457SOL     OW20269   2.249   6.454   2.314
 6457SOL    HW120270   2.340   6.489   2.336
 6457SOL    HW220271   2.180   6.516   2.351
 6458SOL     OW20272   0.595   0.085   4.387
 6458SOL    HW120273   0.676   0.131   4.351
 6458SOL    HW220274   0.533   0.063   4.312
 6459SOL     OW20275   0.208   2.989   3.140
 6459SOL    HW120276   0.302   2.995   3.174
 6459SOL    HW220277   0.188   3.070   3.085
 6460SOL     OW20278   1.379   5.232   6.460
 6460SOL    HW120279   1.352   5.327   6.475
 6460SOL    HW220280   1.333   5.197   6.378
 6461SOL     OW20281   0.338   6.455   0.803
 6461SOL    HW120282   0.247   6.442   0.843
 6461SOL    HW220283   0.343   6.405   0.716
 6462SOL     OW20284   1.927   4.171   5.317
 6462SOL    HW120285   1.920   4.073   5.297
 6462SOL    HW220286   2.020   4.202   5.296
 6463SOL     OW20287   4.487   2.602   1.053
 6463SOL    HW120288   4.585   2.600   1.075
 6463SOL    HW220289   4.474   2.635   0.960
 6464SOL     OW20290   0.645   3.575   3.109
 6464SOL    HW120291   0.572   3.641   3.130
 6464SOL    HW220292   0.682   3.594   3.018
 6465SOL     OW20293   2.838   0.827   3.753
 6465SOL    HW120294   2.848   0.732   3.783
 6465SOL    HW220295   2.742   0.846   3.733
 6466SOL     OW20296   6.702   5.284   6.517
 6466SOL    HW120297   6.614   5.297   6.562
 6466SOL    HW220298   6.747   5.202   6.554
 6467SOL     OW20299   2.621   2.928   5.929
 6467SOL    HW120300   2.633   3.018   5.887
 6467SOL    HW220301   2.523   2.906   5.935
 6468SOL     OW20302   1.041   0.879   1.413
 6468SOL    HW120303   1.020   0.876   1.315
 6468SOL    HW220304   1.037   0.787   1.451
 6469SOL     OW20305   1.744   1.361   1.256
 6469SOL    HW120306   1.705   1.440   1.304
 6469SOL    HW220307   1.840   1.378   1.237
 6470SOL     OW20308   6.163   1.738   6.535
 6470SOL    HW120309   6.136   1.786   6.619
 6470SOL    HW220310   6.217   1.799   6.478
 6471SOL     OW20311   0.286   6.578   6.149
 6471SOL    HW120312   0.252   6.487   6.125
 6471SOL    HW220313   0.266   6.597   6.245
 6472SOL     OW20314   0.456   6.048   1.965
 6472SOL    HW120315   0.455   6.069   1.867
 6472SOL    HW220316   0.498   6.123   2.015
 6473SOL     OW20317   2.826   1.577   3.120
 6473SOL    HW120318   2.849   1.674   3.119
 6473SOL    HW220319   2.763   1.559   3.196
 6474SOL     OW20320   4.051   6.409   4.030
 6474SOL    HW120321   3.968   6.377   3.986
 6474SOL    HW220322   4.051   6.509   4.033
 6475SOL     OW20323   5.077   6.076   2.880
 6475SOL    HW120324   4.990   6.114   2.848
 6475SOL    HW220325   5.076   6.071   2.980
 6476SOL     OW20326   4.829   4.053   6.462
 6476SOL    HW120327   4.927   4.038   6.474
 6476SOL    HW220328   4.784   4.050   6.551
 6477SOL     OW20329   0.767   6.345   0.904
 6477SOL    HW120330   0.709   6.416   0.864
 6477SOL    HW220331   0.859   6.352   0.866
 6478SOL     OW20332   1.385   6.420   0.736
 6478SOL    HW120333   1.377   6.520   0.733
 6478SOL    HW220334   1.375   6.383   0.644
 6479SOL     OW20335   4.953   5.514   3.565
 6479SOL    HW120336   4.936   5.606   3.602
 6479SOL    HW220337   4.914   5.446   3.628
 6480SOL     OW20338   3.375   1.379   5.560
 6480SOL    HW120339   3.287   1.346   5.594
 6480SOL    HW220340   3.443   1.373   5.634
 6481SOL     OW20341   4.310   3.363   1.686
 6481SOL    HW120342   4.320   3.264   1.691
 6481SOL    HW220343   4.273   3.397   1.773
 6482SOL     OW20344   4.846   3.182   5.106
 6482SOL    HW120345   4.789   3.152   5.030
 6482SOL    HW220346   4.860   3.281   5.100
 6483SOL     OW20347   1.950   5.825   5.421
 6483SOL    HW120348   1.898   5.910   5.432
 6483SOL    HW220349   2.030   5.827   5.482
 6484SOL     OW20350   3.742   1.787   2.924
 6484SOL    HW120351   3.731   1.688   2.917
 6484SOL    HW220352   3.785   1.821   2.841
 6485SOL     OW20353   2.323   4.825   5.374
 6485SOL    HW120354   2.334   4.836   5.275
 6485SOL    HW220355   2.265   4.898   5.410
 6486SOL     OW20356   0.083   3.909   2.204
 6486SOL    HW120357   0.090   3.896   2.105
 6486SOL    HW220358   0.055   4.002   2.224
 6487SOL     OW20359   6.164   5.169   4.427
 6487SOL    HW120360   6.236   5.114   4.472
 6487SOL    HW220361   6.159   5.259   4.471
 6488SOL     OW20362   3.819   5.334   4.151
 6488SOL    HW120363   3.897   5.367   4.203
 6488SOL    HW220364   3.735   5.356   4.201
 6489SOL     OW20365   6.254   3.102   5.288
 6489SOL    HW120366   6.185   3.139   5.350
 6489SOL    HW220367   6.244   3.002   5.283
 6490SOL     OW20368   2.019   2.429   0.303
 6490SOL    HW120369   2.108   2.475   0.308
 6490SOL    HW220370   2.023   2.358   0.233
 6491SOL     OW20371   1.399   0.540   1.505
 6491SOL    HW120372   1.351   0.571   1.423
 6491SOL    HW220373   1.498   0.555   1.492
 6492SOL     OW20374   4.081   3.771   4.156
 6492SOL    HW120375   4.045   3.846   4.100
 6492SOL    HW220376   4.090   3.689   4.100
 6493SOL     OW20377   0.948   4.927   3.748
 6493SOL    HW120378   1.022   4.909   3.683
 6493SOL    HW220379   0.986   4.936   3.840
 6494SOL     OW20380   6.419   0.878   1.459
 6494SOL    HW120381   6.486   0.869   1.533
 6494SOL    HW220382   6.340   0.821   1.478
 6495SOL     OW20383   6.711   6.788   3.132
 6495SOL    HW120384   6.719   6.887   3.143
 6495SOL    HW220385   6.713   6.765   3.035
 6496SOL     OW20386   2.929   2.506   1.595
 6496SOL    HW120387   2.949   2.509   1.693
 6496SOL    HW220388   3.008   2.467   1.547
 6497SOL     OW20389   0.721   2.155   0.591
 6497SOL    HW120390   0.775   2.213   0.530
 6497SOL    HW220391   0.659   2.213   0.645
 6498SOL     OW20392   1.860   4.870   4.277
 6498SOL    HW120393   1.767   4.894   4.250
 6498SOL    HW220394   1.875   4.896   4.373
 6499SOL     OW20395   4.943   2.363   3.203
 6499SOL    HW120396   4.971   2.436   3.140
 6499SOL    HW220397   4.856   2.325   3.173
 6500SOL     OW20398   1.475   3.817   3.069
 6500SOL    HW120399   1.533   3.866   3.004
 6500SOL    HW220400   1.530   3.748   3.117
 6501SOL     OW20401   6.641   0.778   3.045
 6501SOL    HW120402   6.642   0.876   3.062
 6501SOL    HW220403   6.734   0.741   3.055
 6502SOL     OW20404   0.910   2.889   1.841
 6502SOL    HW120405   0.880   2.841   1.923
 6502SOL    HW220406   0.956   2.825   1.779
 6503SOL     OW20407   6.817   2.931   5.829
 6503SOL    HW120408   6.901   2.983   5.809
 6503SOL    HW220409   6.743   2.964   5.770
 6504SOL     OW20410   3.989   0.104   6.168
 6504SOL    HW120411   3.903   0.132   6.125
 6504SOL    HW220412   4.065   0.151   6.124
 6505SOL     OW20413   0.367   6.724   0.856
 6505SOL    HW120414   0.337   6.630   0.844
 6505SOL    HW220415   0.465   6.726   0.873
 6506SOL     OW20416   6.979   3.510   1.660
 6506SOL    HW120417   6.890   3.555   1.652
 6506SOL    HW220418   7.001   3.497   1.756
 6507SOL     OW20419   3.791   5.712   1.361
 6507SOL    HW120420   3.891   5.701   1.370
 6507SOL    HW220421   3.747   5.625   1.385
 6508SOL     OW20422   6.577   0.196   4.003
 6508SOL    HW120423   6.590   0.113   3.950
 6508SOL    HW220424   6.664   0.221   4.047
 6509SOL     OW20425   2.213   1.491   0.250
 6509SOL    HW120426   2.185   1.472   0.345
 6509SOL    HW220427   2.188   1.585   0.227
 6510SOL     OW20428   3.464   4.895   4.271
 6510SOL    HW120429   3.540   4.891   4.206
 6510SOL    HW220430   3.380   4.917   4.221
 6511SOL     OW20431   3.364   2.530   0.033
 6511SOL    HW120432   3.352   2.433   0.054
 6511SOL    HW220433   3.346   2.585   0.114
 6512SOL     OW20434   4.720   0.753   0.641
 6512SOL    HW120435   4.762   0.718   0.725
 6512SOL    HW220436   4.668   0.680   0.597
 6513SOL     OW20437   3.313   4.898   2.871
 6513SOL    HW120438   3.316   4.983   2.819
 6513SOL    HW220439   3.226   4.852   2.856
 6514SOL     OW20440   5.393   6.059   5.391
 6514SOL    HW120441   5.348   6.057   5.302
 6514SOL    HW220442   5.325   6.074   5.462
 6515SOL     OW20443   0.319   4.853   2.186
 6515SOL    HW120444   0.377   4.923   2.142
 6515SOL    HW220445   0.377   4.789   2.237
 6516SOL     OW20446   6.147   1.831   3.574
 6516SOL    HW120447   6.245   1.810   3.571
 6516SOL    HW220448   6.133   1.929   3.561
 6517SOL     OW20449   6.531   3.692   0.542
 6517SOL    HW120450   6.476   3.723   0.619
 6517SOL    HW220451   6.623   3.731   0.548
 6518SOL     OW20452   0.675   1.521   2.416
 6518SOL    HW120453   0.636   1.467   2.491
 6518SOL    HW220454   0.755   1.571   2.449
 6519SOL     OW20455   1.405   1.367   3.259
 6519SOL    HW120456   1.431   1.370   3.162
 6519SOL    HW220457   1.314   1.326   3.268
 6520SOL     OW20458   6.070   5.483   0.072
 6520SOL    HW120459   6.087   5.504   6.991
 6520SOL    HW220460   6.141   5.421   0.105
 6521SOL     OW20461   2.011   4.740   4.620
 6521SOL    HW120462   2.052   4.649   4.614
 6521SOL    HW220463   2.058   4.793   4.691
 6522SOL     OW20464   2.180   2.977   5.213
 6522SOL    HW120465   2.187   3.032   5.296
 6522SOL    HW220466   2.269   2.938   5.190
 6523SOL     OW20467   5.827   6.473   0.876
 6523SOL    HW120468   5.748   6.427   0.835
 6523SOL    HW220469   5.905   6.465   0.814
 6524SOL     OW20470   3.264   3.038   1.269
 6524SOL    HW120471   3.268   2.969   1.341
 6524SOL    HW220472   3.205   3.006   1.195
 6525SOL     OW20473   1.717   5.010   3.776
 6525SOL    HW120474   1.664   5.089   3.745
 6525SOL    HW220475   1.766   4.970   3.698
 6526SOL     OW20476   6.400   6.681   0.578
 6526SOL    HW120477   6.312   6.713   0.614
 6526SOL    HW220478   6.445   6.755   0.528
 6527SOL     OW20479   5.249   1.352   0.628
 6527SOL    HW120480   5.272   1.414   0.553
 6527SOL    HW220481   5.293   1.383   0.712
 6528SOL     OW20482   4.071   6.694   0.123
 6528SOL    HW120483   3.975   6.670   0.105
 6528SOL    HW220484   4.092   6.676   0.219
 6529SOL     OW20485   4.311   0.067   1.823
 6529SOL    HW120486   4.270   0.082   1.733
 6529SOL    HW220487   4.258   7.013   1.872
 6530SOL     OW20488   6.726   3.060   3.816
 6530SOL    HW120489   6.821   3.078   3.842
 6530SOL    HW220490   6.723   3.001   3.736
 6531SOL     OW20491   3.866   3.517   3.793
 6531SOL    HW120492   3.958   3.532   3.757
 6531SOL    HW220493   3.816   3.604   3.792
 6532SOL     OW20494   0.653   5.923   0.119
 6532SOL    HW120495   0.573   5.869   0.095
 6532SOL    HW220496   0.627   5.994   0.186
 6533SOL     OW20497   5.138   5.196   1.380
 6533SOL    HW120498   5.153   5.219   1.284
 6533SOL    HW220499   5.201   5.123   1.407
 6534SOL     OW20500   6.982   3.777   3.914
 6534SOL    HW120501   6.894   3.825   3.916
 6534SOL    HW220502   0.011   3.786   4.003
 6535SOL     OW20503   5.372   3.719   5.844
 6535SOL    HW120504   5.403   3.764   5.760
 6535SOL    HW220505   5.273   3.727   5.851
 6536SOL     OW20506   0.471   4.812   5.628
 6536SOL    HW120507   0.443   4.718   5.646
 6536SOL    HW220508   0.523   4.815   5.542
 6537SOL     OW20509   6.953   5.425   3.854
 6537SOL    HW120510   6.948   5.507   3.911
 6537SOL    HW220511   6.972   5.451   3.759
 6538SOL     OW20512   1.409   3.021   3.456
 6538SOL    HW120513   1.474   3.095   3.473
 6538SOL    HW220514   1.363   3.036   3.368
 6539SOL     OW20515   4.409   6.812   6.896
 6539SOL    HW120516   4.506   6.812   6.869
 6539SOL    HW220517   4.377   6.906   6.905
 6540SOL     OW20518   0.502   2.712   5.270
 6540SOL    HW120519   0.472   2.626   5.230
 6540SOL    HW220520   0.576   2.750   5.214
 6541SOL     OW20521   4.034   1.731   5.363
 6541SOL    HW120522   3.970   1.784   5.308
 6541SOL    HW220523   4.128   1.758   5.339
 6542SOL     OW20524   1.478   4.630   2.365
 6542SOL    HW120525   1.424   4.547   2.380
 6542SOL    HW220526   1.570   4.616   2.401
 6543SOL     OW20527   4.391   1.363   4.356
 6543SOL    HW120528   4.386   1.428   4.432
 6543SOL    HW220529   4.310   1.304   4.357
 6544SOL     OW20530   0.574   0.364   0.693
 6544SOL    HW120531   0.579   0.457   0.727
 6544SOL    HW220532   0.593   0.300   0.768
 6545SOL     OW20533   5.125   6.192   0.892
 6545SOL    HW120534   5.086   6.158   0.807
 6545SOL    HW220535   5.088   6.282   0.912
 6546SOL     OW20536   4.512   5.019   5.640
 6546SOL    HW120537   4.453   5.098   5.623
 6546SOL    HW220538   4.561   4.995   5.556
 6547SOL     OW20539   0.917   6.333   5.221
 6547SOL    HW120540   0.923   6.266   5.295
 6547SOL    HW220541   0.936   6.424   5.258
 6548SOL     OW20542   1.414   1.751   6.221
 6548SOL    HW120543   1.350   1.825   6.200
 6548SOL    HW220544   1.398   1.674   6.159
 6549SOL     OW20545   3.803   1.494   2.615
 6549SOL    HW120546   3.762   1.402   2.618
 6549SOL    HW220547   3.735   1.560   2.583
 6550SOL     OW20548   6.109   6.572   2.087
 6550SOL    HW120549   6.175   6.568   2.013
 6550SOL    HW220550   6.085   6.479   2.115
 6551SOL     OW20551   2.407   4.918   0.777
 6551SOL    HW120552   2.439   4.870   0.696
 6551SOL    HW220553   2.377   4.851   0.845
 6552SOL     OW20554   2.169   4.410   0.032
 6552SOL    HW120555   2.201   4.415   0.126
 6552SOL    HW220556   2.070   4.424   0.029
 6553SOL     OW20557   0.040   2.006   4.135
 6553SOL    HW120558   0.014   2.011   4.038
 6553SOL    HW220559   6.977   2.031   4.191
 6554SOL     OW20560   1.040   2.077   3.853
 6554SOL    HW120561   1.127   2.116   3.822
 6554SOL    HW220562   1.042   1.978   3.840
 6555SOL     OW20563   1.342   3.775   3.654
 6555SOL    HW120564   1.361   3.682   3.685
 6555SOL    HW220565   1.425   3.831   3.663
 6556SOL     OW20566   5.158   3.255   3.192
 6556SOL    HW120567   5.064   3.272   3.163
 6556SOL    HW220568   5.160   3.175   3.252
 6557SOL     OW20569   2.207   0.716   2.669
 6557SOL    HW120570   2.148   0.726   2.590
 6557SOL    HW220571   2.259   0.800   2.684
 6558SOL     OW20572   5.671   6.002   0.657
 6558SOL    HW120573   5.608   6.028   0.584
 6558SOL    HW220574   5.651   5.909   0.688
 6559SOL     OW20575   0.327   2.021   5.826
 6559SOL    HW120576   0.368   2.026   5.917
 6559SOL    HW220577   0.309   1.925   5.802
 6560SOL     OW20578   6.860   4.567   6.646
 6560SOL    HW120579   6.847   4.514   6.562
 6560SOL    HW220580   6.794   4.537   6.715
 6561SOL     OW20581   2.317   5.319   0.594
 6561SOL    HW120582   2.342   5.341   0.500
 6561SOL    HW220583   2.387   5.355   0.656
 6562SOL     OW20584   4.809   2.415   1.906
 6562SOL    HW120585   4.752   2.348   1.953
 6562SOL    HW220586   4.792   2.506   1.944
 6563SOL     OW20587   6.198   5.232   5.548
 6563SOL    HW120588   6.264   5.286   5.600
 6563SOL    HW220589   6.234   5.214   5.456
 6564SOL     OW20590   5.131   3.239   2.574
 6564SOL    HW120591   5.067   3.279   2.508
 6564SOL    HW220592   5.195   3.179   2.526
 6565SOL     OW20593   5.204   6.137   2.488
 6565SOL    HW120594   5.216   6.082   2.571
 6565SOL    HW220595   5.251   6.224   2.498
 6566SOL     OW20596   5.371   5.221   3.689
 6566SOL    HW120597   5.361   5.209   3.788
 6566SOL    HW220598   5.379   5.318   3.668
 6567SOL     OW20599   3.081   0.875   2.751
 6567SOL    HW120600   3.138   0.868   2.669
 6567SOL    HW220601   3.112   0.953   2.806
 6568SOL     OW20602   4.967   0.880   1.149
 6568SOL    HW120603   5.015   0.963   1.121
 6568SOL    HW220604   5.010   0.801   1.106
 6569SOL     OW20605   1.388   4.911   3.563
 6569SOL    HW120606   1.292   4.918   3.537
 6569SOL    HW220607   1.440   4.868   3.489
 6570SOL     OW20608   4.243   0.208   2.410
 6570SOL    HW120609   4.177   0.279   2.432
 6570SOL    HW220610   4.206   0.118   2.436
 6571SOL     OW20611   2.630   6.517   2.885
 6571SOL    HW120612   2.581   6.436   2.854
 6571SOL    HW220613   2.566   6.580   2.929
 6572SOL     OW20614   2.071   5.665   3.440
 6572SOL    HW120615   2.059   5.749   3.494
 6572SOL    HW220616   2.022   5.673   3.354
 6573SOL     OW20617   0.110   2.021   3.527
 6573SOL    HW120618   0.205   1.998   3.552
 6573SOL    HW220619   0.111   2.092   3.457
 6574SOL     OW20620   0.468   5.044   2.059
 6574SOL    HW120621   0.465   5.121   2.122
 6574SOL    HW220622   0.404   5.058   1.984
 6575SOL     OW20623   6.928   1.602   3.740
 6575SOL    HW120624   6.913   1.586   3.837
 6575SOL    HW220625   6.988   1.682   3.728
 6576SOL     OW20626   4.035   6.915   1.605
 6576SOL    HW120627   3.938   6.894   1.620
 6576SOL    HW220628   4.065   6.875   1.518
 6577SOL     OW20629   3.475   0.744   4.734
 6577SOL    HW120630   3.545   0.812   4.754
 6577SOL    HW220631   3.390   0.768   4.780
 6578SOL     OW20632   0.925   5.543   0.483
 6578SOL    HW120633   0.921   5.447   0.509
 6578SOL    HW220634   0.926   5.551   0.383
 6579SOL     OW20635   1.648   1.675   3.639
 6579SOL    HW120636   1.635   1.773   3.649
 6579SOL    HW220637   1.563   1.632   3.610
 6580SOL     OW20638   3.320   2.069   0.148
 6580SOL    HW120639   3.419   2.075   0.137
 6580SOL    HW220640   3.279   2.043   0.061
 6581SOL     OW20641   0.319   2.439   2.500
 6581SOL    HW120642   0.358   2.351   2.474
 6581SOL    HW220643   0.323   2.502   2.422
 6582SOL     OW20644   5.054   0.781   3.012
 6582SOL    HW120645   5.019   0.692   2.985
 6582SOL    HW220646   5.037   0.847   2.938
 6583SOL     OW20647   2.592   4.523   0.998
 6583SOL    HW120648   2.648   4.476   1.066
 6583SOL    HW220649   2.604   4.622   1.008
 6584SOL     OW20650   4.347   3.192   6.135
 6584SOL    HW120651   4.306   3.141   6.211
 6584SOL    HW220652   4.430   3.145   6.105
 6585SOL     OW20653   5.067   6.762   1.650
 6585SOL    HW120654   4.983   6.753   1.704
 6585SOL    HW220655   5.044   6.759   1.553
 6586SOL     OW20656   6.730   1.285   6.446
 6586SOL    HW120657   6.694   1.251   6.360
 6586SOL    HW220658   6.821   1.246   6.462
 6587SOL     OW20659   3.645   4.948   5.066
 6587SOL    HW120660   3.565   4.909   5.111
 6587SOL    HW220661   3.616   5.016   4.999
 6588SOL     OW20662   1.156   1.108   0.210
 6588SOL    HW120663   1.212   1.088   0.129
 6588SOL    HW220664   1.177   1.200   0.242
 6589SOL     OW20665   6.113   6.713   1.723
 6589SOL    HW120666   6.033   6.770   1.706
 6589SOL    HW220667   6.171   6.756   1.793
 6590SOL     OW20668   1.271   5.866   4.609
 6590SOL    HW120669   1.192   5.927   4.602
 6590SOL    HW220670   1.333   5.883   4.533
 6591SOL     OW20671   6.186   2.969   3.896
 6591SOL    HW120672   6.272   2.971   3.946
 6591SOL    HW220673   6.166   3.061   3.860
 6592SOL     OW20674   6.772   0.425   4.168
 6592SOL    HW120675   6.757   0.521   4.142
 6592SOL    HW220676   6.866   0.399   4.146
 6593SOL     OW20677   1.913   0.566   2.650
 6593SOL    HW120678   1.882   0.619   2.729
 6593SOL    HW220679   1.852   0.583   2.572
 6594SOL     OW20680   5.357   0.206   6.982
 6594SOL    HW120681   5.415   0.231   0.044
 6594SOL    HW220682   5.346   0.285   6.922
 6595SOL     OW20683   1.023   1.718   5.092
 6595SOL    HW120684   0.982   1.801   5.129
 6595SOL    HW220685   1.059   1.736   5.001
 6596SOL     OW20686   5.784   1.024   2.824
 6596SOL    HW120687   5.779   0.925   2.814
 6596SOL    HW220688   5.760   1.049   2.918
 6597SOL     OW20689   0.884   4.601   0.813
 6597SOL    HW120690   0.955   4.656   0.856
 6597SOL    HW220691   0.804   4.596   0.873
 6598SOL     OW20692   0.831   5.254   2.637
 6598SOL    HW120693   0.798   5.312   2.563
 6598SOL    HW220694   0.916   5.209   2.609
 6599SOL     OW20695   0.743   5.510   6.264
 6599SOL    HW120696   0.748   5.608   6.247
 6599SOL    HW220697   0.653   5.476   6.237
 6600SOL     OW20698   4.804   6.412   4.641
 6600SOL    HW120699   4.791   6.339   4.574
 6600SOL    HW220700   4.898   6.445   4.637
 6601SOL     OW20701   1.212   2.915   1.757
 6601SOL    HW120702   1.290   2.900   1.818
 6601SOL    HW220703   1.199   3.013   1.742
 6602SOL     OW20704   6.624   5.347   0.841
 6602SOL    HW120705   6.562   5.420   0.812
 6602SOL    HW220706   6.654   5.295   0.761
 6603SOL     OW20707   0.202   4.210   2.358
 6603SOL    HW120708   0.220   4.122   2.401
 6603SOL    HW220709   0.116   4.205   2.306
 6604SOL     OW20710   1.387   5.436   2.533
 6604SOL    HW120711   1.477   5.402   2.506
 6604SOL    HW220712   1.359   5.509   2.471
 6605SOL     OW20713   0.355   5.241   1.115
 6605SOL    HW120714   0.403   5.328   1.127
 6605SOL    HW220715   0.277   5.237   1.177
 6606SOL     OW20716   2.076   4.403   2.583
 6606SOL    HW120717   2.141   4.338   2.542
 6606SOL    HW220718   1.983   4.374   2.563
 6607SOL     OW20719   6.234   3.370   4.169
 6607SOL    HW120720   6.138   3.342   4.167
 6607SOL    HW220721   6.288   3.303   4.219
 6608SOL     OW20722   1.203   0.414   5.587
 6608SOL    HW120723   1.149   0.360   5.651
 6608SOL    HW220724   1.146   0.488   5.550
 6609SOL     OW20725   3.171   2.210   6.828
 6609SOL    HW120726   3.253   2.247   6.783
 6609SOL    HW220727   3.192   2.120   6.866
 6610SOL     OW20728   3.088   6.904   1.636
 6610SOL    HW120729   3.111   6.979   1.698
 6610SOL    HW220730   3.004   6.859   1.668
 6611SOL     OW20731   3.491   1.386   4.825
 6611SOL    HW120732   3.576   1.422   4.785
 6611SOL    HW220733   3.432   1.350   4.753
 6612SOL     OW20734   0.371   0.036   6.932
 6612SOL    HW120735   0.321   0.122   6.940
 6612SOL    HW220736   0.346   7.007   6.846
 6613SOL     OW20737   3.912   6.712   1.259
 6613SOL    HW120738   3.952   6.679   1.174
 6613SOL    HW220739   3.980   6.765   1.310
 6614SOL     OW20740   3.735   4.827   0.846
 6614SOL    HW120741   3.814   4.768   0.856
 6614SOL    HW220742   3.657   4.773   0.814
 6615SOL     OW20743   3.131   5.592   6.227
 6615SOL    HW120744   3.207   5.530   6.207
 6615SOL    HW220745   3.165   5.667   6.285
 6616SOL     OW20746   4.393   1.508   0.070
 6616SOL    HW120747   4.479   1.497   0.119
 6616SOL    HW220748   4.365   1.604   0.072
 6617SOL     OW20749   3.224   1.187   3.966
 6617SOL    HW120750   3.292   1.168   3.894
 6617SOL    HW220751   3.254   1.144   4.051
 6618SOL     OW20752   6.059   2.702   4.317
 6618SOL    HW120753   6.140   2.713   4.375
 6618SOL    HW220754   6.084   2.715   4.221
 6619SOL     OW20755   4.843   5.017   4.289
 6619SOL    HW120756   4.749   4.984   4.299
 6619SOL    HW220757   4.858   5.096   4.349
 6620SOL     OW20758   1.285   2.550   3.476
 6620SOL    HW120759   1.372   2.507   3.453
 6620SOL    HW220760   1.302   2.639   3.520
 6621SOL     OW20761   3.420   3.440   3.673
 6621SOL    HW120762   3.414   3.392   3.586
 6621SOL    HW220763   3.403   3.377   3.748
 6622SOL     OW20764   0.221   4.875   1.280
 6622SOL    HW120765   0.194   4.824   1.198
 6622SOL    HW220766   0.199   4.972   1.268
 6623SOL     OW20767   3.580   4.017   3.502
 6623SOL    HW120768   3.580   3.966   3.416
 6623SOL    HW220769   3.674   4.032   3.531
 6624SOL     OW20770   2.575   2.460   3.165
 6624SOL    HW120771   2.583   2.394   3.091
 6624SOL    HW220772   2.499   2.434   3.224
 6625SOL     OW20773   6.801   3.952   5.428
 6625SOL    HW120774   6.872   3.916   5.368
 6625SOL    HW220775   6.773   3.881   5.493
 6626SOL     OW20776   3.203   5.939   5.368
 6626SOL    HW120777   3.123   5.946   5.427
 6626SOL    HW220778   3.187   5.992   5.284
 6627SOL     OW20779   2.733   6.518   4.326
 6627SOL    HW120780   2.709   6.430   4.365
 6627SOL    HW220781   2.821   6.511   4.278
 6628SOL     OW20782   3.659   0.720   2.952
 6628SOL    HW120783   3.657   0.749   3.047
 6628SOL    HW220784   3.740   0.758   2.907
 6629SOL     OW20785   4.536   5.506   5.203
 6629SOL    HW120786   4.505   5.432   5.143
 6629SOL    HW220787   4.625   5.540   5.171
 6630SOL     OW20788   1.614   0.486   0.068
 6630SOL    HW120789   1.657   0.527   0.149
 6630SOL    HW220790   1.644   0.391   0.060
 6631SOL     OW20791   1.949   2.570   5.841
 6631SOL    HW120792   1.895   2.559   5.757
 6631SOL    HW220793   1.980   2.665   5.847
 6632SOL     OW20794   1.071   0.526   6.756
 6632SOL    HW120795   1.153   0.574   6.787
 6632SOL    HW220796   0.992   0.559   6.809
 6633SOL     OW20797   4.028   6.300   6.330
 6633SOL    HW120798   4.027   6.206   6.362
 6633SOL    HW220799   4.081   6.306   6.245
 6634SOL     OW20800   2.807   2.321   3.192
 6634SOL    HW120801   2.747   2.243   3.208
 6634SOL    HW220802   2.755   2.395   3.149
 6635SOL     OW20803   5.265   5.700   5.703
 6635SOL    HW120804   5.354   5.724   5.742
 6635SOL    HW220805   5.214   5.784   5.684
 6636SOL     OW20806   4.055   1.101   0.766
 6636SOL    HW120807   4.086   1.127   0.675
 6636SOL    HW220808   4.131   1.111   0.831
 6637SOL     OW20809   0.302   1.965   7.005
 6637SOL    HW120810   0.346   1.969   6.916
 6637SOL    HW220811   0.239   1.887   7.008
 6638SOL     OW20812   3.362   3.212   3.555
 6638SOL    HW120813   3.333   3.138   3.494
 6638SOL    HW220814   3.445   3.184   3.604
 6639SOL     OW20815   4.575   2.576   1.445
 6639SOL    HW120816   4.628   2.532   1.517
 6639SOL    HW220817   4.615   2.553   1.356
 6640SOL     OW20818   1.432   4.107   4.817
 6640SOL    HW120819   1.429   4.182   4.751
 6640SOL    HW220820   1.465   4.140   4.905
 6641SOL     OW20821   6.117   2.756   0.194
 6641SOL    HW120822   6.179   2.834   0.194
 6641SOL    HW220823   6.169   2.672   0.214
 6642SOL     OW20824   0.926   5.427   5.955
 6642SOL    HW120825   0.826   5.432   5.945
 6642SOL    HW220826   0.956   5.333   5.946
 6643SOL     OW20827   3.579   5.577   5.994
 6643SOL    HW120828   3.560   5.674   6.003
 6643SOL    HW220829   3.497   5.530   5.959
 6644SOL     OW20830   2.245   0.175   3.867
 6644SOL    HW120831   2.324   0.168   3.928
 6644SOL    HW220832   2.274   0.205   3.776
 6645SOL     OW20833   4.313   2.555   6.093
 6645SOL    HW120834   4.316   2.507   6.005
 6645SOL    HW220835   4.223   2.543   6.134
 6646SOL     OW20836   4.400   7.001   5.632
 6646SOL    HW120837   4.373   6.993   5.536
 6646SOL    HW220838   4.318   0.001   5.688
 6647SOL     OW20839   4.176   4.533   1.123
 6647SOL    HW120840   4.259   4.516   1.069
 6647SOL    HW220841   4.199   4.534   1.220
 6648SOL     OW20842   3.237   5.641   5.341
 6648SOL    HW120843   3.301   5.716   5.357
 6648SOL    HW220844   3.151   5.677   5.305
 6649SOL     OW20845   4.817   2.817   5.955
 6649SOL    HW120846   4.799   2.905   5.999
 6649SOL    HW220847   4.739   2.757   5.967
 6650SOL     OW20848   2.886   1.231   5.338
 6650SOL    HW120849   2.892   1.330   5.322
 6650SOL    HW220850   2.897   1.213   5.436
 6651SOL     OW20851   6.959   1.436   5.051
 6651SOL    HW120852   0.034   1.393   5.047
 6651SOL    HW220853   6.945   1.491   4.969
 6652SOL     OW20854   6.715   4.223   6.991
 6652SOL    HW120855   6.727   4.298   6.926
 6652SOL    HW220856   6.805   4.189   0.004
 6653SOL     OW20857   5.457   4.609   0.042
 6653SOL    HW120858   5.457   4.634   0.139
 6653SOL    HW220859   5.363   4.596   0.011
 6654SOL     OW20860   6.457   2.402   3.118
 6654SOL    HW120861   6.482   2.427   3.212
 6654SOL    HW220862   6.534   2.421   3.057
 6655SOL     OW20863   6.878   5.911   1.472
 6655SOL    HW120864   6.788   5.892   1.510
 6655SOL    HW220865   6.926   5.825   1.454
 6656SOL     OW20866   4.211   0.874   2.683
 6656SOL    HW120867   4.176   0.791   2.728
 6656SOL    HW220868   4.136   0.924   2.641
 6657SOL     OW20869   4.760   1.686   4.626
 6657SOL    HW120870   4.819   1.612   4.659
 6657SOL    HW220871   4.707   1.723   4.703
 6658SOL     OW20872   6.742   5.766   4.558
 6658SOL    HW120873   6.671   5.724   4.502
 6658SOL    HW220874   6.700   5.812   4.637
 6659SOL     OW20875   0.551   5.641   1.010
 6659SOL    HW120876   0.575   5.738   1.008
 6659SOL    HW220877   0.589   5.599   1.093
 6660SOL     OW20878   0.596   0.468   4.387
 6660SOL    HW120879   0.500   0.496   4.383
 6660SOL    HW220880   0.607   0.394   4.454
 6661SOL     OW20881   4.455   6.003   3.716
 6661SOL    HW120882   4.398   6.025   3.637
 6661SOL    HW220883   4.515   5.926   3.693
 6662SOL     OW20884   3.158   0.167   2.449
 6662SOL    HW120885   3.110   0.249   2.418
 6662SOL    HW220886   3.094   0.090   2.451
 6663SOL     OW20887   1.600   4.097   5.973
 6663SOL    HW120888   1.628   4.192   5.986
 6663SOL    HW220889   1.582   4.055   6.062
 6664SOL     OW20890   3.614   6.959   1.707
 6664SOL    HW120891   3.522   6.942   1.671
 6664SOL    HW220892   3.681   6.909   1.652
 6665SOL     OW20893   2.892   0.683   0.014
 6665SOL    HW120894   2.966   0.665   0.079
 6665SOL    HW220895   2.864   0.779   0.023
 6666SOL     OW20896   3.220   6.233   5.472
 6666SOL    HW120897   3.230   6.330   5.496
 6666SOL    HW220898   3.150   6.192   5.531
 6667SOL     OW20899   1.580   5.855   6.561
 6667SOL    HW120900   1.599   5.920   6.635
 6667SOL    HW220901   1.549   5.769   6.599
 6668SOL     OW20902   6.473   4.296   6.775
 6668SOL    HW120903   6.520   4.209   6.765
 6668SOL    HW220904   6.410   4.309   6.699
 6669SOL     OW20905   1.496   2.367   3.421
 6669SOL    HW120906   1.504   2.346   3.518
 6669SOL    HW220907   1.587   2.368   3.380
 6670SOL     OW20908   3.340   3.266   0.806
 6670SOL    HW120909   3.283   3.341   0.772
 6670SOL    HW220910   3.353   3.277   0.905
 6671SOL     OW20911   4.493   4.824   0.618
 6671SOL    HW120912   4.413   4.867   0.577
 6671SOL    HW220913   4.575   4.850   0.567
 6672SOL     OW20914   1.525   2.665   1.200
 6672SOL    HW120915   1.593   2.611   1.152
 6672SOL    HW220916   1.503   2.747   1.146
 6673SOL     OW20917   5.746   3.002   4.203
 6673SOL    HW120918   5.791   3.042   4.283
 6673SOL    HW220919   5.750   3.067   4.127
 6674SOL     OW20920   6.697   0.216   0.567
 6674SOL    HW120921   6.625   0.231   0.635
 6674SOL    HW220922   6.770   0.161   0.608
 6675SOL     OW20923   4.895   0.591   0.049
 6675SOL    HW120924   4.883   0.493   0.036
 6675SOL    HW220925   4.887   0.613   0.147
 6676SOL     OW20926   0.814   4.069   5.165
 6676SOL    HW120927   0.728   4.086   5.214
 6676SOL    HW220928   0.797   4.006   5.089
 6677SOL     OW20929   0.566   2.205   6.382
 6677SOL    HW120930   0.548   2.300   6.358
 6677SOL    HW220931   0.643   2.200   6.445
 6678SOL     OW20932   3.212   3.907   6.432
 6678SOL    HW120933   3.267   3.973   6.381
 6678SOL    HW220934   3.229   3.918   6.530
 6679SOL     OW20935   1.418   0.575   3.998
 6679SOL    HW120936   1.432   0.477   4.012
 6679SOL    HW220937   1.324   0.592   3.968
 6680SOL     OW20938   6.262   4.803   1.593
 6680SOL    HW120939   6.201   4.877   1.622
 6680SOL    HW220940   6.357   4.835   1.601
 6681SOL     OW20941   2.273   5.855   1.013
 6681SOL    HW120942   2.351   5.827   1.069
 6681SOL    HW220943   2.190   5.815   1.051
 6682SOL     OW20944   2.609   5.546   6.170
 6682SOL    HW120945   2.641   5.463   6.216
 6682SOL    HW220946   2.510   5.542   6.161
 6683SOL     OW20947   6.518   5.217   5.539
 6683SOL    HW120948   6.554   5.202   5.631
 6683SOL    HW220949   6.493   5.313   5.528
 6684SOL     OW20950   2.721   5.715   6.369
 6684SOL    HW120951   2.677   5.681   6.285
 6684SOL    HW220952   2.803   5.767   6.345
 6685SOL     OW20953   4.348   2.696   0.782
 6685SOL    HW120954   4.378   2.786   0.814
 6685SOL    HW220955   4.385   2.679   0.691
 6686SOL     OW20956   4.766   4.665   5.827
 6686SOL    HW120957   4.809   4.632   5.911
 6686SOL    HW220958   4.780   4.599   5.754
 6687SOL     OW20959   0.441   1.821   1.259
 6687SOL    HW120960   0.376   1.826   1.335
 6687SOL    HW220961   0.394   1.846   1.174
 6688SOL     OW20962   4.514   5.903   0.632
 6688SOL    HW120963   4.591   5.861   0.678
 6688SOL    HW220964   4.547   5.966   0.561
 6689SOL     OW20965   3.279   4.836   5.836
 6689SOL    HW120966   3.294   4.744   5.799
 6689SOL    HW220967   3.322   4.843   5.926
 6690SOL     OW20968   0.544   0.908   0.289
 6690SOL    HW120969   0.584   0.816   0.298
 6690SOL    HW220970   0.583   0.954   0.210
 6691SOL     OW20971   2.534   1.348   1.968
 6691SOL    HW120972   2.581   1.427   2.009
 6691SOL    HW220973   2.455   1.324   2.024
 6692SOL     OW20974   4.549   6.094   2.393
 6692SOL    HW120975   4.596   6.147   2.463
 6692SOL    HW220976   4.540   6.149   2.310
 6693SOL     OW20977   3.137   1.289   5.664
 6693SOL    HW120978   3.097   1.270   5.574
 6693SOL    HW220979   3.110   1.217   5.728
 6694SOL     OW20980   4.379   4.023   1.428
 6694SOL    HW120981   4.363   4.014   1.526
 6694SOL    HW220982   4.349   4.114   1.397
 6695SOL     OW20983   3.012   2.320   0.284
 6695SOL    HW120984   2.982   2.333   0.190
 6695SOL    HW220985   3.112   2.314   0.287
 6696SOL     OW20986   3.846   3.243   4.722
 6696SOL    HW120987   3.786   3.263   4.799
 6696SOL    HW220988   3.925   3.304   4.725
 6697SOL     OW20989   4.437   1.839   2.069
 6697SOL    HW120990   4.504   1.780   2.024
 6697SOL    HW220991   4.380   1.784   2.130
 6698SOL     OW20992   3.184   3.827   1.443
 6698SOL    HW120993   3.180   3.758   1.371
 6698SOL    HW220994   3.092   3.854   1.468
 6699SOL     OW20995   1.455   3.408   5.738
 6699SOL    HW120996   1.531   3.470   5.724
 6699SOL    HW220997   1.466   3.360   5.824
 6700SOL     OW20998   5.722   0.364   1.320
 6700SOL    HW120999   5.783   0.303   1.269
 6700SOL    HW221000   5.654   0.309   1.370
 6701SOL     OW21001   5.823   0.270   1.818
 6701SOL    HW121002   5.723   0.272   1.824
 6701SOL    HW221003   5.857   0.361   1.794
 6702SOL     OW21004   3.640   3.399   0.428
 6702SOL    HW121005   3.703   3.395   0.505
 6702SOL    HW221006   3.685   3.365   0.345
 6703SOL     OW21007   0.324   1.303   0.553
 6703SOL    HW121008   0.345   1.306   0.651
 6703SOL    HW221009   0.309   1.395   0.519
 6704SOL     OW21010   3.276   0.222   5.259
 6704SOL    HW121011   3.250   0.182   5.171
 6704SOL    HW221012   3.369   0.257   5.254
 6705SOL     OW21013   6.998   4.178   2.196
 6705SOL    HW121014   6.904   4.166   2.230
 6705SOL    HW221015   6.996   4.226   2.109
 6706SOL     OW21016   7.006   6.753   0.521
 6706SOL    HW121017   6.968   6.792   0.438
 6706SOL    HW221018   0.089   6.772   0.525
 6707SOL     OW21019   4.386   0.867   2.893
 6707SOL    HW121020   4.318   0.893   2.825
 6707SOL    HW221021   4.342   0.812   2.964
 6708SOL     OW21022   0.641   2.847   0.395
 6708SOL    HW121023   0.681   2.756   0.392
 6708SOL    HW221024   0.589   2.858   0.480
 6709SOL     OW21025   2.368   4.393   2.082
 6709SOL    HW121026   2.382   4.320   2.015
 6709SOL    HW221027   2.286   4.375   2.136
 6710SOL     OW21028   4.727   1.175   0.799
 6710SOL    HW121029   4.705   1.111   0.726
 6710SOL    HW221030   4.789   1.246   0.764
 6711SOL     OW21031   3.559   5.860   6.047
 6711SOL    HW121032   3.639   5.875   6.105
 6711SOL    HW221033   3.479   5.903   6.089
 6712SOL     OW21034   4.789   4.246   1.567
 6712SOL    HW121035   4.741   4.250   1.480
 6712SOL    HW221036   4.798   4.338   1.604
 6713SOL     OW21037   1.775   4.594   4.506
 6713SOL    HW121038   1.761   4.568   4.602
 6713SOL    HW221039   1.858   4.650   4.500
 6714SOL     OW21040   5.501   1.458   1.348
 6714SOL    HW121041   5.532   1.474   1.254
 6714SOL    HW221042   5.484   1.546   1.392
 6715SOL     OW21043   1.083   0.439   6.196
 6715SOL    HW121044   1.043   0.531   6.195
 6715SOL    HW221045   1.142   0.429   6.276
 6716SOL     OW21046   1.255   5.481   1.799
 6716SOL    HW121047   1.190   5.530   1.856
 6716SOL    HW221048   1.331   5.542   1.775
 6717SOL     OW21049   6.084   1.912   5.658
 6717SOL    HW121050   6.045   1.961   5.580
 6717SOL    HW221051   6.049   1.952   5.743
 6718SOL     OW21052   4.955   1.502   0.902
 6718SOL    HW121053   5.001   1.427   0.950
 6718SOL    HW221054   4.913   1.466   0.818
 6719SOL     OW21055   1.385   1.623   0.153
 6719SOL    HW121056   1.373   1.711   0.200
 6719SOL    HW221057   1.296   1.580   0.140
 6720SOL     OW21058   1.885   0.875   5.864
 6720SOL    HW121059   1.894   0.790   5.916
 6720SOL    HW221060   1.857   0.855   5.771
 6721SOL     OW21061   6.216   6.596   0.885
 6721SOL    HW121062   6.184   6.685   0.918
 6721SOL    HW221063   6.258   6.546   0.961
 6722SOL     OW21064   5.487   4.377   0.494
 6722SOL    HW121065   5.411   4.313   0.478
 6722SOL    HW221066   5.473   4.423   0.582
 6723SOL     OW21067   1.696   3.269   4.340
 6723SOL    HW121068   1.785   3.275   4.386
 6723SOL    HW221069   1.686   3.346   4.277
 6724SOL     OW21070   2.146   3.873   3.884
 6724SOL    HW121071   2.204   3.846   3.961
 6724SOL    HW221072   2.117   3.968   3.895
 6725SOL     OW21073   4.961   3.401   3.914
 6725SOL    HW121074   5.037   3.387   3.977
 6725SOL    HW221075   4.925   3.313   3.885
 6726SOL     OW21076   0.595   1.282   6.344
 6726SOL    HW121077   0.504   1.301   6.306
 6726SOL    HW221078   0.621   1.357   6.405
 6727SOL     OW21079   1.192   4.873   5.643
 6727SOL    HW121080   1.192   4.873   5.543
 6727SOL    HW221081   1.101   4.896   5.677
 6728SOL     OW21082   3.589   1.715   3.914
 6728SOL    HW121083   3.590   1.634   3.857
 6728SOL    HW221084   3.587   1.688   4.010
 6729SOL     OW21085   3.822   1.091   2.052
 6729SOL    HW121086   3.869   1.004   2.065
 6729SOL    HW221087   3.890   1.164   2.042
 6730SOL     OW21088   6.808   2.055   0.538
 6730SOL    HW121089   6.746   2.024   0.610
 6730SOL    HW221090   6.855   1.975   0.499
 6731SOL     OW21091   4.445   0.320   6.236
 6731SOL    HW121092   4.495   0.251   6.289
 6731SOL    HW221093   4.357   0.281   6.206
 6732SOL     OW21094   6.983   4.854   5.374
 6732SOL    HW121095   6.906   4.839   5.436
 6732SOL    HW221096   0.013   4.940   5.398
 6733SOL     OW21097   4.747   4.977   5.165
 6733SOL    HW121098   4.780   4.956   5.073
 6733SOL    HW221099   4.823   5.011   5.220
 6734SOL     OW21100   5.875   2.181   5.125
 6734SOL    HW121101   5.949   2.115   5.115
 6734SOL    HW221102   5.910   2.263   5.171
 6735SOL     OW21103   5.713   2.436   3.986
 6735SOL    HW121104   5.661   2.452   4.070
 6735SOL    HW221105   5.651   2.431   3.908
 6736SOL     OW21106   3.322   3.968   0.674
 6736SOL    HW121107   3.279   3.909   0.743
 6736SOL    HW221108   3.260   3.980   0.597
 6737SOL     OW21109   6.457   3.455   1.124
 6737SOL    HW121110   6.540   3.490   1.167
 6737SOL    HW221111   6.481   3.383   1.059
 6738SOL     OW21112   2.170   6.484   4.392
 6738SOL    HW121113   2.256   6.441   4.419
 6738SOL    HW221114   2.151   6.562   4.453
 6739SOL     OW21115   6.917   6.903   5.496
 6739SOL    HW121116   6.955   6.870   5.409
 6739SOL    HW221117   6.977   6.875   5.571
 6740SOL     OW21118   0.079   6.910   2.094
 6740SOL    HW121119   0.163   6.877   2.050
 6740SOL    HW221120   0.040   6.983   2.039
 6741SOL     OW21121   3.316   1.736   0.240
 6741SOL    HW121122   3.323   1.823   0.288
 6741SOL    HW221123   3.304   1.753   0.142
 6742SOL     OW21124   6.092   4.238   2.759
 6742SOL    HW121125   5.997   4.207   2.765
 6742SOL    HW221126   6.152   4.172   2.805
 6743SOL     OW21127   4.048   3.501   6.704
 6743SOL    HW121128   4.044   3.443   6.622
 6743SOL    HW221129   3.961   3.495   6.753
 6744SOL     OW21130   6.172   6.600   5.543
 6744SOL    HW121131   6.261   6.625   5.579
 6744SOL    HW221132   6.183   6.543   5.461
 6745SOL     OW21133   6.588   4.190   5.519
 6745SOL    HW121134   6.569   4.129   5.441
 6745SOL    HW221135   6.502   4.231   5.550
 6746SOL     OW21136   1.234   1.995   3.060
 6746SOL    HW121137   1.164   2.037   3.002
 6746SOL    HW221138   1.272   2.064   3.122
 6747SOL     OW21139   0.653   6.409   4.920
 6747SOL    HW121140   0.558   6.439   4.929
 6747SOL    HW221141   0.712   6.464   4.979
 6748SOL     OW21142   2.161   0.861   4.838
 6748SOL    HW121143   2.115   0.901   4.918
 6748SOL    HW221144   2.260   0.867   4.851
 6749SOL     OW21145   4.202   5.218   2.146
 6749SOL    HW121146   4.236   5.291   2.205
 6749SOL    HW221147   4.122   5.175   2.188
 6750SOL     OW21148   3.464   0.892   5.746
 6750SOL    HW121149   3.379   0.865   5.792
 6750SOL    HW221150   3.521   0.944   5.810
 6751SOL     OW21151   4.259   0.652   4.293
 6751SOL    HW121152   4.327   0.592   4.336
 6751SOL    HW221153   4.199   0.691   4.363
 6752SOL     OW21154   2.161   4.655   2.598
 6752SOL    HW121155   2.177   4.706   2.683
 6752SOL    HW221156   2.138   4.560   2.620
 6753SOL     OW21157   3.758   3.609   6.462
 6753SOL    HW121158   3.754   3.707   6.485
 6753SOL    HW221159   3.810   3.597   6.377
 6754SOL     OW21160   6.309   1.184   0.549
 6754SOL    HW121161   6.311   1.280   0.522
 6754SOL    HW221162   6.295   1.178   0.648
 6755SOL     OW21163   3.008   6.066   6.112
 6755SOL    HW121164   2.992   5.992   6.047
 6755SOL    HW221165   2.968   6.151   6.077
 6756SOL     OW21166   3.496   3.288   6.398
 6756SOL    HW121167   3.485   3.191   6.420
 6756SOL    HW221168   3.530   3.298   6.305
 6757SOL     OW21169   4.083   6.929   1.867
 6757SOL    HW121170   4.009   6.984   1.905
 6757SOL    HW221171   4.070   6.918   1.769
 6758SOL     OW21172   5.187   3.067   3.377
 6758SOL    HW121173   5.271   3.023   3.410
 6758SOL    HW221174   5.150   3.125   3.449
 6759SOL     OW21175   0.990   1.742   2.951
 6759SOL    HW121176   1.002   1.645   2.972
 6759SOL    HW221177   1.077   1.789   2.963
 6760SOL     OW21178   5.251   2.213   5.387
 6760SOL    HW121179   5.253   2.292   5.325
 6760SOL    HW221180   5.174   2.222   5.449
 6761SOL     OW21181   3.640   1.575   5.188
 6761SOL    HW121182   3.555   1.574   5.136
 6761SOL    HW221183   3.718   1.581   5.125
 6762SOL     OW21184   6.070   4.902   4.741
 6762SOL    HW121185   6.082   4.812   4.782
 6762SOL    HW221186   6.142   4.964   4.773
 6763SOL     OW21187   5.740   0.079   4.132
 6763SOL    HW121188   5.659   0.021   4.123
 6763SOL    HW221189   5.822   0.023   4.116
 6764SOL     OW21190   0.282   5.058   1.836
 6764SOL    HW121191   0.297   4.977   1.778
 6764SOL    HW221192   0.184   5.077   1.842
 6765SOL     OW21193   0.203   3.380   2.263
 6765SOL    HW121194   0.110   3.343   2.265
 6765SOL    HW221195   0.259   3.325   2.201
 6766SOL     OW21196   5.982   0.171   1.624
 6766SOL    HW121197   5.925   0.207   1.697
 6766SOL    HW221198   5.930   0.169   1.538
 6767SOL     OW21199   3.330   0.007   1.022
 6767SOL    HW121200   3.368   6.991   1.109
 6767SOL    HW221201   3.240   0.047   1.038
 6768SOL     OW21202   1.910   6.968   6.759
 6768SOL    HW121203   2.007   6.954   6.740
 6768SOL    HW221204   1.898   6.994   6.855
 6769SOL     OW21205   4.719   2.903   1.632
 6769SOL    HW121206   4.683   2.974   1.693
 6769SOL    HW221207   4.666   2.902   1.547
 6770SOL     OW21208   0.363   1.594   1.538
 6770SOL    HW121209   0.356   1.548   1.450
 6770SOL    HW221210   0.393   1.688   1.525
 6771SOL     OW21211   4.390   1.918   3.116
 6771SOL    HW121212   4.334   1.849   3.161
 6771SOL    HW221213   4.478   1.924   3.161
 6772SOL     OW21214   3.910   1.925   3.759
 6772SOL    HW121215   3.892   1.879   3.846
 6772SOL    HW221216   4.004   1.906   3.731
 6773SOL     OW21217   0.446   3.677   1.155
 6773SOL    HW121218   0.503   3.659   1.235
 6773SOL    HW221219   0.499   3.661   1.072
 6774SOL     OW21220   0.775   2.679   6.438
 6774SOL    HW121221   0.850   2.676   6.504
 6774SOL    HW221222   0.717   2.758   6.457
 6775SOL     OW21223   1.411   4.546   0.177
 6775SOL    HW121224   1.479   4.606   0.219
 6775SOL    HW221225   1.359   4.499   0.248
 6776SOL     OW21226   6.033   5.296   6.652
 6776SOL    HW121227   5.996   5.233   6.721
 6776SOL    HW221228   6.079   5.243   6.581
 6777SOL     OW21229   4.855   5.745   0.127
 6777SOL    HW121230   4.891   5.826   0.173
 6777SOL    HW221231   4.795   5.694   0.190
 6778SOL     OW21232   6.700   5.490   3.474
 6778SOL    HW121233   6.780   5.496   3.414
 6778SOL    HW221234   6.619   5.473   3.419
 6779SOL     OW21235   6.317   3.489   6.596
 6779SOL    HW121236   6.232   3.437   6.590
 6779SOL    HW221237   6.395   3.428   6.581
 6780SOL     OW21238   0.955   2.912   2.294
 6780SOL    HW121239   0.870   2.948   2.333
 6780SOL    HW221240   0.999   2.852   2.360
 6781SOL     OW21241   5.918   5.157   5.438
 6781SOL    HW121242   6.000   5.207   5.466
 6781SOL    HW221243   5.927   5.061   5.466
 6782SOL     OW21244   6.181   1.224   2.881
 6782SOL    HW121245   6.255   1.156   2.886
 6782SOL    HW221246   6.113   1.195   2.814
 6783SOL     OW21247   0.451   6.271   6.410
 6783SOL    HW121248   0.493   6.347   6.460
 6783SOL    HW221249   0.484   6.184   6.449
 6784SOL     OW21250   3.787   2.940   0.064
 6784SOL    HW121251   3.803   2.992   6.995
 6784SOL    HW221252   3.717   2.986   0.118
 6785SOL     OW21253   6.238   5.613   1.643
 6785SOL    HW121254   6.249   5.707   1.611
 6785SOL    HW221255   6.142   5.587   1.637
 6786SOL     OW21256   1.803   3.692   5.993
 6786SOL    HW121257   1.783   3.680   5.896
 6786SOL    HW221258   1.879   3.633   6.019
 6787SOL     OW21259   1.133   3.516   1.635
 6787SOL    HW121260   1.101   3.432   1.679
 6787SOL    HW221261   1.129   3.592   1.701
 6788SOL     OW21262   2.884   4.788   1.055
 6788SOL    HW121263   2.967   4.837   1.081
 6788SOL    HW221264   2.908   4.699   1.016
 6789SOL     OW21265   0.915   5.563   3.287
 6789SOL    HW121266   0.870   5.496   3.227
 6789SOL    HW221267   0.851   5.593   3.357
 6790SOL     OW21268   1.340   2.417   0.348
 6790SOL    HW121269   1.392   2.457   0.423
 6790SOL    HW221270   1.251   2.464   0.340
 6791SOL     OW21271   3.667   3.862   6.337
 6791SOL    HW121272   3.710   3.857   6.427
 6791SOL    HW221273   3.601   3.937   6.335
 6792SOL     OW21274   0.397   4.626   0.188
 6792SOL    HW121275   0.349   4.618   0.100
 6792SOL    HW221276   0.480   4.569   0.185
 6793SOL     OW21277   5.863   1.475   1.438
 6793SOL    HW121278   5.851   1.527   1.523
 6793SOL    HW221279   5.778   1.425   1.417
 6794SOL     OW21280   4.361   1.572   4.535
 6794SOL    HW121281   4.358   1.591   4.633
 6794SOL    HW221282   4.416   1.642   4.489
 6795SOL     OW21283   3.192   5.941   6.936
 6795SOL    HW121284   3.234   5.990   7.012
 6795SOL    HW221285   3.113   5.992   6.902
 6796SOL     OW21286   4.080   2.250   2.728
 6796SOL    HW121287   4.032   2.230   2.813
 6796SOL    HW221288   4.025   2.220   2.650
 6797SOL     OW21289   0.030   2.691   1.997
 6797SOL    HW121290   0.033   2.606   2.049
 6797SOL    HW221291   0.007   2.670   1.902
 6798SOL     OW21292   6.320   0.163   2.401
 6798SOL    HW121293   6.225   0.188   2.382
 6798SOL    HW221294   6.335   0.167   2.500
 6799SOL     OW21295   5.326   5.836   1.996
 6799SOL    HW121296   5.366   5.793   2.077
 6799SOL    HW221297   5.397   5.887   1.947
 6800SOL     OW21298   3.357   3.876   6.971
 6800SOL    HW121299   3.362   3.779   6.997
 6800SOL    HW221300   3.307   3.926   0.027
 6801SOL     OW21301   1.378   1.749   3.054
 6801SOL    HW121302   1.316   1.828   3.055
 6801SOL    HW221303   1.371   1.700   3.141
 6802SOL     OW21304   2.628   4.960   2.631
 6802SOL    HW121305   2.597   5.008   2.713
 6802SOL    HW221306   2.583   4.871   2.625
 6803SOL     OW21307   4.880   2.252   0.285
 6803SOL    HW121308   4.826   2.314   0.343
 6803SOL    HW221309   4.965   2.297   0.258
 6804SOL     OW21310   0.982   0.004   3.892
 6804SOL    HW121311   1.038   0.060   3.830
 6804SOL    HW221312   1.022   6.928   3.899
 6805SOL     OW21313   5.008   0.883   4.914
 6805SOL    HW121314   4.927   0.917   4.865
 6805SOL    HW221315   5.045   0.957   4.970
 6806SOL     OW21316   5.375   6.408   5.214
 6806SOL    HW121317   5.340   6.384   5.305
 6806SOL    HW221318   5.475   6.415   5.219
 6807SOL     OW21319   3.528   3.188   0.064
 6807SOL    HW121320   3.483   3.138   7.006
 6807SOL    HW221321   3.530   3.132   0.147
 6808SOL     OW21322   1.845   3.174   4.073
 6808SOL    HW121323   1.893   3.156   4.160
 6808SOL    HW221324   1.912   3.183   4.000
 6809SOL     OW21325   2.217   4.020   6.653
 6809SOL    HW121326   2.258   3.940   6.697
 6809SOL    HW221327   2.227   4.012   6.554
 6810SOL     OW21328   5.520   1.908   2.949
 6810SOL    HW121329   5.422   1.918   2.967
 6810SOL    HW221330   5.542   1.953   2.862
 6811SOL     OW21331   5.066   5.796   1.927
 6811SOL    HW121332   5.007   5.824   2.003
 6811SOL    HW221333   5.159   5.825   1.944
 6812SOL     OW21334   3.642   2.901   2.504
 6812SOL    HW121335   3.617   2.884   2.408
 6812SOL    HW221336   3.562   2.886   2.562
 6813SOL     OW21337   4.902   3.583   1.407
 6813SOL    HW121338   4.806   3.569   1.431
 6813SOL    HW221339   4.908   3.622   1.315
 6814SOL     OW21340   2.803   3.129   0.354
 6814SOL    HW121341   2.728   3.064   0.363
 6814SOL    HW221342   2.765   3.221   0.338
 6815SOL     OW21343   1.842   0.039   1.605
 6815SOL    HW121344   1.909   0.106   1.572
 6815SOL    HW221345   1.750   0.075   1.594
 6816SOL     OW21346   6.566   3.922   1.396
 6816SOL    HW121347   6.520   3.976   1.326
 6816SOL    HW221348   6.513   3.840   1.415
 6817SOL     OW21349   0.745   2.323   6.057
 6817SOL    HW121350   0.800   2.380   6.118
 6817SOL    HW221351   0.650   2.354   6.059
 6818SOL     OW21352   3.350   5.630   1.919
 6818SOL    HW121353   3.348   5.539   1.877
 6818SOL    HW221354   3.375   5.622   2.015
 6819SOL     OW21355   3.135   1.197   3.619
 6819SOL    HW121356   3.151   1.104   3.587
 6819SOL    HW221357   3.222   1.238   3.646
 6820SOL     OW21358   1.499   4.877   3.854
 6820SOL    HW121359   1.584   4.927   3.841
 6820SOL    HW221360   1.467   4.842   3.766
 6821SOL     OW21361   2.562   2.404   4.384
 6821SOL    HW121362   2.573   2.459   4.302
 6821SOL    HW221363   2.651   2.372   4.415
 6822SOL     OW21364   4.861   1.890   5.639
 6822SOL    HW121365   4.799   1.968   5.649
 6822SOL    HW221366   4.898   1.865   5.729
 6823SOL     OW21367   3.859   3.612   2.513
 6823SOL    HW121368   3.905   3.605   2.602
 6823SOL    HW221369   3.802   3.694   2.511
 6824SOL     OW21370   1.411   4.893   6.341
 6824SOL    HW121371   1.359   4.977   6.360
 6824SOL    HW221372   1.457   4.863   6.424
 6825SOL     OW21373   5.178   0.190   4.157
 6825SOL    HW121374   5.255   0.252   4.148
 6825SOL    HW221375   5.107   0.215   4.090
 6826SOL     OW21376   0.927   2.585   2.676
 6826SOL    HW121377   1.021   2.552   2.681
 6826SOL    HW221378   0.878   2.560   2.759
 6827SOL     OW21379   6.150   6.308   4.872
 6827SOL    HW121380   6.196   6.281   4.957
 6827SOL    HW221381   6.051   6.297   4.884
 6828SOL     OW21382   2.278   1.672   1.231
 6828SOL    HW121383   2.184   1.660   1.198
 6828SOL    HW221384   2.279   1.664   1.331
 6829SOL     OW21385   5.298   4.924   3.676
 6829SOL    HW121386   5.374   4.877   3.632
 6829SOL    HW221387   5.283   5.012   3.631
 6830SOL     OW21388   5.059   2.287   4.488
 6830SOL    HW121389   5.028   2.314   4.396
 6830SOL    HW221390   4.979   2.269   4.546
 6831SOL     OW21391   0.144   1.066   5.745
 6831SOL    HW121392   0.102   1.149   5.708
 6831SOL    HW221393   0.082   1.025   5.812
 6832SOL     OW21394   2.937   5.066   1.806
 6832SOL    HW121395   2.959   4.971   1.827
 6832SOL    HW221396   3.003   5.101   1.739
 6833SOL     OW21397   4.056   5.695   0.271
 6833SOL    HW121398   3.969   5.743   0.259
 6833SOL    HW221399   4.044   5.598   0.249
 6834SOL     OW21400   3.838   5.350   2.545
 6834SOL    HW121401   3.861   5.430   2.601
 6834SOL    HW221402   3.921   5.297   2.529
 6835SOL     OW21403   3.642   6.533   4.694
 6835SOL    HW121404   3.728   6.519   4.743
 6835SOL    HW221405   3.629   6.459   4.628
 6836SOL     OW21406   3.285   5.918   6.114
 6836SOL    HW121407   3.272   6.009   6.153
 6836SOL    HW221408   3.263   5.848   6.182
 6837SOL     OW21409   0.776   2.547   2.440
 6837SOL    HW121410   0.820   2.575   2.526
 6837SOL    HW221411   0.723   2.624   2.404
 6838SOL     OW21412   2.626   1.702   0.502
 6838SOL    HW121413   2.705   1.762   0.516
 6838SOL    HW221414   2.640   1.647   0.420
 6839SOL     OW21415   4.432   0.785   1.566
 6839SOL    HW121416   4.492   0.862   1.588
 6839SOL    HW221417   4.454   0.751   1.475
 6840SOL     OW21418   0.855   1.166   6.309
 6840SOL    HW121419   0.781   1.232   6.300
 6840SOL    HW221420   0.820   1.081   6.349
 6841SOL     OW21421   0.228   3.383   6.163
 6841SOL    HW121422   0.293   3.374   6.088
 6841SOL    HW221423   0.137   3.399   6.125
 6842SOL     OW21424   2.497   4.505   3.146
 6842SOL    HW121425   2.572   4.446   3.117
 6842SOL    HW221426   2.429   4.511   3.073
 6843SOL     OW21427   4.097   6.932   0.644
 6843SOL    HW121428   4.092   6.934   0.544
 6843SOL    HW221429   4.024   6.874   0.680
 6844SOL     OW21430   5.270   0.559   6.081
 6844SOL    HW121431   5.174   0.586   6.075
 6844SOL    HW221432   5.325   0.618   6.022
 6845SOL     OW21433   4.870   2.441   2.769
 6845SOL    HW121434   4.797   2.491   2.722
 6845SOL    HW221435   4.845   2.345   2.777
 6846SOL     OW21436   2.573   3.807   0.198
 6846SOL    HW121437   2.481   3.798   0.159
 6846SOL    HW221438   2.568   3.858   0.284
 6847SOL     OW21439   6.884   3.011   4.380
 6847SOL    HW121440   6.954   3.064   4.331
 6847SOL    HW221441   6.919   2.982   4.469
 6848SOL     OW21442   6.809   4.907   3.079
 6848SOL    HW121443   6.895   4.868   3.113
 6848SOL    HW221444   6.821   4.938   2.985
 6849SOL     OW21445   3.030   3.912   6.176
 6849SOL    HW121446   3.035   3.821   6.217
 6849SOL    HW221447   3.009   3.904   6.078
 6850SOL     OW21448   4.709   0.413   3.896
 6850SOL    HW121449   4.627   0.442   3.945
 6850SOL    HW221450   4.772   0.490   3.890
 6851SOL     OW21451   2.166   3.270   3.542
 6851SOL    HW121452   2.144   3.348   3.600
 6851SOL    HW221453   2.087   3.208   3.536
 6852SOL     OW21454   4.229   4.699   0.329
 6852SOL    HW121455   4.142   4.732   0.365
 6852SOL    HW221456   4.300   4.767   0.346
 6853SOL     OW21457   4.105   4.657   6.534
 6853SOL    HW121458   4.105   4.594   6.456
 6853SOL    HW221459   4.058   4.613   6.611
 6854SOL     OW21460   5.027   5.838   6.513
 6854SOL    HW121461   5.034   5.772   6.438
 6854SOL    HW221462   5.076   5.802   6.594
 6855SOL     OW21463   4.306   4.886   3.185
 6855SOL    HW121464   4.254   4.960   3.228
 6855SOL    HW221465   4.404   4.902   3.199
 6856SOL     OW21466   0.226   2.145   6.657
 6856SOL    HW121467   0.154   2.154   6.725
 6856SOL    HW221468   0.238   2.048   6.634
 6857SOL     OW21469   1.064   4.032   5.689
 6857SOL    HW121470   1.088   4.076   5.603
 6857SOL    HW221471   0.980   3.978   5.677
 6858SOL     OW21472   1.926   3.992   1.999
 6858SOL    HW121473   2.023   3.996   1.976
 6858SOL    HW221474   1.912   3.928   2.074
 6859SOL     OW21475   1.824   1.663   1.861
 6859SOL    HW121476   1.913   1.704   1.881
 6859SOL    HW221477   1.802   1.676   1.765
 6860SOL     OW21478   0.549   6.515   1.026
 6860SOL    HW121479   0.490   6.457   1.083
 6860SOL    HW221480   0.546   6.482   0.932
 6861SOL     OW21481   6.173   3.201   6.173
 6861SOL    HW121482   6.160   3.262   6.095
 6861SOL    HW221483   6.084   3.168   6.204
 6862SOL     OW21484   0.680   4.313   4.262
 6862SOL    HW121485   0.765   4.358   4.234
 6862SOL    HW221486   0.636   4.271   4.183
 6863SOL     OW21487   5.311   1.473   5.401
 6863SOL    HW121488   5.365   1.541   5.352
 6863SOL    HW221489   5.214   1.498   5.395
 6864SOL     OW21490   1.643   3.667   6.225
 6864SOL    HW121491   1.712   3.689   6.156
 6864SOL    HW221492   1.674   3.588   6.278
 6865SOL     OW21493   2.533   0.593   3.895
 6865SOL    HW121494   2.474   0.655   3.946
 6865SOL    HW221495   2.565   0.639   3.812
 6866SOL     OW21496   1.186   4.787   0.139
 6866SOL    HW121497   1.196   4.722   0.064
 6866SOL    HW221498   1.103   4.841   0.124
 6867SOL     OW21499   2.062   3.759   6.538
 6867SOL    HW121500   2.012   3.843   6.559
 6867SOL    HW221501   2.133   3.744   6.607
 6868SOL     OW21502   3.046   5.201   3.569
 6868SOL    HW121503   3.115   5.268   3.594
 6868SOL    HW221504   2.964   5.215   3.625
 6869SOL     OW21505   2.637   0.834   5.908
 6869SOL    HW121506   2.605   0.928   5.922
 6869SOL    HW221507   2.593   0.773   5.975
 6870SOL     OW21508   5.699   2.027   0.326
 6870SOL    HW121509   5.692   1.942   0.379
 6870SOL    HW221510   5.789   2.069   0.342
 6871SOL     OW21511   6.827   3.429   2.526
 6871SOL    HW121512   6.879   3.387   2.600
 6871SOL    HW221513   6.756   3.488   2.565
 6872SOL     OW21514   1.880   4.188   1.020
 6872SOL    HW121515   1.954   4.215   0.958
 6872SOL    HW221516   1.866   4.261   1.087
 6873SOL     OW21517   0.654   4.480   2.847
 6873SOL    HW121518   0.687   4.433   2.928
 6873SOL    HW221519   0.591   4.421   2.797
 6874SOL     OW21520   4.815   6.143   2.816
 6874SOL    HW121521   4.773   6.053   2.820
 6874SOL    HW221522   4.758   6.209   2.865
 6875SOL     OW21523   2.573   0.927   0.628
 6875SOL    HW121524   2.573   0.883   0.538
 6875SOL    HW221525   2.665   0.963   0.647
 6876SOL     OW21526   5.388   5.500   3.645
 6876SOL    HW121527   5.468   5.556   3.625
 6876SOL    HW221528   5.321   5.510   3.571
 6877SOL     OW21529   0.708   3.480   1.691
 6877SOL    HW121530   0.628   3.421   1.699
 6877SOL    HW221531   0.751   3.467   1.602
 6878SOL     OW21532   1.907   0.828   4.475
 6878SOL    HW121533   1.888   0.922   4.447
 6878SOL    HW221534   1.832   0.794   4.532
 6879SOL     OW21535   1.368   1.303   1.205
 6879SOL    HW121536   1.425   1.250   1.142
 6879SOL    HW221537   1.374   1.400   1.182
 6880SOL     OW21538   1.520   5.715   0.295
 6880SOL    HW121539   1.463   5.780   0.344
 6880SOL    HW221540   1.590   5.764   0.242
 6881SOL     OW21541   0.120   3.257   0.313
 6881SOL    HW121542   0.083   3.315   0.240
 6881SOL    HW221543   0.060   3.259   0.392
 6882SOL     OW21544   2.676   6.462   0.190
 6882SOL    HW121545   2.689   6.446   0.092
 6882SOL    HW221546   2.583   6.438   0.216
 6883SOL     OW21547   5.051   0.395   1.494
 6883SOL    HW121548   5.134   0.366   1.542
 6883SOL    HW221549   4.975   0.401   1.558
 6884SOL     OW21550   1.946   4.188   3.540
 6884SOL    HW121551   1.903   4.276   3.562
 6884SOL    HW221552   1.999   4.198   3.456
 6885SOL     OW21553   5.959   4.297   5.050
 6885SOL    HW121554   5.882   4.322   5.109
 6885SOL    HW221555   5.929   4.295   4.955
 6886SOL     OW21556   5.326   2.739   0.376
 6886SOL    HW121557   5.305   2.821   0.428
 6886SOL    HW221558   5.265   2.733   0.297
 6887SOL     OW21559   5.558   6.042   5.924
 6887SOL    HW121560   5.610   6.022   6.007
 6887SOL    HW221561   5.510   5.959   5.895
 6888SOL     OW21562   6.135   3.880   0.147
 6888SOL    HW121563   6.159   3.797   0.097
 6888SOL    HW221564   6.188   3.957   0.111
 6889SOL     OW21565   0.273   1.953   5.509
 6889SOL    HW121566   0.221   1.869   5.522
 6889SOL    HW221567   0.345   1.959   5.578
 6890SOL     OW21568   4.540   4.443   3.851
 6890SOL    HW121569   4.543   4.391   3.936
 6890SOL    HW221570   4.606   4.405   3.786
 6891SOL     OW21571   1.623   1.619   1.351
 6891SOL    HW121572   1.583   1.700   1.395
 6891SOL    HW221573   1.642   1.639   1.255
 6892SOL     OW21574   3.088   1.052   4.892
 6892SOL    HW121575   3.143   0.969   4.904
 6892SOL    HW221576   3.103   1.113   4.970
 6893SOL     OW21577   5.958   3.117   0.578
 6893SOL    HW121578   5.942   3.102   0.480
 6893SOL    HW221579   5.873   3.147   0.621
 6894SOL     OW21580   5.864   4.961   0.183
 6894SOL    HW121581   5.912   4.953   0.270
 6894SOL    HW221582   5.914   4.911   0.113
 6895SOL     OW21583   1.088   6.204   2.754
 6895SOL    HW121584   1.045   6.285   2.794
 6895SOL    HW221585   1.155   6.167   2.818
 6896SOL     OW21586   4.606   1.196   5.438
 6896SOL    HW121587   4.649   1.126   5.382
 6896SOL    HW221588   4.669   1.273   5.449
 6897SOL     OW21589   4.401   2.694   5.234
 6897SOL    HW121590   4.338   2.617   5.222
 6897SOL    HW221591   4.469   2.693   5.161
 6898SOL     OW21592   1.739   6.863   1.133
 6898SOL    HW121593   1.697   6.837   1.046
 6898SOL    HW221594   1.700   6.806   1.207
 6899SOL     OW21595   5.895   6.091   2.351
 6899SOL    HW121596   5.972   6.131   2.401
 6899SOL    HW221597   5.869   6.152   2.276
 6900SOL     OW21598   6.514   3.602   5.054
 6900SOL    HW121599   6.525   3.697   5.081
 6900SOL    HW221600   6.448   3.557   5.114
 6901SOL     OW21601   5.590   5.181   6.046
 6901SOL    HW121602   5.648   5.118   5.995
 6901SOL    HW221603   5.509   5.133   6.080
 6902SOL     OW21604   0.328   5.637   5.855
 6902SOL    HW121605   0.259   5.646   5.784
 6902SOL    HW221606   0.329   5.719   5.913
 6903SOL     OW21607   1.500   6.099   4.707
 6903SOL    HW121608   1.438   6.043   4.652
 6903SOL    HW221609   1.480   6.085   4.804
 6904SOL     OW21610   0.094   0.090   5.752
 6904SOL    HW121611   0.004   0.099   5.796
 6904SOL    HW221612   0.100   0.001   5.707
 6905SOL     OW21613   5.153   5.987   6.008
 6905SOL    HW121614   5.117   6.021   5.921
 6905SOL    HW221615   5.102   5.906   6.036
 6906SOL     OW21616   2.851   0.901   3.485
 6906SOL    HW121617   2.838   0.869   3.579
 6906SOL    HW221618   2.802   0.988   3.473
 6907SOL     OW21619   6.364   1.812   0.722
 6907SOL    HW121620   6.325   1.733   0.769
 6907SOL    HW221621   6.427   1.782   0.651
 6908SOL     OW21622   3.311   5.231   0.702
 6908SOL    HW121623   3.396   5.284   0.703
 6908SOL    HW221624   3.239   5.282   0.747
 6909SOL     OW21625   5.175   5.121   2.594
 6909SOL    HW121626   5.193   5.206   2.544
 6909SOL    HW221627   5.207   5.043   2.541
 6910SOL     OW21628   0.762   2.212   2.787
 6910SOL    HW121629   0.743   2.280   2.716
 6910SOL    HW221630   0.712   2.236   2.871
 6911SOL     OW21631   2.326   6.123   5.566
 6911SOL    HW121632   2.292   6.074   5.485
 6911SOL    HW221633   2.357   6.214   5.538
 6912SOL     OW21634   2.702   4.098   0.047
 6912SOL    HW121635   2.706   4.074   6.966
 6912SOL    HW221636   2.785   4.067   0.093
 6913SOL     OW21637   4.175   5.724   5.774
 6913SOL    HW121638   4.114   5.674   5.713
 6913SOL    HW221639   4.146   5.820   5.778
 6914SOL     OW21640   5.744   2.284   1.999
 6914SOL    HW121641   5.645   2.285   2.012
 6914SOL    HW221642   5.784   2.209   2.053
 6915SOL     OW21643   0.070   3.128   3.461
 6915SOL    HW121644   0.158   3.172   3.443
 6915SOL    HW221645   0.069   3.038   3.418
 6916SOL     OW21646   4.697   6.361   6.135
 6916SOL    HW121647   4.777   6.353   6.076
 6916SOL    HW221648   4.615   6.369   6.078
 6917SOL     OW21649   3.567   6.641   2.194
 6917SOL    HW121650   3.655   6.599   2.215
 6917SOL    HW221651   3.530   6.684   2.277
 6918SOL     OW21652   2.318   3.655   0.385
 6918SOL    HW121653   2.297   3.699   0.298
 6918SOL    HW221654   2.254   3.580   0.402
 6919SOL     OW21655   6.232   6.312   3.300
 6919SOL    HW121656   6.264   6.248   3.370
 6919SOL    HW221657   6.278   6.400   3.312
 6920SOL     OW21658   6.262   1.507   5.843
 6920SOL    HW121659   6.191   1.545   5.784
 6920SOL    HW221660   6.338   1.571   5.851
 6921SOL     OW21661   4.476   0.540   4.440
 6921SOL    HW121662   4.562   0.591   4.443
 6921SOL    HW221663   4.496   0.442   4.439
 6922SOL     OW21664   2.511   5.057   6.962
 6922SOL    HW121665   2.556   5.103   6.886
 6922SOL    HW221666   2.440   5.116   7.000
 6923SOL     OW21667   5.286   0.196   2.618
 6923SOL    HW121668   5.321   0.103   2.626
 6923SOL    HW221669   5.362   0.261   2.626
 6924SOL     OW21670   3.164   5.841   2.034
 6924SOL    HW121671   3.191   5.752   2.071
 6924SOL    HW221672   3.167   5.838   1.934
 6925SOL     OW21673   5.996   6.504   4.660
 6925SOL    HW121674   5.994   6.598   4.628
 6925SOL    HW221675   5.998   6.503   4.760
 6926SOL     OW21676   3.127   1.985   0.300
 6926SOL    HW121677   3.126   2.041   0.382
 6926SOL    HW221678   3.201   2.015   0.239
 6927SOL     OW21679   4.011   0.360   0.505
 6927SOL    HW121680   3.933   0.340   0.564
 6927SOL    HW221681   4.078   0.287   0.513
 6928SOL     OW21682   3.362   5.339   0.086
 6928SOL    HW121683   3.449   5.333   0.036
 6928SOL    HW221684   3.380   5.341   0.185
 6929SOL     OW21685   4.974   4.808   2.406
 6929SOL    HW121686   5.056   4.843   2.362
 6929SOL    HW221687   4.910   4.883   2.422
 6930SOL     OW21688   0.756   6.746   1.981
 6930SOL    HW121689   0.847   6.757   1.941
 6930SOL    HW221690   0.765   6.712   2.075
 6931SOL     OW21691   3.108   3.563   1.016
 6931SOL    HW121692   3.061   3.623   1.081
 6931SOL    HW221693   3.105   3.469   1.051
 6932SOL     OW21694   3.763   0.164   6.061
 6932SOL    HW121695   3.735   0.202   5.973
 6932SOL    HW221696   3.715   0.211   6.135
 6933SOL     OW21697   2.912   5.467   6.161
 6933SOL    HW121698   2.895   5.516   6.075
 6933SOL    HW221699   2.985   5.512   6.211
 6934SOL     OW21700   5.008   5.530   0.056
 6934SOL    HW121701   4.981   5.615   0.101
 6934SOL    HW221702   4.980   5.532   6.976
 6935SOL     OW21703   4.133   6.146   1.824
 6935SOL    HW121704   4.038   6.129   1.852
 6935SOL    HW221705   4.136   6.223   1.761
 6936SOL     OW21706   1.007   1.693   5.785
 6936SOL    HW121707   1.015   1.715   5.688
 6936SOL    HW221708   1.076   1.743   5.836
 6937SOL     OW21709   5.881   5.437   0.393
 6937SOL    HW121710   5.893   5.536   0.390
 6937SOL    HW221711   5.963   5.395   0.434
 6938SOL     OW21712   2.862   1.340   4.901
 6938SOL    HW121713   2.793   1.395   4.854
 6938SOL    HW221714   2.920   1.295   4.834
 6939SOL     OW21715   5.670   3.626   4.084
 6939SOL    HW121716   5.744   3.563   4.104
 6939SOL    HW221717   5.678   3.707   4.143
 6940SOL     OW21718   2.812   6.340   1.012
 6940SOL    HW121719   2.846   6.301   0.927
 6940SOL    HW221720   2.724   6.298   1.034
 6941SOL     OW21721   3.732   3.326   2.469
 6941SOL    HW121722   3.656   3.275   2.510
 6941SOL    HW221723   3.734   3.419   2.506
 6942SOL     OW21724   6.531   5.261   2.914
 6942SOL    HW121725   6.592   5.308   2.849
 6942SOL    HW221726   6.438   5.259   2.878
 6943SOL     OW21727   4.826   5.265   6.435
 6943SOL    HW121728   4.807   5.261   6.533
 6943SOL    HW221729   4.840   5.172   6.400
 6944SOL     OW21730   1.339   4.648   5.256
 6944SOL    HW121731   1.267   4.718   5.259
 6944SOL    HW221732   1.426   4.691   5.234
 6945SOL     OW21733   5.378   1.695   0.971
 6945SOL    HW121734   5.297   1.704   0.913
 6945SOL    HW221735   5.436   1.775   0.960
 6946SOL     OW21736   5.307   6.027   2.749
 6946SOL    HW121737   5.373   6.062   2.816
 6946SOL    HW221738   5.215   6.032   2.787
 6947SOL     OW21739   6.522   4.258   5.204
 6947SOL    HW121740   6.566   4.172   5.231
 6947SOL    HW221741   6.555   4.284   5.113
 6948SOL     OW21742   0.243   4.249   6.475
 6948SOL    HW121743   0.193   4.259   6.561
 6948SOL    HW221744   0.201   4.177   6.420
 6949SOL     OW21745   2.627   1.369   2.701
 6949SOL    HW121746   2.546   1.393   2.648
 6949SOL    HW221747   2.653   1.275   2.681
 6950SOL     OW21748   1.153   0.806   4.083
 6950SOL    HW121749   1.149   0.729   4.147
 6950SOL    HW221750   1.231   0.864   4.107
 6951SOL     OW21751   1.179   3.801   6.673
 6951SOL    HW121752   1.120   3.721   6.685
 6951SOL    HW221753   1.181   3.854   6.757
 6952SOL     OW21754   4.986   5.753   3.948
 6952SOL    HW121755   5.021   5.660   3.951
 6952SOL    HW221756   5.059   5.817   3.974
 6953SOL     OW21757   6.398   1.306   1.537
 6953SOL    HW121758   6.381   1.210   1.560
 6953SOL    HW221759   6.474   1.340   1.593
 6954SOL     OW21760   6.922   4.456   6.214
 6954SOL    HW121761   0.001   4.449   6.246
 6954SOL    HW221762   6.859   4.441   6.290
 6955SOL     OW21763   4.758   5.863   2.813
 6955SOL    HW121764   4.798   5.847   2.903
 6955SOL    HW221765   4.689   5.793   2.794
 6956SOL     OW21766   5.450   5.174   2.279
 6956SOL    HW121767   5.514   5.139   2.210
 6956SOL    HW221768   5.472   5.269   2.300
 6957SOL     OW21769   6.371   5.364   5.279
 6957SOL    HW121770   6.369   5.264   5.275
 6957SOL    HW221771   6.309   5.401   5.210
 6958SOL     OW21772   3.481   3.179   2.545
 6958SOL    HW121773   3.433   3.153   2.461
 6958SOL    HW221774   3.508   3.097   2.595
 6959SOL     OW21775   1.838   3.823   2.780
 6959SOL    HW121776   1.890   3.854   2.701
 6959SOL    HW221777   1.886   3.849   2.864
 6960SOL     OW21778   4.685   4.879   0.436
 6960SOL    HW121779   4.704   4.781   0.437
 6960SOL    HW221780   4.719   4.918   0.350
 6961SOL     OW21781   4.462   2.735   5.531
 6961SOL    HW121782   4.561   2.744   5.521
 6961SOL    HW221783   4.419   2.736   5.441
 6962SOL     OW21784   2.517   5.996   0.032
 6962SOL    HW121785   2.616   6.006   0.041
 6962SOL    HW221786   2.487   6.036   6.961
 6963SOL     OW21787   6.833   6.264   6.757
 6963SOL    HW121788   6.867   6.354   6.728
 6963SOL    HW221789   6.911   6.205   6.780
 6964SOL     OW21790   1.996   1.641   5.065
 6964SOL    HW121791   2.048   1.570   5.016
 6964SOL    HW221792   1.899   1.620   5.061
 6965SOL     OW21793   1.805   1.563   0.004
 6965SOL    HW121794   1.710   1.589   7.002
 6965SOL    HW221795   1.831   1.594   0.096
 6966SOL     OW21796   0.966   6.539   1.420
 6966SOL    HW121797   1.024   6.618   1.399
 6966SOL    HW221798   1.000   6.459   1.369
 6967SOL     OW21799   4.102   0.953   6.732
 6967SOL    HW121800   4.065   1.019   6.798
 6967SOL    HW221801   4.046   0.953   6.650
 6968SOL     OW21802   3.656   0.365   2.758
 6968SOL    HW121803   3.587   0.378   2.830
 6968SOL    HW221804   3.681   0.454   2.719
 6969SOL     OW21805   1.909   2.678   1.667
 6969SOL    HW121806   1.981   2.747   1.675
 6969SOL    HW221807   1.854   2.677   1.750
 6970SOL     OW21808   3.496   5.465   5.594
 6970SOL    HW121809   3.594   5.450   5.584
 6970SOL    HW221810   3.480   5.559   5.626
 6971SOL     OW21811   6.162   4.208   6.929
 6971SOL    HW121812   6.081   4.150   6.920
 6971SOL    HW221813   6.188   4.243   6.839
 6972SOL     OW21814   5.813   3.853   1.667
 6972SOL    HW121815   5.767   3.781   1.615
 6972SOL    HW221816   5.767   3.865   1.755
 6973SOL     OW21817   1.412   1.501   2.647
 6973SOL    HW121818   1.417   1.433   2.574
 6973SOL    HW221819   1.329   1.486   2.701
 6974SOL     OW21820   3.879   3.377   3.251
 6974SOL    HW121821   3.803   3.399   3.311
 6974SOL    HW221822   3.862   3.288   3.207
 6975SOL     OW21823   2.943   5.922   4.437
 6975SOL    HW121824   3.025   5.924   4.495
 6975SOL    HW221825   2.951   5.849   4.370
 6976SOL     OW21826   4.313   4.869   5.779
 6976SOL    HW121827   4.353   4.948   5.734
 6976SOL    HW221828   4.376   4.792   5.775
 6977SOL     OW21829   5.084   4.835   2.065
 6977SOL    HW121830   4.984   4.845   2.059
 6977SOL    HW221831   5.117   4.883   2.146
 6978SOL     OW21832   0.568   3.369   0.519
 6978SOL    HW121833   0.651   3.313   0.519
 6978SOL    HW221834   0.488   3.309   0.514
 6979SOL     OW21835   1.204   3.576   2.700
 6979SOL    HW121836   1.270   3.593   2.773
 6979SOL    HW221837   1.112   3.597   2.733
 6980SOL     OW21838   2.611   5.034   3.372
 6980SOL    HW121839   2.640   5.093   3.446
 6980SOL    HW221840   2.634   4.939   3.393
 6981SOL     OW21841   4.617   3.161   6.838
 6981SOL    HW121842   4.712   3.129   6.835
 6981SOL    HW221843   4.558   3.086   6.867
 6982SOL     OW21844   0.689   0.998   1.716
 6982SOL    HW121845   0.684   1.070   1.647
 6982SOL    HW221846   0.682   0.908   1.672
 6983SOL     OW21847   6.288   0.123   4.528
 6983SOL    HW121848   6.280   0.040   4.474
 6983SOL    HW221849   6.303   0.099   4.624
 6984SOL     OW21850   1.257   3.059   3.222
 6984SOL    HW121851   1.189   3.003   3.269
 6984SOL    HW221852   1.218   3.098   3.139
 6985SOL     OW21853   5.221   2.766   0.098
 6985SOL    HW121854   5.139   2.713   0.077
 6985SOL    HW221855   5.267   2.791   0.013
 6986SOL     OW21856   4.759   4.883   5.485
 6986SOL    HW121857   4.771   4.913   5.579
 6986SOL    HW221858   4.797   4.953   5.423
 6987SOL     OW21859   6.985   1.013   6.652
 6987SOL    HW121860   0.017   0.964   6.725
 6987SOL    HW221861   6.913   1.070   6.692
 6988SOL     OW21862   2.285   1.262   6.696
 6988SOL    HW121863   2.334   1.183   6.734
 6988SOL    HW221864   2.303   1.269   6.598
 6989SOL     OW21865   0.886   3.694   2.293
 6989SOL    HW121866   0.892   3.620   2.226
 6989SOL    HW221867   0.791   3.724   2.302
 6990SOL     OW21868   4.050   3.846   6.801
 6990SOL    HW121869   3.986   3.905   6.751
 6990SOL    HW221870   4.113   3.804   6.736
 6991SOL     OW21871   5.682   3.584   2.758
 6991SOL    HW121872   5.652   3.611   2.666
 6991SOL    HW221873   5.607   3.540   2.806
 6992SOL     OW21874   1.234   5.253   0.085
 6992SOL    HW121875   1.187   5.263   7.013
 6992SOL    HW221876   1.308   5.320   0.092
 6993SOL     OW21877   3.478   2.219   1.697
 6993SOL    HW121878   3.538   2.274   1.755
 6993SOL    HW221879   3.416   2.279   1.647
 6994SOL     OW21880   2.668   1.287   3.217
 6994SOL    HW121881   2.610   1.357   3.175
 6994SOL    HW221882   2.764   1.310   3.203
 6995SOL     OW21883   0.188   4.061   0.606
 6995SOL    HW121884   0.205   4.065   0.704
 6995SOL    HW221885   0.262   4.013   0.561
 6996SOL     OW21886   1.295   0.870   6.111
 6996SOL    HW121887   1.210   0.856   6.059
 6996SOL    HW221888   1.315   0.788   6.165
 6997SOL     OW21889   6.500   6.329   6.075
 6997SOL    HW121890   6.511   6.401   6.006
 6997SOL    HW221891   6.489   6.371   6.165
 6998SOL     OW21892   0.326   0.323   0.221
 6998SOL    HW121893   0.318   0.224   0.205
 6998SOL    HW221894   0.360   0.339   0.314
 6999SOL     OW21895   6.955   2.678   7.012
 6999SOL    HW121896   6.871   2.628   0.019
 6999SOL    HW221897   7.004   2.701   0.080
 7000SOL     OW21898   0.486   5.521   3.425
 7000SOL    HW121899   0.556   5.524   3.497
 7000SOL    HW221900   0.530   5.509   3.336
 7001SOL     OW21901   6.772   1.594   4.716
 7001SOL    HW121902   6.706   1.556   4.653
 7001SOL    HW221903   6.862   1.600   4.672
 7002SOL     OW21904   1.060   5.079   2.466
 7002SOL    HW121905   1.086   5.011   2.397
 7002SOL    HW221906   1.138   5.138   2.487
 7003SOL     OW21907   0.643   4.764   6.884
 7003SOL    HW121908   0.626   4.684   6.827
 7003SOL    HW221909   0.711   4.742   6.954
 7004SOL     OW21910   1.638   0.070   6.662
 7004SOL    HW121911   1.732   0.037   6.661
 7004SOL    HW221912   1.607   0.086   6.568
 7005SOL     OW21913   1.280   5.606   0.401
 7005SOL    HW121914   1.262   5.680   0.466
 7005SOL    HW221915   1.215   5.531   0.417
 7006SOL     OW21916   0.608   0.127   3.862
 7006SOL    HW121917   0.608   0.042   3.915
 7006SOL    HW221918   0.670   0.193   3.903
 7007SOL     OW21919   2.188   0.322   6.018
 7007SOL    HW121920   2.215   0.230   6.046
 7007SOL    HW221921   2.254   0.388   6.053
 7008SOL     OW21922   5.245   3.135   3.776
 7008SOL    HW121923   5.188   3.147   3.695
 7008SOL    HW221924   5.310   3.211   3.783
 7009SOL     OW21925   5.025   5.541   2.487
 7009SOL    HW121926   4.970   5.539   2.570
 7009SOL    HW221927   5.105   5.600   2.501
 7010SOL     OW21928   4.863   3.137   2.626
 7010SOL    HW121929   4.892   3.053   2.673
 7010SOL    HW221930   4.865   3.213   2.690
 7011SOL     OW21931   2.403   6.516   6.207
 7011SOL    HW121932   2.310   6.480   6.217
 7011SOL    HW221933   2.400   6.616   6.212
 7012SOL     OW21934   6.962   3.200   0.521
 7012SOL    HW121935   6.995   3.127   0.580
 7012SOL    HW221936   6.876   3.174   0.479
 7013SOL     OW21937   3.525   2.535   0.363
 7013SOL    HW121938   3.600   2.577   0.413
 7013SOL    HW221939   3.478   2.604   0.308
 7014SOL     OW21940   5.736   3.209   0.756
 7014SOL    HW121941   5.750   3.274   0.830
 7014SOL    HW221942   5.709   3.120   0.794
 7015SOL     OW21943   5.972   6.048   1.337
 7015SOL    HW121944   6.035   6.073   1.410
 7015SOL    HW221945   6.024   6.010   1.261
 7016SOL     OW21946   3.152   4.847   1.029
 7016SOL    HW121947   3.188   4.935   1.000
 7016SOL    HW221948   3.215   4.805   1.095
 7017SOL     OW21949   6.268   4.792   5.858
 7017SOL    HW121950   6.353   4.804   5.910
 7017SOL    HW221951   6.279   4.834   5.768
 7018SOL     OW21952   4.970   3.462   5.222
 7018SOL    HW121953   4.920   3.440   5.306
 7018SOL    HW221954   4.904   3.488   5.150
 7019SOL     OW21955   4.090   5.647   2.289
 7019SOL    HW121956   3.998   5.652   2.328
 7019SOL    HW221957   4.109   5.731   2.237
 7020SOL     OW21958   0.985   2.055   6.147
 7020SOL    HW121959   0.966   1.973   6.200
 7020SOL    HW221960   0.906   2.076   6.089
 7021SOL     OW21961   0.833   1.852   4.826
 7021SOL    HW121962   0.921   1.829   4.786
 7021SOL    HW221963   0.781   1.907   4.760
 7022SOL     OW21964   2.270   3.532   0.926
 7022SOL    HW121965   2.218   3.617   0.940
 7022SOL    HW221966   2.319   3.538   0.839
 7023SOL     OW21967   0.460   1.460   0.848
 7023SOL    HW121968   0.496   1.466   0.940
 7023SOL    HW221969   0.535   1.453   0.782
 7024SOL     OW21970   3.124   4.038   4.969
 7024SOL    HW121971   3.123   4.100   4.891
 7024SOL    HW221972   3.193   3.967   4.955
 7025SOL     OW21973   2.871   0.673   1.318
 7025SOL    HW121974   2.847   0.734   1.242
 7025SOL    HW221975   2.917   0.591   1.282
 7026SOL     OW21976   3.181   2.209   0.788
 7026SOL    HW121977   3.252   2.154   0.833
 7026SOL    HW221978   3.223   2.288   0.745
 7027SOL     OW21979   3.079   4.792   1.924
 7027SOL    HW121980   3.074   4.754   1.832
 7027SOL    HW221981   2.989   4.788   1.967
 7028SOL     OW21982   3.441   0.506   3.439
 7028SOL    HW121983   3.512   0.474   3.375
 7028SOL    HW221984   3.478   0.506   3.532
 7029SOL     OW21985   3.494   3.711   3.733
 7029SOL    HW121986   3.409   3.752   3.699
 7029SOL    HW221987   3.489   3.611   3.724
 7030SOL     OW21988   6.278   0.057   4.799
 7030SOL    HW121989   6.293   0.145   4.844
 7030SOL    HW221990   6.313   6.999   4.857
 7031SOL     OW21991   4.859   6.000   0.553
 7031SOL    HW121992   4.812   5.937   0.615
 7031SOL    HW221993   4.801   6.020   0.475
 7032SOL     OW21994   4.543   5.185   4.594
 7032SOL    HW121995   4.611   5.229   4.652
 7032SOL    HW221996   4.542   5.228   4.504
 7033SOL     OW21997   1.736   1.492   5.797
 7033SOL    HW121998   1.691   1.556   5.859
 7033SOL    HW221999   1.713   1.516   5.703
 7034SOL     OW22000   6.108   1.130   2.096
 7034SOL    HW122001   6.201   1.132   2.132
 7034SOL    HW222002   6.067   1.221   2.102
 7035SOL     OW22003   2.835   1.466   1.682
 7035SOL    HW122004   2.738   1.477   1.706
 7035SOL    HW222005   2.884   1.551   1.702
 7036SOL     OW22006   6.299   1.246   1.869
 7036SOL    HW122007   6.352   1.182   1.814
 7036SOL    HW222008   6.227   1.197   1.918
 7037SOL     OW22009   1.695   0.622   6.255
 7037SOL    HW122010   1.657   0.611   6.164
 7037SOL    HW222011   1.664   0.547   6.314
 7038SOL     OW22012   0.783   4.296   0.410
 7038SOL    HW122013   0.705   4.359   0.400
 7038SOL    HW222014   0.847   4.334   0.477
 7039SOL     OW22015   6.922   6.980   1.714
 7039SOL    HW122016   7.004   6.923   1.708
 7039SOL    HW222017   6.945   0.057   1.683
 7040SOL     OW22018   6.015   2.119   4.613
 7040SOL    HW122019   6.105   2.162   4.617
 7040SOL    HW222020   5.952   2.170   4.672
 7041SOL     OW22021   1.005   0.207   4.103
 7041SOL    HW122022   1.081   0.162   4.151
 7041SOL    HW222023   0.953   0.140   4.051
 7042SOL     OW22024   5.679   6.343   5.536
 7042SOL    HW122025   5.644   6.309   5.623
 7042SOL    HW222026   5.751   6.410   5.553
 7043SOL     OW22027   1.483   5.837   1.112
 7043SOL    HW122028   1.555   5.847   1.180
 7043SOL    HW222029   1.482   5.917   1.051
 7044SOL     OW22030   4.617   5.935   4.895
 7044SOL    HW122031   4.518   5.941   4.887
 7044SOL    HW222032   4.646   5.975   4.982
 7045SOL     OW22033   6.102   5.876   1.848
 7045SOL    HW122034   6.162   5.883   1.768
 7045SOL    HW222035   6.008   5.891   1.819
 7046SOL     OW22036   2.149   1.698   3.515
 7046SOL    HW122037   2.133   1.770   3.581
 7046SOL    HW222038   2.130   1.732   3.423
 7047SOL     OW22039   0.908   6.659   0.748
 7047SOL    HW122040   0.915   6.750   0.707
 7047SOL    HW222041   0.812   6.634   0.757
 7048SOL     OW22042   0.601   6.034   3.539
 7048SOL    HW122043   0.527   6.071   3.596
 7048SOL    HW222044   0.625   6.100   3.468
 7049SOL     OW22045   3.618   1.631   4.177
 7049SOL    HW122046   3.579   1.720   4.202
 7049SOL    HW222047   3.688   1.606   4.243
 7050SOL     OW22048   4.111   4.185   0.535
 7050SOL    HW122049   4.031   4.135   0.503
 7050SOL    HW222050   4.191   4.158   0.481
 7051SOL     OW22051   1.202   2.124   1.817
 7051SOL    HW122052   1.108   2.132   1.784
 7051SOL    HW222053   1.214   2.037   1.864
 7052SOL     OW22054   4.445   2.138   2.699
 7052SOL    HW122055   4.358   2.131   2.748
 7052SOL    HW222056   4.514   2.085   2.746
 7053SOL     OW22057   1.153   4.298   3.245
 7053SOL    HW122058   1.193   4.326   3.158
 7053SOL    HW222059   1.059   4.333   3.252
 7054SOL     OW22060   4.713   6.924   6.857
 7054SOL    HW122061   4.659   7.001   6.893
 7054SOL    HW222062   4.805   6.926   6.898
 7055SOL     OW22063   2.467   0.235   0.626
 7055SOL    HW122064   2.418   0.148   0.627
 7055SOL    HW222065   2.447   0.283   0.540
 7056SOL     OW22066   0.033   5.439   0.852
 7056SOL    HW122067   0.120   5.433   0.900
 7056SOL    HW222068   6.974   5.443   0.919
 7057SOL     OW22069   3.210   5.801   4.885
 7057SOL    HW122070   3.310   5.811   4.884
 7057SOL    HW222071   3.186   5.706   4.907
 7058SOL     OW22072   6.561   1.890   6.530
 7058SOL    HW122073   6.562   1.910   6.628
 7058SOL    HW222074   6.576   1.974   6.478
 7059SOL     OW22075   2.205   0.086   5.347
 7059SOL    HW122076   2.137   0.130   5.406
 7059SOL    HW222077   2.178   7.006   5.332
 7060SOL     OW22078   3.305   2.389   1.575
 7060SOL    HW122079   3.277   2.387   1.479
 7060SOL    HW222080   3.259   2.465   1.622
 7061SOL     OW22081   1.333   0.977   1.382
 7061SOL    HW122082   1.293   0.918   1.452
 7061SOL    HW222083   1.325   1.073   1.411
 7062SOL     OW22084   3.332   0.692   4.359
 7062SOL    HW122085   3.271   0.618   4.386
 7062SOL    HW222086   3.425   0.657   4.348
 7063SOL     OW22087   0.030   1.617   1.450
 7063SOL    HW122088   7.006   1.598   1.360
 7063SOL    HW222089   0.075   1.535   1.485
 7064SOL     OW22090   2.910   1.474   5.582
 7064SOL    HW122091   2.852   1.542   5.627
 7064SOL    HW222092   2.974   1.435   5.649
 7065SOL     OW22093   3.908   5.737   5.133
 7065SOL    HW122094   3.863   5.766   5.218
 7065SOL    HW222095   4.007   5.730   5.149
 7066SOL     OW22096   3.540   0.157   1.238
 7066SOL    HW122097   3.500   0.074   1.277
 7066SOL    HW222098   3.468   0.224   1.222
 7067SOL     OW22099   2.301   3.778   6.127
 7067SOL    HW122100   2.346   3.819   6.207
 7067SOL    HW222101   2.323   3.681   6.122
 7068SOL     OW22102   4.951   4.299   4.545
 7068SOL    HW122103   4.856   4.313   4.516
 7068SOL    HW222104   5.010   4.301   4.465
 7069SOL     OW22105   4.953   0.872   6.062
 7069SOL    HW122106   5.016   0.923   6.004
 7069SOL    HW222107   4.969   0.774   6.049
 7070SOL     OW22108   0.521   0.598   5.712
 7070SOL    HW122109   0.499   0.503   5.694
 7070SOL    HW222110   0.438   0.654   5.702
 7071SOL     OW22111   4.518   6.305   6.728
 7071SOL    HW122112   4.616   6.311   6.744
 7071SOL    HW222113   4.496   6.222   6.677
 7072SOL     OW22114   1.199   3.652   6.282
 7072SOL    HW122115   1.150   3.726   6.236
 7072SOL    HW222116   1.287   3.686   6.314
 7073SOL     OW22117   4.725   1.214   3.483
 7073SOL    HW122118   4.791   1.139   3.483
 7073SOL    HW222119   4.757   1.287   3.422
 7074SOL     OW22120   5.695   4.405   2.649
 7074SOL    HW122121   5.777   4.462   2.647
 7074SOL    HW222122   5.690   4.350   2.566
 7075SOL     OW22123   2.560   5.141   2.816
 7075SOL    HW122124   2.507   5.104   2.892
 7075SOL    HW222125   2.643   5.183   2.851
 7076SOL     OW22126   5.584   1.588   1.099
 7076SOL    HW122127   5.509   1.646   1.068
 7076SOL    HW222128   5.580   1.500   1.052
 7077SOL     OW22129   3.774   6.263   1.712
 7077SOL    HW122130   3.832   6.195   1.668
 7077SOL    HW222131   3.794   6.353   1.673
 7078SOL     OW22132   6.653   1.097   6.714
 7078SOL    HW122133   6.572   1.149   6.685
 7078SOL    HW222134   6.728   1.160   6.732
 7079SOL     OW22135   2.033   5.736   4.590
 7079SOL    HW122136   2.117   5.684   4.574
 7079SOL    HW222137   2.011   5.734   4.688
 7080SOL     OW22138   3.718   1.581   6.142
 7080SOL    HW122139   3.688   1.662   6.091
 7080SOL    HW222140   3.713   1.501   6.083
 7081SOL     OW22141   1.978   6.639   0.304
 7081SOL    HW122142   1.979   6.698   0.224
 7081SOL    HW222143   1.893   6.653   0.355
 7082SOL     OW22144   0.902   3.671   1.942
 7082SOL    HW122145   0.827   3.703   1.884
 7082SOL    HW222146   0.969   3.744   1.953
 7083SOL     OW22147   5.061   2.705   3.448
 7083SOL    HW122148   5.099   2.633   3.390
 7083SOL    HW222149   5.130   2.738   3.512
 7084SOL     OW22150   1.147   5.052   0.729
 7084SOL    HW122151   1.194   5.047   0.817
 7084SOL    HW222152   1.139   4.960   0.690
 7085SOL     OW22153   0.435   4.274   2.523
 7085SOL    HW122154   0.339   4.268   2.496
 7085SOL    HW222155   0.471   4.365   2.501
 7086SOL     OW22156   5.277   0.794   3.538
 7086SOL    HW122157   5.334   0.768   3.460
 7086SOL    HW222158   5.294   0.889   3.562
 7087SOL     OW22159   5.022   2.202   3.643
 7087SOL    HW122160   5.010   2.142   3.564
 7087SOL    HW222161   4.989   2.294   3.621
 7088SOL     OW22162   6.132   2.589   5.172
 7088SOL    HW122163   6.155   2.491   5.174
 7088SOL    HW222164   6.035   2.601   5.191
 7089SOL     OW22165   2.527   5.427   0.750
 7089SOL    HW122166   2.564   5.340   0.783
 7089SOL    HW222167   2.478   5.472   0.825
 7090SOL     OW22168   4.748   3.008   1.003
 7090SOL    HW122169   4.833   3.053   1.029
 7090SOL    HW222170   4.749   2.913   1.034
 7091SOL     OW22171   6.458   6.693   0.268
 7091SOL    HW122172   6.452   6.594   0.277
 7091SOL    HW222173   6.480   6.716   0.173
 7092SOL     OW22174   4.359   0.053   6.937
 7092SOL    HW122175   4.265   0.088   6.933
 7092SOL    HW222176   4.423   0.126   6.913
 7093SOL     OW22177   3.414   3.578   0.517
 7093SOL    HW122178   3.344   3.563   0.447
 7093SOL    HW222179   3.482   3.505   0.512
 7094SOL     OW22180   4.379   0.687   5.431
 7094SOL    HW122181   4.424   0.775   5.450
 7094SOL    HW222182   4.435   0.613   5.468
 7095SOL     OW22183   2.708   5.207   4.392
 7095SOL    HW122184   2.737   5.140   4.324
 7095SOL    HW222185   2.717   5.299   4.354
 7096SOL     OW22186   6.606   6.316   0.838
 7096SOL    HW122187   6.558   6.310   0.926
 7096SOL    HW222188   6.663   6.399   0.837
 7097SOL     OW22189   5.051   1.728   2.375
 7097SOL    HW122190   5.109   1.659   2.332
 7097SOL    HW222191   4.955   1.710   2.350
 7098SOL     OW22192   0.882   1.255   2.825
 7098SOL    HW122193   0.856   1.254   2.728
 7098SOL    HW222194   0.800   1.262   2.881
 7099SOL     OW22195   3.453   2.132   4.599
 7099SOL    HW122196   3.529   2.142   4.664
 7099SOL    HW222197   3.366   2.133   4.648
 7100SOL     OW22198   0.452   4.117   1.235
 7100SOL    HW122199   0.417   4.207   1.207
 7100SOL    HW222200   0.543   4.103   1.195
 7101SOL     OW22201   2.571   5.772   4.317
 7101SOL    HW122202   2.478   5.803   4.338
 7101SOL    HW222203   2.610   5.726   4.396
 7102SOL     OW22204   5.817   1.503   2.824
 7102SOL    HW122205   5.779   1.593   2.800
 7102SOL    HW222206   5.914   1.501   2.803
 7103SOL     OW22207   5.385   3.779   4.073
 7103SOL    HW122208   5.359   3.795   4.169
 7103SOL    HW222209   5.471   3.728   4.070
 7104SOL     OW22210   5.231   2.823   4.677
 7104SOL    HW122211   5.257   2.840   4.772
 7104SOL    HW222212   5.210   2.726   4.665
 7105SOL     OW22213   3.649   4.132   2.632
 7105SOL    HW122214   3.729   4.074   2.617
 7105SOL    HW222215   3.656   4.175   2.722
 7106SOL     OW22216   2.725   1.798   2.190
 7106SOL    HW122217   2.737   1.862   2.265
 7106SOL    HW222218   2.731   1.847   2.103
 7107SOL     OW22219   3.730   1.450   6.729
 7107SOL    HW122220   3.826   1.458   6.756
 7107SOL    HW222221   3.722   1.463   6.630
 7108SOL     OW22222   3.451   0.159   1.939
 7108SOL    HW122223   3.376   0.093   1.945
 7108SOL    HW222224   3.507   0.152   2.021
 7109SOL     OW22225   3.304   5.736   5.908
 7109SOL    HW122226   3.235   5.664   5.914
 7109SOL    HW222227   3.285   5.805   5.977
 7110SOL     OW22228   2.598   6.210   4.977
 7110SOL    HW122229   2.603   6.112   4.960
 7110SOL    HW222230   2.567   6.226   5.070
 7111SOL     OW22231   6.789   0.856   5.087
 7111SOL    HW122232   6.810   0.953   5.071
 7111SOL    HW222233   6.691   0.846   5.106
 7112SOL     OW22234   0.581   5.099   5.159
 7112SOL    HW122235   0.680   5.100   5.145
 7112SOL    HW222236   0.559   5.160   5.236
 7113SOL     OW22237   3.181   6.500   4.578
 7113SOL    HW122238   3.219   6.449   4.654
 7113SOL    HW222239   3.086   6.525   4.598
 7114SOL     OW22240   6.039   4.076   1.363
 7114SOL    HW122241   6.021   4.063   1.461
 7114SOL    HW222242   6.055   4.172   1.345
 7115SOL     OW22243   4.944   3.115   6.128
 7115SOL    HW122244   4.872   3.074   6.184
 7115SOL    HW222245   4.903   3.170   6.055
 7116SOL     OW22246   6.588   4.289   4.951
 7116SOL    HW122247   6.557   4.199   4.920
 7116SOL    HW222248   6.681   4.305   4.919
 7117SOL     OW22249   4.806   6.736   2.865
 7117SOL    HW122250   4.811   6.748   2.766
 7117SOL    HW222251   4.816   6.825   2.910
 7118SOL     OW22252   4.506   4.353   5.926
 7118SOL    HW122253   4.410   4.377   5.913
 7118SOL    HW222254   4.530   4.277   5.864
 7119SOL     OW22255   2.899   6.931   4.809
 7119SOL    HW122256   2.981   6.938   4.752
 7119SOL    HW222257   2.892   6.838   4.845
 7120SOL     OW22258   4.074   1.520   1.009
 7120SOL    HW122259   4.023   1.529   1.095
 7120SOL    HW222260   4.115   1.429   1.004
 7121SOL     OW22261   0.988   6.334   2.493
 7121SOL    HW122262   1.001   6.237   2.474
 7121SOL    HW222263   0.977   6.347   2.592
 7122SOL     OW22264   4.108   2.200   6.654
 7122SOL    HW122265   4.129   2.109   6.616
 7122SOL    HW222266   4.046   2.190   6.732
 7123SOL     OW22267   5.311   4.946   5.833
 7123SOL    HW122268   5.400   4.905   5.855
 7123SOL    HW222269   5.246   4.874   5.809
 7124SOL     OW22270   2.741   2.742   0.463
 7124SOL    HW122271   2.831   2.718   0.425
 7124SOL    HW222272   2.751   2.772   0.557
 7125SOL     OW22273   0.809   6.394   2.078
 7125SOL    HW122274   0.815   6.398   1.978
 7125SOL    HW222275   0.861   6.315   2.110
 7126SOL     OW22276   3.896   5.084   1.045
 7126SOL    HW122277   3.846   5.057   1.127
 7126SOL    HW222278   3.947   5.006   1.010
 7127SOL     OW22279   2.619   5.976   6.156
 7127SOL    HW122280   2.549   6.043   6.180
 7127SOL    HW222281   2.692   5.978   6.224
 7128SOL     OW22282   3.428   4.208   6.984
 7128SOL    HW122283   3.397   4.281   0.029
 7128SOL    HW222284   3.474   4.137   0.022
 7129SOL     OW22285   0.099   0.160   6.809
 7129SOL    HW122286   0.159   0.232   6.842
 7129SOL    HW222287   0.028   0.142   6.876
 7130SOL     OW22288   3.588   0.287   4.025
 7130SOL    HW122289   3.516   0.351   3.998
 7130SOL    HW222290   3.608   0.298   4.122
 7131SOL     OW22291   2.255   1.490   1.773
 7131SOL    HW122292   2.295   1.491   1.681
 7131SOL    HW222293   2.323   1.456   1.839
 7132SOL     OW22294   4.828   4.583   1.969
 7132SOL    HW122295   4.733   4.579   1.938
 7132SOL    HW222296   4.831   4.614   2.064
 7133SOL     OW22297   4.728   5.907   2.435
 7133SOL    HW122298   4.654   5.962   2.475
 7133SOL    HW222299   4.805   5.966   2.413
 7134SOL     OW22300   4.763   5.391   0.008
 7134SOL    HW122301   4.831   5.458   0.036
 7134SOL    HW222302   4.680   5.438   6.993
 7135SOL     OW22303   1.979   4.223   1.381
 7135SOL    HW122304   2.038   4.148   1.351
 7135SOL    HW222305   2.000   4.244   1.477
 7136SOL     OW22306   1.248   2.563   1.906
 7136SOL    HW122307   1.234   2.627   1.981
 7136SOL    HW222308   1.321   2.498   1.929
 7137SOL     OW22309   2.962   1.252   2.414
 7137SOL    HW122310   2.908   1.328   2.450
 7137SOL    HW222311   3.054   1.254   2.454
 7138SOL     OW22312   0.256   3.375   6.941
 7138SOL    HW122313   0.229   3.280   6.923
 7138SOL    HW222314   0.350   3.377   6.972
 7139SOL     OW22315   5.632   6.163   1.022
 7139SOL    HW122316   5.610   6.250   0.978
 7139SOL    HW222317   5.605   6.088   0.963
 7140SOL     OW22318   6.980   4.961   6.948
 7140SOL    HW122319   0.030   4.887   6.955
 7140SOL    HW222320   6.909   4.951   0.003
 7141SOL     OW22321   3.296   1.187   1.213
 7141SOL    HW122322   3.306   1.201   1.114
 7141SOL    HW222323   3.205   1.150   1.232
 7142SOL     OW22324   4.793   0.141   5.135
 7142SOL    HW122325   4.717   0.206   5.136
 7142SOL    HW222326   4.878   0.191   5.117
 7143SOL     OW22327   3.220   2.717   6.007
 7143SOL    HW122328   3.129   2.677   6.012
 7143SOL    HW222329   3.213   2.816   6.001
 7144SOL     OW22330   6.968   0.971   5.923
 7144SOL    HW122331   6.905   1.021   5.864
 7144SOL    HW222332   6.924   0.955   6.012
 7145SOL     OW22333   5.567   2.386   6.257
 7145SOL    HW122334   5.642   2.321   6.246
 7145SOL    HW222335   5.604   2.479   6.254
 7146SOL     OW22336   0.495   2.055   4.975
 7146SOL    HW122337   0.434   2.010   4.910
 7146SOL    HW222338   0.510   1.996   5.054
 7147SOL     OW22339   6.695   6.973   1.512
 7147SOL    HW122340   6.627   7.001   1.580
 7147SOL    HW222341   6.784   6.961   1.555
 7148SOL     OW22342   6.181   6.887   0.969
 7148SOL    HW122343   6.236   6.932   0.898
 7148SOL    HW222344   6.220   6.908   1.059
 7149SOL     OW22345   5.324   4.125   5.760
 7149SOL    HW122346   5.268   4.152   5.682
 7149SOL    HW222347   5.412   4.173   5.756
 7150SOL     OW22348   2.926   2.241   6.665
 7150SOL    HW122349   2.957   2.299   6.590
 7150SOL    HW222350   3.002   2.223   6.727
 7151SOL     OW22351   5.243   1.178   6.865
 7151SOL    HW122352   5.322   1.135   6.821
 7151SOL    HW222353   5.272   1.217   6.952
 7152SOL     OW22354   4.733   0.031   5.390
 7152SOL    HW122355   4.687   6.960   5.372
 7152SOL    HW222356   4.744   0.081   5.304
 7153SOL     OW22357   3.404   5.679   0.663
 7153SOL    HW122358   3.365   5.596   0.624
 7153SOL    HW222359   3.424   5.664   0.760
 7154SOL     OW22360   4.617   0.933   1.922
 7154SOL    HW122361   4.673   0.965   1.846
 7154SOL    HW222362   4.586   0.840   1.904
 7155SOL     OW22363   2.153   0.661   1.660
 7155SOL    HW122364   2.115   0.568   1.657
 7155SOL    HW222365   2.109   0.712   1.734
 7156SOL     OW22366   6.338   4.039   5.721
 7156SOL    HW122367   6.275   4.082   5.655
 7156SOL    HW222368   6.338   4.091   5.806
 7157SOL     OW22369   0.452   4.101   5.732
 7157SOL    HW122370   0.432   4.182   5.677
 7157SOL    HW222371   0.405   4.022   5.693
 7158SOL     OW22372   5.389   0.347   4.093
 7158SOL    HW122373   5.342   0.354   4.005
 7158SOL    HW222374   5.487   0.343   4.078
 7159SOL     OW22375   0.577   6.336   2.990
 7159SOL    HW122376   0.553   6.337   3.087
 7159SOL    HW222377   0.640   6.260   2.972
 7160SOL     OW22378   6.069   0.050   2.671
 7160SOL    HW122379   6.098   6.977   2.706
 7160SOL    HW222380   5.973   0.045   2.643
 7161SOL     OW22381   4.143   3.612   2.399
 7161SOL    HW122382   4.176   3.651   2.313
 7161SOL    HW222383   4.057   3.563   2.381
 7162SOL     OW22384   0.130   6.323   0.913
 7162SOL    HW122385   0.165   6.265   0.987
 7162SOL    HW222386   0.111   6.266   0.833
 7163SOL     OW22387   6.510   0.480   1.230
 7163SOL    HW122388   6.580   0.525   1.287
 7163SOL    HW222389   6.426   0.471   1.283
 7164SOL     OW22390   1.523   0.888   0.074
 7164SOL    HW122391   1.620   0.901   0.096
 7164SOL    HW222392   1.505   0.791   0.059
 7165SOL     OW22393   5.309   1.888   7.009
 7165SOL    HW122394   5.243   1.963   7.016
 7165SOL    HW222395   5.300   1.843   6.921
 7166SOL     OW22396   0.235   5.410   5.338
 7166SOL    HW122397   0.164   5.390   5.270
 7166SOL    HW222398   0.238   5.508   5.354
 7167SOL     OW22399   0.379   3.026   5.765
 7167SOL    HW122400   0.424   3.056   5.681
 7167SOL    HW222401   0.421   2.941   5.797
 7168SOL     OW22402   1.412   1.532   2.341
 7168SOL    HW122403   1.395   1.529   2.440
 7168SOL    HW222404   1.505   1.502   2.322
 7169SOL     OW22405   1.822   4.477   5.695
 7169SOL    HW122406   1.873   4.431   5.768
 7169SOL    HW222407   1.886   4.509   5.625
 7170SOL     OW22408   3.668   1.480   0.859
 7170SOL    HW122409   3.692   1.490   0.955
 7170SOL    HW222410   3.706   1.394   0.824
 7171SOL     OW22411   6.659   3.776   0.812
 7171SOL    HW122412   6.724   3.730   0.751
 7171SOL    HW222413   6.678   3.752   0.907
 7172SOL     OW22414   0.369   2.270   3.569
 7172SOL    HW122415   0.399   2.279   3.664
 7172SOL    HW222416   0.383   2.176   3.539
 7173SOL     OW22417   4.075   5.281   5.339
 7173SOL    HW122418   4.015   5.260   5.262
 7173SOL    HW222419   4.071   5.206   5.406
 7174SOL     OW22420   6.376   3.838   1.934
 7174SOL    HW122421   6.386   3.935   1.958
 7174SOL    HW222422   6.294   3.802   1.978
 7175SOL     OW22423   6.275   3.699   5.859
 7175SOL    HW122424   6.365   3.743   5.865
 7175SOL    HW222425   6.258   3.647   5.943
 7176SOL     OW22426   0.246   1.037   6.275
 7176SOL    HW122427   0.230   1.108   6.207
 7176SOL    HW222428   0.254   0.948   6.230
 7177SOL     OW22429   1.229   6.102   3.329
 7177SOL    HW122430   1.254   6.144   3.416
 7177SOL    HW222431   1.277   6.015   3.319
 7178SOL     OW22432   1.251   6.770   4.785
 7178SOL    HW122433   1.169   6.796   4.836
 7178SOL    HW222434   1.260   6.671   4.784
 7179SOL     OW22435   4.519   4.842   6.135
 7179SOL    HW122436   4.496   4.936   6.160
 7179SOL    HW222437   4.541   4.790   6.218
 7180SOL     OW22438   1.690   2.990   1.884
 7180SOL    HW122439   1.729   3.019   1.797
 7180SOL    HW222440   1.723   3.049   1.957
 7181SOL     OW22441   2.584   0.739   0.050
 7181SOL    HW122442   2.644   0.818   0.065
 7181SOL    HW222443   2.568   0.727   6.968
 7182SOL     OW22444   1.683   1.559   3.333
 7182SOL    HW122445   1.601   1.512   3.367
 7182SOL    HW222446   1.685   1.555   3.234
 7183SOL     OW22447   1.409   6.925   1.714
 7183SOL    HW122448   1.320   6.960   1.744
 7183SOL    HW222449   1.436   6.972   1.630
 7184SOL     OW22450   6.864   0.434   3.687
 7184SOL    HW122451   6.797   0.415   3.615
 7184SOL    HW222452   6.819   0.478   3.764
 7185SOL     OW22453   3.924   0.245   3.871
 7185SOL    HW122454   4.006   0.302   3.866
 7185SOL    HW222455   3.848   0.293   3.827
 7186SOL     OW22456   6.294   1.082   6.431
 7186SOL    HW122457   6.368   1.140   6.466
 7186SOL    HW222458   6.277   1.008   6.496
 7187SOL     OW22459   3.796   3.420   4.035
 7187SOL    HW122460   3.834   3.419   3.942
 7187SOL    HW222461   3.870   3.405   4.101
 7188SOL     OW22462   4.486   4.465   0.505
 7188SOL    HW122463   4.494   4.369   0.533
 7188SOL    HW222464   4.569   4.493   0.457
 7189SOL     OW22465   7.005   2.394   5.467
 7189SOL    HW122466   0.085   2.397   5.496
 7189SOL    HW222467   6.983   2.301   5.436
 7190SOL     OW22468   6.463   5.383   6.917
 7190SOL    HW122469   6.557   5.380   6.885
 7190SOL    HW222470   6.408   5.437   6.854
 7191SOL     OW22471   6.546   4.581   2.041
 7191SOL    HW122472   6.607   4.609   2.115
 7191SOL    HW222473   6.524   4.484   2.050
 7192SOL     OW22474   2.419   4.136   5.377
 7192SOL    HW122475   2.428   4.069   5.303
 7192SOL    HW222476   2.510   4.172   5.400
 7193SOL     OW22477   3.592   1.787   3.386
 7193SOL    HW122478   3.625   1.815   3.296
 7193SOL    HW222479   3.637   1.843   3.456
 7194SOL     OW22480   2.950   2.667   5.987
 7194SOL    HW122481   2.914   2.722   5.911
 7194SOL    HW222482   2.884   2.668   6.062
 7195SOL     OW22483   1.433   3.739   5.902
 7195SOL    HW122484   1.509   3.794   5.936
 7195SOL    HW222485   1.402   3.776   5.814
 7196SOL     OW22486   3.359   4.033   1.489
 7196SOL    HW122487   3.318   4.119   1.460
 7196SOL    HW222488   3.293   3.959   1.477
 7197SOL     OW22489   3.358   4.978   6.836
 7197SOL    HW122490   3.308   4.990   6.922
 7197SOL    HW222491   3.336   5.052   6.773
 7198SOL     OW22492   0.738   0.504   1.691
 7198SOL    HW122493   0.755   0.438   1.618
 7198SOL    HW222494   0.751   0.460   1.780
 7199SOL     OW22495   6.046   1.213   3.125
 7199SOL    HW122496   6.061   1.128   3.177
 7199SOL    HW222497   6.103   1.212   3.043
 7200SOL     OW22498   1.185   2.841   0.152
 7200SOL    HW122499   1.208   2.936   0.177
 7200SOL    HW222500   1.129   2.842   0.069
 7201SOL     OW22501   5.791   5.996   4.093
 7201SOL    HW122502   5.850   6.014   4.171
 7201SOL    HW222503   5.733   6.076   4.075
 7202SOL     OW22504   4.558   6.677   6.159
 7202SOL    HW122505   4.630   6.624   6.116
 7202SOL    HW222506   4.563   6.772   6.128
 7203SOL     OW22507   0.596   1.841   0.811
 7203SOL    HW122508   0.616   1.881   0.722
 7203SOL    HW222509   0.497   1.842   0.828
 7204SOL     OW22510   6.349   0.935   2.444
 7204SOL    HW122511   6.265   0.975   2.481
 7204SOL    HW222512   6.410   0.911   2.519
 7205SOL     OW22513   3.492   1.844   4.272
 7205SOL    HW122514   3.454   1.820   4.361
 7205SOL    HW222515   3.496   1.943   4.262
 7206SOL     OW22516   2.254   3.740   6.765
 7206SOL    HW122517   2.345   3.755   6.725
 7206SOL    HW222518   2.255   3.656   6.819
 7207SOL     OW22519   2.184   1.378   3.222
 7207SOL    HW122520   2.183   1.472   3.189
 7207SOL    HW222521   2.090   1.347   3.239
 7208SOL     OW22522   3.917   1.233   3.699
 7208SOL    HW122523   3.977   1.188   3.765
 7208SOL    HW222524   3.957   1.320   3.671
 7209SOL     OW22525   3.346   1.041   1.951
 7209SOL    HW122526   3.384   1.131   1.927
 7209SOL    HW222527   3.420   0.982   1.983
 7210SOL     OW22528   3.471   1.288   3.794
 7210SOL    HW122529   3.387   1.335   3.766
 7210SOL    HW222530   3.546   1.355   3.799
 7211SOL     OW22531   3.882   6.236   5.778
 7211SOL    HW122532   3.916   6.144   5.795
 7211SOL    HW222533   3.783   6.234   5.769
 7212SOL     OW22534   0.838   5.638   5.596
 7212SOL    HW122535   0.771   5.564   5.595
 7212SOL    HW222536   0.923   5.606   5.639
 7213SOL     OW22537   4.289   2.420   0.170
 7213SOL    HW122538   4.380   2.379   0.173
 7213SOL    HW222539   4.246   2.413   0.260
 7214SOL     OW22540   6.125   0.739   6.211
 7214SOL    HW122541   6.062   0.801   6.163
 7214SOL    HW222542   6.073   0.664   6.252
 7215SOL     OW22543   6.434   1.580   2.252
 7215SOL    HW122544   6.426   1.555   2.156
 7215SOL    HW222545   6.439   1.497   2.308
 7216SOL     OW22546   5.202   0.072   3.787
 7216SOL    HW122547   5.232   0.043   3.877
 7216SOL    HW222548   5.176   7.007   3.733
 7217SOL     OW22549   1.098   2.884   3.336
 7217SOL    HW122550   1.128   2.912   3.427
 7217SOL    HW222551   1.089   2.785   3.333
 7218SOL     OW22552   6.421   2.394   4.977
 7218SOL    HW122553   6.501   2.409   4.918
 7218SOL    HW222554   6.351   2.345   4.926
 7219SOL     OW22555   2.885   5.936   2.072
 7219SOL    HW122556   2.962   5.928   2.009
 7219SOL    HW222557   2.812   5.989   2.029
 7220SOL     OW22558   6.265   4.216   3.410
 7220SOL    HW122559   6.329   4.229   3.486
 7220SOL    HW222560   6.315   4.188   3.329
 7221SOL     OW22561   4.007   5.203   3.503
 7221SOL    HW122562   4.026   5.290   3.548
 7221SOL    HW222563   3.942   5.150   3.558
 7222SOL     OW22564   6.874   6.308   4.029
 7222SOL    HW122565   6.904   6.401   4.009
 7222SOL    HW222566   6.893   6.286   4.125
 7223SOL     OW22567   0.072   4.456   1.647
 7223SOL    HW122568   0.088   4.510   1.730
 7223SOL    HW222569   0.086   4.359   1.667
 7224SOL     OW22570   4.557   2.447   2.496
 7224SOL    HW122571   4.468   2.410   2.519
 7224SOL    HW222572   4.577   2.524   2.557
 7225SOL     OW22573   0.695   6.274   0.363
 7225SOL    HW122574   0.750   6.221   0.298
 7225SOL    HW222575   0.699   6.229   0.453
 7226SOL     OW22576   6.372   6.424   0.354
 7226SOL    HW122577   6.272   6.436   0.347
 7226SOL    HW222578   6.398   6.414   0.450
 7227SOL     OW22579   1.755   1.281   2.980
 7227SOL    HW122580   1.704   1.335   2.913
 7227SOL    HW222581   1.800   1.204   2.935
 7228SOL     OW22582   5.573   3.029   2.439
 7228SOL    HW122583   5.523   3.085   2.505
 7228SOL    HW222584   5.585   2.936   2.476
 7229SOL     OW22585   6.049   0.502   5.094
 7229SOL    HW122586   6.041   0.599   5.069
 7229SOL    HW222587   5.998   0.446   5.029
 7230SOL     OW22588   2.329   5.307   4.809
 7230SOL    HW122589   2.358   5.279   4.718
 7230SOL    HW222590   2.401   5.361   4.852
 7231SOL     OW22591   4.132   3.206   5.930
 7231SOL    HW122592   4.062   3.149   5.973
 7231SOL    HW222593   4.219   3.194   5.978
 7232SOL     OW22594   4.768   6.043   3.500
 7232SOL    HW122595   4.744   6.071   3.592
 7232SOL    HW222596   4.694   5.988   3.461
 7233SOL     OW22597   0.525   1.044   5.648
 7233SOL    HW122598   0.500   0.960   5.600
 7233SOL    HW222599   0.623   1.061   5.636
 7234SOL     OW22600   5.692   4.441   3.697
 7234SOL    HW122601   5.605   4.399   3.671
 7234SOL    HW222602   5.704   4.434   3.796
 7235SOL     OW22603   5.821   0.012   1.972
 7235SOL    HW122604   5.822   0.106   1.939
 7235SOL    HW222605   5.897   7.014   2.035
 7236SOL     OW22606   2.035   3.928   2.595
 7236SOL    HW122607   2.092   3.930   2.677
 7236SOL    HW222608   2.074   3.864   2.529
 7237SOL     OW22609   5.866   0.974   0.292
 7237SOL    HW122610   5.803   1.007   0.363
 7237SOL    HW222611   5.927   1.048   0.266
 7238SOL     OW22612   3.957   3.863   0.207
 7238SOL    HW122613   3.952   3.794   0.135
 7238SOL    HW222614   4.049   3.865   0.247
 7239SOL     OW22615   5.956   2.523   2.353
 7239SOL    HW122616   5.857   2.527   2.337
 7239SOL    HW222617   6.002   2.498   2.268
 7240SOL     OW22618   6.871   1.698   0.507
 7240SOL    HW122619   6.907   1.752   0.431
 7240SOL    HW222620   6.868   1.602   0.482
 7241SOL     OW22621   2.069   0.774   2.457
 7241SOL    HW122622   2.058   0.804   2.362
 7241SOL    HW222623   2.002   0.702   2.476
 7242SOL     OW22624   6.744   4.457   5.224
 7242SOL    HW122625   6.662   4.505   5.192
 7242SOL    HW222626   6.728   4.424   5.317
 7243SOL     OW22627   5.605   4.641   6.117
 7243SOL    HW122628   5.622   4.730   6.160
 7243SOL    HW222629   5.551   4.654   6.034
 7244SOL     OW22630   0.144   5.690   6.836
 7244SOL    HW122631   0.215   5.671   6.904
 7244SOL    HW222632   0.094   5.773   6.862
 7245SOL     OW22633   1.544   2.578   0.490
 7245SOL    HW122634   1.478   2.643   0.530
 7245SOL    HW222635   1.587   2.525   0.563
 7246SOL     OW22636   4.091   0.281   2.917
 7246SOL    HW122637   4.069   0.191   2.954
 7246SOL    HW222638   4.087   0.278   2.817
 7247SOL     OW22639   3.024   3.907   4.182
 7247SOL    HW122640   2.935   3.940   4.151
 7247SOL    HW222641   3.044   3.819   4.138
 7248SOL     OW22642   3.154   1.448   5.896
 7248SOL    HW122643   3.130   1.387   5.973
 7248SOL    HW222644   3.167   1.393   5.813
 7249SOL     OW22645   4.029   4.922   2.550
 7249SOL    HW122646   4.068   4.895   2.461
 7249SOL    HW222647   3.929   4.916   2.545
 7250SOL     OW22648   5.556   5.304   5.210
 7250SOL    HW122649   5.599   5.215   5.221
 7250SOL    HW222650   5.602   5.354   5.136
 7251SOL     OW22651   1.011   5.281   4.940
 7251SOL    HW122652   1.032   5.352   4.874
 7251SOL    HW222653   0.967   5.321   5.020
 7252SOL     OW22654   4.112   3.696   2.656
 7252SOL    HW122655   4.117   3.601   2.687
 7252SOL    HW222656   4.137   3.701   2.559
 7253SOL     OW22657   2.943   5.158   4.618
 7253SOL    HW122658   2.876   5.221   4.579
 7253SOL    HW222659   2.896   5.086   4.670
 7254SOL     OW22660   5.979   3.253   4.136
 7254SOL    HW122661   5.906   3.305   4.180
 7254SOL    HW222662   5.990   3.165   4.183
 7255SOL     OW22663   4.791   3.844   7.006
 7255SOL    HW122664   4.879   3.796   7.012
 7255SOL    HW222665   4.796   3.929   0.044
 7256SOL     OW22666   3.152   0.476   4.710
 7256SOL    HW122667   3.129   0.571   4.689
 7256SOL    HW222668   3.228   0.473   4.775
 7257SOL     OW22669   0.999   1.326   4.421
 7257SOL    HW122670   0.908   1.367   4.415
 7257SOL    HW222671   1.063   1.377   4.363
 7258SOL     OW22672   5.499   3.432   2.561
 7258SOL    HW122673   5.561   3.401   2.489
 7258SOL    HW222674   5.456   3.518   2.533
 7259SOL     OW22675   1.553   4.347   2.714
 7259SOL    HW122676   1.583   4.254   2.695
 7259SOL    HW222677   1.453   4.349   2.721
 7260SOL     OW22678   5.542   2.993   0.883
 7260SOL    HW122679   5.587   2.947   0.806
 7260SOL    HW222680   5.443   2.991   0.870
 7261SOL     OW22681   6.684   4.466   6.823
 7261SOL    HW122682   6.592   4.432   6.807
 7261SOL    HW222683   6.682   4.533   6.898
 7262SOL     OW22684   5.444   1.272   5.265
 7262SOL    HW122685   5.526   1.269   5.323
 7262SOL    HW222686   5.383   1.344   5.297
 7263SOL     OW22687   6.757   5.532   6.180
 7263SOL    HW122688   6.839   5.500   6.227
 7263SOL    HW222689   6.770   5.627   6.152
 7264SOL     OW22690   5.607   1.237   1.474
 7264SOL    HW122691   5.565   1.311   1.422
 7264SOL    HW222692   5.567   1.233   1.565
 7265SOL     OW22693   3.961   0.706   5.806
 7265SOL    HW122694   3.875   0.722   5.758
 7265SOL    HW222695   4.034   0.692   5.739
 7266SOL     OW22696   0.608   0.881   3.356
 7266SOL    HW122697   0.661   0.956   3.319
 7266SOL    HW222698   0.571   0.907   3.445
 7267SOL     OW22699   6.494   4.246   4.531
 7267SOL    HW122700   6.403   4.257   4.493
 7267SOL    HW222701   6.557   4.309   4.486
 7268SOL     OW22702   6.501   6.783   4.491
 7268SOL    HW122703   6.455   6.705   4.448
 7268SOL    HW222704   6.460   6.868   4.459
 7269SOL     OW22705   2.450   4.455   4.522
 7269SOL    HW122706   2.517   4.496   4.583
 7269SOL    HW222707   2.396   4.386   4.571
 7270SOL     OW22708   0.697   0.664   4.872
 7270SOL    HW122709   0.616   0.711   4.907
 7270SOL    HW222710   0.681   0.637   4.777
 7271SOL     OW22711   0.695   4.750   2.898
 7271SOL    HW122712   0.679   4.654   2.875
 7271SOL    HW222713   0.624   4.806   2.856
 7272SOL     OW22714   6.303   4.147   1.511
 7272SOL    HW122715   6.340   4.156   1.418
 7272SOL    HW222716   6.361   4.084   1.564
 7273SOL     OW22717   0.783   2.050   5.568
 7273SOL    HW122718   0.839   2.010   5.495
 7273SOL    HW222719   0.843   2.081   5.642
 7274SOL     OW22720   0.357   4.940   6.182
 7274SOL    HW122721   0.429   4.881   6.144
 7274SOL    HW222722   0.278   4.883   6.208
 7275SOL     OW22723   0.686   6.166   3.272
 7275SOL    HW122724   0.597   6.154   3.227
 7275SOL    HW222725   0.679   6.237   3.341
 7276SOL     OW22726   5.050   6.121   3.676
 7276SOL    HW122727   5.024   6.027   3.658
 7276SOL    HW222728   5.013   6.151   3.764
 7277SOL     OW22729   4.400   0.376   0.129
 7277SOL    HW122730   4.326   0.324   0.171
 7277SOL    HW222731   4.374   0.472   0.123
 7278SOL     OW22732   3.274   2.863   2.167
 7278SOL    HW122733   3.179   2.861   2.197
 7278SOL    HW222734   3.292   2.950   2.121
 7279SOL     OW22735   2.948   6.627   5.973
 7279SOL    HW122736   2.874   6.602   6.036
 7279SOL    HW222737   2.992   6.710   6.006
 7280SOL     OW22738   4.289   1.597   5.935
 7280SOL    HW122739   4.255   1.580   5.843
 7280SOL    HW222740   4.228   1.555   6.002
 7281SOL     OW22741   5.041   1.224   6.291
 7281SOL    HW122742   5.065   1.319   6.310
 7281SOL    HW222743   5.077   1.198   6.202
 7282SOL     OW22744   5.407   5.574   2.184
 7282SOL    HW122745   5.438   5.543   2.274
 7282SOL    HW222746   5.478   5.557   2.116
 7283SOL     OW22747   2.056   0.861   3.912
 7283SOL    HW122748   2.148   0.834   3.941
 7283SOL    HW222749   2.057   0.885   3.815
 7284SOL     OW22750   0.485   2.464   5.152
 7284SOL    HW122751   0.576   2.469   5.112
 7284SOL    HW222752   0.458   2.368   5.163
 7285SOL     OW22753   5.666   4.881   1.492
 7285SOL    HW122754   5.735   4.813   1.516
 7285SOL    HW222755   5.636   4.866   1.398
 7286SOL     OW22756   2.389   4.147   1.081
 7286SOL    HW122757   2.305   4.109   1.119
 7286SOL    HW222758   2.382   4.154   0.982
 7287SOL     OW22759   5.768   1.485   6.150
 7287SOL    HW122760   5.741   1.389   6.158
 7287SOL    HW222761   5.866   1.491   6.131
 7288SOL     OW22762   2.996   6.787   6.386
 7288SOL    HW122763   3.068   6.744   6.331
 7288SOL    HW222764   2.912   6.794   6.332
 7289SOL     OW22765   5.690   2.109   3.862
 7289SOL    HW122766   5.764   2.043   3.856
 7289SOL    HW222767   5.649   2.105   3.953
 7290SOL     OW22768   3.024   4.953   4.234
 7290SOL    HW122769   3.028   4.918   4.328
 7290SOL    HW222770   3.085   4.898   4.176
 7291SOL     OW22771   3.081   5.181   2.053
 7291SOL    HW122772   3.005   5.141   2.001
 7291SOL    HW222773   3.057   5.183   2.150
 7292SOL     OW22774   3.188   6.860   4.736
 7292SOL    HW122775   3.263   6.911   4.693
 7292SOL    HW222776   3.125   6.827   4.665
 7293SOL     OW22777   1.926   2.129   6.182
 7293SOL    HW122778   1.914   2.066   6.105
 7293SOL    HW222779   1.838   2.141   6.228
 7294SOL     OW22780   3.842   5.990   0.374
 7294SOL    HW122781   3.809   5.904   0.335
 7294SOL    HW222782   3.936   6.006   0.344
 7295SOL     OW22783   5.491   0.067   1.694
 7295SOL    HW122784   5.425   7.008   1.705
 7295SOL    HW222785   5.545   0.077   1.778
 7296SOL     OW22786   4.342   5.376   1.893
 7296SOL    HW122787   4.424   5.406   1.941
 7296SOL    HW222788   4.268   5.443   1.906
 7297SOL     OW22789   5.494   6.735   2.424
 7297SOL    HW122790   5.405   6.715   2.466
 7297SOL    HW222791   5.567   6.721   2.491
 7298SOL     OW22792   6.228   3.796   4.093
 7298SOL    HW122793   6.153   3.800   4.027
 7298SOL    HW222794   6.299   3.735   4.058
 7299SOL     OW22795   5.460   3.481   6.965
 7299SOL    HW122796   5.418   3.416   6.902
 7299SOL    HW222797   5.483   3.434   0.035
 7300SOL     OW22798   4.585   5.062   1.091
 7300SOL    HW122799   4.584   5.047   0.992
 7300SOL    HW222800   4.491   5.076   1.124
 7301SOL     OW22801   6.831   0.585   5.891
 7301SOL    HW122802   6.857   0.646   5.965
 7301SOL    HW222803   6.912   0.551   5.844
 7302SOL     OW22804   4.991   0.580   6.050
 7302SOL    HW122805   4.899   0.544   6.034
 7302SOL    HW222806   5.010   0.581   6.148
 7303SOL     OW22807   3.235   1.297   0.961
 7303SOL    HW122808   3.300   1.315   0.887
 7303SOL    HW222809   3.162   1.366   0.958
 7304SOL     OW22810   3.409   4.223   5.178
 7304SOL    HW122811   3.380   4.269   5.261
 7304SOL    HW222812   3.402   4.124   5.190
 7305SOL     OW22813   5.668   1.024   7.000
 7305SOL    HW122814   5.749   0.994   0.034
 7305SOL    HW222815   5.588   0.976   0.021
 7306SOL     OW22816   4.948   4.955   1.545
 7306SOL    HW122817   5.026   4.896   1.526
 7306SOL    HW222818   4.883   4.908   1.604
 7307SOL     OW22819   3.970   6.584   2.853
 7307SOL    HW122820   3.998   6.547   2.764
 7307SOL    HW222821   3.950   6.509   2.915
 7308SOL     OW22822   6.487   1.969   4.492
 7308SOL    HW122823   6.527   2.036   4.554
 7308SOL    HW222824   6.465   1.885   4.543
 7309SOL     OW22825   4.529   5.843   2.213
 7309SOL    HW122826   4.564   5.901   2.287
 7309SOL    HW222827   4.588   5.763   2.203
 7310SOL     OW22828   1.719   5.283   1.597
 7310SOL    HW122829   1.736   5.191   1.560
 7310SOL    HW222830   1.695   5.276   1.693
 7311SOL     OW22831   2.717   2.332   2.262
 7311SOL    HW122832   2.731   2.349   2.164
 7311SOL    HW222833   2.804   2.312   2.306
 7312SOL     OW22834   6.553   1.792   5.621
 7312SOL    HW122835   6.581   1.756   5.532
 7312SOL    HW222836   6.605   1.875   5.642
 7313SOL     OW22837   4.047   2.864   0.050
 7313SOL    HW122838   3.956   2.894   0.076
 7313SOL    HW222839   4.064   2.886   6.970
 7314SOL     OW22840   0.734   2.871   4.547
 7314SOL    HW122841   0.822   2.825   4.555
 7314SOL    HW222842   0.691   2.847   4.460
 7315SOL     OW22843   6.960   0.211   5.299
 7315SOL    HW122844   6.919   0.227   5.389
 7315SOL    HW222845   6.893   0.169   5.239
 7316SOL     OW22846   3.599   4.105   5.442
 7316SOL    HW122847   3.669   4.047   5.483
 7316SOL    HW222848   3.634   4.198   5.432
 7317SOL     OW22849   2.865   1.280   3.578
 7317SOL    HW122850   2.956   1.243   3.594
 7317SOL    HW222851   2.870   1.379   3.565
 7318SOL     OW22852   1.353   1.955   1.518
 7318SOL    HW122853   1.401   1.916   1.596
 7318SOL    HW222854   1.258   1.922   1.517
 7319SOL     OW22855   6.624   4.068   6.770
 7319SOL    HW122856   6.682   4.118   6.834
 7319SOL    HW222857   6.679   4.001   6.720
 7320SOL     OW22858   6.686   2.463   2.125
 7320SOL    HW122859   6.771   2.412   2.138
 7320SOL    HW222860   6.671   2.478   2.028
 7321SOL     OW22861   3.026   1.499   4.496
 7321SOL    HW122862   3.094   1.523   4.565
 7321SOL    HW222863   2.939   1.477   4.540
 7322SOL     OW22864   0.460   3.502   2.124
 7322SOL    HW122865   0.462   3.424   2.186
 7322SOL    HW222866   0.546   3.506   2.072
 7323SOL     OW22867   1.995   3.910   2.990
 7323SOL    HW122868   2.073   3.945   2.938
 7323SOL    HW222869   2.018   3.910   3.087
 7324SOL     OW22870   5.479   6.111   2.309
 7324SOL    HW122871   5.380   6.097   2.301
 7324SOL    HW222872   5.499   6.209   2.297
 7325SOL     OW22873   2.889   6.273   0.535
 7325SOL    HW122874   2.810   6.335   0.539
 7325SOL    HW222875   2.935   6.273   0.624
 7326SOL     OW22876   2.886   0.179   4.491
 7326SOL    HW122877   2.799   0.198   4.446
 7326SOL    HW222878   2.953   0.147   4.424
 7327SOL     OW22879   1.610   2.569   5.468
 7327SOL    HW122880   1.705   2.567   5.497
 7327SOL    HW222881   1.604   2.611   5.377
 7328SOL     OW22882   2.506   6.918   6.957
 7328SOL    HW122883   2.410   6.892   6.965
 7328SOL    HW222884   2.563   6.836   6.966
 7329SOL     OW22885   4.352   3.433   1.426
 7329SOL    HW122886   4.381   3.346   1.385
 7329SOL    HW222887   4.328   3.419   1.522
 7330SOL     OW22888   4.335   1.888   0.842
 7330SOL    HW122889   4.252   1.943   0.851
 7330SOL    HW222890   4.324   1.802   0.892
 7331SOL     OW22891   5.345   1.190   1.634
 7331SOL    HW122892   5.257   1.177   1.588
 7331SOL    HW222893   5.356   1.287   1.656
 7332SOL     OW22894   3.695   5.426   1.114
 7332SOL    HW122895   3.785   5.434   1.071
 7332SOL    HW222896   3.705   5.432   1.213
 7333SOL     OW22897   0.287   5.124   2.643
 7333SOL    HW122898   0.309   5.221   2.652
 7333SOL    HW222899   0.188   5.113   2.644
 7334SOL     OW22900   3.901   6.327   4.260
 7334SOL    HW122901   3.807   6.326   4.225
 7334SOL    HW222902   3.954   6.396   4.211
 7335SOL     OW22903   1.619   2.484   2.728
 7335SOL    HW122904   1.538   2.499   2.672
 7335SOL    HW222905   1.701   2.490   2.671
 7336SOL     OW22906   1.744   6.406   4.065
 7336SOL    HW122907   1.832   6.450   4.083
 7336SOL    HW222908   1.743   6.370   3.972
 7337SOL     OW22909   5.359   2.393   2.094
 7337SOL    HW122910   5.374   2.471   2.154
 7337SOL    HW222911   5.332   2.314   2.149
 7338SOL     OW22912   6.512   3.441   0.161
 7338SOL    HW122913   6.526   3.485   0.073
 7338SOL    HW222914   6.454   3.499   0.218
 7339SOL     OW22915   1.308   5.427   4.757
 7339SOL    HW122916   1.345   5.469   4.675
 7339SOL    HW222917   1.230   5.369   4.733
 7340SOL     OW22918   1.773   0.008   6.401
 7340SOL    HW122919   1.832   0.075   6.446
 7340SOL    HW222920   1.816   6.993   6.316
 7341SOL     OW22921   6.595   2.317   7.007
 7341SOL    HW122922   6.550   2.247   6.951
 7341SOL    HW222923   6.577   2.299   0.088
 7342SOL     OW22924   6.964   6.833   2.312
 7342SOL    HW122925   6.883   6.777   2.298
 7342SOL    HW222926   7.012   6.845   2.225
 7343SOL     OW22927   5.287   2.991   0.759
 7343SOL    HW122928   5.212   3.057   0.754
 7343SOL    HW222929   5.275   2.921   0.689
 7344SOL     OW22930   1.573   6.392   6.039
 7344SOL    HW122931   1.516   6.464   6.000
 7344SOL    HW222932   1.646   6.433   6.094
 7345SOL     OW22933   3.154   5.048   6.191
 7345SOL    HW122934   3.111   5.130   6.228
 7345SOL    HW222935   3.144   4.973   6.257
 7346SOL     OW22936   4.504   4.557   2.579
 7346SOL    HW122937   4.476   4.577   2.673
 7346SOL    HW222938   4.580   4.617   2.553
 7347SOL     OW22939   5.982   1.961   6.683
 7347SOL    HW122940   5.988   2.058   6.659
 7347SOL    HW222941   5.887   1.938   6.706
 7348SOL     OW22942   6.193   4.361   1.048
 7348SOL    HW122943   6.281   4.336   1.007
 7348SOL    HW222944   6.178   4.308   1.131
 7349SOL     OW22945   3.781   1.880   2.221
 7349SOL    HW122946   3.735   1.802   2.265
 7349SOL    HW222947   3.730   1.906   2.138
 7350SOL     OW22948   3.317   0.953   4.151
 7350SOL    HW122949   3.382   0.960   4.075
 7350SOL    HW222950   3.355   0.895   4.223
 7351SOL     OW22951   2.790   4.818   4.037
 7351SOL    HW122952   2.889   4.803   4.044
 7351SOL    HW222953   2.770   4.877   3.960
 7352SOL     OW22954   6.252   3.140   4.330
 7352SOL    HW122955   6.232   3.195   4.411
 7352SOL    HW222956   6.166   3.102   4.294
 7353SOL     OW22957   6.426   0.671   6.053
 7353SOL    HW122958   6.446   0.739   6.124
 7353SOL    HW222959   6.416   0.581   6.094
 7354SOL     OW22960   0.111   1.211   3.419
 7354SOL    HW122961   0.050   1.258   3.482
 7354SOL    HW222962   0.140   1.274   3.347
 7355SOL     OW22963   2.813   1.297   7.008
 7355SOL    HW122964   2.747   1.322   6.937
 7355SOL    HW222965   2.834   1.377   0.048
 7356SOL     OW22966   4.300   4.030   6.038
 7356SOL    HW122967   4.398   4.017   6.028
 7356SOL    HW222968   4.251   3.967   5.978
 7357SOL     OW22969   4.956   5.829   2.167
 7357SOL    HW122970   4.904   5.817   2.252
 7357SOL    HW222971   5.053   5.813   2.184
 7358SOL     OW22972   5.819   1.353   3.047
 7358SOL    HW122973   5.824   1.413   2.966
 7358SOL    HW222974   5.911   1.323   3.072
 7359SOL     OW22975   4.771   0.222   1.881
 7359SOL    HW122976   4.696   0.157   1.884
 7359SOL    HW222977   4.747   0.297   1.819
 7360SOL     OW22978   3.042   3.375   4.901
 7360SOL    HW122979   3.023   3.393   4.805
 7360SOL    HW222980   2.985   3.434   4.959
 7361SOL     OW22981   6.771   0.301   3.116
 7361SOL    HW122982   6.865   0.328   3.137
 7361SOL    HW222983   6.708   0.375   3.141
 7362SOL     OW22984   2.909   5.387   0.052
 7362SOL    HW122985   2.994   5.439   0.055
 7362SOL    HW222986   2.875   5.384   6.974
 7363SOL     OW22987   3.614   1.128   0.355
 7363SOL    HW122988   3.611   1.033   0.325
 7363SOL    HW222989   3.528   1.173   0.330
 7364SOL     OW22990   5.601   6.536   1.553
 7364SOL    HW122991   5.589   6.475   1.632
 7364SOL    HW222992   5.693   6.575   1.555
 7365SOL     OW22993   5.300   4.530   2.394
 7365SOL    HW122994   5.343   4.525   2.304
 7365SOL    HW222995   5.209   4.569   2.386
 7366SOL     OW22996   1.704   0.628   3.924
 7366SOL    HW122997   1.650   0.548   3.899
 7366SOL    HW222998   1.664   0.710   3.883
 7367SOL     OW22999   3.465   1.264   0.002
 7367SOL    HW123000   3.486   1.349   0.050
 7367SOL    HW223001   3.443   1.193   0.069
 7368SOL     OW23002   3.771   3.322   3.625
 7368SOL    HW123003   3.793   3.394   3.690
 7368SOL    HW223004   3.738   3.363   3.540
 7369SOL     OW23005   5.199   2.253   0.358
 7369SOL    HW123006   5.214   2.158   0.330
 7369SOL    HW223007   5.215   2.314   0.280
 7370SOL     OW23008   2.051   1.079   4.258
 7370SOL    HW123009   2.061   0.980   4.253
 7370SOL    HW223010   2.030   1.115   4.166
 7371SOL     OW23011   4.086   1.481   3.642
 7371SOL    HW123012   4.126   1.511   3.729
 7371SOL    HW223013   4.158   1.470   3.574
 7372SOL     OW23014   5.649   1.197   5.441
 7372SOL    HW123015   5.580   1.138   5.483
 7372SOL    HW223016   5.738   1.152   5.447
 7373SOL     OW23017   5.960   3.259   4.615
 7373SOL    HW123018   5.983   3.239   4.710
 7373SOL    HW223019   6.037   3.305   4.571
 7374SOL     OW23020   6.443   2.486   5.821
 7374SOL    HW123021   6.353   2.526   5.834
 7374SOL    HW223022   6.513   2.555   5.839
 7375SOL     OW23023   1.406   3.775   1.695
 7375SOL    HW123024   1.330   3.770   1.761
 7375SOL    HW223025   1.463   3.694   1.704
 7376SOL     OW23026   0.001   3.408   0.735
 7376SOL    HW123027   6.977   3.330   0.687
 7376SOL    HW223028   0.089   3.432   0.694
 7377SOL     OW23029   1.996   6.543   0.879
 7377SOL    HW123030   1.948   6.490   0.949
 7377SOL    HW223031   2.052   6.614   0.922
 7378SOL     OW23032   1.669   5.349   4.380
 7378SOL    HW123033   1.740   5.396   4.328
 7378SOL    HW223034   1.626   5.413   4.444
 7379SOL     OW23035   4.186   1.113   2.168
 7379SOL    HW123036   4.253   1.106   2.095
 7379SOL    HW223037   4.209   1.049   2.241
 7380SOL     OW23038   5.238   4.008   1.676
 7380SOL    HW123039   5.278   3.952   1.748
 7380SOL    HW223040   5.197   4.091   1.716
 7381SOL     OW23041   3.805   0.183   1.756
 7381SOL    HW123042   3.757   0.102   1.787
 7381SOL    HW223043   3.776   0.206   1.663
 7382SOL     OW23044   6.298   1.400   6.101
 7382SOL    HW123045   6.389   1.432   6.128
 7382SOL    HW223046   6.283   1.420   6.004
 7383SOL     OW23047   2.309   0.299   0.879
 7383SOL    HW123048   2.259   0.354   0.813
 7383SOL    HW223049   2.246   0.261   0.947
 7384SOL     OW23050   6.527   6.744   0.928
 7384SOL    HW123051   6.561   6.815   0.991
 7384SOL    HW223052   6.449   6.698   0.970
 7385SOL     OW23053   6.407   4.133   2.717
 7385SOL    HW123054   6.426   4.230   2.735
 7385SOL    HW223055   6.398   4.118   2.619
 7386SOL     OW23056   5.043   3.630   0.141
 7386SOL    HW123057   4.954   3.646   0.184
 7386SOL    HW223058   5.115   3.661   0.203
 7387SOL     OW23059   6.526   5.612   4.450
 7387SOL    HW123060   6.529   5.517   4.480
 7387SOL    HW223061   6.479   5.618   4.362
 7388SOL     OW23062   2.414   4.462   2.824
 7388SOL    HW123063   2.352   4.539   2.812
 7388SOL    HW223064   2.507   4.490   2.801
 7389SOL     OW23065   6.495   3.125   0.621
 7389SOL    HW123066   6.542   3.191   0.678
 7389SOL    HW223067   6.403   3.159   0.599
 7390SOL     OW23068   2.294   2.737   3.939
 7390SOL    HW123069   2.269   2.713   4.032
 7390SOL    HW223070   2.384   2.697   3.917
 7391SOL     OW23071   3.524   3.993   3.167
 7391SOL    HW123072   3.520   3.946   3.079
 7391SOL    HW223073   3.617   4.025   3.184
 7392SOL     OW23074   2.927   6.829   6.649
 7392SOL    HW123075   2.967   6.751   6.696
 7392SOL    HW223076   2.957   6.830   6.553
 7393SOL     OW23077   5.234   5.045   4.094
 7393SOL    HW123078   5.299   5.097   4.039
 7393SOL    HW223079   5.223   4.953   4.055
 7394SOL     OW23080   2.294   1.922   5.550
 7394SOL    HW123081   2.336   1.858   5.484
 7394SOL    HW223082   2.203   1.890   5.573
 7395SOL     OW23083   2.592   6.201   0.929
 7395SOL    HW123084   2.570   6.135   0.857
 7395SOL    HW223085   2.588   6.156   1.018
 7396SOL     OW23086   1.973   5.130   2.312
 7396SOL    HW123087   1.927   5.123   2.400
 7396SOL    HW223088   2.050   5.066   2.310
 7397SOL     OW23089   5.988   4.460   3.890
 7397SOL    HW123090   5.967   4.557   3.902
 7397SOL    HW223091   5.987   4.437   3.792
 7398SOL     OW23092   3.186   4.938   2.497
 7398SOL    HW123093   3.193   5.030   2.534
 7398SOL    HW223094   3.122   4.884   2.553
 7399SOL     OW23095   5.194   1.695   5.643
 7399SOL    HW123096   5.258   1.618   5.644
 7399SOL    HW223097   5.222   1.761   5.573
 7400SOL     OW23098   5.178   3.277   5.929
 7400SOL    HW123099   5.256   3.315   5.880
 7400SOL    HW223100   5.158   3.185   5.894
 7401SOL     OW23101   1.458   2.570   4.511
 7401SOL    HW123102   1.408   2.496   4.557
 7401SOL    HW223103   1.411   2.594   4.426
 7402SOL     OW23104   3.844   5.671   4.310
 7402SOL    HW123105   3.868   5.697   4.217
 7402SOL    HW223106   3.786   5.589   4.308
 7403SOL     OW23107   1.673   4.373   4.403
 7403SOL    HW123108   1.730   4.311   4.349
 7403SOL    HW223109   1.723   4.458   4.420
 7404SOL     OW23110   3.255   3.740   0.827
 7404SOL    HW123111   3.354   3.725   0.824
 7404SOL    HW223112   3.213   3.676   0.891
 7405SOL     OW23113   4.217   6.615   4.939
 7405SOL    HW123114   4.169   6.532   4.967
 7405SOL    HW223115   4.151   6.681   4.901
 7406SOL     OW23116   1.064   1.974   4.539
 7406SOL    HW123117   1.088   2.035   4.615
 7406SOL    HW223118   1.011   2.025   4.472
 7407SOL     OW23119   0.797   5.940   5.169
 7407SOL    HW123120   0.877   5.983   5.211
 7407SOL    HW223121   0.802   5.950   5.070
 7408SOL     OW23122   4.335   5.109   5.266
 7408SOL    HW123123   4.276   5.183   5.296
 7408SOL    HW223124   4.303   5.074   5.178
 7409SOL     OW23125   0.050   3.716   1.276
 7409SOL    HW123126   0.135   3.764   1.295
 7409SOL    HW223127   0.042   3.637   1.337
 7410SOL     OW23128   6.796   0.708   0.602
 7410SOL    HW123129   6.704   0.742   0.624
 7410SOL    HW223130   6.800   0.680   0.507
 7411SOL     OW23131   2.910   1.529   5.322
 7411SOL    HW123132   2.906   1.498   5.417
 7411SOL    HW223133   2.880   1.624   5.317
 7412SOL     OW23134   3.723   0.213   0.117
 7412SOL    HW123135   3.676   0.265   0.188
 7412SOL    HW223136   3.664   0.202   0.038
 7413SOL     OW23137   4.726   0.760   2.994
 7413SOL    HW123138   4.669   0.717   2.923
 7413SOL    HW223139   4.753   0.851   2.963
 7414SOL     OW23140   2.701   1.109   3.420
 7414SOL    HW123141   2.762   1.164   3.477
 7414SOL    HW223142   2.677   1.161   3.338
 7415SOL     OW23143   4.143   6.720   6.537
 7415SOL    HW123144   4.207   6.665   6.590
 7415SOL    HW223145   4.185   6.809   6.517
 7416SOL     OW23146   1.826   0.886   1.970
 7416SOL    HW123147   1.799   0.980   1.950
 7416SOL    HW223148   1.747   0.835   2.004
 7417SOL     OW23149   0.766   0.638   2.383
 7417SOL    HW123150   0.862   0.620   2.407
 7417SOL    HW223151   0.760   0.725   2.334
 7418SOL     OW23152   1.270   3.990   6.087
 7418SOL    HW123153   1.207   3.918   6.115
 7418SOL    HW223154   1.363   3.963   6.110
 7419SOL     OW23155   6.872   3.724   4.198
 7419SOL    HW123156   6.887   3.647   4.260
 7419SOL    HW223157   6.776   3.726   4.171
 7420SOL     OW23158   6.983   6.531   0.965
 7420SOL    HW123159   7.010   6.596   1.036
 7420SOL    HW223160   0.034   6.457   0.961
 7421SOL     OW23161   5.903   3.823   1.181
 7421SOL    HW123162   5.925   3.729   1.206
 7421SOL    HW223163   5.937   3.885   1.253
 7422SOL     OW23164   5.678   2.742   2.074
 7422SOL    HW123165   5.673   2.687   2.158
 7422SOL    HW223166   5.705   2.684   1.998
 7423SOL     OW23167   4.813   2.400   5.867
 7423SOL    HW123168   4.865   2.342   5.931
 7423SOL    HW223169   4.875   2.436   5.797
 7424SOL     OW23170   0.101   2.472   3.228
 7424SOL    HW123171   0.120   2.488   3.131
 7424SOL    HW223172   0.172   2.513   3.284
 7425SOL     OW23173   5.814   0.933   0.672
 7425SOL    HW123174   5.748   0.865   0.704
 7425SOL    HW223175   5.880   0.889   0.611
 7426SOL     OW23176   3.278   2.861   5.542
 7426SOL    HW123177   3.333   2.796   5.491
 7426SOL    HW223178   3.333   2.902   5.615
 7427SOL     OW23179   3.134   0.933   3.520
 7427SOL    HW123180   3.217   0.878   3.520
 7427SOL    HW223181   3.054   0.873   3.530
 7428SOL     OW23182   3.753   6.164   4.725
 7428SOL    HW123183   3.824   6.209   4.669
 7428SOL    HW223184   3.786   6.074   4.753
 7429SOL     OW23185   0.811   0.091   1.847
 7429SOL    HW123186   0.868   0.068   1.926
 7429SOL    HW223187   0.741   0.021   1.835
 7430SOL     OW23188   6.402   4.611   3.025
 7430SOL    HW123189   6.314   4.578   2.989
 7430SOL    HW223190   6.384   4.682   3.094
 7431SOL     OW23191   0.804   1.488   3.454
 7431SOL    HW123192   0.903   1.489   3.470
 7431SOL    HW223193   0.782   1.421   3.384
 7432SOL     OW23194   2.037   0.990   3.077
 7432SOL    HW123195   2.134   0.998   3.098
 7432SOL    HW223196   2.017   0.896   3.048
 7433SOL     OW23197   2.820   6.487   6.543
 7433SOL    HW123198   2.752   6.504   6.614
 7433SOL    HW223199   2.790   6.528   6.457
 7434SOL     OW23200   4.343   6.845   3.931
 7434SOL    HW123201   4.439   6.852   3.958
 7434SOL    HW223202   4.289   6.910   3.984
 7435SOL     OW23203   4.642   4.220   3.104
 7435SOL    HW123204   4.695   4.137   3.088
 7435SOL    HW223205   4.595   4.246   3.020
 7436SOL     OW23206   5.526   2.637   5.765
 7436SOL    HW123207   5.467   2.592   5.697
 7436SOL    HW223208   5.481   2.720   5.797
 7437SOL     OW23209   3.531   0.127   0.846
 7437SOL    HW123210   3.511   0.073   0.928
 7437SOL    HW223211   3.448   0.136   0.791
 7438SOL     OW23212   1.918   0.026   0.011
 7438SOL    HW123213   1.852   0.099   0.029
 7438SOL    HW223214   2.003   0.045   0.061
 7439SOL     OW23215   0.873   4.818   6.183
 7439SOL    HW123216   0.938   4.865   6.125
 7439SOL    HW223217   0.866   4.865   6.271
 7440SOL     OW23218   5.597   4.041   4.093
 7440SOL    HW123219   5.509   4.086   4.107
 7440SOL    HW223220   5.671   4.103   4.120
 7441SOL     OW23221   5.110   6.037   0.621
 7441SOL    HW123222   5.017   6.014   0.591
 7441SOL    HW223223   5.159   6.082   0.547
 7442SOL     OW23224   5.482   0.557   6.272
 7442SOL    HW123225   5.402   0.586   6.220
 7442SOL    HW223226   5.486   0.457   6.275
 7443SOL     OW23227   0.237   0.691   1.217
 7443SOL    HW123228   0.293   0.655   1.143
 7443SOL    HW223229   0.231   0.791   1.208
 7444SOL     OW23230   1.405   6.785   0.256
 7444SOL    HW123231   1.406   6.702   0.201
 7444SOL    HW223232   1.375   6.862   0.199
 7445SOL     OW23233   4.040   5.823   2.069
 7445SOL    HW123234   3.991   5.739   2.048
 7445SOL    HW223235   3.982   5.902   2.047
 7446SOL     OW23236   5.659   4.570   6.855
 7446SOL    HW123237   5.602   4.592   6.934
 7446SOL    HW223238   5.701   4.480   6.868
 7447SOL     OW23239   0.246   4.719   0.401
 7447SOL    HW123240   0.280   4.655   0.332
 7447SOL    HW223241   0.308   4.796   0.408
 7448SOL     OW23242   4.716   5.735   6.894
 7448SOL    HW123243   4.688   5.830   6.886
 7448SOL    HW223244   4.774   5.723   6.974
 7449SOL     OW23245   6.582   4.623   5.809
 7449SOL    HW123246   6.679   4.646   5.804
 7449SOL    HW223247   6.533   4.695   5.859
 7450SOL     OW23248   5.335   2.410   6.127
 7450SOL    HW123249   5.408   2.420   6.194
 7450SOL    HW223250   5.351   2.328   6.072
 7451SOL     OW23251   4.527   4.459   3.335
 7451SOL    HW123252   4.561   4.369   3.361
 7451SOL    HW223253   4.438   4.449   3.289
 7452SOL     OW23254   6.321   5.466   5.649
 7452SOL    HW123255   6.397   5.479   5.584
 7452SOL    HW223256   6.251   5.536   5.632
 7453SOL     OW23257   3.812   5.894   6.128
 7453SOL    HW123258   3.878   5.853   6.190
 7453SOL    HW223259   3.857   5.915   6.041
 7454SOL     OW23260   4.109   2.602   1.173
 7454SOL    HW123261   4.038   2.535   1.198
 7454SOL    HW223262   4.198   2.570   1.206
 7455SOL     OW23263   6.468   1.556   3.368
 7455SOL    HW123264   6.515   1.591   3.287
 7455SOL    HW223265   6.493   1.611   3.447
 7456SOL     OW23266   3.033   2.000   5.812
 7456SOL    HW123267   2.982   1.990   5.897
 7456SOL    HW223268   3.130   1.985   5.829
 7457SOL     OW23269   1.109   1.347   2.406
 7457SOL    HW123270   1.091   1.445   2.415
 7457SOL    HW223271   1.178   1.332   2.335
 7458SOL     OW23272   1.569   5.450   5.465
 7458SOL    HW123273   1.644   5.506   5.431
 7458SOL    HW223274   1.565   5.456   5.565
 7459SOL     OW23275   6.007   0.318   2.988
 7459SOL    HW123276   6.044   0.333   2.897
 7459SOL    HW223277   6.005   0.220   3.007
 7460SOL     OW23278   1.353   0.233   1.508
 7460SOL    HW123279   1.390   0.295   1.438
 7460SOL    HW223280   1.255   0.221   1.493
 7461SOL     OW23281   2.519   4.629   5.332
 7461SOL    HW123282   2.500   4.614   5.235
 7461SOL    HW223283   2.452   4.692   5.370
 7462SOL     OW23284   1.461   3.852   1.024
 7462SOL    HW123285   1.418   3.785   1.085
 7462SOL    HW223286   1.488   3.932   1.076
 7463SOL     OW23287   3.867   5.054   0.696
 7463SOL    HW123288   3.802   4.999   0.750
 7463SOL    HW223289   3.954   5.061   0.746
 7464SOL     OW23290   6.267   6.224   5.125
 7464SOL    HW123291   6.285   6.133   5.090
 7464SOL    HW223292   6.352   6.276   5.130
 7465SOL     OW23293   1.671   4.914   0.198
 7465SOL    HW123294   1.711   4.827   0.168
 7465SOL    HW223295   1.593   4.937   0.140
 7466SOL     OW23296   0.520   0.188   5.354
 7466SOL    HW123297   0.533   0.220   5.260
 7466SOL    HW223298   0.424   0.197   5.379
 7467SOL     OW23299   0.923   3.677   4.736
 7467SOL    HW123300   0.944   3.619   4.658
 7467SOL    HW223301   0.967   3.766   4.725
 7468SOL     OW23302   5.347   3.034   6.154
 7468SOL    HW123303   5.400   3.032   6.238
 7468SOL    HW223304   5.249   3.038   6.176
 7469SOL     OW23305   0.614   2.128   0.313
 7469SOL    HW123306   0.597   2.165   0.405
 7469SOL    HW223307   0.703   2.159   0.281
 7470SOL     OW23308   5.773   2.580   3.033
 7470SOL    HW123309   5.745   2.487   3.056
 7470SOL    HW223310   5.797   2.629   3.117
 7471SOL     OW23311   3.691   0.118   6.506
 7471SOL    HW123312   3.645   0.044   6.458
 7471SOL    HW223313   3.786   0.092   6.524
 7472SOL     OW23314   6.372   0.029   5.938
 7472SOL    HW123315   6.369   6.955   5.895
 7472SOL    HW223316   6.280   0.067   5.944
 7473SOL     OW23317   3.626   5.836   3.637
 7473SOL    HW123318   3.567   5.860   3.560
 7473SOL    HW223319   3.721   5.833   3.607
 7474SOL     OW23320   6.047   1.947   0.451
 7474SOL    HW123321   6.061   1.894   0.367
 7474SOL    HW223322   6.128   2.002   0.469
 7475SOL     OW23323   5.002   2.359   0.761
 7475SOL    HW123324   4.928   2.388   0.822
 7475SOL    HW223325   4.965   2.299   0.690
 7476SOL     OW23326   2.347   0.796   3.093
 7476SOL    HW123327   2.274   0.800   3.161
 7476SOL    HW223328   2.309   0.817   3.003
 7477SOL     OW23329   1.729   3.008   5.728
 7477SOL    HW123330   1.708   2.910   5.723
 7477SOL    HW223331   1.738   3.045   5.635
 7478SOL     OW23332   0.374   1.115   5.859
 7478SOL    HW123333   0.285   1.106   5.814
 7478SOL    HW223334   0.447   1.111   5.791
 7479SOL     OW23335   4.944   2.783   1.521
 7479SOL    HW123336   4.976   2.718   1.590
 7479SOL    HW223337   4.852   2.814   1.546
 7480SOL     OW23338   3.966   5.443   2.120
 7480SOL    HW123339   4.035   5.404   2.059
 7480SOL    HW223340   4.010   5.487   2.198
 7481SOL     OW23341   6.817   3.902   6.684
 7481SOL    HW123342   6.830   3.915   6.585
 7481SOL    HW223343   6.905   3.908   6.730
 7482SOL     OW23344   5.471   2.083   3.713
 7482SOL    HW123345   5.552   2.095   3.770
 7482SOL    HW223346   5.399   2.146   3.744
 7483SOL     OW23347   4.099   1.755   6.109
 7483SOL    HW123348   4.103   1.853   6.093
 7483SOL    HW223349   4.191   1.721   6.129
 7484SOL     OW23350   3.125   0.552   3.504
 7484SOL    HW123351   3.098   0.631   3.449
 7484SOL    HW223352   3.210   0.513   3.467
 7485SOL     OW23353   3.573   6.927   6.376
 7485SOL    HW123354   3.566   6.846   6.434
 7485SOL    HW223355   3.602   6.900   6.284
 7486SOL     OW23356   3.257   6.925   0.756
 7486SOL    HW123357   3.254   6.995   0.685
 7486SOL    HW223358   3.246   6.968   0.846
 7487SOL     OW23359   3.366   6.329   4.717
 7487SOL    HW123360   3.426   6.284   4.651
 7487SOL    HW223361   3.281   6.277   4.725
 7488SOL     OW23362   1.084   5.949   3.918
 7488SOL    HW123363   0.999   6.003   3.923
 7488SOL    HW223364   1.068   5.858   3.957
 7489SOL     OW23365   5.447   3.103   6.995
 7489SOL    HW123366   5.447   3.049   0.064
 7489SOL    HW223367   5.537   3.145   6.983
 7490SOL     OW23368   1.401   3.145   2.058
 7490SOL    HW123369   1.487   3.177   2.098
 7490SOL    HW223370   1.421   3.072   1.991
 7491SOL     OW23371   4.206   4.232   6.786
 7491SOL    HW123372   4.245   4.149   6.827
 7491SOL    HW223373   4.268   4.267   6.716
 7492SOL     OW23374   1.491   0.317   3.978
 7492SOL    HW123375   1.537   0.252   4.038
 7492SOL    HW223376   1.401   0.282   3.954
 7493SOL     OW23377   6.345   4.602   5.214
 7493SOL    HW123378   6.355   4.549   5.298
 7493SOL    HW223379   6.253   4.588   5.177
 7494SOL     OW23380   6.350   1.157   2.250
 7494SOL    HW123381   6.438   1.171   2.203
 7494SOL    HW223382   6.355   1.076   2.307
 7495SOL     OW23383   1.330   3.116   4.873
 7495SOL    HW123384   1.420   3.155   4.892
 7495SOL    HW223385   1.338   3.053   4.795
 7496SOL     OW23386   5.852   4.153   2.860
 7496SOL    HW123387   5.793   4.100   2.800
 7496SOL    HW223388   5.796   4.213   2.918
 7497SOL     OW23389   6.301   6.406   1.385
 7497SOL    HW123390   6.275   6.372   1.295
 7497SOL    HW223391   6.218   6.417   1.441
 7498SOL     OW23392   3.121   6.603   3.377
 7498SOL    HW123393   3.114   6.688   3.325
 7498SOL    HW223394   3.036   6.552   3.368
 7499SOL     OW23395   2.941   1.525   3.507
 7499SOL    HW123396   3.022   1.542   3.451
 7499SOL    HW223397   2.935   1.593   3.580
 7500SOL     OW23398   4.069   1.174   3.320
 7500SOL    HW123399   4.148   1.199   3.376
 7500SOL    HW223400   3.999   1.130   3.377
 7501SOL     OW23401   6.608   2.164   5.128
 7501SOL    HW123402   6.579   2.091   5.066
 7501SOL    HW223403   6.671   2.225   5.081
 7502SOL     OW23404   4.033   0.564   3.906
 7502SOL    HW123405   4.046   0.631   3.979
 7502SOL    HW223406   4.044   0.608   3.817
 7503SOL     OW23407   2.126   5.961   1.872
 7503SOL    HW123408   2.181   5.878   1.867
 7503SOL    HW223409   2.031   5.937   1.894
 7504SOL     OW23410   6.065   6.553   4.311
 7504SOL    HW123411   6.096   6.459   4.325
 7504SOL    HW223412   5.999   6.577   4.382
 7505SOL     OW23413   0.233   6.267   4.956
 7505SOL    HW123414   0.262   6.194   5.019
 7505SOL    HW223415   0.139   6.249   4.926
 7506SOL     OW23416   3.036   2.209   3.327
 7506SOL    HW123417   2.994   2.159   3.402
 7506SOL    HW223418   2.966   2.254   3.272
 7507SOL     OW23419   6.207   4.351   6.412
 7507SOL    HW123420   6.193   4.287   6.337
 7507SOL    HW223421   6.200   4.445   6.379
 7508SOL     OW23422   3.070   5.764   0.676
 7508SOL    HW123423   3.154   5.809   0.645
 7508SOL    HW223424   3.004   5.759   0.601
 7509SOL     OW23425   6.026   4.574   2.247
 7509SOL    HW123426   6.114   4.603   2.209
 7509SOL    HW223427   6.021   4.474   2.247
 7510SOL     OW23428   3.449   4.006   2.489
 7510SOL    HW123429   3.502   4.042   2.566
 7510SOL    HW223430   3.509   3.956   2.427
 7511SOL     OW23431   4.545   5.830   4.357
 7511SOL    HW123432   4.629   5.777   4.371
 7511SOL    HW223433   4.566   5.928   4.362
 7512SOL     OW23434   3.842   1.282   1.218
 7512SOL    HW123435   3.792   1.203   1.182
 7512SOL    HW223436   3.935   1.256   1.241
 7513SOL     OW23437   1.483   1.858   2.272
 7513SOL    HW123438   1.418   1.783   2.282
 7513SOL    HW223439   1.448   1.939   2.319
 7514SOL     OW23440   0.650   6.471   1.808
 7514SOL    HW123441   0.638   6.430   1.718
 7514SOL    HW223442   0.732   6.528   1.809
 7515SOL     OW23443   0.362   4.286   5.547
 7515SOL    HW123444   0.352   4.362   5.482
 7515SOL    HW223445   0.285   4.224   5.538
 7516SOL     OW23446   1.817   6.374   5.469
 7516SOL    HW123447   1.834   6.469   5.444
 7516SOL    HW223448   1.793   6.322   5.387
 7517SOL     OW23449   0.905   1.317   5.736
 7517SOL    HW123450   0.973   1.262   5.785
 7517SOL    HW223451   0.895   1.406   5.781
 7518SOL     OW23452   4.759   1.837   4.011
 7518SOL    HW123453   4.765   1.781   4.094
 7518SOL    HW223454   4.850   1.873   3.989
 7519SOL     OW23455   4.145   6.672   4.076
 7519SOL    HW123456   4.170   6.656   4.172
 7519SOL    HW223457   4.214   6.731   4.034
 7520SOL     OW23458   1.560   1.552   0.719
 7520SOL    HW123459   1.460   1.545   0.718
 7520SOL    HW223460   1.587   1.647   0.732
 7521SOL     OW23461   3.778   1.523   4.408
 7521SOL    HW123462   3.851   1.587   4.382
 7521SOL    HW223463   3.818   1.446   4.458
 7522SOL     OW23464   2.446   6.970   3.875
 7522SOL    HW123465   2.389   6.904   3.923
 7522SOL    HW223466   2.412   6.982   3.782
 7523SOL     OW23467   5.956   0.691   0.959
 7523SOL    HW123468   5.857   0.698   0.968
 7523SOL    HW223469   5.999   0.767   1.008
 7524SOL     OW23470   0.653   3.996   4.165
 7524SOL    HW123471   0.687   4.022   4.256
 7524SOL    HW223472   0.641   4.078   4.109
 7525SOL     OW23473   3.648   4.913   5.986
 7525SOL    HW123474   3.555   4.922   6.020
 7525SOL    HW223475   3.662   4.977   5.910
 7526SOL     OW23476   2.874   3.963   1.154
 7526SOL    HW123477   2.865   3.901   1.076
 7526SOL    HW223478   2.797   4.027   1.154
 7527SOL     OW23479   3.731   5.187   3.304
 7527SOL    HW123480   3.823   5.150   3.313
 7527SOL    HW223481   3.666   5.111   3.297
 7528SOL     OW23482   6.572   2.349   6.034
 7528SOL    HW123483   6.543   2.393   6.119
 7528SOL    HW223484   6.509   2.373   5.960
 7529SOL     OW23485   6.409   3.656   3.954
 7529SOL    HW123486   6.500   3.657   3.994
 7529SOL    HW223487   6.371   3.564   3.961
 7530SOL     OW23488   1.058   2.763   2.538
 7530SOL    HW123489   1.010   2.702   2.600
 7530SOL    HW223490   1.138   2.801   2.584
 7531SOL     OW23491   3.833   2.030   4.391
 7531SOL    HW123492   3.744   2.072   4.372
 7531SOL    HW223493   3.903   2.071   4.333
 7532SOL     OW23494   4.798   5.520   6.361
 7532SOL    HW123495   4.830   5.426   6.372
 7532SOL    HW223496   4.709   5.530   6.407
 7533SOL     OW23497   4.301   4.371   1.646
 7533SOL    HW123498   4.332   4.342   1.555
 7533SOL    HW223499   4.361   4.334   1.716
 7534SOL     OW23500   4.653   6.169   5.142
 7534SOL    HW123501   4.674   6.265   5.123
 7534SOL    HW223502   4.735   6.114   5.127
 7535SOL     OW23503   0.628   6.353   3.465
 7535SOL    HW123504   0.691   6.348   3.543
 7535SOL    HW223505   0.573   6.436   3.473
 7536SOL     OW23506   6.190   6.233   4.068
 7536SOL    HW123507   6.269   6.175   4.047
 7536SOL    HW223508   6.172   6.230   4.166
 7537SOL     OW23509   2.073   6.312   2.851
 7537SOL    HW123510   2.074   6.247   2.927
 7537SOL    HW223511   2.125   6.275   2.775
 7538SOL     OW23512   0.852   3.848   0.596
 7538SOL    HW123513   0.924   3.782   0.613
 7538SOL    HW223514   0.891   3.940   0.595
 7539SOL     OW23515   7.000   0.181   4.616
 7539SOL    HW123516   0.066   0.128   4.594
 7539SOL    HW223517   6.919   0.128   4.591
 7540SOL     OW23518   5.692   4.834   3.331
 7540SOL    HW123519   5.778   4.879   3.303
 7540SOL    HW223520   5.671   4.760   3.267
 7541SOL     OW23521   2.625   3.968   5.597
 7541SOL    HW123522   2.688   4.044   5.613
 7541SOL    HW223523   2.549   3.974   5.662
 7542SOL     OW23524   6.378   5.837   4.478
 7542SOL    HW123525   6.433   5.755   4.497
 7542SOL    HW223526   6.414   5.884   4.398
 7543SOL     OW23527   2.739   1.206   0.249
 7543SOL    HW123528   2.805   1.255   0.307
 7543SOL    HW223529   2.739   1.247   0.158
 7544SOL     OW23530   6.584   1.528   4.536
 7544SOL    HW123531   6.539   1.586   4.604
 7544SOL    HW223532   6.543   1.544   4.446
 7545SOL     OW23533   1.957   5.507   5.696
 7545SOL    HW123534   1.952   5.432   5.631
 7545SOL    HW223535   1.960   5.471   5.789
 7546SOL     OW23536   2.250   2.575   2.263
 7546SOL    HW123537   2.326   2.545   2.206
 7546SOL    HW223538   2.274   2.564   2.360
 7547SOL     OW23539   3.863   0.077   2.002
 7547SOL    HW123540   3.877   0.157   1.944
 7547SOL    HW223541   3.770   0.077   2.037
 7548SOL     OW23542   3.255   2.778   6.291
 7548SOL    HW123543   3.244   2.831   6.206
 7548SOL    HW223544   3.333   2.716   6.281
 7549SOL     OW23545   5.194   0.868   5.334
 7549SOL    HW123546   5.150   0.955   5.354
 7549SOL    HW223547   5.286   0.867   5.375
 7550SOL     OW23548   2.299   5.643   4.598
 7550SOL    HW123549   2.292   5.557   4.548
 7550SOL    HW223550   2.366   5.632   4.672
 7551SOL     OW23551   6.214   2.172   6.260
 7551SOL    HW123552   6.305   2.160   6.220
 7551SOL    HW223553   6.220   2.233   6.339
 7552SOL     OW23554   2.560   6.855   4.809
 7552SOL    HW123555   2.486   6.792   4.785
 7552SOL    HW223556   2.648   6.808   4.799
 7553SOL     OW23557   6.017   6.794   5.944
 7553SOL    HW123558   6.074   6.803   6.027
 7553SOL    HW223559   6.007   6.884   5.902
 7554SOL     OW23560   4.325   1.380   0.574
 7554SOL    HW123561   4.335   1.281   0.566
 7554SOL    HW223562   4.344   1.408   0.668
 7555SOL     OW23563   4.584   4.930   4.323
 7555SOL    HW123564   4.508   4.933   4.258
 7555SOL    HW223565   4.548   4.918   4.415
 7556SOL     OW23566   0.906   6.554   1.707
 7556SOL    HW123567   0.965   6.613   1.762
 7556SOL    HW223568   0.920   6.574   1.610
 7557SOL     OW23569   4.617   6.908   1.619
 7557SOL    HW123570   4.709   6.931   1.652
 7557SOL    HW223571   4.586   6.823   1.662
 7558SOL     OW23572   0.304   1.686   3.608
 7558SOL    HW123573   0.258   1.666   3.521
 7558SOL    HW223574   0.399   1.711   3.590
 7559SOL     OW23575   2.787   1.795   5.017
 7559SOL    HW123576   2.797   1.834   5.109
 7559SOL    HW223577   2.691   1.774   5.000
 7560SOL     OW23578   1.496   1.283   5.768
 7560SOL    HW123579   1.431   1.243   5.833
 7560SOL    HW223580   1.488   1.383   5.770
 7561SOL     OW23581   5.826   1.580   5.572
 7561SOL    HW123582   5.836   1.527   5.489
 7561SOL    HW223583   5.916   1.606   5.606
 7562SOL     OW23584   2.104   5.337   2.941
 7562SOL    HW123585   2.094   5.309   3.036
 7562SOL    HW223586   2.050   5.420   2.925
 7563SOL     OW23587   3.705   5.946   2.674
 7563SOL    HW123588   3.766   5.924   2.598
 7563SOL    HW223589   3.611   5.921   2.650
 7564SOL     OW23590   3.687   1.703   5.411
 7564SOL    HW123591   3.692   1.660   5.321
 7564SOL    HW223592   3.617   1.656   5.466
 7565SOL     OW23593   6.462   3.638   5.587
 7565SOL    HW123594   6.459   3.669   5.682
 7565SOL    HW223595   6.406   3.698   5.530
 7566SOL     OW23596   4.787   4.784   1.754
 7566SOL    HW123597   4.702   4.743   1.720
 7566SOL    HW223598   4.828   4.725   1.823
 7567SOL     OW23599   1.255   6.599   4.060
 7567SOL    HW123600   1.159   6.578   4.045
 7567SOL    HW223601   1.264   6.675   4.124
 7568SOL     OW23602   5.931   4.749   1.515
 7568SOL    HW123603   5.986   4.822   1.475
 7568SOL    HW223604   5.944   4.665   1.464
 7569SOL     OW23605   4.678   3.496   0.574
 7569SOL    HW123606   4.764   3.497   0.522
 7569SOL    HW223607   4.695   3.531   0.666
 7570SOL     OW23608   0.712   3.315   2.184
 7570SOL    HW123609   0.752   3.223   2.178
 7570SOL    HW223610   0.706   3.354   2.093
 7571SOL     OW23611   4.257   2.022   2.911
 7571SOL    HW123612   4.307   1.989   2.990
 7571SOL    HW223613   4.199   2.099   2.938
 7572SOL     OW23614   4.615   6.917   3.744
 7572SOL    HW123615   4.568   6.859   3.676
 7572SOL    HW223616   4.664   6.990   3.697
 7573SOL     OW23617   3.970   6.845   6.199
 7573SOL    HW123618   4.068   6.836   6.220
 7573SOL    HW223619   3.940   6.938   6.218
 7574SOL     OW23620   0.454   2.332   3.843
 7574SOL    HW123621   0.374   2.311   3.898
 7574SOL    HW223622   0.516   2.391   3.896
 7575SOL     OW23623   0.204   6.491   2.801
 7575SOL    HW123624   0.142   6.421   2.835
 7575SOL    HW223625   0.299   6.464   2.819
 7576SOL     OW23626   4.814   2.524   6.931
 7576SOL    HW123627   4.787   2.452   6.868
 7576SOL    HW223628   4.880   2.585   6.887
 7577SOL     OW23629   0.754   0.637   0.175
 7577SOL    HW123630   0.809   0.667   0.252
 7577SOL    HW223631   0.687   0.569   0.206
 7578SOL     OW23632   6.293   5.976   3.677
 7578SOL    HW123633   6.208   6.029   3.679
 7578SOL    HW223634   6.350   6.008   3.602
 7579SOL     OW23635   1.163   1.935   6.880
 7579SOL    HW123636   1.088   1.868   6.885
 7579SOL    HW223637   1.140   2.005   6.813
 7580SOL     OW23638   2.351   5.165   3.427
 7580SOL    HW123639   2.315   5.181   3.518
 7580SOL    HW223640   2.449   5.143   3.433
 7581SOL     OW23641   0.098   0.628   2.118
 7581SOL    HW123642   0.042   0.612   2.200
 7581SOL    HW223643   0.188   0.588   2.131
 7582SOL     OW23644   2.540   1.877   6.315
 7582SOL    HW123645   2.538   1.970   6.280
 7582SOL    HW223646   2.457   1.829   6.287
 7583SOL     OW23647   5.470   3.485   2.874
 7583SOL    HW123648   5.417   3.485   2.959
 7583SOL    HW223649   5.415   3.447   2.800
 7584SOL     OW23650   0.670   1.271   3.292
 7584SOL    HW123651   0.691   1.180   3.255
 7584SOL    HW223652   0.611   1.262   3.372
 7585SOL     OW23653   1.056   1.349   6.057
 7585SOL    HW123654   1.080   1.253   6.049
 7585SOL    HW223655   1.097   1.400   5.980
 7586SOL     OW23656   1.786   6.688   3.330
 7586SOL    HW123657   1.868   6.633   3.345
 7586SOL    HW223658   1.762   6.736   3.415
 7587SOL     OW23659   4.295   0.084   1.274
 7587SOL    HW123660   4.232   0.044   1.207
 7587SOL    HW223661   4.260   0.174   1.303
 7588SOL     OW23662   2.441   2.598   4.799
 7588SOL    HW123663   2.400   2.552   4.878
 7588SOL    HW223664   2.471   2.529   4.732
 7589SOL     OW23665   6.888   0.339   2.528
 7589SOL    HW123666   6.793   0.309   2.518
 7589SOL    HW223667   6.922   0.311   2.618
 7590SOL     OW23668   6.383   1.043   0.085
 7590SOL    HW123669   6.330   1.115   0.040
 7590SOL    HW223670   6.406   1.073   0.178
 7591SOL     OW23671   3.228   3.174   4.810
 7591SOL    HW123672   3.153   3.240   4.822
 7591SOL    HW223673   3.309   3.221   4.775
 7592SOL     OW23674   6.959   6.549   3.884
 7592SOL    HW123675   0.025   6.607   3.882
 7592SOL    HW223676   6.954   6.496   3.799
 7593SOL     OW23677   0.245   0.690   5.419
 7593SOL    HW123678   0.254   0.786   5.446
 7593SOL    HW223679   0.311   0.670   5.347
 7594SOL     OW23680   6.874   3.902   6.416
 7594SOL    HW123681   6.961   3.945   6.391
 7594SOL    HW223682   6.876   3.806   6.390
 7595SOL     OW23683   1.174   3.360   0.065
 7595SOL    HW123684   1.271   3.371   0.044
 7595SOL    HW223685   1.133   3.295   0.000
 7596SOL     OW23686   3.272   1.524   6.684
 7596SOL    HW123687   3.195   1.494   6.741
 7596SOL    HW223688   3.353   1.468   6.705
 7597SOL     OW23689   1.807   4.888   1.489
 7597SOL    HW123690   1.791   4.896   1.390
 7597SOL    HW223691   1.723   4.858   1.534
 7598SOL     OW23692   6.256   0.445   2.193
 7598SOL    HW123693   6.208   0.514   2.248
 7598SOL    HW223694   6.190   0.379   2.158
 7599SOL     OW23695   3.374   4.164   1.136
 7599SOL    HW123696   3.280   4.197   1.133
 7599SOL    HW223697   3.374   4.068   1.165
 7600SOL     OW23698   1.079   6.736   3.911
 7600SOL    HW123699   1.179   6.726   3.905
 7600SOL    HW223700   1.039   6.650   3.941
 7601SOL     OW23701   2.915   0.027   2.385
 7601SOL    HW123702   2.877   0.116   2.411
 7601SOL    HW223703   2.846   6.972   2.401
 7602SOL     OW23704   0.364   1.536   1.269
 7602SOL    HW123705   0.421   1.474   1.215
 7602SOL    HW223706   0.370   1.629   1.232
 7603SOL     OW23707   3.867   1.003   6.002
 7603SOL    HW123708   3.939   0.964   6.058
 7603SOL    HW223709   3.904   1.028   5.912
 7604SOL     OW23710   1.447   2.522   4.928
 7604SOL    HW123711   1.366   2.534   4.870
 7604SOL    HW223712   1.419   2.505   5.022
 7605SOL     OW23713   2.129   6.284   0.039
 7605SOL    HW123714   2.073   6.348   7.002
 7605SOL    HW223715   2.076   6.201   0.059
 7606SOL     OW23716   6.854   0.938   3.232
 7606SOL    HW123717   6.831   0.951   3.329
 7606SOL    HW223718   6.897   1.022   3.197
 7607SOL     OW23719   1.762   5.990   5.343
 7607SOL    HW123720   1.769   6.032   5.252
 7607SOL    HW223721   1.683   5.928   5.345
 7608SOL     OW23722   6.909   2.064   6.554
 7608SOL    HW123723   6.881   2.145   6.502
 7608SOL    HW223724   6.896   2.080   6.651
 7609SOL     OW23725   3.203   1.489   4.695
 7609SOL    HW123726   3.168   1.396   4.709
 7609SOL    HW223727   3.303   1.488   4.701
 7610SOL     OW23728   4.177   5.260   4.498
 7610SOL    HW123729   4.216   5.207   4.574
 7610SOL    HW223730   4.078   5.250   4.499
 7611SOL     OW23731   4.677   2.747   0.739
 7611SOL    HW123732   4.637   2.801   0.813
 7611SOL    HW223733   4.616   2.747   0.660
 7612SOL     OW23734   4.048   2.206   3.009
 7612SOL    HW123735   3.982   2.137   3.040
 7612SOL    HW223736   4.098   2.242   3.088
 7613SOL     OW23737   1.096   0.475   0.423
 7613SOL    HW123738   1.124   0.534   0.499
 7613SOL    HW223739   1.124   0.381   0.442
 7614SOL     OW23740   5.159   3.932   0.412
 7614SOL    HW123741   5.220   3.860   0.379
 7614SOL    HW223742   5.199   4.021   0.393
 7615SOL     OW23743   6.091   3.248   5.123
 7615SOL    HW123744   6.156   3.208   5.188
 7615SOL    HW223745   6.022   3.300   5.173
 7616SOL     OW23746   6.685   6.633   2.866
 7616SOL    HW123747   6.773   6.592   2.842
 7616SOL    HW223748   6.628   6.641   2.785
 7617SOL     OW23749   6.268   4.154   3.078
 7617SOL    HW123750   6.316   4.087   3.022
 7617SOL    HW223751   6.183   4.113   3.113
 7618SOL     OW23752   2.513   2.301   0.111
 7618SOL    HW123753   2.524   2.389   0.064
 7618SOL    HW223754   2.579   2.236   0.074
 7619SOL     OW23755   1.795   1.831   4.844
 7619SOL    HW123756   1.808   1.930   4.850
 7619SOL    HW223757   1.832   1.798   4.757
 7620SOL     OW23758   3.232   4.596   1.325
 7620SOL    HW123759   3.264   4.670   1.265
 7620SOL    HW223760   3.133   4.601   1.333
 7621SOL     OW23761   5.957   4.216   0.331
 7621SOL    HW123762   5.868   4.258   0.345
 7621SOL    HW223763   5.947   4.136   0.272
 7622SOL     OW23764   3.048   3.888   2.118
 7622SOL    HW123765   2.985   3.811   2.125
 7622SOL    HW223766   3.033   3.935   2.030
 7623SOL     OW23767   5.510   4.316   1.875
 7623SOL    HW123768   5.455   4.397   1.895
 7623SOL    HW223769   5.538   4.273   1.961
 7624SOL     OW23770   1.093   3.434   2.463
 7624SOL    HW123771   1.077   3.335   2.456
 7624SOL    HW223772   1.101   3.459   2.559
 7625SOL     OW23773   5.513   0.669   2.138
 7625SOL    HW123774   5.463   0.677   2.052
 7625SOL    HW223775   5.470   0.598   2.195
 7626SOL     OW23776   4.466   0.314   6.872
 7626SOL    HW123777   4.434   0.377   6.801
 7626SOL    HW223778   4.437   0.346   6.962
 7627SOL     OW23779   3.862   3.173   6.334
 7627SOL    HW123780   3.802   3.099   6.367
 7627SOL    HW223781   3.878   3.161   6.236
 7628SOL     OW23782   3.307   2.338   0.229
 7628SOL    HW123783   3.372   2.365   0.300
 7628SOL    HW223784   3.339   2.255   0.184
 7629SOL     OW23785   5.801   2.227   2.820
 7629SOL    HW123786   5.856   2.261   2.744
 7629SOL    HW223787   5.861   2.180   2.885
 7630SOL     OW23788   1.019   6.475   3.988
 7630SOL    HW123789   0.928   6.476   4.030
 7630SOL    HW223790   1.042   6.383   3.958
 7631SOL     OW23791   0.924   0.737   5.242
 7631SOL    HW123792   0.996   0.691   5.191
 7631SOL    HW223793   0.846   0.676   5.252
 7632SOL     OW23794   4.670   5.806   1.269
 7632SOL    HW123795   4.614   5.857   1.334
 7632SOL    HW223796   4.755   5.777   1.313
 7633SOL     OW23797   6.165   0.968   1.665
 7633SOL    HW123798   6.102   0.909   1.616
 7633SOL    HW223799   6.164   0.946   1.762
 7634SOL     OW23800   0.121   1.910   6.482
 7634SOL    HW123801   0.136   1.831   6.541
 7634SOL    HW223802   0.035   1.954   6.507
 7635SOL     OW23803   2.103   3.158   5.455
 7635SOL    HW123804   2.117   3.244   5.505
 7635SOL    HW223805   2.165   3.089   5.491
 7636SOL     OW23806   6.590   3.919   4.141
 7636SOL    HW123807   6.614   3.959   4.230
 7636SOL    HW223808   6.599   3.820   4.146
 7637SOL     OW23809   0.852   4.595   4.921
 7637SOL    HW123810   0.827   4.504   4.955
 7637SOL    HW223811   0.777   4.632   4.867
 7638SOL     OW23812   0.425   6.321   1.166
 7638SOL    HW123813   0.359   6.261   1.121
 7638SOL    HW223814   0.468   6.272   1.242
 7639SOL     OW23815   1.451   0.576   0.514
 7639SOL    HW123816   1.371   0.635   0.511
 7639SOL    HW223817   1.452   0.517   0.433
 7640SOL     OW23818   3.108   1.532   0.927
 7640SOL    HW123819   3.108   1.542   1.027
 7640SOL    HW223820   3.167   1.601   0.887
 7641SOL     OW23821   0.126   4.081   4.572
 7641SOL    HW123822   0.115   4.147   4.498
 7641SOL    HW223823   0.112   4.126   4.660
 7642SOL     OW23824   5.312   1.023   3.183
 7642SOL    HW123825   5.304   1.065   3.092
 7642SOL    HW223826   5.310   0.924   3.174
 7643SOL     OW23827   5.152   3.860   4.564
 7643SOL    HW123828   5.060   3.827   4.587
 7643SOL    HW223829   5.219   3.811   4.620
 7644SOL     OW23830   4.928   3.810   1.201
 7644SOL    HW123831   4.914   3.799   1.103
 7644SOL    HW223832   5.003   3.874   1.217
 7645SOL     OW23833   3.970   4.837   0.043
 7645SOL    HW123834   3.977   4.812   0.139
 7645SOL    HW223835   4.056   4.878   0.013
 7646SOL     OW23836   6.712   1.763   0.082
 7646SOL    HW123837   6.634   1.805   0.036
 7646SOL    HW223838   6.680   1.683   0.134
 7647SOL     OW23839   6.853   2.378   4.068
 7647SOL    HW123840   6.760   2.353   4.094
 7647SOL    HW223841   6.861   2.377   3.968
 7648SOL     OW23842   2.143   2.011   1.844
 7648SOL    HW123843   2.226   2.032   1.793
 7648SOL    HW223844   2.117   1.916   1.827
 7649SOL     OW23845   4.038   1.079   6.962
 7649SOL    HW123846   4.080   1.016   0.012
 7649SOL    HW223847   4.090   1.165   6.961
 7650SOL     OW23848   4.023   2.282   0.087
 7650SOL    HW123849   4.080   2.222   0.143
 7650SOL    HW223850   3.990   2.359   0.142
 7651SOL     OW23851   3.256   5.323   6.475
 7651SOL    HW123852   3.322   5.327   6.400
 7651SOL    HW223853   3.166   5.297   6.440
 7652SOL     OW23854   1.130   0.908   3.829
 7652SOL    HW123855   1.144   0.874   3.922
 7652SOL    HW223856   1.201   0.975   3.807
 7653SOL     OW23857   2.557   0.529   0.230
 7653SOL    HW123858   2.550   0.601   0.161
 7653SOL    HW223859   2.653   0.513   0.253
 7654SOL     OW23860   6.221   1.981   5.925
 7654SOL    HW123861   6.186   2.075   5.923
 7654SOL    HW223862   6.300   1.973   5.864
 7655SOL     OW23863   3.616   1.884   4.569
 7655SOL    HW123864   3.529   1.836   4.560
 7655SOL    HW223865   3.625   1.951   4.496
 7656SOL     OW23866   5.594   4.106   0.092
 7656SOL    HW123867   5.594   4.037   0.164
 7656SOL    HW223868   5.560   4.065   0.007
 7657SOL     OW23869   1.035   4.229   4.928
 7657SOL    HW123870   1.044   4.323   4.962
 7657SOL    HW223871   0.941   4.212   4.898
 7658SOL     OW23872   2.895   0.349   0.889
 7658SOL    HW123873   2.851   0.277   0.837
 7658SOL    HW223874   2.971   0.388   0.836
 7659SOL     OW23875   4.907   4.378   5.865
 7659SOL    HW123876   4.861   4.430   5.936
 7659SOL    HW223877   4.865   4.288   5.857
 7660SOL     OW23878   6.758   5.832   5.845
 7660SOL    HW123879   6.667   5.869   5.868
 7660SOL    HW223880   6.806   5.808   5.929
 7661SOL     OW23881   3.857   1.238   5.161
 7661SOL    HW123882   3.782   1.280   5.212
 7661SOL    HW223883   3.860   1.276   5.069
 7662SOL     OW23884   0.089   5.949   1.318
 7662SOL    HW123885   0.004   5.976   1.364
 7662SOL    HW223886   0.072   5.869   1.260
 7663SOL     OW23887   0.962   5.622   4.984
 7663SOL    HW123888   0.929   5.675   5.063
 7663SOL    HW223889   0.891   5.558   4.955
 7664SOL     OW23890   4.113   2.225   2.292
 7664SOL    HW123891   4.096   2.148   2.353
 7664SOL    HW223892   4.059   2.304   2.321
 7665SOL     OW23893   3.608   0.546   5.612
 7665SOL    HW123894   3.576   0.583   5.525
 7665SOL    HW223895   3.556   0.464   5.635
 7666SOL     OW23896   5.576   4.709   4.002
 7666SOL    HW123897   5.567   4.793   4.054
 7666SOL    HW223898   5.636   4.646   4.051
 7667SOL     OW23899   4.310   6.116   2.563
 7667SOL    HW123900   4.240   6.126   2.492
 7667SOL    HW223901   4.400   6.136   2.524
 7668SOL     OW23902   1.474   5.675   0.829
 7668SOL    HW123903   1.440   5.604   0.892
 7668SOL    HW223904   1.540   5.733   0.877
 7669SOL     OW23905   2.588   1.430   6.622
 7669SOL    HW123906   2.635   1.518   6.614
 7669SOL    HW223907   2.491   1.443   6.603
 7670SOL     OW23908   0.751   0.630   0.535
 7670SOL    HW123909   0.681   0.575   0.488
 7670SOL    HW223910   0.769   0.713   0.482
 7671SOL     OW23911   3.170   6.896   1.384
 7671SOL    HW123912   3.102   6.876   1.314
 7671SOL    HW223913   3.127   6.891   1.474
 7672SOL     OW23914   5.158   4.304   2.116
 7672SOL    HW123915   5.124   4.393   2.086
 7672SOL    HW223916   5.233   4.275   2.055
 7673SOL     OW23917   1.747   6.931   4.700
 7673SOL    HW123918   1.767   7.002   4.767
 7673SOL    HW223919   1.731   6.844   4.747
 7674SOL     OW23920   4.139   5.893   4.565
 7674SOL    HW123921   4.134   5.805   4.518
 7674SOL    HW223922   4.063   5.951   4.536
 7675SOL     OW23923   4.802   5.895   3.085
 7675SOL    HW123924   4.892   5.908   3.126
 7675SOL    HW223925   4.749   5.980   3.095
 7676SOL     OW23926   3.779   3.131   5.192
 7676SOL    HW123927   3.701   3.085   5.237
 7676SOL    HW223928   3.822   3.067   5.129
 7677SOL     OW23929   6.449   4.777   0.040
 7677SOL    HW123930   6.357   4.738   0.029
 7677SOL    HW223931   6.516   4.703   0.047
 7678SOL     OW23932   3.386   1.877   5.272
 7678SOL    HW123933   3.332   1.793   5.265
 7678SOL    HW223934   3.324   1.954   5.288
 7679SOL     OW23935   3.805   5.774   4.560
 7679SOL    HW123936   3.826   5.731   4.473
 7679SOL    HW223937   3.855   5.860   4.568
 7680SOL     OW23938   2.268   6.799   4.030
 7680SOL    HW123939   2.206   6.720   4.027
 7680SOL    HW223940   2.215   6.882   4.045
 7681SOL     OW23941   2.232   2.728   5.623
 7681SOL    HW123942   2.142   2.691   5.647
 7681SOL    HW223943   2.222   2.824   5.596
 7682SOL     OW23944   3.158   0.827   2.494
 7682SOL    HW123945   3.074   0.874   2.467
 7682SOL    HW223946   3.233   0.857   2.435
 7683SOL     OW23947   0.757   4.449   4.593
 7683SOL    HW123948   0.695   4.397   4.535
 7683SOL    HW223949   0.827   4.388   4.631
 7684SOL     OW23950   5.200   3.229   1.696
 7684SOL    HW123951   5.135   3.160   1.666
 7684SOL    HW223952   5.284   3.185   1.729
 7685SOL     OW23953   2.714   0.160   0.764
 7685SOL    HW123954   2.663   0.166   0.850
 7685SOL    HW223955   2.650   0.167   0.687
 7686SOL     OW23956   6.829   6.841   4.931
 7686SOL    HW123957   6.745   6.872   4.977
 7686SOL    HW223958   6.894   6.917   4.925
 7687SOL     OW23959   5.154   3.218   6.542
 7687SOL    HW123960   5.230   3.267   6.499
 7687SOL    HW223961   5.078   3.211   6.478
 7688SOL     OW23962   6.014   2.817   6.805
 7688SOL    HW123963   6.004   2.747   6.876
 7688SOL    HW223964   5.957   2.792   6.726
 7689SOL     OW23965   5.299   6.999   2.128
 7689SOL    HW123966   5.391   0.011   2.100
 7689SOL    HW223967   5.233   0.053   2.101
 7690SOL     OW23968   5.864   5.056   2.440
 7690SOL    HW123969   5.780   5.009   2.465
 7690SOL    HW223970   5.928   5.054   2.517
 7691SOL     OW23971   4.899   3.144   3.874
 7691SOL    HW123972   4.881   3.102   3.963
 7691SOL    HW223973   4.847   3.095   3.804
 7692SOL     OW23974   2.768   6.551   2.555
 7692SOL    HW123975   2.800   6.632   2.604
 7692SOL    HW223976   2.783   6.470   2.613
 7693SOL     OW23977   3.072   1.491   1.840
 7693SOL    HW123978   3.015   1.413   1.813
 7693SOL    HW223979   3.116   1.472   1.928
 7694SOL     OW23980   4.499   1.869   6.723
 7694SOL    HW123981   4.590   1.896   6.694
 7694SOL    HW223982   4.431   1.914   6.665
 7695SOL     OW23983   5.237   0.478   3.876
 7695SOL    HW123984   5.152   0.440   3.841
 7695SOL    HW223985   5.303   0.488   3.801
 7696SOL     OW23986   2.324   2.293   5.728
 7696SOL    HW123987   2.381   2.215   5.702
 7696SOL    HW223988   2.352   2.374   5.676
 7697SOL     OW23989   6.207   6.772   3.287
 7697SOL    HW123990   6.152   6.727   3.357
 7697SOL    HW223991   6.209   6.870   3.306
 7698SOL     OW23992   6.286   2.934   1.023
 7698SOL    HW123993   6.294   3.009   1.089
 7698SOL    HW223994   6.243   2.967   0.939
 7699SOL     OW23995   4.304   6.186   5.762
 7699SOL    HW123996   4.344   6.244   5.833
 7699SOL    HW223997   4.287   6.241   5.680
 7700SOL     OW23998   5.526   5.556   1.329
 7700SOL    HW123999   5.470   5.552   1.412
 7700SOL    HW224000   5.609   5.502   1.342
 7701SOL     OW24001   1.741   2.157   6.371
 7701SOL    HW124002   1.705   2.244   6.405
 7701SOL    HW224003   1.676   2.084   6.391
 7702SOL     OW24004   4.991   6.635   4.452
 7702SOL    HW124005   5.018   6.583   4.533
 7702SOL    HW224006   4.942   6.718   4.480
 7703SOL     OW24007   0.209   6.658   5.436
 7703SOL    HW124008   0.306   6.676   5.445
 7703SOL    HW224009   0.194   6.559   5.426
 7704SOL     OW24010   1.158   1.747   4.845
 7704SOL    HW124011   1.138   1.719   4.751
 7704SOL    HW224012   1.249   1.713   4.871
 7705SOL     OW24013   1.153   4.805   6.752
 7705SOL    HW124014   1.244   4.794   6.793
 7705SOL    HW224015   1.132   4.727   6.694
 7706SOL     OW24016   3.345   3.105   2.322
 7706SOL    HW124017   3.395   3.021   2.300
 7706SOL    HW224018   3.305   3.141   2.238
 7707SOL     OW24019   6.354   4.698   6.799
 7707SOL    HW124020   6.355   4.782   6.853
 7707SOL    HW224021   6.421   4.634   6.836
 7708SOL     OW24022   1.799   0.154   4.060
 7708SOL    HW124023   1.823   0.159   3.963
 7708SOL    HW224024   1.868   0.201   4.114
 7709SOL     OW24025   6.828   4.956   1.226
 7709SOL    HW124026   6.848   4.883   1.292
 7709SOL    HW224027   6.847   5.045   1.268
 7710SOL     OW24028   6.359   2.755   1.391
 7710SOL    HW124029   6.284   2.820   1.401
 7710SOL    HW224030   6.390   2.753   1.296
 7711SOL     OW24031   0.354   4.566   4.331
 7711SOL    HW124032   0.328   4.524   4.417
 7711SOL    HW224033   0.291   4.641   4.310
 7712SOL     OW24034   0.501   5.074   4.901
 7712SOL    HW124035   0.412   5.121   4.907
 7712SOL    HW224036   0.544   5.073   4.991
 7713SOL     OW24037   0.924   4.679   0.552
 7713SOL    HW124038   0.854   4.664   0.621
 7713SOL    HW224039   0.881   4.703   0.465
 7714SOL     OW24040   6.223   1.687   5.095
 7714SOL    HW124041   6.240   1.603   5.043
 7714SOL    HW224042   6.298   1.702   5.160
 7715SOL     OW24043   3.365   3.181   5.843
 7715SOL    HW124044   3.463   3.203   5.848
 7715SOL    HW224045   3.314   3.262   5.817
 7716SOL     OW24046   1.594   6.930   5.956
 7716SOL    HW124047   1.557   6.873   6.030
 7716SOL    HW224048   1.637   7.011   5.995
 7717SOL     OW24049   0.261   2.328   6.413
 7717SOL    HW124050   0.227   2.277   6.491
 7717SOL    HW224051   0.338   2.386   6.442
 7718SOL     OW24052   0.026   3.025   2.780
 7718SOL    HW124053   0.124   3.030   2.761
 7718SOL    HW224054   0.004   3.086   2.856
 7719SOL     OW24055   1.813   5.427   5.206
 7719SOL    HW124056   1.809   5.505   5.268
 7719SOL    HW224057   1.865   5.353   5.249
 7720SOL     OW24058   4.541   1.050   6.643
 7720SOL    HW124059   4.608   1.032   6.571
 7720SOL    HW224060   4.459   0.995   6.628
 7721SOL     OW24061   6.430   6.243   2.646
 7721SOL    HW124062   6.441   6.259   2.548
 7721SOL    HW224063   6.379   6.158   2.660
 7722SOL     OW24064   1.064   5.908   3.504
 7722SOL    HW124065   0.983   5.868   3.459
 7722SOL    HW224066   1.094   5.988   3.453
 7723SOL     OW24067   4.776   4.149   6.889
 7723SOL    HW124068   4.806   4.210   6.816
 7723SOL    HW224069   4.743   4.063   6.849
 7724SOL     OW24070   1.991   3.810   0.640
 7724SOL    HW124071   1.927   3.887   0.640
 7724SOL    HW224072   1.980   3.759   0.555
 7725SOL     OW24073   5.669   2.960   4.688
 7725SOL    HW124074   5.747   2.974   4.748
 7725SOL    HW224075   5.622   2.875   4.714
 7726SOL     OW24076   2.040   3.883   6.951
 7726SOL    HW124077   2.086   3.888   6.863
 7726SOL    HW224078   2.075   3.954   7.012
 7727SOL     OW24079   5.151   0.355   2.266
 7727SOL    HW124080   5.067   0.408   2.269
 7727SOL    HW224081   5.130   0.258   2.271
 7728SOL     OW24082   1.851   3.709   4.592
 7728SOL    HW124083   1.932   3.747   4.548
 7728SOL    HW224084   1.879   3.636   4.655
 7729SOL     OW24085   0.163   1.085   2.512
 7729SOL    HW124086   0.206   1.151   2.573
 7729SOL    HW224087   0.104   1.024   2.565
 7730SOL     OW24088   6.543   4.864   5.432
 7730SOL    HW124089   6.459   4.899   5.474
 7730SOL    HW224090   6.554   4.768   5.456
 7731SOL     OW24091   6.252   6.982   5.612
 7731SOL    HW124092   6.296   6.966   5.524
 7731SOL    HW224093   6.301   6.931   5.683
 7732SOL     OW24094   4.516   0.630   6.715
 7732SOL    HW124095   4.504   0.645   6.813
 7732SOL    HW224096   4.476   0.706   6.664
 7733SOL     OW24097   6.915   5.202   1.391
 7733SOL    HW124098   6.830   5.254   1.394
 7733SOL    HW224099   6.910   5.127   1.457
 7734SOL     OW24100   3.849   4.069   3.599
 7734SOL    HW124101   3.927   4.016   3.633
 7734SOL    HW224102   3.820   4.134   3.669
 7735SOL     OW24103   0.492   6.070   0.753
 7735SOL    HW124104   0.557   6.006   0.713
 7735SOL    HW224105   0.443   6.118   0.681
 7736SOL     OW24106   1.698   2.312   6.834
 7736SOL    HW124107   1.784   2.313   6.782
 7736SOL    HW224108   1.633   2.375   6.792
 7737SOL     OW24109   4.294   4.620   0.048
 7737SOL    HW124110   4.251   4.638   0.137
 7737SOL    HW224111   4.227   4.583   7.001
 7738SOL     OW24112   1.912   0.412   4.897
 7738SOL    HW124113   1.841   0.365   4.949
 7738SOL    HW224114   1.999   0.406   4.946
 7739SOL     OW24115   1.775   2.277   0.316
 7739SOL    HW124116   1.861   2.319   0.344
 7739SOL    HW224117   1.743   2.320   0.232
 7740SOL     OW24118   2.631   0.771   4.576
 7740SOL    HW124119   2.726   0.796   4.560
 7740SOL    HW224120   2.609   0.783   4.673
 7741SOL     OW24121   0.418   4.348   6.032
 7741SOL    HW124122   0.483   4.351   5.956
 7741SOL    HW224123   0.347   4.416   6.019
 7742SOL     OW24124   4.995   2.340   4.247
 7742SOL    HW124125   5.018   2.425   4.199
 7742SOL    HW224126   4.918   2.296   4.201
 7743SOL     OW24127   3.743   1.382   5.720
 7743SOL    HW124128   3.743   1.471   5.674
 7743SOL    HW224129   3.801   1.387   5.801
 7744SOL     OW24130   0.828   0.074   4.585
 7744SOL    HW124131   0.771   0.049   4.507
 7744SOL    HW224132   0.780   0.140   4.642
 7745SOL     OW24133   2.741   6.649   1.342
 7745SOL    HW124134   2.751   6.623   1.246
 7745SOL    HW224135   2.829   6.644   1.388
 7746SOL     OW24136   0.400   5.869   1.701
 7746SOL    HW124137   0.373   5.775   1.725
 7746SOL    HW224138   0.339   5.902   1.629
 7747SOL     OW24139   0.176   5.781   0.378
 7747SOL    HW124140   0.206   5.689   0.403
 7747SOL    HW224141   0.181   5.841   0.457
 7748SOL     OW24142   4.139   1.425   6.082
 7748SOL    HW124143   4.148   1.458   6.176
 7748SOL    HW224144   4.208   1.356   6.063
 7749SOL     OW24145   3.706   3.171   3.165
 7749SOL    HW124146   3.612   3.180   3.196
 7749SOL    HW224147   3.731   3.074   3.160
 7750SOL     OW24148   5.264   5.214   5.859
 7750SOL    HW124149   5.269   5.249   5.952
 7750SOL    HW224150   5.272   5.114   5.859
 7751SOL     OW24151   6.606   1.139   4.660
 7751SOL    HW124152   6.613   1.181   4.750
 7751SOL    HW224153   6.696   1.137   4.617
 7752SOL     OW24154   6.725   4.828   5.023
 7752SOL    HW124155   6.629   4.801   5.016
 7752SOL    HW224156   6.738   4.878   5.109
 7753SOL     OW24157   2.699   0.955   4.908
 7753SOL    HW124158   2.758   0.874   4.908
 7753SOL    HW224159   2.739   1.026   4.966
 7754SOL     OW24160   6.403   1.071   1.682
 7754SOL    HW124161   6.479   1.008   1.669
 7754SOL    HW224162   6.317   1.023   1.668
 7755SOL     OW24163   1.703   6.184   4.982
 7755SOL    HW124164   1.614   6.187   4.936
 7755SOL    HW224165   1.734   6.089   4.987
 7756SOL     OW24166   3.676   5.649   2.752
 7756SOL    HW124167   3.714   5.692   2.834
 7756SOL    HW224168   3.750   5.617   2.694
 7757SOL     OW24169   3.550   6.902   5.776
 7757SOL    HW124170   3.605   6.939   5.701
 7757SOL    HW224171   3.608   6.847   5.836
 7758SOL     OW24172   3.468   2.595   6.410
 7758SOL    HW124173   3.500   2.647   6.489
 7758SOL    HW224174   3.448   2.501   6.438
 7759SOL     OW24175   1.705   0.756   4.656
 7759SOL    HW124176   1.606   0.774   4.659
 7759SOL    HW224177   1.730   0.697   4.732
 7760SOL     OW24178   5.409   1.698   3.536
 7760SOL    HW124179   5.489   1.721   3.591
 7760SOL    HW224180   5.358   1.625   3.582
 7761SOL     OW24181   4.118   0.636   6.877
 7761SOL    HW124182   4.111   0.731   6.846
 7761SOL    HW224183   4.180   0.632   6.956
 7762SOL     OW24184   1.778   1.933   0.229
 7762SOL    HW124185   1.840   1.950   0.306
 7762SOL    HW224186   1.705   2.001   0.231
 7763SOL     OW24187   2.330   2.095   1.677
 7763SOL    HW124188   2.368   2.162   1.740
 7763SOL    HW224189   2.357   2.117   1.584
 7764SOL     OW24190   4.152   3.320   2.466
 7764SOL    HW124191   4.110   3.383   2.531
 7764SOL    HW224192   4.222   3.369   2.413
 7765SOL     OW24193   6.997   1.925   2.612
 7765SOL    HW124194   0.077   1.922   2.583
 7765SOL    HW224195   6.938   1.912   2.532
 7766SOL     OW24196   6.977   3.633   0.269
 7766SOL    HW124197   6.921   3.574   0.326
 7766SOL    HW224198   0.019   3.691   0.327
 7767SOL     OW24199   5.798   3.959   5.342
 7767SOL    HW124200   5.738   3.927   5.269
 7767SOL    HW224201   5.841   4.045   5.315
 7768SOL     OW24202   4.294   5.386   1.546
 7768SOL    HW124203   4.321   5.303   1.497
 7768SOL    HW224204   4.351   5.396   1.628
 7769SOL     OW24205   6.231   1.813   2.057
 7769SOL    HW124206   6.313   1.858   2.020
 7769SOL    HW224207   6.223   1.835   2.154
 7770SOL     OW24208   3.377   5.590   1.099
 7770SOL    HW124209   3.456   5.559   1.046
 7770SOL    HW224210   3.312   5.637   1.039
 7771SOL     OW24211   2.110   1.132   4.533
 7771SOL    HW124212   2.056   1.103   4.454
 7771SOL    HW224213   2.092   1.228   4.552
 7772SOL     OW24214   5.621   0.966   5.037
 7772SOL    HW124215   5.533   0.988   5.080
 7772SOL    HW224216   5.642   0.869   5.053
 7773SOL     OW24217   3.760   4.510   5.675
 7773SOL    HW124218   3.801   4.478   5.590
 7773SOL    HW224219   3.711   4.436   5.719
 7774SOL     OW24220   4.664   1.647   6.814
 7774SOL    HW124221   4.621   1.558   6.828
 7774SOL    HW224222   4.597   1.710   6.774
 7775SOL     OW24223   1.969   0.100   1.866
 7775SOL    HW124224   1.896   0.075   1.802
 7775SOL    HW224225   2.038   0.155   1.819
 7776SOL     OW24226   3.756   3.974   0.915
 7776SOL    HW124227   3.695   3.911   0.866
 7776SOL    HW224228   3.703   4.032   0.976
 7777SOL     OW24229   1.146   0.401   6.504
 7777SOL    HW124230   1.100   0.314   6.487
 7777SOL    HW224231   1.110   0.442   6.588
 7778SOL     OW24232   4.884   0.944   1.661
 7778SOL    HW124233   4.932   1.029   1.682
 7778SOL    HW224234   4.940   0.887   1.602
 7779SOL     OW24235   4.200   2.835   0.452
 7779SOL    HW124236   4.147   2.835   0.537
 7779SOL    HW224237   4.275   2.770   0.459
 7780SOL     OW24238   1.202   0.404   4.604
 7780SOL    HW124239   1.255   0.330   4.562
 7780SOL    HW224240   1.105   0.391   4.584
 7781SOL     OW24241   1.658   4.549   5.310
 7781SOL    HW124242   1.666   4.519   5.405
 7781SOL    HW224243   1.740   4.521   5.260
 7782SOL     OW24244   4.412   5.148   0.219
 7782SOL    HW124245   4.507   5.177   0.224
 7782SOL    HW224246   4.388   5.129   0.123
 7783SOL     OW24247   2.234   5.443   6.843
 7783SOL    HW124248   2.204   5.520   6.786
 7783SOL    HW224249   2.323   5.410   6.810
 7784SOL     OW24250   0.147   3.009   0.150
 7784SOL    HW124251   0.208   3.025   0.072
 7784SOL    HW224252   0.148   3.089   0.210
 7785SOL     OW24253   1.800   5.606   5.435
 7785SOL    HW124254   1.845   5.554   5.507
 7785SOL    HW224255   1.832   5.701   5.439
 7786SOL     OW24256   3.455   4.162   4.326
 7786SOL    HW124257   3.467   4.129   4.420
 7786SOL    HW224258   3.545   4.182   4.287
 7787SOL     OW24259   2.902   2.284   5.241
 7787SOL    HW124260   2.842   2.356   5.208
 7787SOL    HW224261   2.994   2.296   5.203
 7788SOL     OW24262   0.622   1.440   0.608
 7788SOL    HW124263   0.689   1.514   0.614
 7788SOL    HW224264   0.640   1.385   0.526
 7789SOL     OW24265   2.681   0.473   1.377
 7789SOL    HW124266   2.756   0.538   1.374
 7789SOL    HW224267   2.635   0.478   1.465
 7790SOL     OW24268   5.944   3.695   3.052
 7790SOL    HW124269   5.940   3.614   2.993
 7790SOL    HW224270   5.916   3.775   3.000
 7791SOL     OW24271   0.685   4.361   4.975
 7791SOL    HW124272   0.724   4.373   5.066
 7791SOL    HW224273   0.593   4.400   4.972
 7792SOL     OW24274   2.062   5.691   6.299
 7792SOL    HW124275   2.017   5.603   6.318
 7792SOL    HW224276   2.144   5.698   6.356
 7793SOL     OW24277   1.658   0.915   6.240
 7793SOL    HW124278   1.694   0.822   6.245
 7793SOL    HW224279   1.727   0.976   6.203
 7794SOL     OW24280   5.112   5.626   2.830
 7794SOL    HW124281   5.211   5.622   2.843
 7794SOL    HW224282   5.091   5.690   2.756
 7795SOL     OW24283   1.571   4.775   6.106
 7795SOL    HW124284   1.519   4.827   6.174
 7795SOL    HW224285   1.514   4.699   6.072
 7796SOL     OW24286   4.131   3.544   4.470
 7796SOL    HW124287   4.122   3.495   4.383
 7796SOL    HW224288   4.115   3.641   4.455
 7797SOL     OW24289   0.979   0.067   2.922
 7797SOL    HW124290   1.064   0.111   2.894
 7797SOL    HW224291   0.948   0.004   2.850
 7798SOL     OW24292   4.023   6.032   6.367
 7798SOL    HW124293   4.036   5.981   6.282
 7798SOL    HW224294   4.084   5.995   6.437
 7799SOL     OW24295   6.301   4.789   1.327
 7799SOL    HW124296   6.387   4.832   1.302
 7799SOL    HW224297   6.284   4.803   1.424
 7800SOL     OW24298   0.428   6.569   2.355
 7800SOL    HW124299   0.357   6.577   2.425
 7800SOL    HW224300   0.508   6.623   2.382
 7801SOL     OW24301   3.697   2.353   5.324
 7801SOL    HW124302   3.710   2.358   5.423
 7801SOL    HW224303   3.602   2.378   5.301
 7802SOL     OW24304   5.729   1.873   0.609
 7802SOL    HW124305   5.660   1.932   0.650
 7802SOL    HW224306   5.820   1.914   0.621
 7803SOL     OW24307   2.672   4.265   5.377
 7803SOL    HW124308   2.750   4.221   5.332
 7803SOL    HW224309   2.694   4.361   5.396
 7804SOL     OW24310   4.757   1.476   6.370
 7804SOL    HW124311   4.717   1.506   6.283
 7804SOL    HW224312   4.839   1.422   6.352
 7805SOL     OW24313   5.491   3.512   2.142
 7805SOL    HW124314   5.540   3.458   2.210
 7805SOL    HW224315   5.399   3.475   2.130
 7806SOL     OW24316   4.719   3.542   6.771
 7806SOL    HW124317   4.675   3.495   6.847
 7806SOL    HW224318   4.772   3.475   6.717
 7807SOL     OW24319   0.054   3.410   6.710
 7807SOL    HW124320   0.120   3.441   6.779
 7807SOL    HW224321   0.059   3.311   6.701
 7808SOL     OW24322   1.070   1.608   5.334
 7808SOL    HW124323   1.165   1.582   5.352
 7808SOL    HW224324   1.058   1.625   5.236
 7809SOL     OW24325   1.594   5.417   5.730
 7809SOL    HW124326   1.590   5.464   5.818
 7809SOL    HW224327   1.611   5.319   5.746
 7810SOL     OW24328   2.021   0.999   0.018
 7810SOL    HW124329   2.070   1.029   0.100
 7810SOL    HW224330   2.004   1.078   6.975
 7811SOL     OW24331   0.682   4.694   4.708
 7811SOL    HW124332   0.711   4.608   4.666
 7811SOL    HW224333   0.743   4.768   4.679
 7812SOL     OW24334   0.505   2.041   4.033
 7812SOL    HW124335   0.477   1.963   3.977
 7812SOL    HW224336   0.481   2.025   4.128
 7813SOL     OW24337   6.592   2.429   1.090
 7813SOL    HW124338   6.496   2.423   1.118
 7813SOL    HW224339   6.642   2.487   1.155
 7814SOL     OW24340   1.842   4.040   3.755
 7814SOL    HW124341   1.917   4.064   3.693
 7814SOL    HW224342   1.831   4.112   3.823
 7815SOL     OW24343   0.071   1.717   5.955
 7815SOL    HW124344   0.077   1.630   6.004
 7815SOL    HW224345   6.995   1.726   5.915
 7816SOL     OW24346   1.205   4.040   5.022
 7816SOL    HW124347   1.287   4.088   5.053
 7816SOL    HW224348   1.138   4.106   4.991
 7817SOL     OW24349   5.308   3.119   5.159
 7817SOL    HW124350   5.334   3.075   5.073
 7817SOL    HW224351   5.213   3.095   5.181
 7818SOL     OW24352   5.038   4.576   2.651
 7818SOL    HW124353   4.974   4.641   2.691
 7818SOL    HW224354   5.024   4.571   2.553
 7819SOL     OW24355   0.186   1.842   1.380
 7819SOL    HW124356   0.121   1.915   1.402
 7819SOL    HW224357   0.148   1.754   1.409
 7820SOL     OW24358   2.004   6.993   6.243
 7820SOL    HW124359   2.075   6.933   6.207
 7820SOL    HW224360   2.040   0.071   6.249
 7821SOL     OW24361   2.920   5.108   1.059
 7821SOL    HW124362   2.969   5.193   1.076
 7821SOL    HW224363   2.886   5.071   1.146
 7822SOL     OW24364   1.833   6.644   5.413
 7822SOL    HW124365   1.877   6.725   5.450
 7822SOL    HW224366   1.827   6.652   5.314
 7823SOL     OW24367   1.745   4.218   5.083
 7823SOL    HW124368   1.786   4.214   5.174
 7823SOL    HW224369   1.677   4.292   5.080
 7824SOL     OW24370   0.484   3.406   5.390
 7824SOL    HW124371   0.404   3.389   5.332
 7824SOL    HW224372   0.508   3.323   5.439
 7825SOL     OW24373   3.234   0.702   6.946
 7825SOL    HW124374   3.178   0.620   6.934
 7825SOL    HW224375   3.194   0.777   6.894
 7826SOL     OW24376   0.738   3.358   5.740
 7826SOL    HW124377   0.810   3.335   5.675
 7826SOL    HW224378   0.777   3.371   5.831
 7827SOL     OW24379   6.258   5.289   4.777
 7827SOL    HW124380   6.183   5.223   4.777
 7827SOL    HW224381   6.319   5.270   4.854
 7828SOL     OW24382   0.664   4.911   6.666
 7828SOL    HW124383   0.700   4.862   6.745
 7828SOL    HW224384   0.604   4.850   6.613
 7829SOL     OW24385   4.046   3.887   0.674
 7829SOL    HW124386   4.044   3.946   0.594
 7829SOL    HW224387   4.025   3.940   0.756
 7830SOL     OW24388   2.821   5.642   3.921
 7830SOL    HW124389   2.902   5.701   3.920
 7830SOL    HW224390   2.777   5.644   3.832
 7831SOL     OW24391   1.495   0.005   6.424
 7831SOL    HW124392   1.593   0.013   6.404
 7831SOL    HW224393   1.472   6.924   6.439
 7832SOL     OW24394   6.515   0.821   5.048
 7832SOL    HW124395   6.530   0.894   4.982
 7832SOL    HW224396   6.543   0.734   5.008
 7833SOL     OW24397   0.995   0.635   2.671
 7833SOL    HW124398   0.937   0.560   2.704
 7833SOL    HW224399   1.060   0.599   2.604
 7834SOL     OW24400   6.406   3.106   5.643
 7834SOL    HW124401   6.435   3.190   5.597
 7834SOL    HW224402   6.476   3.036   5.632
 7835SOL     OW24403   4.282   2.467   5.636
 7835SOL    HW124404   4.233   2.403   5.577
 7835SOL    HW224405   4.284   2.557   5.593
 7836SOL     OW24406   3.180   3.999   4.368
 7836SOL    HW124407   3.116   3.960   4.302
 7836SOL    HW224408   3.192   4.097   4.350
 7837SOL     OW24409   0.518   5.794   6.752
 7837SOL    HW124410   0.487   5.841   6.669
 7837SOL    HW224411   0.559   5.706   6.728
 7838SOL     OW24412   4.658   5.626   2.140
 7838SOL    HW124413   4.646   5.560   2.066
 7838SOL    HW224414   4.732   5.597   2.200
 7839SOL     OW24415   6.290   3.570   4.337
 7839SOL    HW124416   6.252   3.495   4.282
 7839SOL    HW224417   6.218   3.635   4.360
 7840SOL     OW24418   2.080   3.187   3.916
 7840SOL    HW124419   2.127   3.171   4.003
 7840SOL    HW224420   2.129   3.140   3.842
 7841SOL     OW24421   3.866   2.318   6.192
 7841SOL    HW124422   3.771   2.347   6.201
 7841SOL    HW224423   3.903   2.296   6.282
 7842SOL     OW24424   0.986   1.044   1.632
 7842SOL    HW124425   0.914   1.113   1.637
 7842SOL    HW224426   1.007   1.024   1.536
 7843SOL     OW24427   0.177   6.150   2.691
 7843SOL    HW124428   0.182   6.089   2.611
 7843SOL    HW224429   0.102   6.214   2.680
 7844SOL     OW24430   3.687   6.902   2.610
 7844SOL    HW124431   3.758   6.972   2.613
 7844SOL    HW224432   3.622   6.923   2.538
 7845SOL     OW24433   6.749   2.573   1.260
 7845SOL    HW124434   6.693   2.535   1.334
 7845SOL    HW224435   6.732   2.672   1.254
 7846SOL     OW24436   0.967   0.938   0.827
 7846SOL    HW124437   1.043   0.885   0.789
 7846SOL    HW224438   0.993   1.034   0.834
 7847SOL     OW24439   5.478   4.434   6.307
 7847SOL    HW124440   5.545   4.400   6.374
 7847SOL    HW224441   5.524   4.493   6.241
 7848SOL     OW24442   3.727   4.864   0.457
 7848SOL    HW124443   3.750   4.932   0.526
 7848SOL    HW224444   3.636   4.827   0.476
 7849SOL     OW24445   4.182   5.324   6.879
 7849SOL    HW124446   4.195   5.307   6.782
 7849SOL    HW224447   4.199   5.420   6.899
 7850SOL     OW24448   0.032   0.848   4.501
 7850SOL    HW124449   0.007   0.805   4.588
 7850SOL    HW224450   6.966   0.856   4.444
 7851SOL     OW24451   6.891   4.808   0.988
 7851SOL    HW124452   6.879   4.842   1.081
 7851SOL    HW224453   6.820   4.847   0.929
 7852SOL     OW24454   1.339   2.908   6.662
 7852SOL    HW124455   1.390   2.826   6.635
 7852SOL    HW224456   1.373   2.987   6.612
 7853SOL     OW24457   4.311   3.094   1.687
 7853SOL    HW124458   4.390   3.047   1.726
 7853SOL    HW224459   4.235   3.031   1.679
 7854SOL     OW24460   4.612   1.103   0.343
 7854SOL    HW124461   4.681   1.172   0.364
 7854SOL    HW224462   4.619   1.078   0.246
 7855SOL     OW24463   5.629   6.503   4.043
 7855SOL    HW124464   5.580   6.542   3.966
 7855SOL    HW224465   5.592   6.412   4.064
 7856SOL     OW24466   2.141   6.360   5.288
 7856SOL    HW124467   2.065   6.381   5.227
 7856SOL    HW224468   2.114   6.379   5.382
 7857SOL     OW24469   6.212   4.048   0.888
 7857SOL    HW124470   6.279   4.122   0.885
 7857SOL    HW224471   6.129   4.077   0.841
 7858SOL     OW24472   6.702   3.726   6.108
 7858SOL    HW124473   6.752   3.684   6.033
 7858SOL    HW224474   6.626   3.780   6.071
 7859SOL     OW24475   4.899   1.570   0.468
 7859SOL    HW124476   4.980   1.623   0.493
 7859SOL    HW224477   4.838   1.626   0.413
 7860SOL     OW24478   2.927   1.477   4.226
 7860SOL    HW124479   2.939   1.510   4.319
 7860SOL    HW224480   2.977   1.391   4.214
 7861SOL     OW24481   2.075   6.328   0.695
 7861SOL    HW124482   2.045   6.335   0.600
 7861SOL    HW224483   2.023   6.392   0.752
 7862SOL     OW24484   1.356   6.918   7.013
 7862SOL    HW124485   1.410   6.976   6.951
 7862SOL    HW224486   1.291   6.864   6.959
 7863SOL     OW24487   1.151   4.385   4.051
 7863SOL    HW124488   1.147   4.357   4.147
 7863SOL    HW224489   1.151   4.304   3.993
 7864SOL     OW24490   2.728   5.772   5.067
 7864SOL    HW124491   2.704   5.853   5.121
 7864SOL    HW224492   2.720   5.690   5.124
 7865SOL     OW24493   5.775   3.960   3.451
 7865SOL    HW124494   5.836   3.970   3.530
 7865SOL    HW224495   5.809   4.015   3.375
 7866SOL     OW24496   0.745   0.712   5.573
 7866SOL    HW124497   0.804   0.739   5.649
 7866SOL    HW224498   0.653   0.692   5.608
 7867SOL     OW24499   4.218   5.243   3.967
 7867SOL    HW124500   4.288   5.181   4.004
 7867SOL    HW224501   4.258   5.333   3.952
 7868SOL     OW24502   3.027   6.156   1.543
 7868SOL    HW124503   2.957   6.168   1.472
 7868SOL    HW224504   3.065   6.245   1.566
 7869SOL     OW24505   6.025   4.846   0.017
 7869SOL    HW124506   6.069   4.908   6.968
 7869SOL    HW224507   6.051   4.752   7.013
 7870SOL     OW24508   6.009   6.305   3.848
 7870SOL    HW124509   5.946   6.376   3.879
 7870SOL    HW224510   6.051   6.261   3.927
 7871SOL     OW24511   4.351   1.096   0.584
 7871SOL    HW124512   4.300   1.040   0.518
 7871SOL    HW224513   4.442   1.055   0.598
 7872SOL     OW24514   0.457   5.357   3.039
 7872SOL    HW124515   0.533   5.325   2.983
 7872SOL    HW224516   0.449   5.457   3.031
 7873SOL     OW24517   5.041   2.049   0.143
 7873SOL    HW124518   5.031   2.064   0.045
 7873SOL    HW224519   4.964   2.091   0.191
 7874SOL     OW24520   5.783   2.597   0.731
 7874SOL    HW124521   5.758   2.619   0.636
 7874SOL    HW224522   5.703   2.610   0.790
 7875SOL     OW24523   6.165   4.857   6.532
 7875SOL    HW124524   6.079   4.808   6.529
 7875SOL    HW224525   6.180   4.892   6.625
 7876SOL     OW24526   1.334   0.129   3.696
 7876SOL    HW124527   1.422   0.082   3.692
 7876SOL    HW224528   1.276   0.099   3.621
 7877SOL     OW24529   0.276   3.046   2.736
 7877SOL    HW124530   0.337   2.967   2.752
 7877SOL    HW224531   0.330   3.130   2.741
 7878SOL     OW24532   3.958   6.354   2.983
 7878SOL    HW124533   3.923   6.351   3.076
 7878SOL    HW224534   3.972   6.261   2.949
 7879SOL     OW24535   3.359   5.852   3.106
 7879SOL    HW124536   3.385   5.757   3.121
 7879SOL    HW224537   3.420   5.894   3.039
 7880SOL     OW24538   0.842   4.901   2.178
 7880SOL    HW124539   0.935   4.864   2.174
 7880SOL    HW224540   0.825   4.956   2.097
 7881SOL     OW24541   4.918   3.913   3.667
 7881SOL    HW124542   4.927   3.832   3.609
 7881SOL    HW224543   4.980   3.906   3.745
 7882SOL     OW24544   0.855   3.164   6.758
 7882SOL    HW124545   0.824   3.237   6.697
 7882SOL    HW224546   0.777   3.131   6.812
 7883SOL     OW24547   1.133   0.299   5.109
 7883SOL    HW124548   1.041   0.261   5.102
 7883SOL    HW224549   1.184   0.250   5.179
 7884SOL     OW24550   1.009   3.006   4.169
 7884SOL    HW124551   0.923   3.021   4.218
 7884SOL    HW224552   1.039   3.091   4.128
 7885SOL     OW24553   0.317   6.160   6.739
 7885SOL    HW124554   0.380   6.113   6.677
 7885SOL    HW224555   0.319   6.115   6.828
 7886SOL     OW24556   5.367   4.249   1.117
 7886SOL    HW124557   5.377   4.153   1.145
 7886SOL    HW224558   5.353   4.306   1.198
 7887SOL     OW24559   4.682   3.144   6.554
 7887SOL    HW124560   4.637   3.190   6.630
 7887SOL    HW224561   4.765   3.194   6.529
 7888SOL     OW24562   5.141   6.082   4.835
 7888SOL    HW124563   5.104   6.061   4.745
 7888SOL    HW224564   5.154   5.997   4.886
 7889SOL     OW24565   6.831   5.465   3.111
 7889SOL    HW124566   6.751   5.422   3.153
 7889SOL    HW224567   6.914   5.421   3.143
 7890SOL     OW24568   2.108   3.229   2.245
 7890SOL    HW124569   2.164   3.176   2.181
 7890SOL    HW224570   2.089   3.174   2.327
 7891SOL     OW24571   1.076   4.948   2.733
 7891SOL    HW124572   1.057   4.971   2.638
 7891SOL    HW224573   1.171   4.972   2.755
 7892SOL     OW24574   2.435   2.312   5.158
 7892SOL    HW124575   2.346   2.269   5.146
 7892SOL    HW224576   2.459   2.313   5.255
 7893SOL     OW24577   6.268   6.871   1.453
 7893SOL    HW124578   6.299   6.799   1.515
 7893SOL    HW224579   6.169   6.882   1.462
 7894SOL     OW24580   2.931   0.252   2.012
 7894SOL    HW124581   2.989   0.320   1.968
 7894SOL    HW224582   2.988   0.180   2.051
 7895SOL     OW24583   6.658   1.352   3.661
 7895SOL    HW124584   6.691   1.444   3.639
 7895SOL    HW224585   6.697   1.287   3.596
 7896SOL     OW24586   4.126   1.929   6.610
 7896SOL    HW124587   4.155   1.950   6.517
 7896SOL    HW224588   4.037   1.883   6.607
 7897SOL     OW24589   3.532   3.003   6.626
 7897SOL    HW124590   3.455   3.023   6.565
 7897SOL    HW224591   3.607   2.966   6.572
 7898SOL     OW24592   5.020   1.279   3.955
 7898SOL    HW124593   5.074   1.335   4.017
 7898SOL    HW224594   4.924   1.283   3.983
 7899SOL     OW24595   4.220   1.540   2.411
 7899SOL    HW124596   4.140   1.513   2.359
 7899SOL    HW224597   4.296   1.477   2.392
 7900SOL     OW24598   1.300   5.612   1.163
 7900SOL    HW124599   1.352   5.696   1.148
 7900SOL    HW224600   1.300   5.558   1.079
 7901SOL     OW24601   6.152   5.610   0.944
 7901SOL    HW124602   6.119   5.608   1.038
 7901SOL    HW224603   6.076   5.630   0.882
 7902SOL     OW24604   5.080   4.731   5.782
 7902SOL    HW124605   4.982   4.751   5.788
 7902SOL    HW224606   5.093   4.646   5.732
 7903SOL     OW24607   0.218   2.591   0.127
 7903SOL    HW124608   0.308   2.608   0.166
 7903SOL    HW224609   0.156   2.665   0.152
 7904SOL     OW24610   6.113   1.935   2.289
 7904SOL    HW124611   6.095   2.022   2.242
 7904SOL    HW224612   6.048   1.924   2.365
 7905SOL     OW24613   2.021   2.367   1.674
 7905SOL    HW124614   1.966   2.372   1.757
 7905SOL    HW224615   2.117   2.383   1.697
 7906SOL     OW24616   0.427   4.337   0.399
 7906SOL    HW124617   0.418   4.319   0.301
 7906SOL    HW224618   0.500   4.403   0.414
 7907SOL     OW24619   6.451   3.062   2.242
 7907SOL    HW124620   6.388   2.990   2.271
 7907SOL    HW224621   6.417   3.104   2.158
 7908SOL     OW24622   6.760   0.974   2.619
 7908SOL    HW124623   6.679   0.916   2.626
 7908SOL    HW224624   6.735   1.062   2.577
 7909SOL     OW24625   4.061   6.190   4.867
 7909SOL    HW124626   4.160   6.203   4.875
 7909SOL    HW224627   4.043   6.119   4.799
 7910SOL     OW24628   5.846   3.158   6.375
 7910SOL    HW124629   5.865   3.150   6.277
 7910SOL    HW224630   5.896   3.236   6.412
 7911SOL     OW24631   6.939   5.374   6.669
 7911SOL    HW124632   6.924   5.457   6.615
 7911SOL    HW224633   6.996   5.310   6.617
 7912SOL     OW24634   0.187   5.020   5.437
 7912SOL    HW124635   0.243   5.001   5.517
 7912SOL    HW224636   0.130   5.100   5.454
 7913SOL     OW24637   1.327   6.424   6.515
 7913SOL    HW124638   1.300   6.328   6.523
 7913SOL    HW224639   1.319   6.453   6.419
 7914SOL     OW24640   6.530   3.988   1.128
 7914SOL    HW124641   6.600   3.917   1.122
 7914SOL    HW224642   6.453   3.966   1.069
 7915SOL     OW24643   3.636   1.257   2.629
 7915SOL    HW124644   3.602   1.290   2.717
 7915SOL    HW224645   3.644   1.157   2.631
 7916SOL     OW24646   4.866   3.716   5.744
 7916SOL    HW124647   4.814   3.711   5.829
 7916SOL    HW224648   4.918   3.802   5.742
 7917SOL     OW24649   4.072   3.525   3.620
 7917SOL    HW124650   4.114   3.455   3.562
 7917SOL    HW224651   3.997   3.568   3.569
 7918SOL     OW24652   6.643   2.447   2.672
 7918SOL    HW124653   6.686   2.491   2.750
 7918SOL    HW224654   6.579   2.511   2.628
 7919SOL     OW24655   5.757   4.444   1.850
 7919SOL    HW124656   5.692   4.378   1.811
 7919SOL    HW224657   5.728   4.466   1.944
 7920SOL     OW24658   0.166   6.592   2.116
 7920SOL    HW124659   0.250   6.612   2.167
 7920SOL    HW224660   0.148   6.494   2.118
 7921SOL     OW24661   2.242   6.222   1.776
 7921SOL    HW124662   2.211   6.130   1.797
 7921SOL    HW224663   2.222   6.282   1.854
 7922SOL     OW24664   0.716   4.624   6.055
 7922SOL    HW124665   0.770   4.701   6.085
 7922SOL    HW224666   0.768   4.571   5.988
 7923SOL     OW24667   0.356   1.737   3.191
 7923SOL    HW124668   0.427   1.716   3.258
 7923SOL    HW224669   0.268   1.748   3.238
 7924SOL     OW24670   1.944   1.174   3.746
 7924SOL    HW124671   1.945   1.107   3.673
 7924SOL    HW224672   1.915   1.263   3.710
 7925SOL     OW24673   0.342   1.576   6.604
 7925SOL    HW124674   0.396   1.607   6.682
 7925SOL    HW224675   0.257   1.629   6.598
 7926SOL     OW24676   3.136   6.955   1.937
 7926SOL    HW124677   3.150   0.027   1.891
 7926SOL    HW224678   3.114   6.971   2.034
 7927SOL     OW24679   4.683   4.295   4.500
 7927SOL    HW124680   4.686   4.257   4.592
 7927SOL    HW224681   4.599   4.348   4.487
 7928SOL     OW24682   0.968   4.488   6.869
 7928SOL    HW124683   1.066   4.501   6.886
 7928SOL    HW224684   0.955   4.456   6.775
 7929SOL     OW24685   4.058   3.793   4.432
 7929SOL    HW124686   4.006   3.870   4.470
 7929SOL    HW224687   4.121   3.827   4.362
 7930SOL     OW24688   5.335   6.170   3.229
 7930SOL    HW124689   5.259   6.157   3.293
 7930SOL    HW224690   5.305   6.229   3.154
 7931SOL     OW24691   2.957   3.245   6.747
 7931SOL    HW124692   3.040   3.264   6.800
 7931SOL    HW224693   2.983   3.218   6.654
 7932SOL     OW24694   2.943   7.013   0.761
 7932SOL    HW124695   2.854   0.041   0.757
 7932SOL    HW224696   2.979   7.000   0.668
 7933SOL     OW24697   1.935   0.954   6.136
 7933SOL    HW124698   1.935   0.935   6.038
 7933SOL    HW224699   2.020   1.000   6.161
 7934SOL     OW24700   4.001   2.691   5.651
 7934SOL    HW124701   3.977   2.690   5.748
 7934SOL    HW224702   4.100   2.704   5.641
 7935SOL     OW24703   4.743   5.469   1.785
 7935SOL    HW124704   4.835   5.504   1.801
 7935SOL    HW224705   4.693   5.531   1.725
 7936SOL     OW24706   4.208   5.918   2.770
 7936SOL    HW124707   4.246   5.937   2.679
 7936SOL    HW224708   4.273   5.946   2.840
 7937SOL     OW24709   6.044   0.579   5.681
 7937SOL    HW124710   6.136   0.604   5.650
 7937SOL    HW224711   6.036   0.599   5.779
 7938SOL     OW24712   6.076   4.849   4.437
 7938SOL    HW124713   6.173   4.847   4.413
 7938SOL    HW224714   6.065   4.889   4.528
 7939SOL     OW24715   0.230   6.846   4.137
 7939SOL    HW124716   0.279   6.931   4.158
 7939SOL    HW224717   0.283   6.768   4.169
 7940SOL     OW24718   1.769   5.886   0.831
 7940SOL    HW124719   1.764   5.948   0.909
 7940SOL    HW224720   1.757   5.938   0.746
 7941SOL     OW24721   0.035   0.219   0.898
 7941SOL    HW124722   0.103   0.291   0.885
 7941SOL    HW224723   6.960   0.260   0.907
 7942SOL     OW24724   1.325   0.899   0.875
 7942SOL    HW124725   1.286   0.809   0.856
 7942SOL    HW224726   1.281   0.938   0.956
 7943SOL     OW24727   6.346   2.261   0.262
 7943SOL    HW124728   6.254   2.274   0.300
 7943SOL    HW224729   6.408   2.331   0.299
 7944SOL     OW24730   0.016   3.403   1.905
 7944SOL    HW124731   0.106   3.431   1.939
 7944SOL    HW224732   6.976   3.371   1.983
 7945SOL     OW24733   5.087   0.030   1.080
 7945SOL    HW124734   5.170   7.014   1.035
 7945SOL    HW224735   5.109   0.105   1.142
 7946SOL     OW24736   1.395   1.563   6.044
 7946SOL    HW124737   1.313   1.553   5.988
 7946SOL    HW224738   1.396   1.491   6.113
 7947SOL     OW24739   4.410   5.307   6.066
 7947SOL    HW124740   4.480   5.379   6.061
 7947SOL    HW224741   4.425   5.252   6.148
 7948SOL     OW24742   0.801   5.075   5.969
 7948SOL    HW124743   0.826   4.992   5.920
 7948SOL    HW224744   0.702   5.089   5.965
 7949SOL     OW24745   6.396   3.976   3.971
 7949SOL    HW124746   6.469   3.956   4.036
 7949SOL    HW224747   6.321   3.911   3.985
 7950SOL     OW24748   3.601   5.167   4.372
 7950SOL    HW124749   3.530   5.227   4.335
 7950SOL    HW224750   3.585   5.073   4.341
 7951SOL     OW24751   2.969   3.366   0.485
 7951SOL    HW124752   2.871   3.360   0.462
 7951SOL    HW224753   2.980   3.406   0.576
 7952SOL     OW24754   5.272   4.588   0.607
 7952SOL    HW124755   5.338   4.662   0.621
 7952SOL    HW224756   5.217   4.577   0.689
 7953SOL     OW24757   2.136   3.491   3.004
 7953SOL    HW124758   2.168   3.490   3.099
 7953SOL    HW224759   2.078   3.571   2.990
 7954SOL     OW24760   5.454   5.568   4.601
 7954SOL    HW124761   5.449   5.608   4.510
 7954SOL    HW224762   5.549   5.545   4.622
 7955SOL     OW24763   2.009   6.191   5.925
 7955SOL    HW124764   1.924   6.209   5.875
 7955SOL    HW224765   2.080   6.253   5.893
 7956SOL     OW24766   6.538   6.508   3.065
 7956SOL    HW124767   6.598   6.562   3.006
 7956SOL    HW224768   6.478   6.452   3.008
 7957SOL     OW24769   0.699   1.992   1.023
 7957SOL    HW124770   0.645   1.952   0.948
 7957SOL    HW224771   0.653   2.074   1.057
 7958SOL     OW24772   2.682   5.652   3.690
 7958SOL    HW124773   2.591   5.612   3.680
 7958SOL    HW224774   2.746   5.605   3.629
 7959SOL     OW24775   4.914   5.549   0.771
 7959SOL    HW124776   4.891   5.495   0.852
 7959SOL    HW224777   5.007   5.585   0.780
 7960SOL     OW24778   2.350   2.280   1.024
 7960SOL    HW124779   2.418   2.248   1.090
 7960SOL    HW224780   2.290   2.347   1.067
 7961SOL     OW24781   1.373   6.048   6.838
 7961SOL    HW124782   1.330   6.129   6.878
 7961SOL    HW224783   1.472   6.062   6.831
 7962SOL     OW24784   1.777   6.867   2.118
 7962SOL    HW124785   1.743   6.815   2.196
 7962SOL    HW224786   1.727   6.838   2.035
 7963SOL     OW24787   1.074   6.382   4.786
 7963SOL    HW124788   1.147   6.336   4.735
 7963SOL    HW224789   1.030   6.316   4.848
 7964SOL     OW24790   6.235   5.719   3.592
 7964SOL    HW124791   6.241   5.812   3.628
 7964SOL    HW224792   6.142   5.684   3.605
 7965SOL     OW24793   5.221   1.513   0.377
 7965SOL    HW124794   5.186   1.512   0.283
 7965SOL    HW224795   5.183   1.591   0.426
 7966SOL     OW24796   0.163   6.882   3.670
 7966SOL    HW124797   0.164   6.837   3.581
 7966SOL    HW224798   0.171   6.981   3.657
 7967SOL     OW24799   3.128   0.303   3.246
 7967SOL    HW124800   3.108   0.207   3.266
 7967SOL    HW224801   3.049   0.346   3.202
 7968SOL     OW24802   2.377   0.757   1.548
 7968SOL    HW124803   2.446   0.684   1.551
 7968SOL    HW224804   2.287   0.719   1.570
 7969SOL     OW24805   3.171   1.628   3.379
 7969SOL    HW124806   3.184   1.718   3.420
 7969SOL    HW224807   3.177   1.635   3.280
 7970SOL     OW24808   0.086   4.890   2.955
 7970SOL    HW124809   0.178   4.903   2.918
 7970SOL    HW224810   0.030   4.843   2.887
 7971SOL     OW24811   3.043   1.540   2.369
 7971SOL    HW124812   3.002   1.538   2.277
 7971SOL    HW224813   2.971   1.528   2.437
 7972SOL     OW24814   6.798   5.027   1.581
 7972SOL    HW124815   6.750   4.940   1.572
 7972SOL    HW224816   6.731   5.100   1.597
 7973SOL     OW24817   4.745   2.157   2.854
 7973SOL    HW124818   4.668   2.211   2.890
 7973SOL    HW224819   4.716   2.062   2.844
 7974SOL     OW24820   5.553   6.359   3.728
 7974SOL    HW124821   5.580   6.451   3.755
 7974SOL    HW224822   5.618   6.323   3.661
 7975SOL     OW24823   1.873   1.592   2.677
 7975SOL    HW124824   1.862   1.623   2.583
 7975SOL    HW224825   1.871   1.671   2.738
 7976SOL     OW24826   0.601   6.278   5.891
 7976SOL    HW124827   0.645   6.342   5.954
 7976SOL    HW224828   0.646   6.282   5.802
 7977SOL     OW24829   4.740   6.380   1.660
 7977SOL    HW124830   4.762   6.294   1.614
 7977SOL    HW224831   4.822   6.417   1.704
 7978SOL     OW24832   3.453   2.655   5.379
 7978SOL    HW124833   3.421   2.705   5.299
 7978SOL    HW224834   3.468   2.559   5.355
 7979SOL     OW24835   5.259   6.963   4.093
 7979SOL    HW124836   5.231   0.038   4.125
 7979SOL    HW224837   5.200   6.894   4.134
 7980SOL     OW24838   2.706   0.636   2.215
 7980SOL    HW124839   2.728   0.623   2.312
 7980SOL    HW224840   2.619   0.685   2.207
 7981SOL     OW24841   0.987   5.822   2.662
 7981SOL    HW124842   1.039   5.904   2.636
 7981SOL    HW224843   1.039   5.770   2.730
 7982SOL     OW24844   0.049   2.428   0.261
 7982SOL    HW124845   0.073   2.508   0.206
 7982SOL    HW224846   0.059   2.450   0.358
 7983SOL     OW24847   4.719   2.675   2.102
 7983SOL    HW124848   4.705   2.694   2.004
 7983SOL    HW224849   4.742   2.760   2.149
 7984SOL     OW24850   6.912   0.161   6.993
 7984SOL    HW124851   6.840   0.092   6.996
 7984SOL    HW224852   6.952   0.171   0.069
 7985SOL     OW24853   0.652   1.090   1.052
 7985SOL    HW124854   0.689   1.037   0.975
 7985SOL    HW224855   0.575   1.144   1.021
 7986SOL     OW24856   4.830   3.146   0.091
 7986SOL    HW124857   4.835   3.154   7.007
 7986SOL    HW224858   4.739   3.173   0.123
 7987SOL     OW24859   1.104   2.817   4.815
 7987SOL    HW124860   1.068   2.909   4.833
 7987SOL    HW224861   1.112   2.767   4.901
 7988SOL     OW24862   2.741   1.663   5.688
 7988SOL    HW124863   2.710   1.639   5.781
 7988SOL    HW224864   2.687   1.739   5.653
 7989SOL     OW24865   3.597   3.333   6.154
 7989SOL    HW124866   3.631   3.280   6.077
 7989SOL    HW224867   3.667   3.397   6.184
 7990SOL     OW24868   2.300   2.834   4.830
 7990SOL    HW124869   2.309   2.867   4.924
 7990SOL    HW224870   2.355   2.752   4.818
 7991SOL     OW24871   1.506   3.031   5.907
 7991SOL    HW124872   1.503   3.129   5.925
 7991SOL    HW224873   1.561   3.014   5.825
 7992SOL     OW24874   2.919   1.486   0.693
 7992SOL    HW124875   2.863   1.537   0.758
 7992SOL    HW224876   3.010   1.528   0.685
 7993SOL     OW24877   2.411   6.338   6.537
 7993SOL    HW124878   2.450   6.273   6.473
 7993SOL    HW224879   2.311   6.336   6.530
 7994SOL     OW24880   5.828   1.106   4.598
 7994SOL    HW124881   5.792   1.015   4.579
 7994SOL    HW224882   5.925   1.099   4.619
 7995SOL     OW24883   4.227   5.505   3.415
 7995SOL    HW124884   4.325   5.486   3.413
 7995SOL    HW224885   4.188   5.470   3.500
 7996SOL     OW24886   4.303   1.020   5.244
 7996SOL    HW124887   4.356   0.988   5.165
 7996SOL    HW224888   4.221   1.067   5.212
 7997SOL     OW24889   5.402   2.585   2.319
 7997SOL    HW124890   5.339   2.507   2.318
 7997SOL    HW224891   5.361   2.660   2.372
 7998SOL     OW24892   6.385   4.896   6.382
 7998SOL    HW124893   6.327   4.866   6.458
 7998SOL    HW224894   6.354   4.986   6.350
 7999SOL     OW24895   2.109   0.615   5.606
 7999SOL    HW124896   2.017   0.575   5.614
 7999SOL    HW224897   2.106   0.692   5.541
 8000SOL     OW24898   5.378   0.479   5.689
 8000SOL    HW124899   5.401   0.419   5.612
 8000SOL    HW224900   5.284   0.512   5.679
 8001SOL     OW24901   2.401   5.583   0.978
 8001SOL    HW124902   2.451   5.534   1.049
 8001SOL    HW224903   2.305   5.556   0.979
 8002SOL     OW24904   5.024   2.346   5.439
 8002SOL    HW124905   5.086   2.389   5.373
 8002SOL    HW224906   4.962   2.415   5.476
 8003SOL     OW24907   3.906   6.131   3.596
 8003SOL    HW124908   3.983   6.130   3.532
 8003SOL    HW224909   3.903   6.044   3.646
 8004SOL     OW24910   1.110   4.164   2.652
 8004SOL    HW124911   1.102   4.069   2.684
 8004SOL    HW224912   1.065   4.173   2.563
 8005SOL     OW24913   2.024   0.578   2.243
 8005SOL    HW124914   2.105   0.617   2.199
 8005SOL    HW224915   2.006   0.487   2.206
 8006SOL     OW24916   3.629   6.363   1.921
 8006SOL    HW124917   3.533   6.384   1.904
 8006SOL    HW224918   3.668   6.317   1.841
 8007SOL     OW24919   0.362   1.186   4.144
 8007SOL    HW124920   0.325   1.093   4.134
 8007SOL    HW224921   0.455   1.181   4.180
 8008SOL     OW24922   5.925   5.635   0.819
 8008SOL    HW124923   5.912   5.730   0.847
 8008SOL    HW224924   5.836   5.592   0.804
 8009SOL     OW24925   6.957   0.030   4.371
 8009SOL    HW124926   6.979   6.958   4.327
 8009SOL    HW224927   6.866   0.024   4.414
 8010SOL     OW24928   1.725   2.826   6.743
 8010SOL    HW124929   1.686   2.784   6.825
 8010SOL    HW224930   1.757   2.918   6.764
 8011SOL     OW24931   2.321   2.612   0.286
 8011SOL    HW124932   2.405   2.566   0.315
 8011SOL    HW224933   2.306   2.693   0.342
 8012SOL     OW24934   2.866   0.432   3.390
 8012SOL    HW124935   2.958   0.466   3.409
 8012SOL    HW224936   2.805   0.508   3.369
 8013SOL     OW24937   5.714   5.661   4.624
 8013SOL    HW124938   5.786   5.646   4.555
 8013SOL    HW224939   5.688   5.757   4.624
 8014SOL     OW24940   2.266   6.707   6.711
 8014SOL    HW124941   2.364   6.687   6.713
 8014SOL    HW224942   2.233   6.721   6.805
 8015SOL     OW24943   1.548   1.880   5.698
 8015SOL    HW124944   1.634   1.885   5.647
 8015SOL    HW224945   1.564   1.838   5.787
 8016SOL     OW24946   3.898   6.035   1.972
 8016SOL    HW124947   3.883   6.000   1.880
 8016SOL    HW224948   3.824   6.097   1.996
 8017SOL     OW24949   5.928   3.329   5.655
 8017SOL    HW124950   6.008   3.351   5.600
 8017SOL    HW224951   5.886   3.414   5.688
 8018SOL     OW24952   6.003   2.544   4.885
 8018SOL    HW124953   6.023   2.581   4.976
 8018SOL    HW224954   6.078   2.568   4.823
 8019SOL     OW24955   1.919   4.921   1.087
 8019SOL    HW124956   1.926   5.013   1.050
 8019SOL    HW224957   1.828   4.908   1.128
 8020SOL     OW24958   5.838   6.338   6.434
 8020SOL    HW124959   5.903   6.317   6.361
 8020SOL    HW224960   5.888   6.370   6.514
 8021SOL     OW24961   6.959   0.928   0.656
 8021SOL    HW124962   6.889   0.857   0.664
 8021SOL    HW224963   0.022   0.903   0.712
 8022SOL     OW24964   4.418   5.078   3.449
 8022SOL    HW124965   4.341   5.116   3.397
 8022SOL    HW224966   4.477   5.025   3.387
 8023SOL     OW24967   6.893   6.292   3.421
 8023SOL    HW124968   6.806   6.324   3.384
 8023SOL    HW224969   6.886   6.194   3.442
 8024SOL     OW24970   4.779   5.626   5.112
 8024SOL    HW124971   4.811   5.533   5.128
 8024SOL    HW224972   4.780   5.646   5.014
 8025SOL     OW24973   2.714   5.686   0.724
 8025SOL    HW124974   2.753   5.618   0.662
 8025SOL    HW224975   2.695   5.770   0.673
 8026SOL     OW24976   2.552   2.912   0.328
 8026SOL    HW124977   2.623   2.845   0.350
 8026SOL    HW224978   2.568   2.948   0.236
 8027SOL     OW24979   4.878   3.159   5.704
 8027SOL    HW124980   4.782   3.157   5.730
 8027SOL    HW224981   4.918   3.246   5.735
 8028SOL     OW24982   5.168   5.609   0.706
 8028SOL    HW124983   5.214   5.653   0.629
 8028SOL    HW224984   5.220   5.528   0.735
 8029SOL     OW24985   3.036   4.297   0.021
 8029SOL    HW124986   3.015   4.205   0.055
 8029SOL    HW224987   2.995   4.365   0.080
 8030SOL     OW24988   6.205   3.661   0.788
 8030SOL    HW124989   6.290   3.688   0.833
 8030SOL    HW224990   6.129   3.669   0.852
 8031SOL     OW24991   3.740   6.519   1.326
 8031SOL    HW124992   3.669   6.507   1.257
 8031SOL    HW224993   3.791   6.603   1.307
 8032SOL     OW24994   4.840   4.952   5.741
 8032SOL    HW124995   4.809   4.867   5.783
 8032SOL    HW224996   4.807   5.030   5.795
 8033SOL     OW24997   6.441   2.296   0.580
 8033SOL    HW124998   6.386   2.336   0.653
 8033SOL    HW224999   6.452   2.363   0.506
 8034SOL     OW25000   6.624   1.662   4.926
 8034SOL    HW125001   6.608   1.589   4.993
 8034SOL    HW225002   6.681   1.627   4.852
 8035SOL     OW25003   5.592   5.895   0.009
 8035SOL    HW125004   5.617   5.977   6.974
 8035SOL    HW225005   5.522   5.844   6.974
 8036SOL     OW25006   1.136   4.454   1.204
 8036SOL    HW125007   1.076   4.408   1.138
 8036SOL    HW225008   1.213   4.395   1.227
 8037SOL     OW25009   2.066   2.934   1.709
 8037SOL    HW125010   1.996   2.938   1.638
 8037SOL    HW225011   2.043   2.997   1.783
 8038SOL     OW25012   6.271   1.121   4.057
 8038SOL    HW125013   6.318   1.166   4.133
 8038SOL    HW225014   6.329   1.125   3.976
 8039SOL     OW25015   2.973   6.759   4.580
 8039SOL    HW125016   2.908   6.689   4.610
 8039SOL    HW225017   2.930   6.817   4.512
 8040SOL     OW25018   6.141   5.844   0.480
 8040SOL    HW125019   6.067   5.911   0.492
 8040SOL    HW225020   6.139   5.809   0.387
 8041SOL     OW25021   4.106   2.280   0.930
 8041SOL    HW125022   4.027   2.338   0.913
 8041SOL    HW225023   4.188   2.323   0.892
 8042SOL     OW25024   2.664   4.181   0.764
 8042SOL    HW125025   2.614   4.268   0.757
 8042SOL    HW225026   2.600   4.105   0.749
 8043SOL     OW25027   2.732   0.233   1.238
 8043SOL    HW125028   2.704   0.248   1.143
 8043SOL    HW225029   2.712   0.315   1.292
 8044SOL     OW25030   3.131   3.791   1.719
 8044SOL    HW125031   3.091   3.863   1.776
 8044SOL    HW225032   3.208   3.828   1.667
 8045SOL     OW25033   6.116   2.863   3.642
 8045SOL    HW125034   6.134   2.883   3.738
 8045SOL    HW225035   6.200   2.832   3.598
 8046SOL     OW25036   0.184   5.270   5.558
 8046SOL    HW125037   0.270   5.232   5.591
 8046SOL    HW225038   0.203   5.333   5.482
 8047SOL     OW25039   3.080   0.087   4.324
 8047SOL    HW125040   3.031   0.013   4.278
 8047SOL    HW225041   3.075   0.170   4.268
 8048SOL     OW25042   6.173   1.068   5.870
 8048SOL    HW125043   6.099   1.006   5.892
 8048SOL    HW225044   6.139   1.162   5.870
 8049SOL     OW25045   1.179   6.722   0.417
 8049SOL    HW125046   1.245   6.665   0.468
 8049SOL    HW225047   1.227   6.768   0.343
 8050SOL     OW25048   0.291   3.157   1.135
 8050SOL    HW125049   0.364   3.089   1.137
 8050SOL    HW225050   0.292   3.205   1.047
 8051SOL     OW25051   3.475   1.892   3.695
 8051SOL    HW125052   3.512   1.839   3.772
 8051SOL    HW225053   3.547   1.949   3.656
 8052SOL     OW25054   3.817   2.059   3.041
 8052SOL    HW125055   3.742   2.087   2.981
 8052SOL    HW225056   3.867   1.983   2.999
 8053SOL     OW25057   4.158   3.368   2.016
 8053SOL    HW125058   4.170   3.303   2.090
 8053SOL    HW225059   4.158   3.461   2.053
 8054SOL     OW25060   4.599   5.774   4.067
 8054SOL    HW125061   4.541   5.821   4.135
 8054SOL    HW225062   4.676   5.730   4.114
 8055SOL     OW25063   0.828   6.986   4.967
 8055SOL    HW125064   0.912   6.951   4.927
 8055SOL    HW225065   0.809   6.939   5.053
 8056SOL     OW25066   4.413   1.344   2.318
 8056SOL    HW125067   4.341   1.290   2.362
 8056SOL    HW225068   4.502   1.302   2.337
 8057SOL     OW25069   3.104   0.098   3.572
 8057SOL    HW125070   3.014   0.140   3.582
 8057SOL    HW225071   3.158   0.114   3.655
 8058SOL     OW25072   2.293   0.382   3.650
 8058SOL    HW125073   2.238   0.466   3.653
 8058SOL    HW225074   2.390   0.406   3.640
 8059SOL     OW25075   2.554   1.356   3.641
 8059SOL    HW125076   2.637   1.358   3.585
 8059SOL    HW225077   2.575   1.318   3.731
 8060SOL     OW25078   1.121   2.673   5.062
 8060SOL    HW125079   1.177   2.594   5.090
 8060SOL    HW225080   1.111   2.736   5.139
 8061SOL     OW25081   6.666   5.778   2.228
 8061SOL    HW125082   6.627   5.869   2.225
 8061SOL    HW225083   6.679   5.750   2.323
 8062SOL     OW25084   2.058   3.656   2.076
 8062SOL    HW125085   2.058   3.604   2.162
 8062SOL    HW225086   2.102   3.602   2.004
 8063SOL     OW25087   2.483   3.285   6.523
 8063SOL    HW125088   2.529   3.226   6.590
 8063SOL    HW225089   2.445   3.228   6.450
 8064SOL     OW25090   6.694   2.581   6.998
 8064SOL    HW125091   6.619   2.632   6.957
 8064SOL    HW225092   6.670   2.484   7.002
 8065SOL     OW25093   4.807   0.081   6.456
 8065SOL    HW125094   4.770   7.006   6.437
 8065SOL    HW225095   4.890   0.073   6.512
 8066SOL     OW25096   2.456   6.801   1.598
 8066SOL    HW125097   2.465   6.714   1.549
 8066SOL    HW225098   2.531   6.861   1.573
 8067SOL     OW25099   4.833   2.323   2.257
 8067SOL    HW125100   4.734   2.308   2.259
 8067SOL    HW225101   4.853   2.419   2.278
 8068SOL     OW25102   6.407   4.735   4.531
 8068SOL    HW125103   6.393   4.690   4.442
 8068SOL    HW225104   6.398   4.668   4.604
 8069SOL     OW25105   1.365   6.680   2.490
 8069SOL    HW125106   1.412   6.618   2.552
 8069SOL    HW225107   1.412   6.768   2.488
 8070SOL     OW25108   3.995   0.327   2.666
 8070SOL    HW125109   4.025   0.358   2.576
 8070SOL    HW225110   3.897   0.346   2.677
 8071SOL     OW25111   4.140   6.649   0.387
 8071SOL    HW125112   4.229   6.650   0.433
 8071SOL    HW225113   4.075   6.594   0.441
 8072SOL     OW25114   4.931   0.541   2.865
 8072SOL    HW125115   4.901   0.447   2.879
 8072SOL    HW225116   4.899   0.573   2.776
 8073SOL     OW25117   4.653   6.951   6.071
 8073SOL    HW125118   4.735   6.899   6.096
 8073SOL    HW225119   4.672   0.033   6.079
 8074SOL     OW25120   3.539   4.012   6.754
 8074SOL    HW125121   3.460   4.052   6.799
 8074SOL    HW225122   3.511   3.974   6.665
 8075SOL     OW25123   5.429   2.299   3.034
 8075SOL    HW125124   5.527   2.302   3.054
 8075SOL    HW225125   5.379   2.278   3.118
 8076SOL     OW25126   4.720   2.968   6.204
 8076SOL    HW125127   4.690   2.913   6.282
 8076SOL    HW225128   4.651   2.963   6.131
 8077SOL     OW25129   1.216   0.121   0.129
 8077SOL    HW125130   1.205   0.204   0.076
 8077SOL    HW225131   1.251   0.048   0.070
 8078SOL     OW25132   6.132   2.726   0.819
 8078SOL    HW125133   6.141   2.716   0.918
 8078SOL    HW225134   6.143   2.636   0.776
 8079SOL     OW25135   0.903   1.885   1.969
 8079SOL    HW125136   0.999   1.904   1.947
 8079SOL    HW225137   0.844   1.951   1.922
 8080SOL     OW25138   3.702   4.995   0.197
 8080SOL    HW125139   3.625   4.947   0.154
 8080SOL    HW225140   3.708   4.969   0.293
 8081SOL     OW25141   5.964   1.784   5.106
 8081SOL    HW125142   6.053   1.739   5.113
 8081SOL    HW225143   5.911   1.744   5.032
 8082SOL     OW25144   6.656   3.354   4.488
 8082SOL    HW125145   6.625   3.312   4.573
 8082SOL    HW225146   6.620   3.447   4.482
 8083SOL     OW25147   6.216   2.267   4.800
 8083SOL    HW125148   6.122   2.278   4.831
 8083SOL    HW225149   6.226   2.308   4.710
 8084SOL     OW25150   6.795   0.324   0.890
 8084SOL    HW125151   6.697   0.334   0.909
 8084SOL    HW225152   6.822   0.391   0.821
 8085SOL     OW25153   5.962   2.024   0.696
 8085SOL    HW125154   6.037   2.004   0.759
 8085SOL    HW225155   5.997   2.028   0.603
 8086SOL     OW25156   2.383   6.030   5.798
 8086SOL    HW125157   2.482   6.019   5.800
 8086SOL    HW225158   2.354   6.056   5.706
 8087SOL     OW25159   2.762   4.299   0.436
 8087SOL    HW125160   2.794   4.393   0.452
 8087SOL    HW225161   2.662   4.296   0.446
 8088SOL     OW25162   4.456   0.440   2.635
 8088SOL    HW125163   4.492   0.348   2.619
 8088SOL    HW225164   4.392   0.465   2.563
 8089SOL     OW25165   6.460   2.857   0.540
 8089SOL    HW125166   6.360   2.859   0.535
 8089SOL    HW225167   6.493   2.946   0.572
 8090SOL     OW25168   4.087   2.218   5.244
 8090SOL    HW125169   4.104   2.289   5.176
 8090SOL    HW225170   4.141   2.137   5.221
 8091SOL     OW25171   2.524   4.931   5.547
 8091SOL    HW125172   2.608   4.946   5.495
 8091SOL    HW225173   2.455   4.888   5.488
 8092SOL     OW25174   6.652   2.072   4.032
 8092SOL    HW125175   6.690   2.052   3.942
 8092SOL    HW225176   6.600   1.993   4.065
 8093SOL     OW25177   5.702   5.299   0.630
 8093SOL    HW125178   5.633   5.227   0.618
 8093SOL    HW225179   5.700   5.360   0.550
 8094SOL     OW25180   0.676   3.649   4.422
 8094SOL    HW125181   0.620   3.596   4.359
 8094SOL    HW225182   0.732   3.713   4.370
 8095SOL     OW25183   5.897   3.353   5.304
 8095SOL    HW125184   5.834   3.379   5.377
 8095SOL    HW225185   5.897   3.424   5.233
 8096SOL     OW25186   3.798   1.040   0.537
 8096SOL    HW125187   3.737   1.071   0.464
 8096SOL    HW225188   3.891   1.072   0.518
 8097SOL     OW25189   4.652   1.390   4.259
 8097SOL    HW125190   4.702   1.315   4.300
 8097SOL    HW225191   4.565   1.403   4.308
 8098SOL     OW25192   2.581   1.324   4.369
 8098SOL    HW125193   2.597   1.412   4.324
 8098SOL    HW225194   2.645   1.256   4.334
 8099SOL     OW25195   4.330   6.243   4.973
 8099SOL    HW125196   4.412   6.299   4.980
 8099SOL    HW225197   4.314   6.197   5.060
 8100SOL     OW25198   6.938   6.171   0.655
 8100SOL    HW125199   6.930   6.268   0.634
 8100SOL    HW225200   6.896   6.152   0.743
 8101SOL     OW25201   0.491   5.158   2.474
 8101SOL    HW125202   0.421   5.150   2.546
 8101SOL    HW225203   0.561   5.088   2.489
 8102SOL     OW25204   6.375   0.435   6.183
 8102SOL    HW125205   6.299   0.428   6.248
 8102SOL    HW225206   6.363   0.367   6.111
 8103SOL     OW25207   2.188   2.194   2.033
 8103SOL    HW125208   2.102   2.231   2.067
 8103SOL    HW225209   2.170   2.128   1.960
 8104SOL     OW25210   3.277   6.360   5.811
 8104SOL    HW125211   3.304   6.265   5.824
 8104SOL    HW225212   3.323   6.397   5.730
 8105SOL     OW25213   2.214   2.830   2.565
 8105SOL    HW125214   2.241   2.825   2.661
 8105SOL    HW225215   2.115   2.822   2.558
 8106SOL     OW25216   0.135   4.129   5.488
 8106SOL    HW125217   0.072   4.202   5.512
 8106SOL    HW225218   0.149   4.127   5.389
 8107SOL     OW25219   0.962   5.433   6.655
 8107SOL    HW125220   0.980   5.374   6.576
 8107SOL    HW225221   1.007   5.521   6.641
 8108SOL     OW25222   2.097   3.612   4.967
 8108SOL    HW125223   2.093   3.513   4.958
 8108SOL    HW225224   2.019   3.644   5.021
 8109SOL     OW25225   1.265   5.569   4.988
 8109SOL    HW125226   1.166   5.564   4.978
 8109SOL    HW225227   1.309   5.518   4.914
 8110SOL     OW25228   1.278   4.286   0.874
 8110SOL    HW125229   1.306   4.378   0.902
 8110SOL    HW225230   1.352   4.244   0.821
 8111SOL     OW25231   3.233   5.795   4.228
 8111SOL    HW125232   3.256   5.887   4.196
 8111SOL    HW225233   3.135   5.791   4.248
 8112SOL     OW25234   4.360   1.025   4.405
 8112SOL    HW125235   4.367   0.983   4.314
 8112SOL    HW225236   4.278   1.082   4.409
 8113SOL     OW25237   3.457   2.933   5.739
 8113SOL    HW125238   3.550   2.962   5.715
 8113SOL    HW225239   3.420   2.995   5.808
 8114SOL     OW25240   3.144   3.465   1.743
 8114SOL    HW125241   3.155   3.561   1.721
 8114SOL    HW225242   3.068   3.454   1.807
 8115SOL     OW25243   3.560   2.499   1.520
 8115SOL    HW125244   3.486   2.452   1.569
 8115SOL    HW225245   3.618   2.547   1.586
 8116SOL     OW25246   4.682   1.231   5.036
 8116SOL    HW125247   4.690   1.291   5.115
 8116SOL    HW225248   4.762   1.171   5.031
 8117SOL     OW25249   2.653   1.584   5.932
 8117SOL    HW125250   2.554   1.590   5.942
 8117SOL    HW225251   2.697   1.624   6.013
 8118SOL     OW25252   1.376   2.434   4.253
 8118SOL    HW125253   1.295   2.391   4.292
 8118SOL    HW225254   1.357   2.530   4.232
 8119SOL     OW25255   0.850   6.274   1.576
 8119SOL    HW125256   0.843   6.346   1.644
 8119SOL    HW225257   0.940   6.229   1.584
 8120SOL     OW25258   4.785   4.157   2.049
 8120SOL    HW125259   4.770   4.109   2.136
 8120SOL    HW225260   4.698   4.195   2.016
 8121SOL     OW25261   6.546   6.034   3.034
 8121SOL    HW125262   6.554   5.950   2.981
 8121SOL    HW225263   6.560   6.113   2.974
 8122SOL     OW25264   0.522   5.493   1.271
 8122SOL    HW125265   0.439   5.502   1.327
 8122SOL    HW225266   0.600   5.475   1.331
 8123SOL     OW25267   1.094   5.130   0.291
 8123SOL    HW125268   1.135   5.193   0.225
 8123SOL    HW225269   1.139   5.041   0.284
 8124SOL     OW25270   1.149   6.370   3.239
 8124SOL    HW125271   1.191   6.287   3.275
 8124SOL    HW225272   1.049   6.359   3.239
 8125SOL     OW25273   5.886   5.295   3.231
 8125SOL    HW125274   5.959   5.286   3.299
 8125SOL    HW225275   5.798   5.307   3.278
 8126SOL     OW25276   6.825   4.244   2.531
 8126SOL    HW125277   6.785   4.236   2.439
 8126SOL    HW225278   6.811   4.159   2.581
 8127SOL     OW25279   4.011   5.417   1.483
 8127SOL    HW125280   4.107   5.399   1.504
 8127SOL    HW225281   3.953   5.359   1.539
 8128SOL     OW25282   3.547   2.169   5.630
 8128SOL    HW125283   3.449   2.150   5.640
 8128SOL    HW225284   3.600   2.096   5.675
 8129SOL     OW25285   4.942   6.099   6.346
 8129SOL    HW125286   4.950   6.053   6.435
 8129SOL    HW225287   4.845   6.109   6.323
 8130SOL     OW25288   0.588   0.109   6.732
 8130SOL    HW125289   0.653   0.185   6.731
 8130SOL    HW225290   0.539   0.109   6.820
 8131SOL     OW25291   2.243   1.221   0.749
 8131SOL    HW125292   2.244   1.122   0.765
 8131SOL    HW225293   2.195   1.240   0.663
 8132SOL     OW25294   5.897   4.578   2.988
 8132SOL    HW125295   5.987   4.534   2.990
 8132SOL    HW225296   5.826   4.507   2.992
 8133SOL     OW25297   0.634   5.830   1.940
 8133SOL    HW125298   0.656   5.839   1.843
 8133SOL    HW225299   0.565   5.899   1.965
 8134SOL     OW25300   1.806   2.743   2.166
 8134SOL    HW125301   1.902   2.767   2.168
 8134SOL    HW225302   1.782   2.706   2.076
 8135SOL     OW25303   3.898   6.260   2.442
 8135SOL    HW125304   3.967   6.222   2.380
 8135SOL    HW225305   3.814   6.206   2.436
 8136SOL     OW25306   2.070   6.203   1.479
 8136SOL    HW125307   2.148   6.141   1.477
 8136SOL    HW225308   2.017   6.187   1.563
 8137SOL     OW25309   3.247   3.588   5.063
 8137SOL    HW125310   3.204   3.512   5.014
 8137SOL    HW225311   3.238   3.672   5.009
 8138SOL     OW25312   4.735   1.035   3.138
 8138SOL    HW125313   4.753   1.126   3.174
 8138SOL    HW225314   4.811   0.974   3.159
 8139SOL     OW25315   1.370   3.236   5.234
 8139SOL    HW125316   1.289   3.206   5.183
 8139SOL    HW225317   1.446   3.250   5.171
 8140SOL     OW25318   4.334   0.648   0.960
 8140SOL    HW125319   4.359   0.730   0.909
 8140SOL    HW225320   4.284   0.674   1.043
 8141SOL     OW25321   5.953   0.344   5.775
 8141SOL    HW125322   5.974   0.380   5.865
 8141SOL    HW225323   6.017   0.382   5.708
 8142SOL     OW25324   2.365   5.670   0.660
 8142SOL    HW125325   2.376   5.762   0.698
 8142SOL    HW225326   2.444   5.615   0.683
 8143SOL     OW25327   6.069   4.620   0.435
 8143SOL    HW125328   6.018   4.704   0.454
 8143SOL    HW225329   6.005   4.547   0.412
 8144SOL     OW25330   0.995   6.018   6.946
 8144SOL    HW125331   0.933   5.940   6.934
 8144SOL    HW225332   1.021   6.054   6.856
 8145SOL     OW25333   5.370   5.732   6.887
 8145SOL    HW125334   5.331   5.713   6.797
 8145SOL    HW225335   5.315   5.686   6.957
 8146SOL     OW25336   6.861   6.099   4.773
 8146SOL    HW125337   6.790   6.032   4.752
 8146SOL    HW225338   6.822   6.191   4.770
 8147SOL     OW25339   2.212   0.780   5.182
 8147SOL    HW125340   2.293   0.837   5.190
 8147SOL    HW225341   2.154   0.794   5.262
 8148SOL     OW25342   4.725   3.959   0.478
 8148SOL    HW125343   4.759   4.013   0.555
 8148SOL    HW225344   4.761   3.866   0.485
 8149SOL     OW25345   1.745   0.189   5.288
 8149SOL    HW125346   1.833   0.179   5.243
 8149SOL    HW225347   1.672   0.168   5.224
 8150SOL     OW25348   0.359   3.956   0.446
 8150SOL    HW125349   0.349   3.867   0.402
 8150SOL    HW225350   0.455   3.969   0.473
 8151SOL     OW25351   6.632   5.274   3.191
 8151SOL    HW125352   6.569   5.318   3.255
 8151SOL    HW225353   6.595   5.281   3.098
 8152SOL     OW25354   5.411   1.640   2.650
 8152SOL    HW125355   5.466   1.579   2.593
 8152SOL    HW225356   5.471   1.705   2.697
 8153SOL     OW25357   0.328   1.750   1.861
 8153SOL    HW125358   0.387   1.670   1.854
 8153SOL    HW225359   0.357   1.819   1.795
 8154SOL     OW25360   1.310   0.606   2.890
 8154SOL    HW125361   1.315   0.704   2.872
 8154SOL    HW225362   1.226   0.586   2.940
 8155SOL     OW25363   1.642   5.185   4.170
 8155SOL    HW125364   1.644   5.089   4.196
 8155SOL    HW225365   1.664   5.242   4.249
 8156SOL     OW25366   1.191   4.037   0.477
 8156SOL    HW125367   1.229   3.958   0.524
 8156SOL    HW225368   1.177   4.015   0.380
 8157SOL     OW25369   6.422   4.762   5.014
 8157SOL    HW125370   6.391   4.735   5.105
 8157SOL    HW225371   6.431   4.682   4.956
 8158SOL     OW25372   5.994   5.181   6.208
 8158SOL    HW125373   6.038   5.164   6.296
 8158SOL    HW225374   5.938   5.102   6.183
 8159SOL     OW25375   2.568   0.560   4.810
 8159SOL    HW125376   2.667   0.561   4.822
 8159SOL    HW225377   2.537   0.465   4.795
 8160SOL     OW25378   5.747   1.736   2.702
 8160SOL    HW125379   5.814   1.695   2.639
 8160SOL    HW225380   5.758   1.835   2.702
 8161SOL     OW25381   6.357   2.668   2.140
 8161SOL    HW125382   6.433   2.671   2.205
 8161SOL    HW225383   6.363   2.586   2.085
 8162SOL     OW25384   1.077   5.832   4.850
 8162SOL    HW125385   1.078   5.789   4.760
 8162SOL    HW225386   1.027   5.774   4.914
 8163SOL     OW25387   3.608   4.781   5.495
 8163SOL    HW125388   3.554   4.698   5.478
 8163SOL    HW225389   3.676   4.790   5.422
 8164SOL     OW25390   5.126   1.734   0.524
 8164SOL    HW125391   5.130   1.834   0.513
 8164SOL    HW225392   5.161   1.709   0.614
 8165SOL     OW25393   0.567   1.419   5.940
 8165SOL    HW125394   0.616   1.506   5.935
 8165SOL    HW225395   0.604   1.356   5.872
 8166SOL     OW25396   2.183   1.882   5.085
 8166SOL    HW125397   2.243   1.882   5.165
 8166SOL    HW225398   2.131   1.797   5.082
 8167SOL     OW25399   1.837   2.710   3.430
 8167SOL    HW125400   1.750   2.684   3.472
 8167SOL    HW225401   1.907   2.642   3.453
 8168SOL     OW25402   1.848   6.800   2.574
 8168SOL    HW125403   1.819   6.743   2.650
 8168SOL    HW225404   1.934   6.764   2.536
 8169SOL     OW25405   4.663   3.395   1.179
 8169SOL    HW125406   4.649   3.475   1.238
 8169SOL    HW225407   4.652   3.312   1.233
 8170SOL     OW25408   6.993   4.473   2.595
 8170SOL    HW125409   6.954   4.383   2.577
 8170SOL    HW225410   6.947   4.541   2.538
 8171SOL     OW25411   2.488   1.966   1.386
 8171SOL    HW125412   2.492   2.064   1.370
 8171SOL    HW225413   2.537   1.944   1.470
 8172SOL     OW25414   1.182   3.228   1.336
 8172SOL    HW125415   1.211   3.145   1.290
 8172SOL    HW225416   1.223   3.232   1.427
 8173SOL     OW25417   5.912   0.493   1.710
 8173SOL    HW125418   5.916   0.506   1.611
 8173SOL    HW225419   5.967   0.563   1.755
 8174SOL     OW25420   2.267   6.547   3.809
 8174SOL    HW125421   2.335   6.614   3.779
 8174SOL    HW225422   2.311   6.460   3.829
 8175SOL     OW25423   0.690   2.417   5.619
 8175SOL    HW125424   0.771   2.372   5.657
 8175SOL    HW225425   0.652   2.360   5.546
 8176SOL     OW25426   2.480   4.650   0.609
 8176SOL    HW125427   2.504   4.594   0.530
 8176SOL    HW225428   2.564   4.684   0.652
 8177SOL     OW25429   2.584   1.097   2.990
 8177SOL    HW125430   2.496   1.118   2.946
 8177SOL    HW225431   2.594   1.155   3.072
 8178SOL     OW25432   2.335   6.536   1.115
 8178SOL    HW125433   2.311   6.440   1.125
 8178SOL    HW225434   2.302   6.588   1.194
 8179SOL     OW25435   5.656   0.292   3.462
 8179SOL    HW125436   5.679   0.386   3.440
 8179SOL    HW225437   5.655   0.279   3.561
 8180SOL     OW25438   4.729   5.579   0.310
 8180SOL    HW125439   4.685   5.614   0.392
 8180SOL    HW225440   4.770   5.490   0.330
 8181SOL     OW25441   6.556   0.310   6.438
 8181SOL    HW125442   6.502   0.370   6.497
 8181SOL    HW225443   6.533   0.327   6.342
 8182SOL     OW25444   3.408   3.726   3.232
 8182SOL    HW125445   3.417   3.821   3.200
 8182SOL    HW225446   3.492   3.700   3.280
 8183SOL     OW25447   6.244   0.223   5.641
 8183SOL    HW125448   6.262   0.129   5.612
 8183SOL    HW225449   6.304   0.285   5.591
 8184SOL     OW25450   6.907   5.586   5.749
 8184SOL    HW125451   6.808   5.591   5.755
 8184SOL    HW225452   6.934   5.497   5.711
 8185SOL     OW25453   0.236   5.698   5.335
 8185SOL    HW125454   0.290   5.778   5.358
 8185SOL    HW225455   0.159   5.691   5.398
 8186SOL     OW25456   1.587   5.541   0.606
 8186SOL    HW125457   1.526   5.574   0.677
 8186SOL    HW225458   1.665   5.494   0.648
 8187SOL     OW25459   1.799   0.122   4.874
 8187SOL    HW125460   1.714   0.151   4.917
 8187SOL    HW225461   1.876   0.167   4.919
 8188SOL     OW25462   1.964   3.325   2.653
 8188SOL    HW125463   1.916   3.367   2.730
 8188SOL    HW225464   2.038   3.385   2.623
 8189SOL     OW25465   6.056   5.157   3.720
 8189SOL    HW125466   6.083   5.248   3.688
 8189SOL    HW225467   5.957   5.150   3.720
 8190SOL     OW25468   6.445   3.939   2.976
 8190SOL    HW125469   6.428   3.957   2.879
 8190SOL    HW225470   6.512   3.865   2.985
 8191SOL     OW25471   3.945   4.658   0.884
 8191SOL    HW125472   4.027   4.648   0.828
 8191SOL    HW225473   3.954   4.604   0.967
 8192SOL     OW25474   0.654   5.786   3.391
 8192SOL    HW125475   0.681   5.716   3.457
 8192SOL    HW225476   0.655   5.876   3.434
 8193SOL     OW25477   0.754   4.695   3.632
 8193SOL    HW125478   0.815   4.722   3.557
 8193SOL    HW225479   0.706   4.776   3.666
 8194SOL     OW25480   4.818   0.623   1.586
 8194SOL    HW125481   4.818   0.705   1.644
 8194SOL    HW225482   4.799   0.650   1.491
 8195SOL     OW25483   6.218   0.040   3.846
 8195SOL    HW125484   6.121   0.019   3.850
 8195SOL    HW225485   6.240   0.077   3.755
 8196SOL     OW25486   5.061   0.981   2.203
 8196SOL    HW125487   5.005   0.912   2.249
 8196SOL    HW225488   5.157   0.955   2.209
 8197SOL     OW25489   3.948   1.870   3.337
 8197SOL    HW125490   3.908   1.960   3.354
 8197SOL    HW225491   3.991   1.869   3.246
 8198SOL     OW25492   1.406   5.879   1.525
 8198SOL    HW125493   1.492   5.830   1.517
 8198SOL    HW225494   1.417   5.957   1.587
 8199SOL     OW25495   6.065   2.266   0.320
 8199SOL    HW125496   6.002   2.248   0.395
 8199SOL    HW225497   6.016   2.309   0.244
 8200SOL     OW25498   4.976   3.543   0.904
 8200SOL    HW125499   4.983   3.486   0.985
 8200SOL    HW225500   5.066   3.577   0.878
 8201SOL     OW25501   5.655   6.715   5.237
 8201SOL    HW125502   5.642   6.780   5.312
 8201SOL    HW225503   5.567   6.696   5.193
 8202SOL     OW25504   1.164   6.256   1.774
 8202SOL    HW125505   1.138   6.222   1.683
 8202SOL    HW225506   1.154   6.355   1.776
 8203SOL     OW25507   1.927   3.509   1.308
 8203SOL    HW125508   2.025   3.493   1.296
 8203SOL    HW225509   1.907   3.605   1.290
 8204SOL     OW25510   2.162   3.480   0.585
 8204SOL    HW125511   2.221   3.432   0.651
 8204SOL    HW225512   2.070   3.490   0.624
 8205SOL     OW25513   0.800   4.267   6.997
 8205SOL    HW125514   0.862   4.331   6.952
 8205SOL    HW225515   0.777   4.193   6.934
 8206SOL     OW25516   3.175   1.505   1.425
 8206SOL    HW125517   3.254   1.476   1.480
 8206SOL    HW225518   3.110   1.429   1.418
 8207SOL     OW25519   3.913   3.916   3.929
 8207SOL    HW125520   3.904   3.834   3.986
 8207SOL    HW225521   3.830   3.970   3.934
 8208SOL     OW25522   2.143   0.076   0.183
 8208SOL    HW125523   2.241   0.067   0.199
 8208SOL    HW225524   2.096   0.093   0.269
 8209SOL     OW25525   6.102   1.429   4.771
 8209SOL    HW125526   6.033   1.502   4.770
 8209SOL    HW225527   6.158   1.436   4.688
 8210SOL     OW25528   2.251   2.680   6.330
 8210SOL    HW125529   2.239   2.602   6.268
 8210SOL    HW225530   2.164   2.730   6.336
 8211SOL     OW25531   4.270   4.573   1.405
 8211SOL    HW125532   4.199   4.607   1.467
 8211SOL    HW225533   4.338   4.645   1.390
 8212SOL     OW25534   1.911   2.770   2.994
 8212SOL    HW125535   1.946   2.847   2.941
 8212SOL    HW225536   1.903   2.796   3.090
 8213SOL     OW25537   6.477   4.429   1.139
 8213SOL    HW125538   6.530   4.451   1.220
 8213SOL    HW225539   6.450   4.513   1.093
 8214SOL     OW25540   5.301   3.504   3.089
 8214SOL    HW125541   5.238   3.556   3.030
 8214SOL    HW225542   5.250   3.432   3.135
 8215SOL     OW25543   3.389   5.121   2.723
 8215SOL    HW125544   3.346   5.207   2.749
 8215SOL    HW225545   3.464   5.139   2.659
 8216SOL     OW25546   5.461   3.415   3.717
 8216SOL    HW125547   5.372   3.455   3.694
 8216SOL    HW225548   5.525   3.488   3.739
 8217SOL     OW25549   1.950   6.391   1.140
 8217SOL    HW125550   1.926   6.449   1.219
 8217SOL    HW225551   1.868   6.349   1.102
 8218SOL     OW25552   6.107   2.082   0.115
 8218SOL    HW125553   6.087   2.138   0.196
 8218SOL    HW225554   6.152   2.138   0.046
 8219SOL     OW25555   5.514   1.609   6.759
 8219SOL    HW125556   5.488   1.525   6.711
 8219SOL    HW225557   5.543   1.586   6.852
 8220SOL     OW25558   4.199   3.798   1.659
 8220SOL    HW125559   4.126   3.786   1.726
 8220SOL    HW225560   4.242   3.888   1.671
 8221SOL     OW25561   5.100   4.495   3.311
 8221SOL    HW125562   5.117   4.397   3.303
 8221SOL    HW225563   5.170   4.545   3.259
 8222SOL     OW25564   6.528   1.616   2.615
 8222SOL    HW125565   6.465   1.561   2.671
 8222SOL    HW225566   6.536   1.575   2.525
 8223SOL     OW25567   6.786   5.167   5.764
 8223SOL    HW125568   6.728   5.216   5.830
 8223SOL    HW225569   6.869   5.221   5.748
 8224SOL     OW25570   0.987   3.532   2.894
 8224SOL    HW125571   0.891   3.543   2.872
 8224SOL    HW225572   0.996   3.492   2.986
 8225SOL     OW25573   4.637   1.012   0.590
 8225SOL    HW125574   4.659   0.915   0.598
 8225SOL    HW225575   4.641   1.039   0.494
 8226SOL     OW25576   4.147   0.676   0.675
 8226SOL    HW125577   4.095   0.741   0.731
 8226SOL    HW225578   4.227   0.644   0.726
 8227SOL     OW25579   5.693   3.824   2.907
 8227SOL    HW125580   5.671   3.896   2.841
 8227SOL    HW225581   5.689   3.735   2.862
 8228SOL     OW25582   0.305   1.955   4.759
 8228SOL    HW125583   0.243   1.996   4.826
 8228SOL    HW225584   0.315   2.017   4.681
 8229SOL     OW25585   3.751   5.689   0.709
 8229SOL    HW125586   3.790   5.776   0.681
 8229SOL    HW225587   3.809   5.648   0.780
 8230SOL     OW25588   5.018   0.224   3.953
 8230SOL    HW125589   5.012   0.136   3.906
 8230SOL    HW225590   4.996   0.298   3.890
 8231SOL     OW25591   4.172   5.975   1.454
 8231SOL    HW125592   4.227   5.891   1.453
 8231SOL    HW225593   4.230   6.052   1.481
 8232SOL     OW25594   2.309   1.519   6.537
 8232SOL    HW125595   2.211   1.515   6.557
 8232SOL    HW225596   2.323   1.504   6.439
 8233SOL     OW25597   0.228   5.185   6.149
 8233SOL    HW125598   0.131   5.164   6.166
 8233SOL    HW225599   0.285   5.113   6.190
 8234SOL     OW25600   3.189   3.488   0.354
 8234SOL    HW125601   3.125   3.414   0.375
 8234SOL    HW225602   3.189   3.505   0.256
 8235SOL     OW25603   4.633   2.571   0.106
 8235SOL    HW125604   4.701   2.559   0.034
 8235SOL    HW225605   4.612   2.482   0.147
 8236SOL     OW25606   5.757   2.227   0.910
 8236SOL    HW125607   5.748   2.171   0.828
 8236SOL    HW225608   5.853   2.252   0.923
 8237SOL     OW25609   4.014   6.422   5.648
 8237SOL    HW125610   3.965   6.355   5.703
 8237SOL    HW225611   3.949   6.488   5.609
 8238SOL     OW25612   1.821   0.846   0.119
 8238SOL    HW125613   1.883   0.892   0.055
 8238SOL    HW225614   1.872   0.777   0.170
 8239SOL     OW25615   6.884   1.263   6.745
 8239SOL    HW125616   6.966   1.276   6.800
 8239SOL    HW225617   6.842   1.352   6.728
 8240SOL     OW25618   4.109   3.358   3.412
 8240SOL    HW125619   4.167   3.278   3.398
 8240SOL    HW225620   4.032   3.356   3.348
 8241SOL     OW25621   4.590   6.607   1.696
 8241SOL    HW125622   4.634   6.522   1.666
 8241SOL    HW225623   4.519   6.587   1.763
 8242SOL     OW25624   0.966   3.956   5.374
 8242SOL    HW125625   0.904   3.981   5.301
 8242SOL    HW225626   1.035   3.892   5.340
 8243SOL     OW25627   1.055   3.394   5.129
 8243SOL    HW125628   0.984   3.447   5.175
 8243SOL    HW225629   1.128   3.455   5.099
 8244SOL     OW25630   1.549   5.497   4.575
 8244SOL    HW125631   1.569   5.454   4.663
 8244SOL    HW225632   1.608   5.577   4.563
 8245SOL     OW25633   3.552   3.815   0.588
 8245SOL    HW125634   3.533   3.851   0.679
 8245SOL    HW225635   3.493   3.736   0.571
 8246SOL     OW25636   5.093   3.953   5.483
 8246SOL    HW125637   5.019   3.953   5.550
 8246SOL    HW225638   5.132   3.861   5.476
 8247SOL     OW25639   1.085   6.816   1.564
 8247SOL    HW125640   1.067   6.803   1.466
 8247SOL    HW225641   1.151   6.748   1.595
 8248SOL     OW25642   0.438   4.355   3.550
 8248SOL    HW125643   0.449   4.261   3.516
 8248SOL    HW225644   0.516   4.410   3.520
 8249SOL     OW25645   1.473   5.643   3.160
 8249SOL    HW125646   1.552   5.597   3.122
 8249SOL    HW225647   1.495   5.739   3.177
 8250SOL     OW25648   4.063   3.652   2.089
 8250SOL    HW125649   4.028   3.659   1.996
 8250SOL    HW225650   3.992   3.677   2.154
 8251SOL     OW25651   6.159   1.354   5.285
 8251SOL    HW125652   6.172   1.259   5.315
 8251SOL    HW225653   6.195   1.364   5.192
 8252SOL     OW25654   1.144   3.485   4.215
 8252SOL    HW125655   1.203   3.477   4.295
 8252SOL    HW225656   1.197   3.514   4.136
 8253SOL     OW25657   2.557   2.877   5.389
 8253SOL    HW125658   2.625   2.900   5.458
 8253SOL    HW225659   2.552   2.950   5.321
 8254SOL     OW25660   4.351   5.657   3.643
 8254SOL    HW125661   4.348   5.576   3.585
 8254SOL    HW225662   4.332   5.632   3.738
 8255SOL     OW25663   4.021   5.049   3.880
 8255SOL    HW125664   4.101   5.102   3.909
 8255SOL    HW225665   4.052   4.965   3.835
 8256SOL     OW25666   6.454   2.490   4.187
 8256SOL    HW125667   6.384   2.430   4.148
 8256SOL    HW225668   6.420   2.584   4.189
 8257SOL     OW25669   6.547   4.050   4.837
 8257SOL    HW125670   6.620   4.077   4.774
 8257SOL    HW225671   6.459   4.079   4.800
 8258SOL     OW25672   4.952   1.304   0.078
 8258SOL    HW125673   4.997   1.377   0.130
 8258SOL    HW225674   4.944   1.332   6.998
 8259SOL     OW25675   4.120   1.033   1.660
 8259SOL    HW125676   4.114   1.128   1.691
 8259SOL    HW225677   4.164   1.030   1.571
 8260SOL     OW25678   2.657   5.905   0.536
 8260SOL    HW125679   2.583   5.883   0.472
 8260SOL    HW225680   2.725   5.962   0.490
 8261SOL     OW25681   5.334   1.052   1.861
 8261SOL    HW125682   5.238   1.060   1.886
 8261SOL    HW225683   5.347   1.087   1.768
 8262SOL     OW25684   0.888   1.917   0.616
 8262SOL    HW125685   0.974   1.944   0.574
 8262SOL    HW225686   0.834   1.998   0.638
 8263SOL     OW25687   6.033   1.356   0.395
 8263SOL    HW125688   6.056   1.453   0.407
 8263SOL    HW225689   5.984   1.324   0.477
 8264SOL     OW25690   1.707   4.531   2.564
 8264SOL    HW125691   1.653   4.479   2.629
 8264SOL    HW225692   1.782   4.475   2.530
 8265SOL     OW25693   1.764   1.002   2.398
 8265SOL    HW125694   1.847   0.961   2.435
 8265SOL    HW225695   1.736   0.952   2.316
 8266SOL     OW25696   2.923   0.393   3.054
 8266SOL    HW125697   2.886   0.462   2.993
 8266SOL    HW225698   2.873   0.307   3.043
 8267SOL     OW25699   0.434   3.624   0.536
 8267SOL    HW125700   0.498   3.548   0.531
 8267SOL    HW225701   0.484   3.710   0.542
 8268SOL     OW25702   3.517   5.848   6.410
 8268SOL    HW125703   3.573   5.771   6.380
 8268SOL    HW225704   3.575   5.919   6.451
 8269SOL     OW25705   6.148   1.979   0.900
 8269SOL    HW125706   6.245   1.996   0.915
 8269SOL    HW225707   6.111   1.926   0.977
 8270SOL     OW25708   3.626   6.431   4.267
 8270SOL    HW125709   3.541   6.441   4.318
 8270SOL    HW225710   3.606   6.403   4.173
 8271SOL     OW25711   6.529   2.225   2.068
 8271SOL    HW125712   6.576   2.144   2.102
 8271SOL    HW225713   6.559   2.305   2.119
 8272SOL     OW25714   3.668   1.282   4.248
 8272SOL    HW125715   3.591   1.299   4.186
 8272SOL    HW225716   3.659   1.340   4.329
 8273SOL     OW25717   2.005   6.764   1.240
 8273SOL    HW125718   1.965   6.677   1.268
 8273SOL    HW225719   1.935   6.820   1.195
 8274SOL     OW25720   5.187   4.125   3.653
 8274SOL    HW125721   5.131   4.179   3.716
 8274SOL    HW225722   5.193   4.172   3.565
 8275SOL     OW25723   4.671   2.158   6.543
 8275SOL    HW125724   4.699   2.065   6.568
 8275SOL    HW225725   4.572   2.167   6.556
 8276SOL     OW25726   0.199   1.919   3.029
 8276SOL    HW125727   0.295   1.907   3.053
 8276SOL    HW225728   0.180   1.870   2.943
 8277SOL     OW25729   6.383   0.380   6.886
 8277SOL    HW125730   6.390   0.435   6.969
 8277SOL    HW225731   6.430   0.292   6.900
 8278SOL     OW25732   1.811   2.562   6.592
 8278SOL    HW125733   1.800   2.651   6.548
 8278SOL    HW225734   1.803   2.573   6.691
 8279SOL     OW25735   6.978   6.191   3.792
 8279SOL    HW125736   6.940   6.144   3.712
 8279SOL    HW225737   6.904   6.221   3.852
 8280SOL     OW25738   3.170   1.979   6.149
 8280SOL    HW125739   3.080   1.995   6.110
 8280SOL    HW225740   3.180   1.882   6.173
 8281SOL     OW25741   5.934   5.826   2.238
 8281SOL    HW125742   6.008   5.772   2.277
 8281SOL    HW225743   5.939   5.920   2.273
 8282SOL     OW25744   5.689   2.886   6.372
 8282SOL    HW125745   5.603   2.875   6.422
 8282SOL    HW225746   5.706   2.984   6.358
 8283SOL     OW25747   2.025   2.820   5.841
 8283SOL    HW125748   1.970   2.857   5.915
 8283SOL    HW225749   2.105   2.878   5.826
 8284SOL     OW25750   6.411   3.913   1.669
 8284SOL    HW125751   6.424   3.841   1.602
 8284SOL    HW225752   6.404   3.873   1.761
 8285SOL     OW25753   3.835   3.698   4.283
 8285SOL    HW125754   3.789   3.744   4.358
 8285SOL    HW225755   3.920   3.747   4.262
 8286SOL     OW25756   6.711   1.525   5.934
 8286SOL    HW125757   6.778   1.590   5.898
 8286SOL    HW225758   6.740   1.432   5.911
 8287SOL     OW25759   1.374   5.778   4.228
 8287SOL    HW125760   1.325   5.695   4.201
 8287SOL    HW225761   1.344   5.855   4.171
 8288SOL     OW25762   2.624   2.258   2.949
 8288SOL    HW125763   2.721   2.278   2.944
 8288SOL    HW225764   2.609   2.161   2.928
 8289SOL     OW25765   0.038   6.106   6.757
 8289SOL    HW125766   0.131   6.130   6.728
 8289SOL    HW225767   7.012   6.044   6.690
 8290SOL     OW25768   6.844   2.729   0.581
 8290SOL    HW125769   6.820   2.761   0.489
 8290SOL    HW225770   6.760   2.706   0.631
 8291SOL     OW25771   3.997   0.087   1.110
 8291SOL    HW125772   4.041   0.049   1.029
 8291SOL    HW225773   3.908   0.123   1.086
 8292SOL     OW25774   2.753   6.878   6.242
 8292SOL    HW125775   2.790   6.963   6.204
 8292SOL    HW225776   2.685   6.900   6.311
 8293SOL     OW25777   5.644   6.055   4.950
 8293SOL    HW125778   5.728   6.092   4.990
 8293SOL    HW225779   5.566   6.113   4.975
 8294SOL     OW25780   5.252   2.372   0.133
 8294SOL    HW125781   5.254   2.297   0.066
 8294SOL    HW225782   5.312   2.446   0.102
 8295SOL     OW25783   4.506   3.935   0.191
 8295SOL    HW125784   4.544   3.851   0.152
 8295SOL    HW225785   4.488   3.921   0.289
 8296SOL     OW25786   1.342   5.122   6.723
 8296SOL    HW125787   1.286   5.194   6.764
 8296SOL    HW225788   1.351   5.139   6.625
 8297SOL     OW25789   0.878   2.436   3.851
 8297SOL    HW125790   0.940   2.442   3.773
 8297SOL    HW225791   0.904   2.357   3.907
 8298SOL     OW25792   4.751   1.549   1.688
 8298SOL    HW125793   4.775   1.563   1.784
 8298SOL    HW225794   4.827   1.578   1.630
 8299SOL     OW25795   6.509   2.125   1.355
 8299SOL    HW125796   6.451   2.150   1.278
 8299SOL    HW225797   6.602   2.157   1.339
 8300SOL     OW25798   1.041   4.662   3.396
 8300SOL    HW125799   1.136   4.633   3.403
 8300SOL    HW225800   0.982   4.581   3.390
 8301SOL     OW25801   3.451   3.004   6.887
 8301SOL    HW125802   3.370   2.945   6.890
 8301SOL    HW225803   3.482   3.013   6.792
 8302SOL     OW25804   5.357   5.602   6.020
 8302SOL    HW125805   5.349   5.685   6.075
 8302SOL    HW225806   5.414   5.620   5.940
 8303SOL     OW25807   0.172   0.560   6.107
 8303SOL    HW125808   0.208   0.652   6.125
 8303SOL    HW225809   0.147   0.552   6.011
 8304SOL     OW25810   0.335   3.046   6.970
 8304SOL    HW125811   0.337   3.097   6.883
 8304SOL    HW225812   0.354   2.949   6.952
 8305SOL     OW25813   3.301   5.662   3.649
 8305SOL    HW125814   3.331   5.625   3.561
 8305SOL    HW225815   3.373   5.647   3.718
 8306SOL     OW25816   0.851   3.621   4.142
 8306SOL    HW125817   0.865   3.716   4.168
 8306SOL    HW225818   0.935   3.569   4.159
 8307SOL     OW25819   2.738   5.517   0.958
 8307SOL    HW125820   2.760   5.564   0.873
 8307SOL    HW225821   2.790   5.557   1.033
 8308SOL     OW25822   3.505   0.510   3.023
 8308SOL    HW125823   3.438   0.549   3.087
 8308SOL    HW225824   3.562   0.583   2.985
 8309SOL     OW25825   5.863   5.957   1.760
 8309SOL    HW125826   5.827   5.999   1.677
 8309SOL    HW225827   5.816   5.995   1.840
 8310SOL     OW25828   6.693   4.606   0.080
 8310SOL    HW125829   6.629   4.585   0.154
 8310SOL    HW225830   6.786   4.585   0.110
 8311SOL     OW25831   6.042   0.136   0.055
 8311SOL    HW125832   6.073   0.223   0.093
 8311SOL    HW225833   5.956   0.109   0.099
 8312SOL     OW25834   5.357   6.650   1.218
 8312SOL    HW125835   5.319   6.667   1.127
 8312SOL    HW225836   5.313   6.710   1.285
 8313SOL     OW25837   3.338   1.516   2.783
 8313SOL    HW125838   3.339   1.611   2.752
 8313SOL    HW225839   3.253   1.497   2.831
 8314SOL     OW25840   6.899   6.792   3.573
 8314SOL    HW125841   6.873   6.703   3.536
 8314SOL    HW225842   6.895   6.789   3.673
 8315SOL     OW25843   5.152   4.789   6.534
 8315SOL    HW125844   5.230   4.806   6.594
 8315SOL    HW225845   5.081   4.740   6.584
 8316SOL     OW25846   2.469   5.788   6.778
 8316SOL    HW125847   2.491   5.717   6.845
 8316SOL    HW225848   2.488   5.878   6.817
 8317SOL     OW25849   1.963   4.711   2.198
 8317SOL    HW125850   1.995   4.782   2.261
 8317SOL    HW225851   1.894   4.749   2.136
 8318SOL     OW25852   3.720   0.926   5.423
 8318SOL    HW125853   3.725   0.856   5.494
 8318SOL    HW225854   3.741   1.015   5.462
 8319SOL     OW25855   3.563   0.490   4.723
 8319SOL    HW125856   3.532   0.584   4.715
 8319SOL    HW225857   3.646   0.477   4.668
 8320SOL     OW25858   4.024   4.783   1.814
 8320SOL    HW125859   4.108   4.731   1.833
 8320SOL    HW225860   3.954   4.721   1.778
 8321SOL     OW25861   0.523   0.873   1.136
 8321SOL    HW125862   0.440   0.900   1.186
 8321SOL    HW225863   0.580   0.954   1.121
 8322SOL     OW25864   5.800   6.771   0.255
 8322SOL    HW125865   5.795   6.681   0.211
 8322SOL    HW225866   5.715   6.787   0.306
 8323SOL     OW25867   1.667   2.351   1.897
 8323SOL    HW125868   1.731   2.347   1.820
 8323SOL    HW225869   1.717   2.338   1.983
 8324SOL     OW25870   6.963   1.375   2.001
 8324SOL    HW125871   6.936   1.296   2.057
 8324SOL    HW225872   0.033   1.412   2.035
 8325SOL     OW25873   2.954   3.483   3.710
 8325SOL    HW125874   3.011   3.412   3.668
 8325SOL    HW225875   2.931   3.552   3.641
 8326SOL     OW25876   3.189   3.378   6.004
 8326SOL    HW125877   3.222   3.400   5.912
 8326SOL    HW225878   3.255   3.409   6.071
 8327SOL     OW25879   4.565   1.614   5.875
 8327SOL    HW125880   4.614   1.700   5.862
 8327SOL    HW225881   4.469   1.632   5.892
 8328SOL     OW25882   2.747   2.470   5.173
 8328SOL    HW125883   2.721   2.533   5.245
 8328SOL    HW225884   2.688   2.483   5.093
 8329SOL     OW25885   6.961   2.663   5.333
 8329SOL    HW125886   6.970   2.577   5.383
 8329SOL    HW225887   6.872   2.704   5.354
 8330SOL     OW25888   3.085   6.699   0.306
 8330SOL    HW125889   3.156   6.656   0.362
 8330SOL    HW225890   3.125   6.773   0.253
 8331SOL     OW25891   2.556   6.920   1.013
 8331SOL    HW125892   2.569   6.831   0.969
 8331SOL    HW225893   2.488   6.973   0.961
 8332SOL     OW25894   5.063   5.856   2.662
 8332SOL    HW125895   5.055   5.923   2.736
 8332SOL    HW225896   4.977   5.851   2.612
 8333SOL     OW25897   1.214   5.976   6.112
 8333SOL    HW125898   1.221   5.979   6.013
 8333SOL    HW225899   1.118   5.979   6.140
 8334SOL     OW25900   5.838   0.786   3.760
 8334SOL    HW125901   5.833   0.885   3.745
 8334SOL    HW225902   5.916   0.766   3.819
 8335SOL     OW25903   5.559   6.654   5.520
 8335SOL    HW125904   5.643   6.633   5.468
 8335SOL    HW225905   5.584   6.691   5.609
 8336SOL     OW25906   0.373   2.219   2.357
 8336SOL    HW125907   0.300   2.181   2.301
 8336SOL    HW225908   0.450   2.246   2.299
 8337SOL     OW25909   0.617   6.319   2.261
 8337SOL    HW125910   0.698   6.346   2.209
 8337SOL    HW225911   0.639   6.241   2.319
 8338SOL     OW25912   1.532   4.788   0.555
 8338SOL    HW125913   1.467   4.797   0.479
 8338SOL    HW225914   1.620   4.827   0.528
 8339SOL     OW25915   5.542   1.145   2.775
 8339SOL    HW125916   5.484   1.152   2.856
 8339SOL    HW225917   5.623   1.090   2.797
 8340SOL     OW25918   4.622   3.266   0.937
 8340SOL    HW125919   4.640   3.171   0.965
 8340SOL    HW225920   4.645   3.328   1.011
 8341SOL     OW25921   2.106   0.007   1.288
 8341SOL    HW125922   2.198   0.024   1.324
 8341SOL    HW225923   2.090   6.924   1.280
 8342SOL     OW25924   4.220   0.754   1.720
 8342SOL    HW125925   4.167   0.839   1.715
 8342SOL    HW225926   4.286   0.751   1.646
 8343SOL     OW25927   1.646   5.083   5.874
 8343SOL    HW125928   1.564   5.099   5.819
 8343SOL    HW225929   1.630   5.114   5.968
 8344SOL     OW25930   3.766   0.268   5.302
 8344SOL    HW125931   3.815   0.181   5.294
 8344SOL    HW225932   3.826   0.336   5.342
 8345SOL     OW25933   6.444   1.374   2.411
 8345SOL    HW125934   6.360   1.322   2.394
 8345SOL    HW225935   6.505   1.320   2.470
 8346SOL     OW25936   3.050   5.433   1.933
 8346SOL    HW125937   3.084   5.353   1.981
 8346SOL    HW225938   3.079   5.430   1.837
 8347SOL     OW25939   3.429   5.155   3.972
 8347SOL    HW125940   3.409   5.193   4.062
 8347SOL    HW225941   3.496   5.212   3.926
 8348SOL     OW25942   1.355   0.429   0.273
 8348SOL    HW125943   1.359   0.450   0.176
 8348SOL    HW225944   1.275   0.472   0.313
 8349SOL     OW25945   5.881   5.203   1.771
 8349SOL    HW125946   5.923   5.113   1.786
 8349SOL    HW225947   5.896   5.230   1.675
 8350SOL     OW25948   6.608   0.565   4.904
 8350SOL    HW125949   6.580   0.629   4.833
 8350SOL    HW225950   6.527   0.520   4.942
 8351SOL     OW25951   2.905   6.315   2.177
 8351SOL    HW125952   2.999   6.282   2.164
 8351SOL    HW225953   2.866   6.340   2.088
 8352SOL     OW25954   6.833   6.272   1.234
 8352SOL    HW125955   6.932   6.286   1.240
 8352SOL    HW225956   6.786   6.342   1.288
 8353SOL     OW25957   0.410   3.784   2.178
 8353SOL    HW125958   0.344   3.791   2.253
 8353SOL    HW225959   0.410   3.690   2.143
 8354SOL     OW25960   2.366   0.675   0.587
 8354SOL    HW125961   2.440   0.742   0.584
 8354SOL    HW225962   2.279   0.721   0.566
 8355SOL     OW25963   2.979   1.148   0.548
 8355SOL    HW125964   2.916   1.102   0.487
 8355SOL    HW225965   3.012   1.233   0.505
 8356SOL     OW25966   2.031   5.437   0.150
 8356SOL    HW125967   1.961   5.417   0.218
 8356SOL    HW225968   1.994   5.499   0.081
 8357SOL     OW25969   4.866   5.427   4.311
 8357SOL    HW125970   4.856   5.517   4.269
 8357SOL    HW225971   4.934   5.373   4.261
 8358SOL     OW25972   2.679   1.917   5.609
 8358SOL    HW125973   2.751   1.954   5.667
 8358SOL    HW225974   2.597   1.974   5.617
 8359SOL     OW25975   4.820   4.974   4.016
 8359SOL    HW125976   4.843   5.001   4.110
 8359SOL    HW225977   4.754   4.900   4.018
 8360SOL     OW25978   4.831   0.238   3.329
 8360SOL    HW125979   4.772   0.261   3.252
 8360SOL    HW225980   4.791   0.274   3.413
 8361SOL     OW25981   1.794   0.744   2.840
 8361SOL    HW125982   1.779   0.839   2.814
 8361SOL    HW225983   1.818   0.738   2.936
 8362SOL     OW25984   2.537   3.056   0.587
 8362SOL    HW125985   2.556   2.994   0.663
 8362SOL    HW225986   2.545   3.006   0.501
 8363SOL     OW25987   0.254   3.460   0.679
 8363SOL    HW125988   0.290   3.399   0.750
 8363SOL    HW225989   0.329   3.511   0.638
 8364SOL     OW25990   6.772   4.810   4.145
 8364SOL    HW125991   6.771   4.890   4.084
 8364SOL    HW225992   6.678   4.782   4.165
 8365SOL     OW25993   2.012   3.558   6.068
 8365SOL    HW125994   2.024   3.606   6.155
 8365SOL    HW225995   2.084   3.587   6.004
 8366SOL     OW25996   3.231   6.975   3.373
 8366SOL    HW125997   3.321   6.949   3.407
 8366SOL    HW225998   3.182   0.011   3.444
 8367SOL     OW25999   5.502   5.699   4.036
 8367SOL    HW126000   5.462   5.786   4.065
 8367SOL    HW226001   5.578   5.717   3.973
 8368SOL     OW26002   3.106   5.312   6.807
 8368SOL    HW126003   3.021   5.342   6.763
 8368SOL    HW226004   3.170   5.279   6.738
 8369SOL     OW26005   2.386   1.260   1.317
 8369SOL    HW126006   2.468   1.316   1.314
 8369SOL    HW226007   2.345   1.255   1.226
 8370SOL     OW26008   1.529   1.607   6.949
 8370SOL    HW126009   1.483   1.590   0.021
 8370SOL    HW226010   1.497   1.693   6.910
 8371SOL     OW26011   2.061   3.286   0.806
 8371SOL    HW126012   2.144   3.243   0.772
 8371SOL    HW226013   2.083   3.337   0.890
 8372SOL     OW26014   0.227   0.662   1.659
 8372SOL    HW126015   0.239   0.598   1.583
 8372SOL    HW226016   0.230   0.756   1.624
 8373SOL     OW26017   1.771   6.859   5.060
 8373SOL    HW126018   1.775   6.948   5.015
 8373SOL    HW226019   1.689   6.855   5.118
 8374SOL     OW26020   6.260   0.185   6.508
 8374SOL    HW126021   6.225   0.254   6.571
 8374SOL    HW226022   6.347   0.216   6.470
 8375SOL     OW26023   4.147   1.106   6.416
 8375SOL    HW126024   4.068   1.050   6.442
 8375SOL    HW226025   4.175   1.081   6.323
 8376SOL     OW26026   3.802   0.523   4.539
 8376SOL    HW126027   3.881   0.577   4.569
 8376SOL    HW226028   3.799   0.438   4.591
 8377SOL     OW26029   5.728   4.633   0.502
 8377SOL    HW126030   5.773   4.554   0.543
 8377SOL    HW226031   5.678   4.683   0.572
 8378SOL     OW26032   4.806   3.020   3.653
 8378SOL    HW126033   4.800   3.047   3.557
 8378SOL    HW226034   4.813   2.920   3.659
 8379SOL     OW26035   5.417   2.007   1.938
 8379SOL    HW126036   5.331   1.977   1.897
 8379SOL    HW226037   5.494   1.971   1.885
 8380SOL     OW26038   5.347   1.617   3.268
 8380SOL    HW126039   5.375   1.627   3.363
 8380SOL    HW226040   5.428   1.625   3.208
 8381SOL     OW26041   2.253   5.470   4.413
 8381SOL    HW126042   2.253   5.395   4.347
 8381SOL    HW226043   2.165   5.518   4.408
 8382SOL     OW26044   0.950   3.455   2.209
 8382SOL    HW126045   1.007   3.423   2.285
 8382SOL    HW226046   0.858   3.417   2.218
 8383SOL     OW26047   3.402   1.956   6.488
 8383SOL    HW126048   3.347   1.880   6.520
 8383SOL    HW226049   3.344   2.036   6.474
 8384SOL     OW26050   0.550   6.397   1.556
 8384SOL    HW126051   0.500   6.483   1.547
 8384SOL    HW226052   0.626   6.395   1.492
 8385SOL     OW26053   4.789   2.469   0.925
 8385SOL    HW126054   4.721   2.408   0.882
 8385SOL    HW226055   4.741   2.542   0.974
 8386SOL     OW26056   1.290   4.402   2.653
 8386SOL    HW126057   1.337   4.405   2.564
 8386SOL    HW226058   1.213   4.339   2.648
 8387SOL     OW26059   0.699   1.606   0.893
 8387SOL    HW126060   0.664   1.690   0.851
 8387SOL    HW226061   0.711   1.620   0.991
 8388SOL     OW26062   0.947   6.888   2.709
 8388SOL    HW126063   0.954   6.872   2.610
 8388SOL    HW226064   1.014   6.830   2.756
 8389SOL     OW26065   5.181   2.260   2.611
 8389SOL    HW126066   5.157   2.351   2.643
 8389SOL    HW226067   5.213   2.205   2.688
 8390SOL     OW26068   5.620   1.688   6.029
 8390SOL    HW126069   5.555   1.700   6.104
 8390SOL    HW226070   5.686   1.617   6.053
 8391SOL     OW26071   6.367   6.897   1.186
 8391SOL    HW126072   6.462   6.921   1.167
 8391SOL    HW226073   6.350   6.899   1.284
 8392SOL     OW26074   5.050   3.022   5.856
 8392SOL    HW126075   4.978   3.065   5.801
 8392SOL    HW226076   5.023   3.019   5.952
 8393SOL     OW26077   5.320   6.873   1.648
 8393SOL    HW126078   5.365   6.823   1.574
 8393SOL    HW226079   5.234   6.827   1.672
 8394SOL     OW26080   5.678   2.624   2.323
 8394SOL    HW126081   5.578   2.615   2.317
 8394SOL    HW226082   5.707   2.611   2.418
 8395SOL     OW26083   2.527   1.401   4.909
 8395SOL    HW126084   2.525   1.402   4.809
 8395SOL    HW226085   2.464   1.331   4.943
 8396SOL     OW26086   4.827   5.595   4.816
 8396SOL    HW126087   4.745   5.642   4.782
 8396SOL    HW226088   4.880   5.560   4.738
 8397SOL     OW26089   6.182   0.692   3.345
 8397SOL    HW126090   6.273   0.705   3.306
 8397SOL    HW226091   6.142   0.608   3.309
 8398SOL     OW26092   4.987   2.245   6.084
 8398SOL    HW126093   5.027   2.188   6.155
 8398SOL    HW226094   4.956   2.331   6.123
 8399SOL     OW26095   0.287   4.492   1.173
 8399SOL    HW126096   0.223   4.556   1.216
 8399SOL    HW226097   0.263   4.481   1.077
 8400SOL     OW26098   1.707   1.286   4.599
 8400SOL    HW126099   1.681   1.382   4.586
 8400SOL    HW226100   1.765   1.257   4.524
 8401SOL     OW26101   2.429   6.952   5.683
 8401SOL    HW126102   2.366   6.935   5.759
 8401SOL    HW226103   2.410   0.026   5.644
 8402SOL     OW26104   3.273   0.785   6.172
 8402SOL    HW126105   3.237   0.751   6.259
 8402SOL    HW226106   3.373   0.784   6.174
 8403SOL     OW26107   5.857   4.593   4.700
 8403SOL    HW126108   5.796   4.515   4.710
 8403SOL    HW226109   5.930   4.570   4.635
 8404SOL     OW26110   0.951   1.839   6.292
 8404SOL    HW126111   0.875   1.778   6.270
 8404SOL    HW226112   0.989   1.814   6.381
 8405SOL     OW26113   4.373   0.275   5.784
 8405SOL    HW126114   4.452   0.249   5.729
 8405SOL    HW226115   4.314   0.196   5.798
 8406SOL     OW26116   5.317   0.246   6.379
 8406SOL    HW126117   5.286   0.151   6.364
 8406SOL    HW226118   5.314   0.266   6.476
 8407SOL     OW26119   3.904   0.174   4.357
 8407SOL    HW126120   3.829   0.163   4.423
 8407SOL    HW226121   3.898   0.102   4.288
 8408SOL     OW26122   3.891   1.488   1.464
 8408SOL    HW126123   3.925   1.399   1.435
 8408SOL    HW226124   3.822   1.476   1.534
 8409SOL     OW26125   4.545   2.502   2.226
 8409SOL    HW126126   4.539   2.502   2.326
 8409SOL    HW226127   4.610   2.572   2.197
 8410SOL     OW26128   6.838   1.816   1.772
 8410SOL    HW126129   6.929   1.784   1.746
 8410SOL    HW226130   6.811   1.773   1.858
 8411SOL     OW26131   1.143   6.349   0.984
 8411SOL    HW126132   1.138   6.442   1.021
 8411SOL    HW226133   1.140   6.352   0.884
 8412SOL     OW26134   2.553   1.847   6.836
 8412SOL    HW126135   2.520   1.941   6.848
 8412SOL    HW226136   2.535   1.817   6.742
 8413SOL     OW26137   4.132   5.649   4.458
 8413SOL    HW126138   4.075   5.629   4.379
 8413SOL    HW226139   4.217   5.595   4.453
 8414SOL     OW26140   1.261   0.365   1.023
 8414SOL    HW126141   1.296   0.393   0.933
 8414SOL    HW226142   1.243   0.447   1.078
 8415SOL     OW26143   2.752   1.326   5.875
 8415SOL    HW126144   2.833   1.307   5.931
 8415SOL    HW226145   2.706   1.407   5.911
 8416SOL     OW26146   6.630   2.289   5.589
 8416SOL    HW126147   6.578   2.232   5.653
 8416SOL    HW226148   6.634   2.244   5.500
 8417SOL     OW26149   1.816   3.333   6.012
 8417SOL    HW126150   1.846   3.321   5.918
 8417SOL    HW226151   1.851   3.419   6.048
 8418SOL     OW26152   0.740   5.851   2.288
 8418SOL    HW126153   0.682   5.872   2.209
 8418SOL    HW226154   0.822   5.803   2.257
 8419SOL     OW26155   4.554   2.027   4.042
 8419SOL    HW126156   4.461   2.010   4.010
 8419SOL    HW226157   4.617   1.962   4.000
 8420SOL     OW26158   3.158   0.707   2.160
 8420SOL    HW126159   3.134   0.701   2.063
 8420SOL    HW226160   3.088   0.759   2.208
 8421SOL     OW26161   4.800   6.820   6.602
 8421SOL    HW126162   4.774   6.823   6.698
 8421SOL    HW226163   4.887   6.771   6.593
 8422SOL     OW26164   5.326   2.477   3.667
 8422SOL    HW126165   5.300   2.572   3.647
 8422SOL    HW226166   5.320   2.423   3.584
 8423SOL     OW26167   6.888   5.241   0.064
 8423SOL    HW126168   6.884   5.260   0.163
 8423SOL    HW226169   6.928   5.150   0.050
 8424SOL     OW26170   3.555   0.183   4.787
 8424SOL    HW126171   3.515   0.274   4.789
 8424SOL    HW226172   3.577   0.153   4.880
 8425SOL     OW26173   3.382   4.010   1.942
 8425SOL    HW126174   3.311   3.940   1.932
 8425SOL    HW226175   3.393   4.032   2.039
 8426SOL     OW26176   3.995   2.976   1.829
 8426SOL    HW126177   3.973   2.958   1.925
 8426SOL    HW226178   3.979   3.073   1.809
 8427SOL     OW26179   3.750   3.786   3.728
 8427SOL    HW126180   3.653   3.781   3.707
 8427SOL    HW226181   3.765   3.848   3.805
 8428SOL     OW26182   6.214   0.125   1.739
 8428SOL    HW126183   6.120   0.145   1.710
 8428SOL    HW226184   6.224   0.026   1.754
 8429SOL     OW26185   2.950   5.760   5.403
 8429SOL    HW126186   2.875   5.822   5.381
 8429SOL    HW226187   2.916   5.666   5.405
 8430SOL     OW26188   4.770   6.907   4.800
 8430SOL    HW126189   4.765   6.977   4.871
 8430SOL    HW226190   4.678   6.877   4.776
 8431SOL     OW26191   1.997   3.818   5.790
 8431SOL    HW126192   1.904   3.850   5.804
 8431SOL    HW226193   2.040   3.871   5.717
 8432SOL     OW26194   6.094   5.326   5.982
 8432SOL    HW126195   6.041   5.274   6.049
 8432SOL    HW226196   6.060   5.306   5.890
 8433SOL     OW26197   5.549   1.908   0.989
 8433SOL    HW126198   5.546   1.963   0.905
 8433SOL    HW226199   5.604   1.955   1.058
 8434SOL     OW26200   2.614   5.373   4.841
 8434SOL    HW126201   2.706   5.378   4.879
 8434SOL    HW226202   2.616   5.324   4.754
 8435SOL     OW26203   5.593   1.697   3.156
 8435SOL    HW126204   5.683   1.676   3.193
 8435SOL    HW226205   5.603   1.746   3.069
 8436SOL     OW26206   2.279   5.665   2.197
 8436SOL    HW126207   2.255   5.580   2.151
 8436SOL    HW226208   2.368   5.697   2.164
 8437SOL     OW26209   0.866   5.473   1.819
 8437SOL    HW126210   0.889   5.375   1.813
 8437SOL    HW226211   0.826   5.503   1.733
 8438SOL     OW26212   0.651   3.745   2.537
 8438SOL    HW126213   0.653   3.811   2.462
 8438SOL    HW226214   0.725   3.679   2.524
 8439SOL     OW26215   6.139   4.310   2.474
 8439SOL    HW126216   6.204   4.385   2.473
 8439SOL    HW226217   6.132   4.272   2.566
 8440SOL     OW26218   1.721   2.218   2.574
 8440SOL    HW126219   1.738   2.137   2.518
 8440SOL    HW226220   1.808   2.253   2.609
 8441SOL     OW26221   6.847   1.735   5.832
 8441SOL    HW126222   6.830   1.806   5.901
 8441SOL    HW226223   6.898   1.774   5.756
 8442SOL     OW26224   3.915   2.230   6.459
 8442SOL    HW126225   3.837   2.169   6.468
 8442SOL    HW226226   3.982   2.210   6.531
 8443SOL     OW26227   1.608   3.971   2.825
 8443SOL    HW126228   1.696   3.925   2.826
 8443SOL    HW226229   1.558   3.946   2.742
 8444SOL     OW26230   5.314   5.233   5.221
 8444SOL    HW126231   5.405   5.274   5.221
 8444SOL    HW226232   5.314   5.154   5.282
 8445SOL     OW26233   4.235   6.158   6.595
 8445SOL    HW126234   4.180   6.189   6.673
 8445SOL    HW226235   4.255   6.060   6.606
 8446SOL     OW26236   6.478   5.189   4.974
 8446SOL    HW126237   6.542   5.193   4.897
 8446SOL    HW226238   6.526   5.211   5.059
 8447SOL     OW26239   4.263   1.461   3.451
 8447SOL    HW126240   4.274   1.515   3.368
 8447SOL    HW226241   4.340   1.398   3.461
 8448SOL     OW26242   3.320   6.157   3.416
 8448SOL    HW126243   3.390   6.093   3.383
 8448SOL    HW226244   3.324   6.241   3.362
 8449SOL     OW26245   2.015   2.513   3.498
 8449SOL    HW126246   1.944   2.443   3.502
 8449SOL    HW226247   2.078   2.500   3.574
 8450SOL     OW26248   0.171   1.270   6.796
 8450SOL    HW126249   0.203   1.271   6.701
 8450SOL    HW226250   0.241   1.228   6.855
 8451SOL     OW26251   3.874   2.409   0.967
 8451SOL    HW126252   3.819   2.488   0.941
 8451SOL    HW226253   3.898   2.416   1.064
 8452SOL     OW26254   4.865   1.541   5.991
 8452SOL    HW126255   4.829   1.452   5.966
 8452SOL    HW226256   4.791   1.608   5.993
 8453SOL     OW26257   6.634   6.279   0.404
 8453SOL    HW126258   6.581   6.195   0.394
 8453SOL    HW226259   6.677   6.302   0.316
 8454SOL     OW26260   6.213   4.299   6.674
 8454SOL    HW126261   6.221   4.302   6.574
 8454SOL    HW226262   6.158   4.376   6.705
 8455SOL     OW26263   6.941   1.316   2.637
 8455SOL    HW126264   6.891   1.276   2.561
 8455SOL    HW226265   6.878   1.336   2.712
 8456SOL     OW26266   6.767   0.042   2.896
 8456SOL    HW126267   6.848   7.000   2.900
 8456SOL    HW226268   6.766   0.105   2.974
 8457SOL     OW26269   7.012   6.756   5.230
 8457SOL    HW126270   0.063   6.720   5.295
 8457SOL    HW226271   6.923   6.712   5.245
 8458SOL     OW26272   0.683   6.764   6.352
 8458SOL    HW126273   0.605   6.824   6.370
 8458SOL    HW226274   0.754   6.815   6.303
 8459SOL     OW26275   1.267   6.216   3.562
 8459SOL    HW126276   1.293   6.154   3.636
 8459SOL    HW226277   1.250   6.307   3.599
 8460SOL     OW26278   3.862   3.664   3.500
 8460SOL    HW126279   3.826   3.715   3.578
 8460SOL    HW226280   3.895   3.727   3.430
 8461SOL     OW26281   6.708   3.666   3.623
 8461SOL    HW126282   6.614   3.699   3.614
 8461SOL    HW226283   6.707   3.573   3.660
 8462SOL     OW26284   2.347   2.937   1.745
 8462SOL    HW126285   2.388   3.006   1.685
 8462SOL    HW226286   2.253   2.920   1.717
 8463SOL     OW26287   5.411   0.483   1.719
 8463SOL    HW126288   5.478   0.520   1.655
 8463SOL    HW226289   5.378   0.556   1.779
 8464SOL     OW26290   0.004   2.176   4.931
 8464SOL    HW126291   0.076   2.244   4.935
 8464SOL    HW226292   0.005   2.121   5.015
 8465SOL     OW26293   1.586   2.121   0.151
 8465SOL    HW126294   1.503   2.092   0.102
 8465SOL    HW226295   1.578   2.218   0.175
 8466SOL     OW26296   0.433   0.059   4.164
 8466SOL    HW126297   0.377   0.124   4.112
 8466SOL    HW226298   0.494   0.011   4.101
 8467SOL     OW26299   3.773   5.088   1.385
 8467SOL    HW126300   3.706   5.067   1.314
 8467SOL    HW226301   3.725   5.101   1.472
 8468SOL     OW26302   4.391   2.602   0.493
 8468SOL    HW126303   4.428   2.514   0.526
 8468SOL    HW226304   4.466   2.667   0.484
 8469SOL     OW26305   4.164   2.591   6.672
 8469SOL    HW126306   4.238   2.619   6.732
 8469SOL    HW226307   4.202   2.560   6.585
 8470SOL     OW26308   1.771   3.309   6.996
 8470SOL    HW126309   1.696   3.353   0.031
 8470SOL    HW226310   1.858   3.351   0.007
 8471SOL     OW26311   4.757   1.361   4.015
 8471SOL    HW126312   4.700   1.363   3.933
 8471SOL    HW226313   4.700   1.368   4.096
 8472SOL     OW26314   1.279   6.941   2.749
 8472SOL    HW126315   1.263   6.952   2.651
 8472SOL    HW226316   1.243   6.852   2.779
 8473SOL     OW26317   6.645   5.610   6.399
 8473SOL    HW126318   6.662   5.580   6.305
 8473SOL    HW226319   6.694   5.551   6.462
 8474SOL     OW26320   3.704   5.533   0.368
 8474SOL    HW126321   3.684   5.441   0.334
 8474SOL    HW226322   3.756   5.526   0.453
 8475SOL     OW26323   4.804   1.413   2.536
 8475SOL    HW126324   4.766   1.447   2.450
 8475SOL    HW226325   4.897   1.448   2.548
 8476SOL     OW26326   4.286   0.611   2.432
 8476SOL    HW126327   4.318   0.573   2.345
 8476SOL    HW226328   4.313   0.707   2.439
 8477SOL     OW26329   2.429   0.685   2.244
 8477SOL    HW126330   2.355   0.719   2.186
 8477SOL    HW226331   2.395   0.611   2.303
 8478SOL     OW26332   1.654   0.367   5.489
 8478SOL    HW126333   1.692   0.308   5.418
 8478SOL    HW226334   1.704   0.454   5.490
 8479SOL     OW26335   5.003   1.459   1.922
 8479SOL    HW126336   5.038   1.385   1.979
 8479SOL    HW226337   4.935   1.511   1.972
 8480SOL     OW26338   1.209   1.208   1.415
 8480SOL    HW126339   1.280   1.253   1.361
 8480SOL    HW226340   1.140   1.170   1.353
 8481SOL     OW26341   4.573   0.185   4.882
 8481SOL    HW126342   4.477   0.199   4.859
 8481SOL    HW226343   4.582   0.106   4.943
 8482SOL     OW26344   0.728   0.472   2.158
 8482SOL    HW126345   0.765   0.510   2.243
 8482SOL    HW226346   0.691   0.546   2.102
 8483SOL     OW26347   5.474   6.248   1.774
 8483SOL    HW126348   5.550   6.309   1.798
 8483SOL    HW226349   5.394   6.272   1.829
 8484SOL     OW26350   0.585   4.726   4.292
 8484SOL    HW126351   0.499   4.685   4.323
 8484SOL    HW226352   0.575   4.825   4.288
 8485SOL     OW26353   2.501   3.148   5.703
 8485SOL    HW126354   2.597   3.156   5.728
 8485SOL    HW226355   2.490   3.167   5.605
 8486SOL     OW26356   4.371   0.384   2.884
 8486SOL    HW126357   4.277   0.353   2.897
 8486SOL    HW226358   4.392   0.385   2.786
 8487SOL     OW26359   4.810   0.627   0.871
 8487SOL    HW126360   4.751   0.547   0.877
 8487SOL    HW226361   4.780   0.696   0.936
 8488SOL     OW26362   5.426   3.101   4.682
 8488SOL    HW126363   5.513   3.065   4.714
 8488SOL    HW226364   5.408   3.068   4.590
 8489SOL     OW26365   3.918   5.660   2.625
 8489SOL    HW126366   4.001   5.671   2.678
 8489SOL    HW226367   3.882   5.749   2.598
 8490SOL     OW26368   4.081   5.235   2.460
 8490SOL    HW126369   4.143   5.296   2.410
 8490SOL    HW226370   4.115   5.141   2.456
 8491SOL     OW26371   1.266   1.279   2.189
 8491SOL    HW126372   1.197   1.282   2.117
 8491SOL    HW226373   1.342   1.339   2.165
 8492SOL     OW26374   5.542   3.937   4.721
 8492SOL    HW126375   5.547   3.845   4.760
 8492SOL    HW226376   5.447   3.957   4.697
 8493SOL     OW26377   3.842   2.717   1.250
 8493SOL    HW126378   3.864   2.625   1.284
 8493SOL    HW226379   3.924   2.774   1.252
 8494SOL     OW26380   3.548   6.015   6.678
 8494SOL    HW126381   3.529   6.105   6.718
 8494SOL    HW226382   3.645   6.009   6.654
 8495SOL     OW26383   0.446   2.663   0.254
 8495SOL    HW126384   0.463   2.753   0.214
 8495SOL    HW226385   0.521   2.639   0.315
 8496SOL     OW26386   6.884   2.361   3.371
 8496SOL    HW126387   6.821   2.438   3.370
 8496SOL    HW226388   6.969   2.386   3.325
 8497SOL     OW26389   6.096   4.625   3.527
 8497SOL    HW126390   6.187   4.599   3.496
 8497SOL    HW226391   6.041   4.543   3.542
 8498SOL     OW26392   6.323   0.993   0.890
 8498SOL    HW126393   6.354   0.985   0.985
 8498SOL    HW226394   6.362   1.075   0.849
 8499SOL     OW26395   2.176   4.126   6.373
 8499SOL    HW126396   2.207   4.206   6.321
 8499SOL    HW226397   2.080   4.108   6.352
 8500SOL     OW26398   3.212   0.875   5.908
 8500SOL    HW126399   3.118   0.859   5.939
 8500SOL    HW226400   3.276   0.828   5.968
 8501SOL     OW26401   2.888   4.397   6.338
 8501SOL    HW126402   2.873   4.376   6.242
 8501SOL    HW226403   2.978   4.365   6.366
 8502SOL     OW26404   0.321   6.876   1.964
 8502SOL    HW126405   0.365   6.959   1.930
 8502SOL    HW226406   0.390   6.816   2.005
 8503SOL     OW26407   3.032   6.226   3.288
 8503SOL    HW126408   3.038   6.300   3.221
 8503SOL    HW226409   3.118   6.219   3.338
 8504SOL     OW26410   1.486   5.499   3.404
 8504SOL    HW126411   1.459   5.569   3.470
 8504SOL    HW226412   1.472   5.533   3.311
 8505SOL     OW26413   4.752   2.792   3.919
 8505SOL    HW126414   4.717   2.752   4.003
 8505SOL    HW226415   4.805   2.724   3.869
 8506SOL     OW26416   0.788   6.140   0.614
 8506SOL    HW126417   0.786   6.042   0.631
 8506SOL    HW226418   0.763   6.189   0.698
 8507SOL     OW26419   1.838   0.253   4.335
 8507SOL    HW126420   1.829   0.349   4.308
 8507SOL    HW226421   1.822   0.244   4.434
 8508SOL     OW26422   0.887   3.133   6.211
 8508SOL    HW126423   0.892   3.146   6.310
 8508SOL    HW226424   0.932   3.048   6.186
 8509SOL     OW26425   6.214   2.382   4.533
 8509SOL    HW126426   6.289   2.447   4.543
 8509SOL    HW226427   6.128   2.431   4.523
 8510SOL     OW26428   4.988   0.118   2.312
 8510SOL    HW126429   4.983   0.050   2.385
 8510SOL    HW226430   5.000   0.072   2.224
 8511SOL     OW26431   6.489   4.913   1.560
 8511SOL    HW126432   6.493   5.005   1.520
 8511SOL    HW226433   6.572   4.863   1.538
 8512SOL     OW26434   3.669   2.584   0.854
 8512SOL    HW126435   3.665   2.509   0.789
 8512SOL    HW226436   3.684   2.670   0.805
 8513SOL     OW26437   0.743   4.170   1.657
 8513SOL    HW126438   0.678   4.096   1.673
 8513SOL    HW226439   0.747   4.229   1.738
 8514SOL     OW26440   2.636   2.534   5.490
 8514SOL    HW126441   2.698   2.468   5.533
 8514SOL    HW226442   2.689   2.596   5.433
 8515SOL     OW26443   2.238   0.445   0.640
 8515SOL    HW126444   2.286   0.532   0.630
 8515SOL    HW226445   2.292   0.372   0.598
 8516SOL     OW26446   5.506   2.784   3.953
 8516SOL    HW126447   5.518   2.727   4.035
 8516SOL    HW226448   5.440   2.740   3.891
 8517SOL     OW26449   2.038   1.761   6.257
 8517SOL    HW126450   2.075   1.678   6.214
 8517SOL    HW226451   2.094   1.839   6.232
 8518SOL     OW26452   5.436   4.904   0.014
 8518SOL    HW126453   5.527   4.863   0.010
 8518SOL    HW226454   5.441   5.001   7.007
 8519SOL     OW26455   1.009   3.036   0.928
 8519SOL    HW126456   0.915   3.002   0.918
 8519SOL    HW226457   1.071   2.959   0.940
 8520SOL     OW26458   3.590   4.298   5.771
 8520SOL    HW126459   3.510   4.243   5.747
 8520SOL    HW226460   3.670   4.238   5.777
 8521SOL     OW26461   1.932   6.505   5.127
 8521SOL    HW126462   1.990   6.580   5.158
 8521SOL    HW226463   1.972   6.463   5.045
 8522SOL     OW26464   0.577   6.972   0.113
 8522SOL    HW126465   0.579   6.872   0.113
 8522SOL    HW226466   0.507   7.004   0.049
 8523SOL     OW26467   3.802   2.088   0.406
 8523SOL    HW126468   3.718   2.142   0.408
 8523SOL    HW226469   3.877   2.143   0.441
 8524SOL     OW26470   2.309   5.307   5.121
 8524SOL    HW126471   2.317   5.272   5.215
 8524SOL    HW226472   2.264   5.238   5.064
 8525SOL     OW26473   6.139   3.735   1.996
 8525SOL    HW126474   6.104   3.742   1.902
 8525SOL    HW226475   6.063   3.732   2.060
 8526SOL     OW26476   0.239   4.336   0.629
 8526SOL    HW126477   0.303   4.356   0.555
 8526SOL    HW226478   0.200   4.245   0.615
 8527SOL     OW26479   2.991   0.920   5.632
 8527SOL    HW126480   2.912   0.979   5.647
 8527SOL    HW226481   3.050   0.960   5.561
 8528SOL     OW26482   5.066   0.730   0.924
 8528SOL    HW126483   5.139   0.724   0.856
 8528SOL    HW226484   4.993   0.666   0.899
 8529SOL     OW26485   1.299   6.298   6.957
 8529SOL    HW126486   1.385   6.325   6.914
 8529SOL    HW226487   1.223   6.314   6.895
 8530SOL     OW26488   3.810   4.042   3.275
 8530SOL    HW126489   3.824   4.071   3.370
 8530SOL    HW226490   3.872   3.967   3.254
 8531SOL     OW26491   6.538   5.070   4.370
 8531SOL    HW126492   6.465   5.037   4.428
 8531SOL    HW226493   6.626   5.034   4.402
 8532SOL     OW26494   2.646   4.765   6.672
 8532SOL    HW126495   2.631   4.797   6.578
 8532SOL    HW226496   2.563   4.778   6.726
 8533SOL     OW26497   2.739   6.458   5.004
 8533SOL    HW126498   2.669   6.525   5.028
 8533SOL    HW226499   2.699   6.366   5.004
 8534SOL     OW26500   2.176   2.537   3.285
 8534SOL    HW126501   2.121   2.535   3.369
 8534SOL    HW226502   2.219   2.627   3.276
 8535SOL     OW26503   6.560   0.414   2.463
 8535SOL    HW126504   6.527   0.459   2.546
 8535SOL    HW226505   6.587   0.320   2.485
 8536SOL     OW26506   0.594   1.413   4.526
 8536SOL    HW126507   0.650   1.444   4.449
 8536SOL    HW226508   0.645   1.345   4.578
 8537SOL     OW26509   6.346   1.485   2.793
 8537SOL    HW126510   6.255   1.453   2.767
 8537SOL    HW226511   6.346   1.513   2.889
 8538SOL     OW26512   0.920   2.542   0.226
 8538SOL    HW126513   0.928   2.499   0.135
 8538SOL    HW226514   0.900   2.639   0.215
 8539SOL     OW26515   5.355   2.824   2.717
 8539SOL    HW126516   5.287   2.766   2.763
 8539SOL    HW226517   5.366   2.909   2.769
 8540SOL     OW26518   3.603   0.600   1.097
 8540SOL    HW126519   3.573   0.540   1.023
 8540SOL    HW226520   3.525   0.621   1.156
 8541SOL     OW26521   2.109   2.514   4.356
 8541SOL    HW126522   2.018   2.551   4.377
 8541SOL    HW226523   2.166   2.517   4.438
 8542SOL     OW26524   3.105   4.786   0.574
 8542SOL    HW126525   3.077   4.882   0.564
 8542SOL    HW226526   3.151   4.756   0.491
 8543SOL     OW26527   2.816   1.901   6.297
 8543SOL    HW126528   2.876   1.866   6.369
 8543SOL    HW226529   2.724   1.864   6.309
 8544SOL     OW26530   5.930   2.714   3.481
 8544SOL    HW126531   5.955   2.779   3.552
 8544SOL    HW226532   5.868   2.645   3.520
 8545SOL     OW26533   4.435   6.562   5.125
 8545SOL    HW126534   4.535   6.561   5.122
 8545SOL    HW226535   4.400   6.600   5.039
 8546SOL     OW26536   4.738   2.329   6.766
 8546SOL    HW126537   4.736   2.235   6.731
 8546SOL    HW226538   4.664   2.341   6.832
 8547SOL     OW26539   1.096   4.857   2.298
 8547SOL    HW126540   1.149   4.815   2.224
 8547SOL    HW226541   1.037   4.788   2.339
 8548SOL     OW26542   6.281   1.561   5.471
 8548SOL    HW126543   6.241   1.499   5.403
 8548SOL    HW226544   6.330   1.507   5.540
 8549SOL     OW26545   5.463   3.159   5.397
 8549SOL    HW126546   5.427   3.240   5.445
 8549SOL    HW226547   5.396   3.129   5.329
 8550SOL     OW26548   1.092   4.353   6.391
 8550SOL    HW126549   1.160   4.416   6.353
 8550SOL    HW226550   1.022   4.406   6.440
 8551SOL     OW26551   2.590   4.231   1.473
 8551SOL    HW126552   2.533   4.311   1.489
 8551SOL    HW226553   2.686   4.256   1.478
 8552SOL     OW26554   3.298   6.932   4.363
 8552SOL    HW126555   3.239   7.007   4.395
 8552SOL    HW226556   3.242   6.849   4.351
 8553SOL     OW26557   6.151   4.941   6.807
 8553SOL    HW126558   6.246   4.970   6.797
 8553SOL    HW226559   6.092   5.022   6.812
 8554SOL     OW26560   5.648   3.936   6.855
 8554SOL    HW126561   5.593   3.957   6.775
 8554SOL    HW226562   5.674   3.839   6.853
 8555SOL     OW26563   1.929   6.510   4.258
 8555SOL    HW126564   2.022   6.486   4.284
 8555SOL    HW226565   1.872   6.518   4.340
 8556SOL     OW26566   5.939   0.007   3.881
 8556SOL    HW126567   5.946   0.104   3.903
 8556SOL    HW226568   5.847   7.003   3.846
 8557SOL     OW26569   0.011   1.205   0.292
 8557SOL    HW126570   6.976   1.285   0.322
 8557SOL    HW226571   6.971   1.123   0.307
 8558SOL     OW26572   0.938   5.688   2.185
 8558SOL    HW126573   1.016   5.689   2.124
 8558SOL    HW226574   0.892   5.599   2.180
 8559SOL     OW26575   0.490   1.231   5.408
 8559SOL    HW126576   0.458   1.318   5.444
 8559SOL    HW226577   0.542   1.183   5.478
 8560SOL     OW26578   6.588   2.153   6.420
 8560SOL    HW126579   6.547   2.144   6.329
 8560SOL    HW226580   6.624   2.246   6.431
 8561SOL     OW26581   5.172   5.946   5.589
 8561SOL    HW126582   5.084   5.972   5.630
 8561SOL    HW226583   5.160   5.931   5.491
 8562SOL     OW26584   3.718   0.080   4.535
 8562SOL    HW126585   3.708   0.019   4.614
 8562SOL    HW226586   3.629   0.089   4.489
 8563SOL     OW26587   3.198   2.874   6.870
 8563SOL    HW126588   3.122   2.894   6.808
 8563SOL    HW226589   3.229   2.780   6.856
 8564SOL     OW26590   0.221   6.487   3.514
 8564SOL    HW126591   0.143   6.521   3.566
 8564SOL    HW226592   0.190   6.418   3.448
 8565SOL     OW26593   3.499   0.548   1.739
 8565SOL    HW126594   3.430   0.508   1.798
 8565SOL    HW226595   3.495   0.507   1.648
 8566SOL     OW26596   1.786   3.725   3.443
 8566SOL    HW126597   1.776   3.823   3.428
 8566SOL    HW226598   1.882   3.698   3.429
 8567SOL     OW26599   4.955   5.954   0.255
 8567SOL    HW126600   4.994   5.934   0.345
 8567SOL    HW226601   4.900   6.037   0.259
 8568SOL     OW26602   5.563   0.766   0.253
 8568SOL    HW126603   5.513   0.845   0.287
 8568SOL    HW226604   5.634   0.740   0.319
 8569SOL     OW26605   4.188   1.310   5.497
 8569SOL    HW126606   4.098   1.341   5.465
 8569SOL    HW226607   4.258   1.338   5.433
 8570SOL     OW26608   0.348   3.783   6.188
 8570SOL    HW126609   0.276   3.767   6.256
 8570SOL    HW226610   0.315   3.758   6.097
 8571SOL     OW26611   0.036   4.458   4.790
 8571SOL    HW126612   6.996   4.541   4.795
 8571SOL    HW226613   0.047   4.430   4.695
 8572SOL     OW26614   3.105   5.212   5.546
 8572SOL    HW126615   3.142   5.123   5.519
 8572SOL    HW226616   3.165   5.285   5.513
 8573SOL     OW26617   4.306   6.282   4.312
 8573SOL    HW126618   4.252   6.198   4.318
 8573SOL    HW226619   4.304   6.316   4.218
 8574SOL     OW26620   0.320   3.533   4.378
 8574SOL    HW126621   0.255   3.597   4.338
 8574SOL    HW226622   0.410   3.546   4.335
 8575SOL     OW26623   3.047   3.242   6.492
 8575SOL    HW126624   3.130   3.279   6.451
 8575SOL    HW226625   2.975   3.237   6.423
 8576SOL     OW26626   1.911   0.371   0.915
 8576SOL    HW126627   1.941   0.301   0.979
 8576SOL    HW226628   1.988   0.432   0.894
 8577SOL     OW26629   6.785   5.228   4.226
 8577SOL    HW126630   6.743   5.163   4.163
 8577SOL    HW226631   6.752   5.320   4.205
 8578SOL     OW26632   4.979   0.221   3.066
 8578SOL    HW126633   5.018   0.129   3.067
 8578SOL    HW226634   4.880   0.215   3.076
 8579SOL     OW26635   0.427   4.885   2.707
 8579SOL    HW126636   0.375   4.955   2.658
 8579SOL    HW226637   0.366   4.810   2.734
 8580SOL     OW26638   2.827   5.075   6.073
 8580SOL    HW126639   2.783   5.060   5.984
 8580SOL    HW226640   2.924   5.051   6.066
 8581SOL     OW26641   3.556   3.037   0.268
 8581SOL    HW126642   3.516   3.098   0.337
 8581SOL    HW226643   3.620   2.975   0.312
 8582SOL     OW26644   4.276   4.826   0.880
 8582SOL    HW126645   4.356   4.876   0.913
 8582SOL    HW226646   4.305   4.742   0.834
 8583SOL     OW26647   5.399   6.899   5.266
 8583SOL    HW126648   5.381   6.994   5.289
 8583SOL    HW226649   5.342   6.839   5.323
 8584SOL     OW26650   0.530   5.542   6.650
 8584SOL    HW126651   0.434   5.527   6.625
 8584SOL    HW226652   0.589   5.488   6.590
 8585SOL     OW26653   0.587   1.406   1.096
 8585SOL    HW126654   0.652   1.340   1.058
 8585SOL    HW226655   0.636   1.486   1.131
 8586SOL     OW26656   4.070   5.424   4.189
 8586SOL    HW126657   4.168   5.442   4.181
 8586SOL    HW226658   4.019   5.497   4.144
 8587SOL     OW26659   6.579   2.269   1.806
 8587SOL    HW126660   6.566   2.256   1.905
 8587SOL    HW226661   6.674   2.249   1.783
 8588SOL     OW26662   3.625   2.148   0.079
 8588SOL    HW126663   3.631   2.207   7.015
 8588SOL    HW226664   3.632   2.052   0.050
 8589SOL     OW26665   3.157   1.678   4.899
 8589SOL    HW126666   3.184   1.608   4.833
 8589SOL    HW226667   3.107   1.634   4.975
 8590SOL     OW26668   6.152   5.660   5.364
 8590SOL    HW126669   6.179   5.603   5.286
 8590SOL    HW226670   6.056   5.642   5.386
 8591SOL     OW26671   1.163   2.616   0.312
 8591SOL    HW126672   1.143   2.708   0.278
 8591SOL    HW226673   1.095   2.552   0.278
 8592SOL     OW26674   6.757   6.025   6.281
 8592SOL    HW126675   6.740   6.016   6.379
 8592SOL    HW226676   6.804   6.112   6.263
 8593SOL     OW26677   0.218   6.115   3.411
 8593SOL    HW126678   0.176   6.188   3.357
 8593SOL    HW226679   0.260   6.155   3.493
 8594SOL     OW26680   3.103   3.925   3.505
 8594SOL    HW126681   3.099   3.914   3.406
 8594SOL    HW226682   3.120   4.021   3.528
 8595SOL     OW26683   1.801   2.595   1.414
 8595SOL    HW126684   1.701   2.604   1.412
 8595SOL    HW226685   1.832   2.586   1.509
 8596SOL     OW26686   6.722   4.181   2.271
 8596SOL    HW126687   6.667   4.098   2.268
 8596SOL    HW226688   6.692   4.243   2.198
 8597SOL     OW26689   2.661   1.726   0.033
 8597SOL    HW126690   2.628   1.788   0.104
 8597SOL    HW226691   2.623   1.752   6.961
 8598SOL     OW26692   5.320   3.673   1.633
 8598SOL    HW126693   5.363   3.583   1.647
 8598SOL    HW226694   5.269   3.698   1.715
 8599SOL     OW26695   0.637   3.136   1.073
 8599SOL    HW126696   0.558   3.186   1.037
 8599SOL    HW226697   0.714   3.199   1.085
 8600SOL     OW26698   6.211   2.883   6.345
 8600SOL    HW126699   6.193   2.849   6.252
 8600SOL    HW226700   6.273   2.962   6.340
 8601SOL     OW26701   0.186   0.424   5.253
 8601SOL    HW126702   0.170   0.424   5.351
 8601SOL    HW226703   0.102   0.450   5.205
 8602SOL     OW26704   1.911   6.350   1.895
 8602SOL    HW126705   1.838   6.417   1.883
 8602SOL    HW226706   1.979   6.385   1.960
 8603SOL     OW26707   4.855   3.883   1.628
 8603SOL    HW126708   4.759   3.884   1.600
 8603SOL    HW226709   4.875   3.963   1.684
 8604SOL     OW26710   5.611   2.032   2.706
 8604SOL    HW126711   5.565   2.058   2.621
 8604SOL    HW226712   5.687   2.095   2.724
 8605SOL     OW26713   2.606   5.765   1.892
 8605SOL    HW126714   2.626   5.853   1.849
 8605SOL    HW226715   2.684   5.704   1.879
 8606SOL     OW26716   4.050   5.526   5.577
 8606SOL    HW126717   4.048   5.426   5.578
 8606SOL    HW226718   3.958   5.562   5.592
 8607SOL     OW26719   3.055   5.885   1.512
 8607SOL    HW126720   3.051   5.978   1.551
 8607SOL    HW226721   3.141   5.874   1.463
 8608SOL     OW26722   6.077   6.294   2.163
 8608SOL    HW126723   6.113   6.205   2.134
 8608SOL    HW226724   5.982   6.302   2.135
 8609SOL     OW26725   4.355   0.824   6.610
 8609SOL    HW126726   4.261   0.841   6.638
 8609SOL    HW226727   4.357   0.787   6.518
 8610SOL     OW26728   0.116   6.361   5.425
 8610SOL    HW126729   0.039   6.325   5.373
 8610SOL    HW226730   0.186   6.291   5.435
 8611SOL     OW26731   1.626   2.099   3.575
 8611SOL    HW126732   1.587   2.078   3.485
 8611SOL    HW226733   1.555   2.138   3.634
 8612SOL     OW26734   4.983   3.137   4.772
 8612SOL    HW126735   4.944   3.226   4.795
 8612SOL    HW226736   4.925   3.064   4.809
 8613SOL     OW26737   1.438   1.219   6.807
 8613SOL    HW126738   1.374   1.231   6.731
 8613SOL    HW226739   1.519   1.275   6.792
 8614SOL     OW26740   1.245   1.218   3.791
 8614SOL    HW126741   1.180   1.190   3.720
 8614SOL    HW226742   1.320   1.151   3.795
 8615SOL     OW26743   4.395   2.324   5.169
 8615SOL    HW126744   4.466   2.394   5.163
 8615SOL    HW226745   4.309   2.361   5.136
 8616SOL     OW26746   1.476   3.188   0.424
 8616SOL    HW126747   1.575   3.183   0.416
 8616SOL    HW226748   1.446   3.130   0.500
 8617SOL     OW26749   6.198   2.831   0.487
 8617SOL    HW126750   6.174   2.737   0.513
 8617SOL    HW226751   6.114   2.885   0.477
 8618SOL     OW26752   4.242   0.691   3.051
 8618SOL    HW126753   4.229   0.749   3.131
 8618SOL    HW226754   4.305   0.616   3.074
 8619SOL     OW26755   4.353   6.001   0.858
 8619SOL    HW126756   4.424   5.969   0.795
 8619SOL    HW226757   4.347   5.938   0.936
 8620SOL     OW26758   6.681   6.104   3.257
 8620SOL    HW126759   6.622   6.050   3.197
 8620SOL    HW226760   6.776   6.071   3.249
 8621SOL     OW26761   5.455   0.676   3.336
 8621SOL    HW126762   5.462   0.577   3.345
 8621SOL    HW226763   5.392   0.698   3.262
 8622SOL     OW26764   5.389   5.451   6.814
 8622SOL    HW126765   5.361   5.485   6.904
 8622SOL    HW226766   5.481   5.485   6.793
 8623SOL     OW26767   6.216   2.360   2.984
 8623SOL    HW126768   6.297   2.391   3.033
 8623SOL    HW226769   6.202   2.419   2.904
 8624SOL     OW26770   6.905   4.080   4.353
 8624SOL    HW126771   6.941   4.165   4.315
 8624SOL    HW226772   6.963   4.004   4.325
 8625SOL     OW26773   3.942   0.927   6.519
 8625SOL    HW126774   3.866   0.949   6.458
 8625SOL    HW226775   3.936   0.832   6.547
 8626SOL     OW26776   3.348   3.398   2.584
 8626SOL    HW126777   3.408   3.320   2.566
 8626SOL    HW226778   3.352   3.422   2.681
 8627SOL     OW26779   2.271   0.040   6.422
 8627SOL    HW126780   2.369   0.052   6.409
 8627SOL    HW226781   2.243   0.084   6.507
 8628SOL     OW26782   6.168   0.980   0.424
 8628SOL    HW126783   6.120   1.026   0.349
 8628SOL    HW226784   6.218   1.047   0.478
 8629SOL     OW26785   1.512   5.183   3.635
 8629SOL    HW126786   1.430   5.240   3.645
 8629SOL    HW226787   1.485   5.088   3.620
 8630SOL     OW26788   5.624   4.947   4.170
 8630SOL    HW126789   5.649   5.041   4.146
 8630SOL    HW226790   5.707   4.895   4.191
 8631SOL     OW26791   4.588   5.785   3.653
 8631SOL    HW126792   4.510   5.728   3.629
 8631SOL    HW226793   4.647   5.736   3.717
 8632SOL     OW26794   4.027   0.835   3.412
 8632SOL    HW126795   3.965   0.903   3.450
 8632SOL    HW226796   4.071   0.871   3.330
 8633SOL     OW26797   6.304   0.006   3.442
 8633SOL    HW126798   6.262   0.097   3.437
 8633SOL    HW226799   6.353   7.012   3.528
 8634SOL     OW26800   6.570   5.579   1.466
 8634SOL    HW126801   6.530   5.577   1.375
 8634SOL    HW226802   6.516   5.521   1.527
 8635SOL     OW26803   6.432   3.396   5.985
 8635SOL    HW126804   6.513   3.338   5.996
 8635SOL    HW226805   6.354   3.340   5.959
 8636SOL     OW26806   5.395   5.805   0.358
 8636SOL    HW126807   5.455   5.734   0.395
 8636SOL    HW226808   5.450   5.874   0.312
 8637SOL     OW26809   2.142   0.391   1.270
 8637SOL    HW126810   2.227   0.437   1.244
 8637SOL    HW226811   2.075   0.459   1.299
 8638SOL     OW26812   4.679   5.225   0.758
 8638SOL    HW126813   4.771   5.231   0.721
 8638SOL    HW226814   4.639   5.317   0.765
 8639SOL     OW26815   6.253   2.773   1.802
 8639SOL    HW126816   6.337   2.787   1.749
 8639SOL    HW226817   6.277   2.734   1.891
 8640SOL     OW26818   4.906   6.116   1.251
 8640SOL    HW126819   4.861   6.120   1.162
 8640SOL    HW226820   4.987   6.057   1.245
 8641SOL     OW26821   5.288   4.840   3.332
 8641SOL    HW126822   5.284   4.799   3.423
 8641SOL    HW226823   5.280   4.769   3.262
 8642SOL     OW26824   4.550   1.717   1.417
 8642SOL    HW126825   4.477   1.709   1.349
 8642SOL    HW226826   4.513   1.697   1.507
 8643SOL     OW26827   3.832   0.560   6.944
 8643SOL    HW126828   3.760   0.582   6.878
 8643SOL    HW226829   3.914   0.612   6.924
 8644SOL     OW26830   6.642   3.470   5.321
 8644SOL    HW126831   6.665   3.550   5.376
 8644SOL    HW226832   6.558   3.488   5.270
 8645SOL     OW26833   5.994   4.274   1.839
 8645SOL    HW126834   5.962   4.226   1.921
 8645SOL    HW226835   5.958   4.367   1.838
 8646SOL     OW26836   5.369   6.954   0.974
 8646SOL    HW126837   5.395   6.859   0.960
 8646SOL    HW226838   5.428   7.013   0.920
 8647SOL     OW26839   4.417   5.009   1.798
 8647SOL    HW126840   4.505   5.043   1.765
 8647SOL    HW226841   4.376   4.950   1.729
 8648SOL     OW26842   5.754   1.431   4.794
 8648SOL    HW126843   5.744   1.415   4.696
 8648SOL    HW226844   5.745   1.345   4.844
 8649SOL     OW26845   0.196   4.677   5.721
 8649SOL    HW126846   0.174   4.766   5.760
 8649SOL    HW226847   0.146   4.605   5.769
 8650SOL     OW26848   0.378   4.403   1.693
 8650SOL    HW126849   0.312   4.466   1.653
 8650SOL    HW226850   0.459   4.398   1.634
 8651SOL     OW26851   3.837   3.051   1.176
 8651SOL    HW126852   3.803   3.066   1.083
 8651SOL    HW226853   3.763   3.018   1.234
 8652SOL     OW26854   1.048   2.870   3.659
 8652SOL    HW126855   1.022   2.966   3.663
 8652SOL    HW226856   1.085   2.841   3.747
 8653SOL     OW26857   5.791   3.300   6.797
 8653SOL    HW126858   5.844   3.256   6.725
 8653SOL    HW226859   5.703   3.331   6.759
 8654SOL     OW26860   0.654   6.079   2.399
 8654SOL    HW126861   0.703   6.005   2.352
 8654SOL    HW226862   0.572   6.043   2.442
 8655SOL     OW26863   6.052   6.276   3.080
 8655SOL    HW126864   6.126   6.317   3.134
 8655SOL    HW226865   6.067   6.178   3.073
 8656SOL     OW26866   6.456   1.848   1.343
 8656SOL    HW126867   6.512   1.821   1.421
 8656SOL    HW226868   6.451   1.948   1.339
 8657SOL     OW26869   2.911   4.129   0.649
 8657SOL    HW126870   2.970   4.205   0.620
 8657SOL    HW226871   2.841   4.163   0.712
 8658SOL     OW26872   0.504   5.234   6.329
 8658SOL    HW126873   0.441   5.164   6.361
 8658SOL    HW226874   0.568   5.257   6.402
 8659SOL     OW26875   4.282   0.566   3.623
 8659SOL    HW126876   4.322   0.579   3.532
 8659SOL    HW226877   4.209   0.633   3.637
 8660SOL     OW26878   5.548   4.702   0.300
 8660SOL    HW126879   5.508   4.779   0.351
 8660SOL    HW226880   5.609   4.651   0.360
 8661SOL     OW26881   6.419   3.701   1.459
 8661SOL    HW126882   6.410   3.611   1.501
 8661SOL    HW226883   6.336   3.723   1.407
 8662SOL     OW26884   0.351   0.360   0.518
 8662SOL    HW126885   0.410   0.359   0.598
 8662SOL    HW226886   0.272   0.419   0.536
 8663SOL     OW26887   1.978   5.768   0.630
 8663SOL    HW126888   2.047   5.821   0.580
 8663SOL    HW226889   1.962   5.810   0.719
 8664SOL     OW26890   4.377   5.151   1.434
 8664SOL    HW126891   4.372   5.138   1.335
 8664SOL    HW226892   4.400   5.064   1.478
 8665SOL     OW26893   5.218   5.421   4.669
 8665SOL    HW126894   5.213   5.325   4.643
 8665SOL    HW226895   5.303   5.461   4.634
 8666SOL     OW26896   5.952   3.614   4.595
 8666SOL    HW126897   5.968   3.619   4.497
 8666SOL    HW226898   5.948   3.706   4.634
 8667SOL     OW26899   5.412   2.699   3.131
 8667SOL    HW126900   5.485   2.643   3.170
 8667SOL    HW226901   5.433   2.721   3.036
 8668SOL     OW26902   3.473   1.381   4.097
 8668SOL    HW126903   3.427   1.382   4.008
 8668SOL    HW226904   3.502   1.473   4.120
 8669SOL     OW26905   4.346   6.655   5.822
 8669SOL    HW126906   4.414   6.630   5.753
 8669SOL    HW226907   4.315   6.749   5.805
 8670SOL     OW26908   3.956   4.810   3.500
 8670SOL    HW126909   3.973   4.898   3.545
 8670SOL    HW226910   4.043   4.762   3.490
 8671SOL     OW26911   6.092   6.181   2.586
 8671SOL    HW126912   6.179   6.204   2.543
 8671SOL    HW226913   6.041   6.265   2.605
 8672SOL     OW26914   3.492   5.163   5.697
 8672SOL    HW126915   3.401   5.132   5.721
 8672SOL    HW226916   3.522   5.233   5.761
 8673SOL     OW26917   5.398   1.908   0.586
 8673SOL    HW126918   5.308   1.942   0.557
 8673SOL    HW226919   5.426   1.832   0.527
 8674SOL     OW26920   0.692   0.448   2.584
 8674SOL    HW126921   0.627   0.486   2.650
 8674SOL    HW226922   0.726   0.521   2.525
 8675SOL     OW26923   2.080   2.515   2.579
 8675SOL    HW126924   2.173   2.550   2.580
 8675SOL    HW226925   2.037   2.534   2.490
 8676SOL     OW26926   4.253   0.284   4.222
 8676SOL    HW126927   4.350   0.263   4.234
 8676SOL    HW226928   4.237   0.316   4.128
 8677SOL     OW26929   2.246   4.401   5.526
 8677SOL    HW126930   2.285   4.469   5.588
 8677SOL    HW226931   2.319   4.341   5.492
 8678SOL     OW26932   1.433   1.080   6.180
 8678SOL    HW126933   1.515   1.055   6.231
 8678SOL    HW226934   1.390   0.998   6.143
 8679SOL     OW26935   6.770   2.298   4.971
 8679SOL    HW126936   6.834   2.222   4.957
 8679SOL    HW226937   6.821   2.384   4.972
 8680SOL     OW26938   0.940   3.726   0.962
 8680SOL    HW126939   0.935   3.822   0.989
 8680SOL    HW226940   0.877   3.710   0.886
 8681SOL     OW26941   4.131   3.637   1.412
 8681SOL    HW126942   4.203   3.570   1.394
 8681SOL    HW226943   4.159   3.698   1.486
 8682SOL     OW26944   2.084   5.668   2.574
 8682SOL    HW126945   2.023   5.695   2.500
 8682SOL    HW226946   2.096   5.569   2.573
 8683SOL     OW26947   5.746   2.618   6.717
 8683SOL    HW126948   5.696   2.537   6.747
 8683SOL    HW226949   5.703   2.700   6.756
 8684SOL     OW26950   6.395   2.972   4.607
 8684SOL    HW126951   6.333   2.935   4.538
 8684SOL    HW226952   6.485   2.988   4.565
 8685SOL     OW26953   0.246   1.685   5.392
 8685SOL    HW126954   0.219   1.635   5.310
 8685SOL    HW226955   0.318   1.751   5.368
 8686SOL     OW26956   6.520   1.793   3.830
 8686SOL    HW126957   6.537   1.697   3.848
 8686SOL    HW226958   6.422   1.807   3.814
 8687SOL     OW26959   3.664   0.981   2.631
 8687SOL    HW126960   3.754   0.941   2.647
 8687SOL    HW226961   3.603   0.912   2.593
 8688SOL     OW26962   1.191   0.309   1.820
 8688SOL    HW126963   1.281   0.350   1.806
 8688SOL    HW226964   1.150   0.346   1.903
 8689SOL     OW26965   4.296   5.811   0.519
 8689SOL    HW126966   4.367   5.859   0.571
 8689SOL    HW226967   4.252   5.875   0.456
 8690SOL     OW26968   1.413   0.521   2.580
 8690SOL    HW126969   1.467   0.604   2.567
 8690SOL    HW226970   1.387   0.513   2.677
 8691SOL     OW26971   6.088   1.615   0.441
 8691SOL    HW126972   6.017   1.685   0.440
 8691SOL    HW226973   6.087   1.569   0.530
 8692SOL     OW26974   1.988   1.456   3.982
 8692SOL    HW126975   2.065   1.498   3.934
 8692SOL    HW226976   1.974   1.501   4.070
 8693SOL     OW26977   5.563   2.008   7.010
 8693SOL    HW126978   5.578   2.083   0.059
 8693SOL    HW226979   5.465   1.991   7.001
 8694SOL     OW26980   3.450   6.556   6.759
 8694SOL    HW126981   3.477   6.614   6.682
 8694SOL    HW226982   3.394   6.609   6.823
 8695SOL     OW26983   4.432   4.262   5.289
 8695SOL    HW126984   4.381   4.327   5.232
 8695SOL    HW226985   4.510   4.227   5.238
 8696SOL     OW26986   1.670   5.149   0.886
 8696SOL    HW126987   1.738   5.163   0.958
 8696SOL    HW226988   1.711   5.170   0.797
 8697SOL     OW26989   5.435   4.592   6.687
 8697SOL    HW126990   5.519   4.555   6.727
 8697SOL    HW226991   5.388   4.648   6.755
 8698SOL     OW26992   5.799   6.259   4.200
 8698SOL    HW126993   5.775   6.282   4.294
 8698SOL    HW226994   5.887   6.211   4.199
 8699SOL     OW26995   1.599   1.244   5.488
 8699SOL    HW126996   1.568   1.254   5.582
 8699SOL    HW226997   1.650   1.159   5.477
 8700SOL     OW26998   2.125   1.764   5.912
 8700SOL    HW126999   2.087   1.851   5.879
 8700SOL    HW227000   2.067   1.689   5.881
 8701SOL     OW27001   1.097   2.306   4.042
 8701SOL    HW127002   1.164   2.260   3.984
 8701SOL    HW227003   1.120   2.291   4.138
 8702SOL     OW27004   5.227   5.806   0.115
 8702SOL    HW127005   5.210   5.857   0.200
 8702SOL    HW227006   5.219   5.868   0.038
 8703SOL     OW27007   1.196   5.468   1.407
 8703SOL    HW127008   1.133   5.529   1.454
 8703SOL    HW227009   1.239   5.516   1.330
 8704SOL     OW27010   0.574   3.950   1.700
 8704SOL    HW127011   0.506   3.959   1.628
 8704SOL    HW227012   0.531   3.918   1.784
 8705SOL     OW27013   5.296   6.457   4.559
 8705SOL    HW127014   5.331   6.375   4.604
 8705SOL    HW227015   5.370   6.505   4.513
 8706SOL     OW27016   5.016   1.825   5.876
 8706SOL    HW127017   5.080   1.796   5.805
 8706SOL    HW227018   5.067   1.858   5.955
 8707SOL     OW27019   4.703   2.102   5.709
 8707SOL    HW127020   4.648   2.145   5.638
 8707SOL    HW227021   4.743   2.173   5.768
 8708SOL     OW27022   3.817   1.976   0.748
 8708SOL    HW127023   3.813   1.890   0.800
 8708SOL    HW227024   3.802   2.053   0.810
 8709SOL     OW27025   6.196   3.495   1.144
 8709SOL    HW127026   6.161   3.490   1.050
 8709SOL    HW227027   6.291   3.464   1.146
 8710SOL     OW27028   6.866   2.853   3.605
 8710SOL    HW127029   6.935   2.794   3.648
 8710SOL    HW227030   6.894   2.875   3.512
 8711SOL     OW27031   0.533   1.585   4.173
 8711SOL    HW127032   0.454   1.557   4.228
 8711SOL    HW227033   0.500   1.627   4.088
 8712SOL     OW27034   3.581   1.295   6.243
 8712SOL    HW127035   3.519   1.295   6.164
 8712SOL    HW227036   3.675   1.286   6.211
 8713SOL     OW27037   5.746   4.757   2.508
 8713SOL    HW127038   5.760   4.804   2.595
 8713SOL    HW227039   5.747   4.658   2.524
 8714SOL     OW27040   2.086   1.396   4.476
 8714SOL    HW127041   2.094   1.438   4.566
 8714SOL    HW227042   2.147   1.442   4.411
 8715SOL     OW27043   6.124   1.445   2.143
 8715SOL    HW127044   6.212   1.449   2.191
 8715SOL    HW227045   6.135   1.483   2.051
 8716SOL     OW27046   1.030   1.629   2.207
 8716SOL    HW127047   1.115   1.651   2.160
 8716SOL    HW227048   1.049   1.608   2.303
 8717SOL     OW27049   3.880   3.225   0.646
 8717SOL    HW127050   3.946   3.257   0.578
 8717SOL    HW227051   3.826   3.303   0.678
 8718SOL     OW27052   0.070   3.187   5.971
 8718SOL    HW127053   0.005   3.173   6.045
 8718SOL    HW227054   0.024   3.180   5.883
 8719SOL     OW27055   6.500   0.490   5.834
 8719SOL    HW127056   6.599   0.502   5.832
 8719SOL    HW227057   6.458   0.562   5.889
 8720SOL     OW27058   4.736   3.693   5.984
 8720SOL    HW127059   4.806   3.627   6.011
 8720SOL    HW227060   4.647   3.664   6.019
 8721SOL     OW27061   6.844   1.127   4.548
 8721SOL    HW127062   6.813   1.199   4.486
 8721SOL    HW227063   6.925   1.157   4.597
 8722SOL     OW27064   3.141   2.912   0.735
 8722SOL    HW127065   3.154   2.984   0.666
 8722SOL    HW227066   3.208   2.923   0.808
 8723SOL     OW27067   0.292   5.267   0.015
 8723SOL    HW127068   0.203   5.295   6.995
 8723SOL    HW227069   0.351   5.243   6.954
 8724SOL     OW27070   5.973   6.077   6.617
 8724SOL    HW127071   5.995   6.057   6.521
 8724SOL    HW227072   6.052   6.057   6.675
 8725SOL     OW27073   2.205   6.276   1.221
 8725SOL    HW127074   2.134   6.315   1.164
 8725SOL    HW227075   2.168   6.256   1.312
 8726SOL     OW27076   5.561   0.555   1.319
 8726SOL    HW127077   5.582   0.585   1.412
 8726SOL    HW227078   5.619   0.477   1.295
 8727SOL     OW27079   5.807   5.831   0.978
 8727SOL    HW127080   5.725   5.796   0.932
 8727SOL    HW227081   5.802   5.808   1.075
 8728SOL     OW27082   2.189   6.654   5.507
 8728SOL    HW127083   2.151   6.578   5.559
 8728SOL    HW227084   2.171   6.740   5.554
 8729SOL     OW27085   5.700   6.686   4.225
 8729SOL    HW127086   5.680   6.604   4.171
 8729SOL    HW227087   5.636   6.692   4.302
 8730SOL     OW27088   6.822   6.719   1.110
 8730SOL    HW127089   6.849   6.715   1.205
 8730SOL    HW227090   6.895   6.762   1.056
 8731SOL     OW27091   0.569   1.976   2.493
 8731SOL    HW127092   0.649   2.034   2.476
 8731SOL    HW227093   0.499   1.996   2.425
 8732SOL     OW27094   6.023   4.972   1.844
 8732SOL    HW127095   6.045   4.928   1.931
 8732SOL    HW227096   6.105   5.017   1.808
 8733SOL     OW27097   6.974   6.512   1.478
 8733SOL    HW127098   0.028   6.512   1.549
 8733SOL    HW227099   6.989   6.435   1.416
 8734SOL     OW27100   0.168   5.352   0.262
 8734SOL    HW127101   0.073   5.321   0.248
 8734SOL    HW227102   0.222   5.332   0.180
 8735SOL     OW27103   6.955   2.444   6.507
 8735SOL    HW127104   0.032   2.452   6.544
 8735SOL    HW227105   6.888   2.454   6.581
 8736SOL     OW27106   0.501   4.433   6.490
 8736SOL    HW127107   0.423   4.370   6.491
 8736SOL    HW227108   0.557   4.416   6.409
 8737SOL     OW27109   3.729   6.211   6.846
 8737SOL    HW127110   3.756   6.290   6.792
 8737SOL    HW227111   3.629   6.203   6.847
 8738SOL     OW27112   1.278   3.565   4.968
 8738SOL    HW127113   1.373   3.542   4.948
 8738SOL    HW227114   1.271   3.663   4.986
 8739SOL     OW27115   1.167   2.806   5.304
 8739SOL    HW127116   1.087   2.865   5.313
 8739SOL    HW227117   1.248   2.863   5.288
 8740SOL     OW27118   1.599   6.679   1.362
 8740SOL    HW127119   1.587   6.600   1.422
 8740SOL    HW227120   1.574   6.763   1.411
 8741SOL     OW27121   1.566   3.609   1.854
 8741SOL    HW127122   1.534   3.544   1.923
 8741SOL    HW227123   1.666   3.613   1.856
 8742SOL     OW27124   4.920   6.352   2.317
 8742SOL    HW127125   4.903   6.302   2.232
 8742SOL    HW227126   4.999   6.412   2.305
 8743SOL     OW27127   2.467   4.640   3.385
 8743SOL    HW127128   2.376   4.681   3.388
 8743SOL    HW227129   2.490   4.616   3.291
 8744SOL     OW27130   3.239   3.376   5.736
 8744SOL    HW127131   3.249   3.475   5.725
 8744SOL    HW227132   3.161   3.345   5.682
 8745SOL     OW27133   6.581   1.502   6.913
 8745SOL    HW127134   6.557   1.526   6.819
 8745SOL    HW227135   6.504   1.526   6.974
 8746SOL     OW27136   5.071   4.397   5.376
 8746SOL    HW127137   5.155   4.422   5.328
 8746SOL    HW227138   5.001   4.372   5.309
 8747SOL     OW27139   1.474   2.569   3.833
 8747SOL    HW127140   1.377   2.548   3.832
 8747SOL    HW227141   1.496   2.624   3.914
 8748SOL     OW27142   2.946   0.065   0.031
 8748SOL    HW127143   2.955   0.164   0.038
 8748SOL    HW227144   2.851   0.038   0.049
 8749SOL     OW27145   4.209   1.515   3.912
 8749SOL    HW127146   4.203   1.416   3.917
 8749SOL    HW227147   4.139   1.556   3.970
 8750SOL     OW27148   2.136   0.391   5.124
 8750SOL    HW127149   2.172   0.389   5.218
 8750SOL    HW227150   2.188   0.455   5.069
 8751SOL     OW27151   2.219   0.443   3.234
 8751SOL    HW127152   2.211   0.535   3.272
 8751SOL    HW227153   2.314   0.412   3.243
 8752SOL     OW27154   2.082   2.354   6.249
 8752SOL    HW127155   2.019   2.279   6.228
 8752SOL    HW227156   2.074   2.380   6.345
 8753SOL     OW27157   6.263   1.428   4.991
 8753SOL    HW127158   6.314   1.342   4.985
 8753SOL    HW227159   6.203   1.437   4.912
 8754SOL     OW27160   2.148   1.075   5.118
 8754SOL    HW127161   2.127   0.987   5.160
 8754SOL    HW227162   2.216   1.123   5.174
 8755SOL     OW27163   2.323   1.927   0.816
 8755SOL    HW127164   2.414   1.885   0.814
 8755SOL    HW227165   2.289   1.928   0.910
 8756SOL     OW27166   1.609   3.838   3.756
 8756SOL    HW127167   1.619   3.741   3.734
 8756SOL    HW227168   1.695   3.886   3.735
 8757SOL     OW27169   4.689   6.093   4.318
 8757SOL    HW127170   4.645   6.127   4.400
 8757SOL    HW227171   4.646   6.134   4.237
 8758SOL     OW27172   5.331   6.507   2.080
 8758SOL    HW127173   5.373   6.594   2.107
 8758SOL    HW227174   5.248   6.493   2.134
 8759SOL     OW27175   4.712   1.423   5.271
 8759SOL    HW127176   4.786   1.459   5.327
 8759SOL    HW227177   4.675   1.496   5.214
 8760SOL     OW27178   1.487   2.893   3.808
 8760SOL    HW127179   1.584   2.874   3.795
 8760SOL    HW227180   1.469   2.913   3.904
 8761SOL     OW27181   4.550   6.336   0.704
 8761SOL    HW127182   4.490   6.313   0.628
 8761SOL    HW227183   4.635   6.284   0.698
 8762SOL     OW27184   0.996   3.760   0.209
 8762SOL    HW127185   0.898   3.769   0.229
 8762SOL    HW227186   1.018   3.664   0.195
 8763SOL     OW27187   0.021   6.067   6.006
 8763SOL    HW127188   0.065   6.062   6.096
 8763SOL    HW227189   6.945   6.105   6.015
 8764SOL     OW27190   3.566   2.076   5.363
 8764SOL    HW127191   3.529   1.989   5.328
 8764SOL    HW227192   3.560   2.077   5.462
 8765SOL     OW27193   0.258   0.333   4.993
 8765SOL    HW127194   0.170   0.319   4.948
 8765SOL    HW227195   0.243   0.345   5.092
 8766SOL     OW27196   2.423   4.388   2.386
 8766SOL    HW127197   2.475   4.394   2.301
 8766SOL    HW227198   2.433   4.473   2.437
 8767SOL     OW27199   4.724   1.984   4.915
 8767SOL    HW127200   4.701   2.076   4.884
 8767SOL    HW227201   4.822   1.979   4.934
 8768SOL     OW27202   1.577   4.399   0.004
 8768SOL    HW127203   1.505   4.448   0.052
 8768SOL    HW227204   1.572   4.419   6.921
 8769SOL     OW27205   2.295   0.567   5.032
 8769SOL    HW127206   2.329   0.584   4.940
 8769SOL    HW227207   2.252   0.650   5.068
 8770SOL     OW27208   5.232   1.925   2.891
 8770SOL    HW127209   5.239   2.025   2.896
 8770SOL    HW227210   5.206   1.899   2.798
 8771SOL     OW27211   2.272   2.577   5.396
 8771SOL    HW127212   2.261   2.646   5.467
 8771SOL    HW227213   2.321   2.617   5.318
 8772SOL     OW27214   6.196   5.761   6.680
 8772SOL    HW127215   6.251   5.810   6.613
 8772SOL    HW227216   6.142   5.691   6.635
 8773SOL     OW27217   3.199   1.866   2.877
 8773SOL    HW127218   3.134   1.921   2.928
 8773SOL    HW227219   3.150   1.798   2.822
 8774SOL     OW27220   1.261   0.779   0.512
 8774SOL    HW127221   1.187   0.844   0.527
 8774SOL    HW227222   1.348   0.828   0.505
 8775SOL     OW27223   6.735   6.719   4.156
 8775SOL    HW127224   6.726   6.622   4.179
 8775SOL    HW227225   6.645   6.756   4.133
 8776SOL     OW27226   3.088   3.970   4.661
 8776SOL    HW127227   3.012   3.945   4.721
 8776SOL    HW227228   3.053   4.024   4.585
 8777SOL     OW27229   6.518   5.542   2.106
 8777SOL    HW127230   6.440   5.558   2.045
 8777SOL    HW227231   6.566   5.628   2.122
 8778SOL     OW27232   0.613   2.082   3.070
 8778SOL    HW127233   0.634   2.179   3.058
 8778SOL    HW227234   0.697   2.028   3.070
 8779SOL     OW27235   1.159   4.730   1.248
 8779SOL    HW127236   1.231   4.769   1.305
 8779SOL    HW227237   1.172   4.631   1.242
 8780SOL     OW27238   2.391   6.375   4.509
 8780SOL    HW127239   2.404   6.275   4.512
 8780SOL    HW227240   2.475   6.420   4.539
 8781SOL     OW27241   0.619   2.338   2.991
 8781SOL    HW127242   0.645   2.416   3.047
 8781SOL    HW227243   0.520   2.329   2.989
 8782SOL     OW27244   4.707   1.449   2.997
 8782SOL    HW127245   4.683   1.545   2.984
 8782SOL    HW227246   4.779   1.424   2.931
 8783SOL     OW27247   5.374   2.224   5.713
 8783SOL    HW127248   5.301   2.291   5.696
 8783SOL    HW227249   5.364   2.147   5.650
 8784SOL     OW27250   5.130   3.869   5.865
 8784SOL    HW127251   5.084   3.894   5.950
 8784SOL    HW227252   5.184   3.947   5.832
 8785SOL     OW27253   5.287   4.838   6.309
 8785SOL    HW127254   5.228   4.812   6.386
 8785SOL    HW227255   5.245   4.809   6.223
 8786SOL     OW27256   0.998   6.371   0.721
 8786SOL    HW127257   0.986   6.468   0.698
 8786SOL    HW227258   1.026   6.321   0.639
 8787SOL     OW27259   1.628   2.929   0.281
 8787SOL    HW127260   1.675   2.993   0.221
 8787SOL    HW227261   1.536   2.962   0.300
 8788SOL     OW27262   1.453   1.431   5.082
 8788SOL    HW127263   1.442   1.518   5.033
 8788SOL    HW227264   1.431   1.355   5.020
 8789SOL     OW27265   0.104   0.280   6.499
 8789SOL    HW127266   0.151   0.247   6.581
 8789SOL    HW227267   0.018   0.323   6.524
 8790SOL     OW27268   4.697   1.189   0.059
 8790SOL    HW127269   4.683   1.240   6.990
 8790SOL    HW227270   4.792   1.196   0.088
 8791SOL     OW27271   4.854   6.075   5.528
 8791SOL    HW127272   4.867   5.982   5.493
 8791SOL    HW227273   4.764   6.108   5.499
 8792SOL     OW27274   5.352   6.859   2.920
 8792SOL    HW127275   5.405   6.794   2.976
 8792SOL    HW227276   5.375   6.846   2.824
 8793SOL     OW27277   0.939   4.277   3.783
 8793SOL    HW127278   0.995   4.340   3.729
 8793SOL    HW227279   0.996   4.205   3.821
 8794SOL     OW27280   2.818   6.293   2.618
 8794SOL    HW127281   2.736   6.248   2.582
 8794SOL    HW227282   2.846   6.248   2.702
 8795SOL     OW27283   2.241   5.804   5.112
 8795SOL    HW127284   2.213   5.717   5.071
 8795SOL    HW227285   2.210   5.880   5.056
 8796SOL     OW27286   5.695   2.784   5.476
 8796SOL    HW127287   5.715   2.700   5.527
 8796SOL    HW227288   5.610   2.825   5.510
 8797SOL     OW27289   0.835   6.483   6.399
 8797SOL    HW127290   0.904   6.485   6.471
 8797SOL    HW227291   0.834   6.571   6.351
 8798SOL     OW27292   3.532   2.997   6.082
 8798SOL    HW127293   3.541   2.985   6.181
 8798SOL    HW227294   3.475   3.078   6.064
 8799SOL     OW27295   4.035   0.037   3.012
 8799SOL    HW127296   4.083   7.008   3.088
 8799SOL    HW227297   3.937   0.025   3.024
 8800SOL     OW27298   4.321   5.286   0.512
 8800SOL    HW127299   4.380   5.213   0.479
 8800SOL    HW227300   4.232   5.279   0.468
 8801SOL     OW27301   2.915   6.701   4.973
 8801SOL    HW127302   2.864   6.617   4.992
 8801SOL    HW227303   2.931   6.751   5.058
 8802SOL     OW27304   2.067   6.758   1.735
 8802SOL    HW127305   2.135   6.685   1.733
 8802SOL    HW227306   2.102   6.837   1.684
 8803SOL     OW27307   3.947   6.158   0.999
 8803SOL    HW127308   3.900   6.074   1.027
 8803SOL    HW227309   4.009   6.188   1.071
 8804SOL     OW27310   3.238   0.795   0.974
 8804SOL    HW127311   3.192   0.754   0.895
 8804SOL    HW227312   3.226   0.894   0.971
 8805SOL     OW27313   0.175   0.338   3.413
 8805SOL    HW127314   0.199   0.241   3.414
 8805SOL    HW227315   0.127   0.361   3.497
 8806SOL     OW27316   2.435   5.008   0.370
 8806SOL    HW127317   2.504   5.051   0.428
 8806SOL    HW227318   2.481   4.963   0.293
 8807SOL     OW27319   1.607   6.240   6.263
 8807SOL    HW127320   1.575   6.275   6.175
 8807SOL    HW227321   1.704   6.216   6.256
 8808SOL     OW27322   6.083   1.715   0.797
 8808SOL    HW127323   6.131   1.795   0.833
 8808SOL    HW227324   5.986   1.721   0.819
 8809SOL     OW27325   6.002   4.449   0.892
 8809SOL    HW127326   6.084   4.436   0.949
 8809SOL    HW227327   5.921   4.423   0.944
 8810SOL     OW27328   5.368   1.415   3.851
 8810SOL    HW127329   5.341   1.466   3.770
 8810SOL    HW227330   5.308   1.438   3.927
 8811SOL     OW27331   1.554   1.733   3.920
 8811SOL    HW127332   1.531   1.675   3.998
 8811SOL    HW227333   1.641   1.703   3.880
 8812SOL     OW27334   2.278   0.633   0.252
 8812SOL    HW127335   2.186   0.597   0.265
 8812SOL    HW227336   2.345   0.568   0.289
 8813SOL     OW27337   1.019   5.976   0.911
 8813SOL    HW127338   1.094   6.037   0.884
 8813SOL    HW227339   0.934   6.029   0.915
 8814SOL     OW27340   5.370   6.383   0.322
 8814SOL    HW127341   5.358   6.342   0.232
 8814SOL    HW227342   5.455   6.349   0.363
 8815SOL     OW27343   6.257   5.672   3.331
 8815SOL    HW127344   6.188   5.613   3.289
 8815SOL    HW227345   6.224   5.703   3.420
 8816SOL     OW27346   1.007   6.026   2.413
 8816SOL    HW127347   1.091   6.017   2.466
 8816SOL    HW227348   0.943   5.953   2.439
 8817SOL     OW27349   2.775   4.518   5.365
 8817SOL    HW127350   2.834   4.540   5.288
 8817SOL    HW227351   2.684   4.558   5.351
 8818SOL     OW27352   0.161   4.846   4.704
 8818SOL    HW127353   0.162   4.893   4.792
 8818SOL    HW227354   0.251   4.806   4.686
 8819SOL     OW27355   5.659   0.319   4.031
 8819SOL    HW127356   5.692   0.232   4.069
 8819SOL    HW227357   5.735   0.383   4.024
 8820SOL     OW27358   1.260   3.231   4.080
 8820SOL    HW127359   1.228   3.317   4.039
 8820SOL    HW227360   1.340   3.250   4.138
 8821SOL     OW27361   1.418   6.758   6.453
 8821SOL    HW127362   1.336   6.705   6.471
 8821SOL    HW227363   1.495   6.718   6.503
 8822SOL     OW27364   0.456   1.817   3.897
 8822SOL    HW127365   0.384   1.748   3.906
 8822SOL    HW227366   0.476   1.833   3.801
 8823SOL     OW27367   2.413   4.903   1.796
 8823SOL    HW127368   2.348   4.914   1.721
 8823SOL    HW227369   2.463   4.817   1.783
 8824SOL     OW27370   4.843   3.854   0.918
 8824SOL    HW127371   4.810   3.803   0.839
 8824SOL    HW227372   4.769   3.911   0.954
 8825SOL     OW27373   1.887   2.272   0.945
 8825SOL    HW127374   1.892   2.238   1.038
 8825SOL    HW227375   1.906   2.370   0.944
 8826SOL     OW27376   5.383   0.549   0.229
 8826SOL    HW127377   5.305   0.565   0.168
 8826SOL    HW227378   5.459   0.607   0.203
 8827SOL     OW27379   0.175   0.954   3.365
 8827SOL    HW127380   0.133   1.045   3.369
 8827SOL    HW227381   0.165   0.917   3.272
 8828SOL     OW27382   1.360   6.330   2.773
 8828SOL    HW127383   1.417   6.399   2.730
 8828SOL    HW227384   1.314   6.275   2.703
 8829SOL     OW27385   0.964   1.368   0.579
 8829SOL    HW127386   0.969   1.433   0.656
 8829SOL    HW227387   1.042   1.306   0.582
 8830SOL     OW27388   1.167   1.393   0.359
 8830SOL    HW127389   1.091   1.438   0.407
 8830SOL    HW227390   1.184   1.441   0.273
 8831SOL     OW27391   0.187   1.064   1.894
 8831SOL    HW127392   0.170   1.160   1.917
 8831SOL    HW227393   0.129   1.005   1.950
 8832SOL     OW27394   0.072   0.884   2.060
 8832SOL    HW127395   0.096   0.787   2.060
 8832SOL    HW227396   0.054   0.914   2.153
 8833SOL     OW27397   1.157   4.967   3.135
 8833SOL    HW127398   1.099   5.041   3.170
 8833SOL    HW227399   1.253   4.987   3.157
 8834SOL     OW27400   5.808   4.242   4.040
 8834SOL    HW127401   5.879   4.300   4.000
 8834SOL    HW227402   5.845   4.192   4.118
 8835SOL     OW27403   0.288   0.382   6.312
 8835SOL    HW127404   0.219   0.428   6.258
 8835SOL    HW227405   0.244   0.333   6.388
 8836SOL     OW27406   4.908   1.811   1.580
 8836SOL    HW127407   4.860   1.896   1.602
 8836SOL    HW227408   4.962   1.782   1.659
 8837SOL     OW27409   0.820   1.761   2.518
 8837SOL    HW127410   0.819   1.755   2.618
 8837SOL    HW227411   0.748   1.823   2.488
 8838SOL     OW27412   2.260   5.903   3.124
 8838SOL    HW127413   2.344   5.958   3.120
 8838SOL    HW227414   2.272   5.829   3.189
 8839SOL     OW27415   5.536   6.267   4.161
 8839SOL    HW127416   5.510   6.342   4.222
 8839SOL    HW227417   5.635   6.258   4.160
 8840SOL     OW27418   4.854   1.157   2.508
 8840SOL    HW127419   4.953   1.142   2.511
 8840SOL    HW227420   4.834   1.251   2.535
 8841SOL     OW27421   2.708   6.877   4.032
 8841SOL    HW127422   2.703   6.855   3.935
 8841SOL    HW227423   2.625   6.926   4.060
 8842SOL     OW27424   1.431   2.899   1.911
 8842SOL    HW127425   1.516   2.928   1.866
 8842SOL    HW227426   1.453   2.846   1.992
 8843SOL     OW27427   0.150   3.164   4.772
 8843SOL    HW127428   0.183   3.257   4.755
 8843SOL    HW227429   0.228   3.102   4.780
 8844SOL     OW27430   5.824   1.218   6.214
 8844SOL    HW127431   5.920   1.240   6.229
 8844SOL    HW227432   5.813   1.118   6.213
 8845SOL     OW27433   5.549   3.389   0.208
 8845SOL    HW127434   5.633   3.413   0.257
 8845SOL    HW227435   5.512   3.304   0.245
 8846SOL     OW27436   2.710   4.777   3.452
 8846SOL    HW127437   2.621   4.736   3.431
 8846SOL    HW227438   2.732   4.762   3.548
 8847SOL     OW27439   1.548   0.767   2.573
 8847SOL    HW127440   1.512   0.850   2.530
 8847SOL    HW227441   1.643   0.753   2.545
 8848SOL     OW27442   1.075   0.593   3.384
 8848SOL    HW127443   0.982   0.616   3.410
 8848SOL    HW227444   1.114   0.669   3.331
 8849SOL     OW27445   2.255   6.678   1.359
 8849SOL    HW127446   2.200   6.758   1.335
 8849SOL    HW227447   2.209   6.625   1.430
 8850SOL     OW27448   3.008   2.634   6.766
 8850SOL    HW127449   2.966   2.619   6.677
 8850SOL    HW227450   3.097   2.589   6.770
 8851SOL     OW27451   1.955   3.848   2.223
 8851SOL    HW127452   1.973   3.777   2.155
 8851SOL    HW227453   1.890   3.814   2.291
 8852SOL     OW27454   0.864   1.940   5.134
 8852SOL    HW127455   0.848   1.926   5.036
 8852SOL    HW227456   0.842   2.034   5.158
 8853SOL     OW27457   5.227   0.588   1.357
 8853SOL    HW127458   5.309   0.561   1.306
 8853SOL    HW227459   5.178   0.506   1.386
 8854SOL     OW27460   0.719   2.708   4.970
 8854SOL    HW127461   0.694   2.743   4.880
 8854SOL    HW227462   0.701   2.777   5.039
 8855SOL     OW27463   5.364   4.666   1.419
 8855SOL    HW127464   5.425   4.697   1.347
 8855SOL    HW227465   5.292   4.608   1.380
 8856SOL     OW27466   6.365   0.621   5.636
 8856SOL    HW127467   6.426   0.542   5.647
 8856SOL    HW227468   6.376   0.683   5.714
 8857SOL     OW27469   7.003   1.732   6.312
 8857SOL    HW127470   0.047   1.804   6.348
 8857SOL    HW227471   6.940   1.701   6.383
 8858SOL     OW27472   6.608   5.516   4.864
 8858SOL    HW127473   6.682   5.560   4.812
 8858SOL    HW227474   6.607   5.419   4.843
 8859SOL     OW27475   1.430   6.038   2.914
 8859SOL    HW127476   1.425   6.136   2.897
 8859SOL    HW227477   1.339   5.998   2.905
 8860SOL     OW27478   0.422   3.603   2.517
 8860SOL    HW127479   0.511   3.640   2.545
 8860SOL    HW227480   0.389   3.652   2.437
 8861SOL     OW27481   3.994   2.869   1.579
 8861SOL    HW127482   4.054   2.924   1.520
 8861SOL    HW227483   4.004   2.899   1.674
 8862SOL     OW27484   4.331   4.678   4.774
 8862SOL    HW127485   4.322   4.625   4.858
 8862SOL    HW227486   4.242   4.689   4.731
 8863SOL     OW27487   1.651   3.601   2.719
 8863SOL    HW127488   1.638   3.591   2.620
 8863SOL    HW227489   1.708   3.681   2.738
 8864SOL     OW27490   6.280   2.168   5.668
 8864SOL    HW127491   6.291   2.255   5.618
 8864SOL    HW227492   6.316   2.093   5.613
 8865SOL     OW27493   2.802   2.136   0.337
 8865SOL    HW127494   2.761   2.145   0.246
 8865SOL    HW227495   2.889   2.185   0.340
 8866SOL     OW27496   5.827   6.491   2.295
 8866SOL    HW127497   5.856   6.571   2.243
 8866SOL    HW227498   5.896   6.468   2.363
 8867SOL     OW27499   6.672   3.303   2.823
 8867SOL    HW127500   6.669   3.267   2.729
 8867SOL    HW227501   6.585   3.286   2.868
 8868SOL     OW27502   7.003   3.734   3.646
 8868SOL    HW127503   7.010   3.770   3.739
 8868SOL    HW227504   6.910   3.702   3.630
 8869SOL     OW27505   5.051   0.580   3.574
 8869SOL    HW127506   5.106   0.662   3.557
 8869SOL    HW227507   5.064   0.515   3.498
 8870SOL     OW27508   1.408   1.100   1.954
 8870SOL    HW127509   1.483   1.154   1.992
 8870SOL    HW227510   1.413   1.100   1.854
 8871SOL     OW27511   0.428   0.374   1.452
 8871SOL    HW127512   0.427   0.363   1.551
 8871SOL    HW227513   0.355   0.436   1.424
 8872SOL     OW27514   6.967   3.755   3.193
 8872SOL    HW127515   0.014   3.773   3.269
 8872SOL    HW227516   6.889   3.702   3.226
 8873SOL     OW27517   2.488   2.016   2.924
 8873SOL    HW127518   2.465   1.967   3.008
 8873SOL    HW227519   2.422   2.090   2.910
 8874SOL     OW27520   3.262   6.310   0.936
 8874SOL    HW127521   3.248   6.211   0.939
 8874SOL    HW227522   3.354   6.331   0.968
 8875SOL     OW27523   6.448   2.799   5.021
 8875SOL    HW127524   6.487   2.824   4.933
 8875SOL    HW227525   6.368   2.857   5.040
 8876SOL     OW27526   3.446   0.652   0.725
 8876SOL    HW127527   3.350   0.682   0.731
 8876SOL    HW227528   3.506   0.732   0.725
 8877SOL     OW27529   0.676   4.776   1.128
 8877SOL    HW127530   0.761   4.806   1.171
 8877SOL    HW227531   0.601   4.787   1.193
 8878SOL     OW27532   5.039   4.271   1.751
 8878SOL    HW127533   5.043   4.256   1.850
 8878SOL    HW227534   4.950   4.310   1.727
 8879SOL     OW27535   0.288   3.954   2.916
 8879SOL    HW127536   0.340   3.909   2.844
 8879SOL    HW227537   0.191   3.934   2.905
 8880SOL     OW27538   4.393   2.419   2.834
 8880SOL    HW127539   4.348   2.404   2.746
 8880SOL    HW227540   4.439   2.508   2.833
 8881SOL     OW27541   3.604   5.093   2.954
 8881SOL    HW127542   3.541   5.030   3.000
 8881SOL    HW227543   3.573   5.108   2.860
 8882SOL     OW27544   3.976   0.853   0.851
 8882SOL    HW127545   3.968   0.949   0.827
 8882SOL    HW227546   3.897   0.826   0.906
 8883SOL     OW27547   0.046   6.628   3.233
 8883SOL    HW127548   6.967   6.595   3.224
 8883SOL    HW227549   0.108   6.562   3.190
 8884SOL     OW27550   4.601   2.996   5.747
 8884SOL    HW127551   4.564   3.081   5.709
 8884SOL    HW227552   4.655   2.949   5.677
 8885SOL     OW27553   5.481   6.104   0.502
 8885SOL    HW127554   5.405   6.100   0.437
 8885SOL    HW227555   5.537   6.185   0.483
 8886SOL     OW27556   4.109   6.417   6.802
 8886SOL    HW127557   4.064   6.505   6.810
 8886SOL    HW227558   4.201   6.430   6.765
 8887SOL     OW27559   3.925   0.424   1.863
 8887SOL    HW127560   3.882   0.359   1.800
 8887SOL    HW227561   3.864   0.502   1.878
 8888SOL     OW27562   3.250   1.709   2.293
 8888SOL    HW127563   3.201   1.739   2.211
 8888SOL    HW227564   3.190   1.652   2.348
 8889SOL     OW27565   1.161   4.811   0.568
 8889SOL    HW127566   1.216   4.765   0.638
 8889SOL    HW227567   1.076   4.761   0.553
 8890SOL     OW27568   0.991   6.516   6.658
 8890SOL    HW127569   1.005   6.448   6.731
 8890SOL    HW227570   0.968   6.604   6.699
 8891SOL     OW27571   6.529   3.813   5.804
 8891SOL    HW127572   6.620   3.836   5.838
 8891SOL    HW227573   6.495   3.888   5.747
 8892SOL     OW27574   3.177   5.284   4.772
 8892SOL    HW127575   3.235   5.248   4.845
 8892SOL    HW227576   3.106   5.217   4.750
 8893SOL     OW27577   0.854   4.493   5.829
 8893SOL    HW127578   0.839   4.480   5.731
 8893SOL    HW227579   0.916   4.423   5.864
 8894SOL     OW27580   4.959   1.488   1.522
 8894SOL    HW127581   5.047   1.441   1.512
 8894SOL    HW227582   4.930   1.522   1.433
 8895SOL     OW27583   6.976   3.104   1.020
 8895SOL    HW127584   0.001   3.196   1.026
 8895SOL    HW227585   6.976   3.063   1.111
 8896SOL     OW27586   1.159   1.588   3.774
 8896SOL    HW127587   1.244   1.537   3.785
 8896SOL    HW227588   1.112   1.594   3.862
 8897SOL     OW27589   1.565   5.631   3.913
 8897SOL    HW127590   1.657   5.603   3.942
 8897SOL    HW227591   1.559   5.731   3.913
 8898SOL     OW27592   5.187   3.836   2.200
 8898SOL    HW127593   5.152   3.895   2.127
 8898SOL    HW227594   5.133   3.850   2.283
 8899SOL     OW27595   1.770   3.827   3.131
 8899SOL    HW127596   1.857   3.829   3.082
 8899SOL    HW227597   1.757   3.913   3.180
 8900SOL     OW27598   4.180   1.911   4.330
 8900SOL    HW127599   4.233   1.977   4.383
 8900SOL    HW227600   4.241   1.863   4.267
 8901SOL     OW27601   1.948   5.735   4.856
 8901SOL    HW127602   2.016   5.773   4.919
 8901SOL    HW227603   1.891   5.668   4.905
 8902SOL     OW27604   0.402   5.082   6.853
 8902SOL    HW127605   0.471   5.153   6.844
 8902SOL    HW227606   0.416   5.031   6.938
 8903SOL     OW27607   1.012   0.462   5.330
 8903SOL    HW127608   0.933   0.408   5.358
 8903SOL    HW227609   1.068   0.408   5.266
 8904SOL     OW27610   0.787   1.147   3.741
 8904SOL    HW127611   0.787   1.075   3.810
 8904SOL    HW227612   0.718   1.127   3.672
 8905SOL     OW27613   1.398   4.372   2.420
 8905SOL    HW127614   1.471   4.309   2.391
 8905SOL    HW227615   1.317   4.356   2.363
 8906SOL     OW27616   5.635   0.113   6.871
 8906SOL    HW127617   5.654   0.202   6.829
 8906SOL    HW227618   5.637   0.042   6.801
 8907SOL     OW27619   3.032   3.216   5.168
 8907SOL    HW127620   3.088   3.134   5.177
 8907SOL    HW227621   3.035   3.249   5.074
 8908SOL     OW27622   1.537   4.843   6.581
 8908SOL    HW127623   1.620   4.799   6.547
 8908SOL    HW227624   1.520   4.814   6.675
 8909SOL     OW27625   1.815   5.512   1.530
 8909SOL    HW127626   1.779   5.424   1.561
 8909SOL    HW227627   1.827   5.510   1.431
 8910SOL     OW27628   1.154   0.955   3.428
 8910SOL    HW127629   1.185   0.869   3.387
 8910SOL    HW227630   1.231   1.000   3.473
 8911SOL     OW27631   5.439   2.120   4.542
 8911SOL    HW127632   5.377   2.155   4.472
 8911SOL    HW227633   5.388   2.064   4.607
 8912SOL     OW27634   3.432   3.278   3.917
 8912SOL    HW127635   3.332   3.269   3.914
 8912SOL    HW227636   3.457   3.345   3.986
 8913SOL     OW27637   5.056   5.869   1.088
 8913SOL    HW127638   5.142   5.865   1.138
 8913SOL    HW227639   5.072   5.904   0.996
 8914SOL     OW27640   4.928   5.833   5.436
 8914SOL    HW127641   4.920   5.760   5.504
 8914SOL    HW227642   4.976   5.799   5.355
 8915SOL     OW27643   1.611   0.733   3.210
 8915SOL    HW127644   1.548   0.809   3.195
 8915SOL    HW227645   1.561   0.646   3.202
 8916SOL     OW27646   5.363   0.965   1.459
 8916SOL    HW127647   5.360   1.047   1.515
 8916SOL    HW227648   5.270   0.931   1.443
 8917SOL     OW27649   5.878   1.739   0.022
 8917SOL    HW127650   5.826   1.814   6.996
 8917SOL    HW227651   5.835   1.652   7.014
 8918SOL     OW27652   1.101   3.292   2.773
 8918SOL    HW127653   1.078   3.385   2.803
 8918SOL    HW227654   1.018   3.244   2.747
 8919SOL     OW27655   5.982   2.797   2.302
 8919SOL    HW127656   5.968   2.700   2.323
 8919SOL    HW227657   5.936   2.819   2.216
 8920SOL     OW27658   0.502   1.458   0.214
 8920SOL    HW127659   0.426   1.395   0.228
 8920SOL    HW227660   0.472   1.551   0.238
 8921SOL     OW27661   0.847   3.094   2.104
 8921SOL    HW127662   0.886   3.106   2.012
 8921SOL    HW227663   0.904   3.030   2.156
 8922SOL     OW27664   3.875   5.067   4.114
 8922SOL    HW127665   3.923   5.050   4.028
 8922SOL    HW227666   3.873   5.166   4.132
 8923SOL     OW27667   2.341   1.110   4.299
 8923SOL    HW127668   2.249   1.138   4.326
 8923SOL    HW227669   2.407   1.180   4.327
 8924SOL     OW27670   6.261   5.099   5.285
 8924SOL    HW127671   6.314   5.046   5.218
 8924SOL    HW227672   6.174   5.054   5.301
 8925SOL     OW27673   0.673   6.883   3.090
 8925SOL    HW127674   0.730   6.834   3.023
 8925SOL    HW227675   0.578   6.880   3.061
 8926SOL     OW27676   5.936   0.671   6.954
 8926SOL    HW127677   5.991   0.620   6.889
 8926SOL    HW227678   5.989   0.748   6.989
 8927SOL     OW27679   1.745   0.982   6.831
 8927SOL    HW127680   1.800   1.056   6.871
 8927SOL    HW227681   1.776   0.963   6.738
 8928SOL     OW27682   1.543   6.892   5.698
 8928SOL    HW127683   1.552   6.919   5.793
 8928SOL    HW227684   1.578   6.799   5.686
 8929SOL     OW27685   0.258   1.603   3.973
 8929SOL    HW127686   0.170   1.603   4.022
 8929SOL    HW227687   0.289   1.508   3.960
 8930SOL     OW27688   2.172   5.033   3.910
 8930SOL    HW127689   2.246   5.036   3.977
 8930SOL    HW227690   2.088   5.003   3.954
 8931SOL     OW27691   3.846   3.599   0.346
 8931SOL    HW127692   3.875   3.616   0.440
 8931SOL    HW227693   3.859   3.682   0.291
 8932SOL     OW27694   0.660   3.319   3.596
 8932SOL    HW127695   0.585   3.265   3.634
 8932SOL    HW227696   0.623   3.393   3.540
 8933SOL     OW27697   3.986   1.729   5.831
 8933SOL    HW127698   4.012   1.755   5.924
 8933SOL    HW227699   4.068   1.703   5.779
 8934SOL     OW27700   2.528   6.242   2.827
 8934SOL    HW127701   2.547   6.179   2.751
 8934SOL    HW227702   2.463   6.199   2.890
 8935SOL     OW27703   6.512   5.088   0.157
 8935SOL    HW127704   6.456   5.008   0.179
 8935SOL    HW227705   6.452   5.167   0.145
 8936SOL     OW27706   3.741   2.854   0.361
 8936SOL    HW127707   3.783   2.873   0.450
 8936SOL    HW227708   3.800   2.790   0.310
 8937SOL     OW27709   0.776   0.121   5.654
 8937SOL    HW127710   0.769   0.154   5.560
 8937SOL    HW227711   0.695   0.149   5.705
 8938SOL     OW27712   5.129   6.199   1.615
 8938SOL    HW127713   5.128   6.099   1.611
 8938SOL    HW227714   5.223   6.231   1.626
 8939SOL     OW27715   4.944   1.858   5.160
 8939SOL    HW127716   4.970   1.849   5.256
 8939SOL    HW227717   4.862   1.803   5.142
 8940SOL     OW27718   5.819   6.996   2.598
 8940SOL    HW127719   5.858   6.904   2.597
 8940SOL    HW227720   5.761   7.009   2.518
 8941SOL     OW27721   4.333   1.443   6.576
 8941SOL    HW127722   4.319   1.346   6.593
 8941SOL    HW227723   4.431   1.463   6.571
 8942SOL     OW27724   1.618   2.717   5.226
 8942SOL    HW127725   1.571   2.800   5.256
 8942SOL    HW227726   1.604   2.703   5.128
 8943SOL     OW27727   4.932   3.391   1.120
 8943SOL    HW127728   4.976   3.325   1.181
 8943SOL    HW227729   4.833   3.388   1.134
 8944SOL     OW27730   4.061   5.631   1.335
 8944SOL    HW127731   4.044   5.546   1.385
 8944SOL    HW227732   4.148   5.671   1.366
 8945SOL     OW27733   2.441   1.406   4.618
 8945SOL    HW127734   2.483   1.447   4.537
 8945SOL    HW227735   2.435   1.307   4.604
 8946SOL     OW27736   4.133   1.434   4.829
 8946SOL    HW127737   4.082   1.488   4.762
 8946SOL    HW227738   4.138   1.484   4.915
 8947SOL     OW27739   3.852   4.090   5.024
 8947SOL    HW127740   3.937   4.095   4.972
 8947SOL    HW227741   3.870   4.050   5.113
 8948SOL     OW27742   5.743   4.867   2.762
 8948SOL    HW127743   5.678   4.793   2.781
 8948SOL    HW227744   5.813   4.868   2.833
 8949SOL     OW27745   2.215   5.544   5.947
 8949SOL    HW127746   2.275   5.537   5.867
 8949SOL    HW227747   2.189   5.640   5.959
 8950SOL     OW27748   4.973   2.438   4.830
 8950SOL    HW127749   4.918   2.450   4.748
 8950SOL    HW227750   4.950   2.511   4.895
 8951SOL     OW27751   2.624   1.429   5.497
 8951SOL    HW127752   2.652   1.525   5.505
 8951SOL    HW227753   2.699   1.370   5.527
 8952SOL     OW27754   6.586   6.791   3.360
 8952SOL    HW127755   6.608   6.796   3.263
 8952SOL    HW227756   6.620   6.704   3.397
 8953SOL     OW27757   1.405   4.851   6.844
 8953SOL    HW127758   1.421   4.876   6.940
 8953SOL    HW227759   1.373   4.931   6.794
 8954SOL     OW27760   2.062   6.434   5.629
 8954SOL    HW127761   1.975   6.397   5.662
 8954SOL    HW227762   2.134   6.417   5.697
 8955SOL     OW27763   6.553   3.643   4.405
 8955SOL    HW127764   6.468   3.606   4.369
 8955SOL    HW227765   6.533   3.725   4.459
 8956SOL     OW27766   1.500   0.494   4.681
 8956SOL    HW127767   1.444   0.435   4.740
 8956SOL    HW227768   1.592   0.454   4.673
 8957SOL     OW27769   2.510   5.837   1.612
 8957SOL    HW127770   2.439   5.775   1.648
 8957SOL    HW227771   2.500   5.927   1.654
 8958SOL     OW27772   2.370   0.183   4.155
 8958SOL    HW127773   2.370   0.105   4.217
 8958SOL    HW227774   2.376   0.268   4.207
 8959SOL     OW27775   2.902   5.557   0.533
 8959SOL    HW127776   2.851   5.496   0.473
 8959SOL    HW227777   2.989   5.515   0.558
 8960SOL     OW27778   3.579   5.564   0.910
 8960SOL    HW127779   3.635   5.605   0.838
 8960SOL    HW227780   3.639   5.520   0.977
 8961SOL     OW27781   1.570   2.383   4.017
 8961SOL    HW127782   1.522   2.385   4.105
 8961SOL    HW227783   1.589   2.476   3.987
 8962SOL     OW27784   4.860   0.556   3.162
 8962SOL    HW127785   4.833   0.632   3.102
 8962SOL    HW227786   4.819   0.471   3.129
 8963SOL     OW27787   0.182   0.883   3.636
 8963SOL    HW127788   0.174   0.926   3.546
 8963SOL    HW227789   0.244   0.805   3.629
 8964SOL     OW27790   0.059   3.482   3.134
 8964SOL    HW127791   0.158   3.480   3.122
 8964SOL    HW227792   0.029   3.577   3.149
 8965SOL     OW27793   1.144   5.217   1.701
 8965SOL    HW127794   1.210   5.152   1.663
 8965SOL    HW227795   1.186   5.307   1.707
 8966SOL     OW27796   3.408   2.335   5.287
 8966SOL    HW127797   3.326   2.327   5.230
 8966SOL    HW227798   3.438   2.243   5.314
 8967SOL     OW27799   4.398   6.710   0.907
 8967SOL    HW127800   4.340   6.703   0.826
 8967SOL    HW227801   4.344   6.691   0.989
 8968SOL     OW27802   5.167   4.230   3.333
 8968SOL    HW127803   5.264   4.235   3.314
 8968SOL    HW227804   5.128   4.148   3.291
 8969SOL     OW27805   6.291   0.542   4.078
 8969SOL    HW127806   6.212   0.481   4.081
 8969SOL    HW227807   6.328   0.554   4.170
 8970SOL     OW27808   3.842   2.001   1.421
 8970SOL    HW127809   3.820   2.093   1.451
 8970SOL    HW227810   3.762   1.942   1.434
 8971SOL     OW27811   4.680   6.134   3.135
 8971SOL    HW127812   4.690   6.229   3.107
 8971SOL    HW227813   4.608   6.127   3.205
 8972SOL     OW27814   5.632   0.432   4.690
 8972SOL    HW127815   5.608   0.408   4.784
 8972SOL    HW227816   5.722   0.476   4.689
 8973SOL     OW27817   1.882   5.094   0.093
 8973SOL    HW127818   1.828   5.030   0.147
 8973SOL    HW227819   1.971   5.054   0.071
 8974SOL     OW27820   0.470   3.139   3.962
 8974SOL    HW127821   0.540   3.209   3.975
 8974SOL    HW227822   0.423   3.155   3.875
 8975SOL     OW27823   3.602   0.566   6.490
 8975SOL    HW127824   3.624   0.509   6.410
 8975SOL    HW227825   3.662   0.542   6.566
 8976SOL     OW27826   0.927   4.933   4.312
 8976SOL    HW127827   0.877   4.975   4.235
 8976SOL    HW227828   0.883   4.848   4.338
 8977SOL     OW27829   5.676   0.957   6.570
 8977SOL    HW127830   5.648   0.885   6.506
 8977SOL    HW227831   5.605   0.968   6.640
 8978SOL     OW27832   5.451   5.003   0.794
 8978SOL    HW127833   5.544   4.995   0.758
 8978SOL    HW227834   5.451   5.065   0.873
 8979SOL     OW27835   1.810   5.012   4.983
 8979SOL    HW127836   1.796   5.111   4.995
 8979SOL    HW227837   1.881   4.980   5.046
 8980SOL     OW27838   3.915   3.030   4.563
 8980SOL    HW127839   3.913   3.115   4.617
 8980SOL    HW227840   3.941   2.954   4.622
 8981SOL     OW27841   2.779   1.192   5.637
 8981SOL    HW127842   2.692   1.144   5.633
 8981SOL    HW227843   2.783   1.248   5.719
 8982SOL     OW27844   4.482   4.261   0.698
 8982SOL    HW127845   4.394   4.303   0.674
 8982SOL    HW227846   4.476   4.221   0.789
 8983SOL     OW27847   4.905   5.293   0.630
 8983SOL    HW127848   4.915   5.380   0.678
 8983SOL    HW227849   4.949   5.298   0.541
 8984SOL     OW27850   1.397   6.763   3.470
 8984SOL    HW127851   1.437   6.676   3.442
 8984SOL    HW227852   1.391   6.766   3.570
 8985SOL     OW27853   2.929   3.063   6.142
 8985SOL    HW127854   2.953   3.039   6.236
 8985SOL    HW227855   2.835   3.035   6.123
 8986SOL     OW27856   3.611   6.354   2.910
 8986SOL    HW127857   3.685   6.333   2.846
 8986SOL    HW227858   3.621   6.448   2.942
 8987SOL     OW27859   5.102   5.916   1.650
 8987SOL    HW127860   5.077   5.860   1.729
 8987SOL    HW227861   5.193   5.889   1.617
 8988SOL     OW27862   0.968   5.364   5.209
 8988SOL    HW127863   1.063   5.364   5.238
 8988SOL    HW227864   0.914   5.425   5.268
 8989SOL     OW27865   2.870   2.871   6.865
 8989SOL    HW127866   2.862   2.864   6.965
 8989SOL    HW227867   2.922   2.794   6.830
 8990SOL     OW27868   0.460   5.836   3.197
 8990SOL    HW127869   0.532   5.845   3.266
 8990SOL    HW227870   0.436   5.926   3.162
 8991SOL     OW27871   1.245   2.061   5.380
 8991SOL    HW127872   1.330   2.091   5.423
 8991SOL    HW227873   1.266   1.997   5.306
 8992SOL     OW27874   0.033   2.111   0.859
 8992SOL    HW127875   6.989   2.141   0.784
 8992SOL    HW227876   0.024   2.012   0.871
 8993SOL     OW27877   4.888   2.156   0.596
 8993SOL    HW127878   4.841   2.087   0.650
 8993SOL    HW227879   4.890   2.129   0.500
 8994SOL     OW27880   1.924   5.862   2.958
 8994SOL    HW127881   1.850   5.929   2.964
 8994SOL    HW227882   1.991   5.891   2.890
 8995SOL     OW27883   0.276   0.474   1.021
 8995SOL    HW127884   0.364   0.519   1.035
 8995SOL    HW227885   0.265   0.400   1.087
 8996SOL     OW27886   3.696   6.713   5.906
 8996SOL    HW127887   3.672   6.684   5.813
 8996SOL    HW227888   3.780   6.667   5.935
 8997SOL     OW27889   6.208   0.959   4.644
 8997SOL    HW127890   6.286   0.991   4.590
 8997SOL    HW227891   6.175   1.033   4.703
 8998SOL     OW27892   6.624   3.342   5.045
 8998SOL    HW127893   6.563   3.264   5.064
 8998SOL    HW227894   6.569   3.424   5.031
 8999SOL     OW27895   3.641   6.912   6.104
 8999SOL    HW127896   3.713   6.981   6.115
 8999SOL    HW227897   3.672   6.842   6.039
 9000SOL     OW27898   1.648   4.048   1.164
 9000SOL    HW127899   1.574   4.114   1.149
 9000SOL    HW227900   1.736   4.091   1.143
 9001SOL     OW27901   1.079   5.647   1.927
 9001SOL    HW127902   1.072   5.732   1.875
 9001SOL    HW227903   0.995   5.594   1.914
 9002SOL     OW27904   0.897   4.475   6.555
 9002SOL    HW127905   0.833   4.405   6.587
 9002SOL    HW227906   0.850   4.539   6.495
 9003SOL     OW27907   5.216   0.059   1.518
 9003SOL    HW127908   5.244   6.986   1.554
 9003SOL    HW227909   5.220   0.127   1.591
 9004SOL     OW27910   4.836   4.997   0.218
 9004SOL    HW127911   4.766   5.069   0.218
 9004SOL    HW227912   4.917   5.030   0.170
 9005SOL     OW27913   5.309   1.375   5.642
 9005SOL    HW127914   5.328   1.408   5.550
 9005SOL    HW227915   5.214   1.342   5.646
 9006SOL     OW27916   3.647   6.177   0.450
 9006SOL    HW127917   3.713   6.108   0.424
 9006SOL    HW227918   3.681   6.268   0.425
 9007SOL     OW27919   1.712   1.200   3.238
 9007SOL    HW127920   1.727   1.220   3.141
 9007SOL    HW227921   1.641   1.130   3.246
 9008SOL     OW27922   0.877   5.636   2.467
 9008SOL    HW127923   0.921   5.695   2.534
 9008SOL    HW227924   0.880   5.681   2.377
 9009SOL     OW27925   3.462   6.219   1.556
 9009SOL    HW127926   3.551   6.175   1.556
 9009SOL    HW227927   3.440   6.250   1.648
 9010SOL     OW27928   1.283   6.010   4.104
 9010SOL    HW127929   1.214   6.035   4.171
 9010SOL    HW227930   1.240   5.992   4.016
 9011SOL     OW27931   2.446   2.560   2.025
 9011SOL    HW127932   2.421   2.465   2.042
 9011SOL    HW227933   2.522   2.564   1.961
 9012SOL     OW27934   1.674   6.527   0.112
 9012SOL    HW127935   1.754   6.476   0.081
 9012SOL    HW227936   1.620   6.470   0.174
 9013SOL     OW27937   2.107   6.675   4.573
 9013SOL    HW127938   2.067   6.761   4.542
 9013SOL    HW227939   2.197   6.692   4.612
 9014SOL     OW27940   5.143   2.884   3.809
 9014SOL    HW127941   5.052   2.909   3.843
 9014SOL    HW227942   5.203   2.964   3.814
 9015SOL     OW27943   4.766   1.198   6.221
 9015SOL    HW127944   4.743   1.138   6.144
 9015SOL    HW227945   4.864   1.197   6.237
 9016SOL     OW27946   5.082   5.525   5.988
 9016SOL    HW127947   5.047   5.476   6.068
 9016SOL    HW227948   5.182   5.535   5.995
 9017SOL     OW27949   4.115   0.234   4.624
 9017SOL    HW127950   4.148   0.148   4.587
 9017SOL    HW227951   4.097   0.298   4.549
 9018SOL     OW27952   3.795   4.717   6.477
 9018SOL    HW127953   3.722   4.676   6.531
 9018SOL    HW227954   3.770   4.717   6.380
 9019SOL     OW27955   0.196   3.489   4.020
 9019SOL    HW127956   0.183   3.566   4.083
 9019SOL    HW227957   0.224   3.408   4.072
 9020SOL     OW27958   5.198   4.850   2.881
 9020SOL    HW127959   5.235   4.823   2.970
 9020SOL    HW227960   5.171   4.946   2.884
 9021SOL     OW27961   0.637   1.230   4.273
 9021SOL    HW127962   0.663   1.273   4.186
 9021SOL    HW227963   0.702   1.158   4.296
 9022SOL     OW27964   4.639   4.240   6.421
 9022SOL    HW127965   4.622   4.282   6.332
 9022SOL    HW227966   4.709   4.170   6.412
 9023SOL     OW27967   6.244   4.185   0.626
 9023SOL    HW127968   6.199   4.252   0.567
 9023SOL    HW227969   6.284   4.112   0.571
 9024SOL     OW27970   2.200   6.021   5.998
 9024SOL    HW127971   2.263   6.008   5.921
 9024SOL    HW227972   2.120   6.072   5.967
 9025SOL     OW27973   1.033   5.796   1.099
 9025SOL    HW127974   1.040   5.862   1.024
 9025SOL    HW227975   1.115   5.738   1.100
 9026SOL     OW27976   5.047   1.132   0.341
 9026SOL    HW127977   5.139   1.172   0.350
 9026SOL    HW227978   5.054   1.044   0.295
 9027SOL     OW27979   0.888   4.043   3.376
 9027SOL    HW127980   0.966   4.080   3.326
 9027SOL    HW227981   0.920   3.981   3.448
 9028SOL     OW27982   3.388   4.886   6.100
 9028SOL    HW127983   3.394   4.800   6.150
 9028SOL    HW227984   3.316   4.943   6.141
 9029SOL     OW27985   4.828   0.046   4.401
 9029SOL    HW127986   4.830   0.088   4.310
 9029SOL    HW227987   4.785   0.108   4.466
 9030SOL     OW27988   2.904   1.426   2.151
 9030SOL    HW127989   2.864   1.343   2.189
 9030SOL    HW227990   2.832   1.494   2.134
 9031SOL     OW27991   4.445   6.874   4.810
 9031SOL    HW127992   4.493   6.834   4.732
 9031SOL    HW227993   4.365   6.924   4.777
 9032SOL     OW27994   5.035   3.092   2.214
 9032SOL    HW127995   5.011   3.114   2.119
 9032SOL    HW227996   5.024   3.173   2.270
 9033SOL     OW27997   0.364   0.125   2.890
 9033SOL    HW127998   0.446   0.164   2.850
 9033SOL    HW227999   0.309   0.081   2.819
 9034SOL     OW28000   4.583   6.669   4.370
 9034SOL    HW128001   4.634   6.715   4.443
 9034SOL    HW228002   4.533   6.737   4.317
 9035SOL     OW28003   2.577   5.442   0.005
 9035SOL    HW128004   2.616   5.351   0.024
 9035SOL    HW228005   2.520   5.437   6.938
 9036SOL     OW28006   1.416   4.280   5.430
 9036SOL    HW128007   1.479   4.338   5.482
 9036SOL    HW228008   1.467   4.229   5.361
 9037SOL     OW28009   0.646   0.918   2.963
 9037SOL    HW128010   0.582   0.896   3.037
 9037SOL    HW228011   0.717   0.848   2.957
 9038SOL     OW28012   4.486   2.947   5.281
 9038SOL    HW128013   4.556   2.931   5.350
 9038SOL    HW228014   4.434   2.863   5.265
 9039SOL     OW28015   4.218   5.889   6.550
 9039SOL    HW128016   4.276   5.867   6.472
 9039SOL    HW228017   4.192   5.805   6.598
 9040SOL     OW28018   2.243   1.841   1.561
 9040SOL    HW128019   2.245   1.921   1.620
 9040SOL    HW228020   2.328   1.790   1.571
 9041SOL     OW28021   6.942   2.164   2.312
 9041SOL    HW128022   6.850   2.128   2.295
 9041SOL    HW228023   6.938   2.229   2.388
 9042SOL     OW28024   3.686   6.212   0.727
 9042SOL    HW128025   3.771   6.159   0.722
 9042SOL    HW228026   3.635   6.200   0.642
 9043SOL     OW28027   3.237   2.840   1.060
 9043SOL    HW128028   3.276   2.749   1.044
 9043SOL    HW228029   3.301   2.909   1.027
 9044SOL     OW28030   0.848   0.830   0.356
 9044SOL    HW128031   0.899   0.852   0.439
 9044SOL    HW228032   0.833   0.914   0.303
 9045SOL     OW28033   4.263   1.493   3.148
 9045SOL    HW128034   4.356   1.459   3.141
 9045SOL    HW228035   4.244   1.557   3.073
 9046SOL     OW28036   3.041   3.075   1.968
 9046SOL    HW128037   3.104   3.141   2.007
 9046SOL    HW228038   3.089   3.017   1.902
 9047SOL     OW28039   1.235   4.194   6.587
 9047SOL    HW128040   1.173   4.248   6.530
 9047SOL    HW228041   1.194   4.181   6.677
 9048SOL     OW28042   6.784   1.248   5.956
 9048SOL    HW128043   6.779   1.195   5.871
 9048SOL    HW228044   6.875   1.288   5.964
 9049SOL     OW28045   2.692   6.911   5.625
 9049SOL    HW128046   2.598   6.907   5.659
 9049SOL    HW228047   2.694   6.965   5.541
 9050SOL     OW28048   0.873   4.338   1.076
 9050SOL    HW128049   0.781   4.336   1.037
 9050SOL    HW228050   0.869   4.374   1.169
 9051SOL     OW28051   2.461   1.199   1.580
 9051SOL    HW128052   2.530   1.127   1.590
 9051SOL    HW228053   2.424   1.196   1.487
 9052SOL     OW28054   1.544   2.506   5.733
 9052SOL    HW128055   1.545   2.513   5.634
 9052SOL    HW228056   1.505   2.418   5.761
 9053SOL     OW28057   0.628   0.949   0.009
 9053SOL    HW128058   0.629   0.932   6.926
 9053SOL    HW228059   0.717   0.987   0.036
 9054SOL     OW28060   2.037   5.762   2.315
 9054SOL    HW128061   2.117   5.725   2.268
 9054SOL    HW228062   2.037   5.861   2.308
 9055SOL     OW28063   6.971   3.079   5.637
 9055SOL    HW128064   0.011   3.016   5.583
 9055SOL    HW228065   7.011   3.171   5.633
 9056SOL     OW28066   6.092   2.844   3.163
 9056SOL    HW128067   6.099   2.935   3.202
 9056SOL    HW228068   6.183   2.805   3.151
 9057SOL     OW28069   4.458   2.415   3.961
 9057SOL    HW128070   4.418   2.344   3.904
 9057SOL    HW228071   4.482   2.494   3.905
 9058SOL     OW28072   2.544   0.879   5.625
 9058SOL    HW128073   2.449   0.848   5.625
 9058SOL    HW228074   2.578   0.878   5.719
 9059SOL     OW28075   1.306   2.234   3.221
 9059SOL    HW128076   1.341   2.284   3.300
 9059SOL    HW228077   1.308   2.293   3.140
 9060SOL     OW28078   5.151   2.810   5.704
 9060SOL    HW128079   5.231   2.768   5.747
 9060SOL    HW228080   5.118   2.885   5.762
 9061SOL     OW28081   2.697   5.816   2.803
 9061SOL    HW128082   2.739   5.808   2.893
 9061SOL    HW228083   2.768   5.835   2.735
 9062SOL     OW28084   1.673   5.979   1.331
 9062SOL    HW128085   1.757   5.960   1.281
 9062SOL    HW228086   1.690   5.969   1.429
 9063SOL     OW28087   2.658   2.059   2.306
 9063SOL    HW128088   2.710   2.143   2.285
 9063SOL    HW228089   2.678   2.031   2.400
 9064SOL     OW28090   5.098   3.212   0.606
 9064SOL    HW128091   5.139   3.303   0.600
 9064SOL    HW228092   5.013   3.218   0.657
 9065SOL     OW28093   2.805   0.560   0.330
 9065SOL    HW128094   2.853   0.609   0.403
 9065SOL    HW228095   2.867   0.547   0.253
 9066SOL     OW28096   4.779   6.631   0.099
 9066SOL    HW128097   4.805   6.706   0.159
 9066SOL    HW228098   4.692   6.592   0.130
 9067SOL     OW28099   1.025   0.619   1.776
 9067SOL    HW128100   0.944   0.592   1.725
 9067SOL    HW228101   0.997   0.672   1.857
 9068SOL     OW28102   1.221   6.148   6.528
 9068SOL    HW128103   1.259   6.170   6.438
 9068SOL    HW228104   1.273   6.074   6.569
 9069SOL     OW28105   1.426   2.155   6.241
 9069SOL    HW128106   1.485   2.216   6.188
 9069SOL    HW228107   1.483   2.088   6.289
 9070SOL     OW28108   1.485   4.611   3.141
 9070SOL    HW128109   1.424   4.673   3.190
 9070SOL    HW228110   1.579   4.628   3.168
 9071SOL     OW28111   4.458   5.957   0.242
 9071SOL    HW128112   4.406   6.011   0.175
 9071SOL    HW228113   4.420   5.865   0.247
 9072SOL     OW28114   5.241   4.784   0.165
 9072SOL    HW128115   5.241   4.700   0.219
 9072SOL    HW228116   5.335   4.817   0.154
 9073SOL     OW28117   1.959   0.667   1.088
 9073SOL    HW128118   2.006   0.604   1.026
 9073SOL    HW228119   2.009   0.673   1.174
 9074SOL     OW28120   0.475   0.459   3.387
 9074SOL    HW128121   0.458   0.368   3.423
 9074SOL    HW228122   0.395   0.491   3.336
 9075SOL     OW28123   0.484   0.456   1.892
 9075SOL    HW128124   0.457   0.475   1.987
 9075SOL    HW228125   0.544   0.529   1.859
 9076SOL     OW28126   0.821   1.324   5.168
 9076SOL    HW128127   0.757   1.354   5.097
 9076SOL    HW228128   0.776   1.327   5.257
 9077SOL     OW28129   6.099   6.142   1.579
 9077SOL    HW128130   6.016   6.112   1.626
 9077SOL    HW228131   6.091   6.239   1.557
 9078SOL     OW28132   4.111   3.217   5.175
 9078SOL    HW128133   4.168   3.286   5.220
 9078SOL    HW228134   4.015   3.243   5.181
 9079SOL     OW28135   4.123   0.728   5.413
 9079SOL    HW128136   4.099   0.821   5.442
 9079SOL    HW228137   4.223   0.720   5.410
 9080SOL     OW28138   5.010   1.276   6.750
 9080SOL    HW128139   5.034   1.317   6.662
 9080SOL    HW228140   5.093   1.246   6.797
 9081SOL     OW28141   5.533   7.009   3.502
 9081SOL    HW128142   5.452   0.048   3.521
 9081SOL    HW228143   5.600   0.006   3.575
 9082SOL     OW28144   2.821   0.837   2.647
 9082SOL    HW128145   2.911   0.837   2.690
 9082SOL    HW228146   2.750   0.835   2.718
 9083SOL     OW28147   4.764   4.059   4.344
 9083SOL    HW128148   4.738   4.067   4.248
 9083SOL    HW228149   4.734   4.141   4.393
 9084SOL     OW28150   3.991   3.856   2.834
 9084SOL    HW128151   3.991   3.785   2.905
 9084SOL    HW228152   4.043   3.824   2.755
 9085SOL     OW28153   1.017   2.208   0.722
 9085SOL    HW128154   0.923   2.196   0.690
 9085SOL    HW228155   1.042   2.305   0.716
 9086SOL     OW28156   6.598   3.800   0.286
 9086SOL    HW128157   6.629   3.781   0.379
 9086SOL    HW228158   6.617   3.896   0.263
 9087SOL     OW28159   5.443   3.959   2.283
 9087SOL    HW128160   5.363   3.901   2.295
 9087SOL    HW228161   5.416   4.055   2.293
 9088SOL     OW28162   4.813   6.258   0.729
 9088SOL    HW128163   4.837   6.186   0.665
 9088SOL    HW228164   4.832   6.347   0.687
 9089SOL     OW28165   4.347   0.553   5.857
 9089SOL    HW128166   4.369   0.456   5.842
 9089SOL    HW228167   4.273   0.580   5.795
 9090SOL     OW28168   6.058   1.785   3.300
 9090SOL    HW128169   6.070   1.795   3.399
 9090SOL    HW228170   6.147   1.767   3.257
 9091SOL     OW28171   3.944   2.655   5.926
 9091SOL    HW128172   4.019   2.681   5.987
 9091SOL    HW228173   3.867   2.718   5.939
 9092SOL     OW28174   6.853   3.479   6.571
 9092SOL    HW128175   6.779   3.504   6.634
 9092SOL    HW228176   6.931   3.443   6.623
 9093SOL     OW28177   2.222   6.580   5.056
 9093SOL    HW128178   2.198   6.638   4.978
 9093SOL    HW228179   2.273   6.500   5.023
 9094SOL     OW28180   1.744   3.718   1.085
 9094SOL    HW128181   1.665   3.707   1.024
 9094SOL    HW228182   1.714   3.756   1.172
 9095SOL     OW28183   6.614   6.803   6.287
 9095SOL    HW128184   6.595   6.768   6.195
 9095SOL    HW228185   6.557   6.883   6.305
 9096SOL     OW28186   5.584   5.304   4.905
 9096SOL    HW128187   5.652   5.344   4.844
 9096SOL    HW228188   5.536   5.377   4.954
 9097SOL     OW28189   1.416   2.248   5.816
 9097SOL    HW128190   1.402   2.206   5.726
 9097SOL    HW228191   1.355   2.204   5.883
 9098SOL     OW28192   2.127   4.449   3.778
 9098SOL    HW128193   2.124   4.496   3.866
 9098SOL    HW228194   2.175   4.507   3.712
 9099SOL     OW28195   2.051   1.498   6.612
 9099SOL    HW128196   2.048   1.513   6.711
 9099SOL    HW228197   1.959   1.480   6.578
 9100SOL     OW28198   1.651   4.656   3.992
 9100SOL    HW128199   1.606   4.736   3.952
 9100SOL    HW228200   1.617   4.573   3.949
 9101SOL     OW28201   0.464   2.320   0.490
 9101SOL    HW128202   0.421   2.318   0.400
 9101SOL    HW228203   0.399   2.288   0.559
 9102SOL     OW28204   3.907   0.488   2.908
 9102SOL    HW128205   3.821   0.443   2.883
 9102SOL    HW228206   3.981   0.421   2.912
 9103SOL     OW28207   6.053   1.190   1.550
 9103SOL    HW128208   6.103   1.105   1.567
 9103SOL    HW228209   6.039   1.239   1.636
 9104SOL     OW28210   6.039   1.792   6.070
 9104SOL    HW128211   5.962   1.796   6.007
 9104SOL    HW228212   6.115   1.846   6.034
 9105SOL     OW28213   3.095   1.277   6.095
 9105SOL    HW128214   3.118   1.191   6.141
 9105SOL    HW228215   3.008   1.311   6.130
 9106SOL     OW28216   2.084   3.482   6.776
 9106SOL    HW128217   2.051   3.492   6.871
 9106SOL    HW228218   2.021   3.529   6.715
 9107SOL     OW28219   3.465   1.260   0.569
 9107SOL    HW128220   3.418   1.198   0.632
 9107SOL    HW228221   3.504   1.206   0.494
 9108SOL     OW28222   0.124   5.718   5.665
 9108SOL    HW128223   0.117   5.816   5.684
 9108SOL    HW228224   0.040   5.672   5.693
 9109SOL     OW28225   5.704   4.006   2.691
 9109SOL    HW128226   5.621   4.050   2.656
 9109SOL    HW228227   5.749   3.955   2.618
 9110SOL     OW28228   1.508   6.487   3.153
 9110SOL    HW128229   1.515   6.578   3.194
 9110SOL    HW228230   1.430   6.483   3.091
 9111SOL     OW28231   3.677   2.401   5.626
 9111SOL    HW128232   3.634   2.310   5.622
 9111SOL    HW228233   3.742   2.403   5.702
 9112SOL     OW28234   0.467   5.275   2.225
 9112SOL    HW128235   0.462   5.244   2.321
 9112SOL    HW228236   0.444   5.372   2.220
 9113SOL     OW28237   5.822   0.534   4.028
 9113SOL    HW128238   5.885   0.609   4.012
 9113SOL    HW228239   5.739   0.567   4.074
 9114SOL     OW28240   1.285   0.036   5.712
 9114SOL    HW128241   1.306   6.980   5.646
 9114SOL    HW228242   1.276   7.011   5.803
 9115SOL     OW28243   4.828   4.356   5.263
 9115SOL    HW128244   4.798   4.305   5.344
 9115SOL    HW228245   4.801   4.307   5.180
 9116SOL     OW28246   1.834   0.138   3.761
 9116SOL    HW128247   1.917   0.082   3.757
 9116SOL    HW228248   1.852   0.227   3.719
 9117SOL     OW28249   1.703   6.773   0.245
 9117SOL    HW128250   1.686   6.718   0.163
 9117SOL    HW228251   1.665   6.865   0.231
 9118SOL     OW28252   6.745   3.640   1.663
 9118SOL    HW128253   6.674   3.631   1.734
 9118SOL    HW228254   6.800   3.721   1.681
 9119SOL     OW28255   3.000   1.335   1.192
 9119SOL    HW128256   2.984   1.314   1.288
 9119SOL    HW228257   3.095   1.364   1.180
 9120SOL     OW28258   6.420   3.795   4.651
 9120SOL    HW128259   6.472   3.800   4.736
 9120SOL    HW228260   6.354   3.871   4.647
 9121SOL     OW28261   4.135   1.235   4.388
 9121SOL    HW128262   4.131   1.191   4.478
 9121SOL    HW228263   4.051   1.217   4.338
 9122SOL     OW28264   0.252   2.519   1.599
 9122SOL    HW128265   0.333   2.490   1.548
 9122SOL    HW228266   0.270   2.606   1.643
 9123SOL     OW28267   0.765   5.854   4.138
 9123SOL    HW128268   0.677   5.889   4.168
 9123SOL    HW228269   0.789   5.773   4.192
 9124SOL     OW28270   3.831   5.959   0.662
 9124SOL    HW128271   3.923   5.977   0.700
 9124SOL    HW228272   3.831   5.980   0.565
 9125SOL     OW28273   5.396   6.305   1.378
 9125SOL    HW128274   5.335   6.282   1.302
 9125SOL    HW228275   5.444   6.223   1.408
 9126SOL     OW28276   4.424   4.591   0.755
 9126SOL    HW128277   4.432   4.503   0.708
 9126SOL    HW228278   4.451   4.664   0.693
 9127SOL     OW28279   6.376   4.445   5.424
 9127SOL    HW128280   6.410   4.383   5.353
 9127SOL    HW228281   6.452   4.496   5.464
 9128SOL     OW28282   5.808   3.868   6.136
 9128SOL    HW128283   5.825   3.834   6.228
 9128SOL    HW228284   5.757   3.800   6.084
 9129SOL     OW28285   0.930   2.784   0.622
 9129SOL    HW128286   0.955   2.851   0.552
 9129SOL    HW228287   0.926   2.829   0.712
 9130SOL     OW28288   2.925   3.617   5.555
 9130SOL    HW128289   2.984   3.591   5.479
 9130SOL    HW228290   2.832   3.632   5.521
 9131SOL     OW28291   5.350   2.700   0.837
 9131SOL    HW128292   5.258   2.679   0.807
 9131SOL    HW228293   5.348   2.774   0.904
 9132SOL     OW28294   1.045   4.103   3.958
 9132SOL    HW128295   1.022   4.010   3.930
 9132SOL    HW228296   1.001   4.123   4.046
 9133SOL     OW28297   5.635   6.904   1.298
 9133SOL    HW128298   5.542   6.938   1.287
 9133SOL    HW228299   5.656   6.840   1.224
 9134SOL     OW28300   5.264   4.781   6.817
 9134SOL    HW128301   5.337   4.773   6.885
 9134SOL    HW228302   5.180   4.814   6.861
 9135SOL     OW28303   6.526   5.274   2.154
 9135SOL    HW128304   6.443   5.247   2.105
 9135SOL    HW228305   6.529   5.374   2.161
 9136SOL     OW28306   0.597   5.115   0.491
 9136SOL    HW128307   0.575   5.031   0.541
 9136SOL    HW228308   0.512   5.160   0.462
 9137SOL     OW28309   5.593   5.937   5.556
 9137SOL    HW128310   5.527   6.012   5.556
 9137SOL    HW228311   5.681   5.969   5.521
 9138SOL     OW28312   1.993   4.319   6.176
 9138SOL    HW128313   1.897   4.323   6.205
 9138SOL    HW228314   2.013   4.229   6.138
 9139SOL     OW28315   0.353   0.281   1.710
 9139SOL    HW128316   0.262   0.317   1.728
 9139SOL    HW228317   0.417   0.314   1.779
 9140SOL     OW28318   1.920   4.155   2.309
 9140SOL    HW128319   1.936   4.063   2.273
 9140SOL    HW228320   1.844   4.198   2.259
 9141SOL     OW28321   0.387   5.650   4.362
 9141SOL    HW128322   0.331   5.568   4.367
 9141SOL    HW228323   0.379   5.692   4.271
 9142SOL     OW28324   1.175   4.230   2.966
 9142SOL    HW128325   1.158   4.196   3.059
 9142SOL    HW228326   1.222   4.159   2.913
 9143SOL     OW28327   6.264   3.747   2.858
 9143SOL    HW128328   6.195   3.815   2.833
 9143SOL    HW228329   6.275   3.681   2.784
 9144SOL     OW28330   3.126   3.996   5.246
 9144SOL    HW128331   3.126   4.037   5.155
 9144SOL    HW228332   3.220   3.981   5.276
 9145SOL     OW28333   1.798   6.280   5.725
 9145SOL    HW128334   1.784   6.181   5.718
 9145SOL    HW228335   1.802   6.320   5.634
 9146SOL     OW28336   5.937   2.222   3.807
 9146SOL    HW128337   5.838   2.215   3.792
 9146SOL    HW228338   5.959   2.315   3.837
 9147SOL     OW28339   4.110   0.849   6.020
 9147SOL    HW128340   4.069   0.775   5.967
 9147SOL    HW228341   4.144   0.920   5.958
 9148SOL     OW28342   4.447   5.801   1.636
 9148SOL    HW128343   4.539   5.762   1.627
 9148SOL    HW228344   4.413   5.785   1.729
 9149SOL     OW28345   1.002   3.821   1.695
 9149SOL    HW128346   0.987   3.903   1.641
 9149SOL    HW228347   0.915   3.792   1.737
 9150SOL     OW28348   2.956   3.635   6.965
 9150SOL    HW128349   2.972   3.670   0.042
 9150SOL    HW228350   2.860   3.650   6.941
 9151SOL     OW28351   2.260   3.015   3.436
 9151SOL    HW128352   2.228   3.038   3.344
 9151SOL    HW228353   2.279   3.100   3.486
 9152SOL     OW28354   2.095   4.849   2.403
 9152SOL    HW128355   2.165   4.908   2.363
 9152SOL    HW228356   2.133   4.799   2.481
 9153SOL     OW28357   0.472   3.291   0.151
 9153SOL    HW128358   0.498   3.379   0.192
 9153SOL    HW228359   0.374   3.278   0.160
 9154SOL     OW28360   4.872   4.640   3.735
 9154SOL    HW128361   4.909   4.657   3.826
 9154SOL    HW228362   4.787   4.690   3.724
 9155SOL     OW28363   0.974   6.519   2.755
 9155SOL    HW128364   0.890   6.560   2.790
 9155SOL    HW228365   1.051   6.579   2.774
 9156SOL     OW28366   0.298   3.924   5.618
 9156SOL    HW128367   0.215   3.969   5.585
 9156SOL    HW228368   0.293   3.826   5.601
 9157SOL     OW28369   2.093   4.704   5.224
 9157SOL    HW128370   2.102   4.763   5.304
 9157SOL    HW228371   2.182   4.663   5.203
 9158SOL     OW28372   6.905   3.225   4.792
 9158SOL    HW128373   7.005   3.213   4.790
 9158SOL    HW228374   6.882   3.305   4.847
 9159SOL     OW28375   2.362   1.463   3.947
 9159SOL    HW128376   2.297   1.422   3.883
 9159SOL    HW228377   2.440   1.401   3.960
 9160SOL     OW28378   1.059   2.916   6.602
 9160SOL    HW128379   1.010   2.906   6.688
 9160SOL    HW228380   1.157   2.929   6.621
 9161SOL     OW28381   5.911   3.049   3.316
 9161SOL    HW128382   5.975   3.047   3.392
 9161SOL    HW228383   5.924   3.134   3.264
 9162SOL     OW28384   3.752   2.207   1.560
 9162SOL    HW128385   3.734   2.248   1.649
 9162SOL    HW228386   3.722   2.268   1.488
 9163SOL     OW28387   1.575   2.699   4.036
 9163SOL    HW128388   1.637   2.776   4.049
 9163SOL    HW228389   1.484   2.723   4.069
 9164SOL     OW28390   2.727   6.380   6.956
 9164SOL    HW128391   2.678   6.390   6.869
 9164SOL    HW228392   2.804   6.317   6.944
 9165SOL     OW28393   5.829   0.957   6.224
 9165SOL    HW128394   5.875   0.963   6.312
 9165SOL    HW228395   5.795   0.863   6.211
 9166SOL     OW28396   4.409   6.398   1.826
 9166SOL    HW128397   4.406   6.392   1.726
 9166SOL    HW228398   4.341   6.464   1.858
 9167SOL     OW28399   1.508   1.761   4.230
 9167SOL    HW128400   1.549   1.700   4.298
 9167SOL    HW228401   1.414   1.780   4.256
 9168SOL     OW28402   6.453   5.796   5.089
 9168SOL    HW128403   6.427   5.794   5.185
 9168SOL    HW228404   6.553   5.799   5.081
 9169SOL     OW28405   6.542   6.038   0.067
 9169SOL    HW128406   6.502   6.072   0.152
 9169SOL    HW228407   6.563   6.115   0.006
 9170SOL     OW28408   2.309   0.756   5.765
 9170SOL    HW128409   2.239   0.686   5.751
 9170SOL    HW228410   2.297   0.797   5.856
 9171SOL     OW28411   3.575   5.851   7.010
 9171SOL    HW128412   3.524   5.780   0.043
 9171SOL    HW228413   3.584   5.825   6.914
 9172SOL     OW28414   4.399   1.580   5.503
 9172SOL    HW128415   4.428   1.542   5.416
 9172SOL    HW228416   4.471   1.641   5.538
 9173SOL     OW28417   6.128   3.677   5.161
 9173SOL    HW128418   6.063   3.650   5.090
 9173SOL    HW228419   6.077   3.699   5.245
 9174SOL     OW28420   6.130   4.632   0.722
 9174SOL    HW128421   6.127   4.592   0.630
 9174SOL    HW228422   6.105   4.562   0.789
 9175SOL     OW28423   2.141   0.958   1.286
 9175SOL    HW128424   2.206   0.884   1.266
 9175SOL    HW228425   2.191   1.041   1.310
 9176SOL     OW28426   1.656   1.044   2.701
 9176SOL    HW128427   1.739   1.080   2.742
 9176SOL    HW228428   1.669   1.037   2.602
 9177SOL     OW28429   1.172   5.654   3.323
 9177SOL    HW128430   1.077   5.629   3.302
 9177SOL    HW228431   1.189   5.643   3.420
 9178SOL     OW28432   1.302   3.680   1.189
 9178SOL    HW128433   1.218   3.692   1.242
 9178SOL    HW228434   1.351   3.599   1.220
 9179SOL     OW28435   4.188   4.882   3.724
 9179SOL    HW128436   4.213   4.836   3.638
 9179SOL    HW228437   4.218   4.826   3.801
 9180SOL     OW28438   0.675   0.517   5.154
 9180SOL    HW128439   0.693   0.571   5.071
 9180SOL    HW228440   0.660   0.421   5.128
 9181SOL     OW28441   2.671   1.841   3.794
 9181SOL    HW128442   2.600   1.805   3.855
 9181SOL    HW228443   2.725   1.765   3.758
 9182SOL     OW28444   6.598   1.700   2.873
 9182SOL    HW128445   6.575   1.649   2.790
 9182SOL    HW228446   6.569   1.796   2.862
 9183SOL     OW28447   2.314   1.168   5.793
 9183SOL    HW128448   2.216   1.174   5.813
 9183SOL    HW228449   2.340   1.242   5.732
 9184SOL     OW28450   2.618   4.662   1.550
 9184SOL    HW128451   2.677   4.737   1.579
 9184SOL    HW228452   2.639   4.580   1.604
 9185SOL     OW28453   1.594   0.870   5.769
 9185SOL    HW128454   1.593   0.770   5.771
 9185SOL    HW228455   1.638   0.905   5.852
 9186SOL     OW28456   5.705   6.122   6.286
 9186SOL    HW128457   5.753   6.175   6.356
 9186SOL    HW228458   5.651   6.184   6.229
 9187SOL     OW28459   4.970   2.758   1.243
 9187SOL    HW128460   4.950   2.722   1.334
 9187SOL    HW228461   5.008   2.851   1.252
 9188SOL     OW28462   1.282   0.641   1.909
 9188SOL    HW128463   1.186   0.618   1.889
 9188SOL    HW228464   1.342   0.591   1.846
 9189SOL     OW28465   3.056   0.557   5.841
 9189SOL    HW128466   3.154   0.538   5.847
 9189SOL    HW228467   3.042   0.650   5.805
 9190SOL     OW28468   4.232   1.004   5.487
 9190SOL    HW128469   4.269   1.001   5.394
 9190SOL    HW228470   4.196   1.095   5.506
 9191SOL     OW28471   5.298   6.532   1.532
 9191SOL    HW128472   5.199   6.542   1.527
 9191SOL    HW228473   5.324   6.505   1.625
 9192SOL     OW28474   4.757   4.244   4.763
 9192SOL    HW128475   4.846   4.251   4.808
 9192SOL    HW228476   4.692   4.305   4.809
 9193SOL     OW28477   4.158   3.608   3.282
 9193SOL    HW128478   4.139   3.524   3.332
 9193SOL    HW228479   4.195   3.676   3.345
 9194SOL     OW28480   3.986   4.817   3.036
 9194SOL    HW128481   4.043   4.898   3.048
 9194SOL    HW228482   3.918   4.834   2.964
 9195SOL     OW28483   0.913   2.433   3.551
 9195SOL    HW128484   0.817   2.411   3.533
 9195SOL    HW228485   0.923   2.532   3.567
 9196SOL     OW28486   5.298   5.799   3.447
 9196SOL    HW128487   5.351   5.839   3.372
 9196SOL    HW228488   5.273   5.705   3.423
 9197SOL     OW28489   4.655   1.493   0.166
 9197SOL    HW128490   4.668   1.399   0.199
 9197SOL    HW228491   4.702   1.505   0.079
 9198SOL     OW28492   5.938   2.818   5.366
 9198SOL    HW128493   5.854   2.834   5.418
 9198SOL    HW228494   5.954   2.896   5.305
 9199SOL     OW28495   1.040   3.570   6.656
 9199SOL    HW128496   0.981   3.539   6.581
 9199SOL    HW228497   1.121   3.512   6.660
 9200SOL     OW28498   5.301   5.946   1.251
 9200SOL    HW128499   5.287   5.904   1.341
 9200SOL    HW228500   5.379   6.008   1.255
 9201SOL     OW28501   0.057   2.918   2.144
 9201SOL    HW128502   7.004   2.984   2.111
 9201SOL    HW228503   0.054   2.836   2.087
 9202SOL     OW28504   2.690   6.253   4.387
 9202SOL    HW128505   2.664   6.159   4.364
 9202SOL    HW228506   2.753   6.251   4.465
 9203SOL     OW28507   5.302   1.231   0.300
 9203SOL    HW128508   5.253   1.318   0.304
 9203SOL    HW228509   5.382   1.240   0.241
 9204SOL     OW28510   4.888   4.750   2.801
 9204SOL    HW128511   4.827   4.700   2.863
 9204SOL    HW228512   4.968   4.782   2.851
 9205SOL     OW28513   4.324   2.493   1.294
 9205SOL    HW128514   4.365   2.543   1.371
 9205SOL    HW228515   4.378   2.508   1.212
 9206SOL     OW28516   6.623   6.063   5.161
 9206SOL    HW128517   6.596   6.144   5.212
 9206SOL    HW228518   6.599   6.075   5.065
 9207SOL     OW28519   4.381   6.573   0.538
 9207SOL    HW128520   4.322   6.601   0.614
 9207SOL    HW228521   4.400   6.475   0.544
 9208SOL     OW28522   4.593   4.379   1.363
 9208SOL    HW128523   4.620   4.381   1.267
 9208SOL    HW228524   4.499   4.344   1.371
 9209SOL     OW28525   4.208   0.360   3.966
 9209SOL    HW128526   4.154   0.444   3.957
 9209SOL    HW228527   4.199   0.306   3.883
 9210SOL     OW28528   1.023   0.074   6.816
 9210SOL    HW128529   0.962   0.002   6.847
 9210SOL    HW228530   1.109   0.034   6.784
 9211SOL     OW28531   5.020   0.994   6.752
 9211SOL    HW128532   5.039   0.932   6.829
 9211SOL    HW228533   5.017   1.088   6.785
 9212SOL     OW28534   6.216   3.240   5.754
 9212SOL    HW128535   6.146   3.221   5.686
 9212SOL    HW228536   6.298   3.187   5.732
 9213SOL     OW28537   6.504   5.777   1.829
 9213SOL    HW128538   6.516   5.862   1.879
 9213SOL    HW228539   6.408   5.749   1.831
 9214SOL     OW28540   1.815   1.727   6.429
 9214SOL    HW128541   1.870   1.723   6.346
 9214SOL    HW228542   1.865   1.777   6.500
 9215SOL     OW28543   0.383   3.851   3.646
 9215SOL    HW128544   0.346   3.759   3.635
 9215SOL    HW228545   0.317   3.909   3.693
 9216SOL     OW28546   2.594   6.594   3.734
 9216SOL    HW128547   2.564   6.559   3.646
 9216SOL    HW228548   2.627   6.688   3.723
 9217SOL     OW28549   3.622   2.320   6.876
 9217SOL    HW128550   3.696   2.322   6.810
 9217SOL    HW228551   3.627   2.402   6.934
 9218SOL     OW28552   4.975   5.925   5.782
 9218SOL    HW128553   4.881   5.923   5.749
 9218SOL    HW228554   4.983   5.870   5.865
 9219SOL     OW28555   3.276   2.081   5.667
 9219SOL    HW128556   3.245   2.124   5.582
 9219SOL    HW228557   3.256   2.140   5.744
 9220SOL     OW28558   0.488   6.578   3.255
 9220SOL    HW128559   0.466   6.579   3.353
 9220SOL    HW228560   0.587   6.585   3.244
 9221SOL     OW28561   2.676   1.673   1.440
 9221SOL    HW128562   2.673   1.758   1.388
 9221SOL    HW228563   2.771   1.648   1.458
 9222SOL     OW28564   1.858   5.224   3.096
 9222SOL    HW128565   1.866   5.317   3.133
 9222SOL    HW228566   1.849   5.229   2.996
 9223SOL     OW28567   6.797   3.013   4.998
 9223SOL    HW128568   6.735   2.992   4.922
 9223SOL    HW228569   6.887   3.038   4.962
 9224SOL     OW28570   1.581   5.074   2.205
 9224SOL    HW128571   1.489   5.048   2.234
 9224SOL    HW228572   1.638   5.089   2.286
 9225SOL     OW28573   0.869   5.795   6.180
 9225SOL    HW128574   0.803   5.844   6.122
 9225SOL    HW228575   0.918   5.728   6.126
 9226SOL     OW28576   0.897   0.374   4.562
 9226SOL    HW128577   0.805   0.370   4.601
 9226SOL    HW228578   0.912   0.464   4.519
 9227SOL     OW28579   3.509   3.867   0.326
 9227SOL    HW128580   3.544   3.873   0.420
 9227SOL    HW228581   3.497   3.771   0.302
 9228SOL     OW28582   3.867   3.495   5.098
 9228SOL    HW128583   3.814   3.560   5.151
 9228SOL    HW228584   3.937   3.544   5.046
 9229SOL     OW28585   0.153   5.055   0.213
 9229SOL    HW128586   0.196   5.066   0.123
 9229SOL    HW228587   0.107   4.966   0.217
 9230SOL     OW28588   4.285   6.779   5.263
 9230SOL    HW128589   4.229   6.733   5.194
 9230SOL    HW228590   4.340   6.712   5.312
 9231SOL     OW28591   6.262   6.247   1.821
 9231SOL    HW128592   6.260   6.345   1.841
 9231SOL    HW228593   6.309   6.232   1.734
 9232SOL     OW28594   1.419   5.827   2.227
 9232SOL    HW128595   1.503   5.813   2.279
 9232SOL    HW228596   1.360   5.747   2.236
 9233SOL     OW28597   1.238   0.228   5.379
 9233SOL    HW128598   1.227   0.288   5.459
 9233SOL    HW228599   1.239   0.133   5.409
 9234SOL     OW28600   3.408   4.594   6.038
 9234SOL    HW128601   3.327   4.591   5.980
 9234SOL    HW228602   3.489   4.611   5.982
 9235SOL     OW28603   2.422   2.676   3.045
 9235SOL    HW128604   2.376   2.718   3.123
 9235SOL    HW228605   2.484   2.605   3.077
 9236SOL     OW28606   1.523   3.317   5.993
 9236SOL    HW128607   1.619   3.333   6.015
 9236SOL    HW228608   1.472   3.403   6.002
 9237SOL     OW28609   6.407   4.824   3.518
 9237SOL    HW128610   6.420   4.897   3.450
 9237SOL    HW228611   6.366   4.862   3.601
 9238SOL     OW28612   1.327   2.917   5.064
 9238SOL    HW128613   1.283   2.999   5.026
 9238SOL    HW228614   1.324   2.843   4.997
 9239SOL     OW28615   1.173   6.172   5.617
 9239SOL    HW128616   1.157   6.178   5.519
 9239SOL    HW228617   1.091   6.201   5.666
 9240SOL     OW28618   3.297   1.567   4.217
 9240SOL    HW128619   3.332   1.487   4.266
 9240SOL    HW228620   3.250   1.627   4.281
 9241SOL     OW28621   5.640   6.289   0.385
 9241SOL    HW128622   5.679   6.379   0.407
 9241SOL    HW228623   5.713   6.221   0.378
 9242SOL     OW28624   2.259   2.862   0.427
 9242SOL    HW128625   2.349   2.893   0.399
 9242SOL    HW228626   2.254   2.858   0.526
 9243SOL     OW28627   2.152   6.874   0.417
 9243SOL    HW128628   2.101   6.957   0.396
 9243SOL    HW228629   2.088   6.802   0.444
 9244SOL     OW28630   2.450   6.072   6.802
 9244SOL    HW128631   2.373   6.095   6.742
 9244SOL    HW228632   2.533   6.116   6.767
 9245SOL     OW28633   0.693   4.994   2.727
 9245SOL    HW128634   0.604   4.951   2.709
 9245SOL    HW228635   0.712   5.062   2.656
 9246SOL     OW28636   4.547   6.547   0.209
 9246SOL    HW128637   4.574   6.602   0.288
 9246SOL    HW228638   4.457   6.577   0.177
 9247SOL     OW28639   3.690   6.637   2.623
 9247SOL    HW128640   3.609   6.604   2.670
 9247SOL    HW228641   3.694   6.737   2.627
 9248SOL     OW28642   2.899   0.348   6.799
 9248SOL    HW128643   2.813   0.352   6.849
 9248SOL    HW228644   2.912   0.256   6.763
 9249SOL     OW28645   3.153   0.434   0.417
 9249SOL    HW128646   3.097   0.352   0.431
 9249SOL    HW228647   3.222   0.439   0.490
 9250SOL     OW28648   0.620   3.868   2.979
 9250SOL    HW128649   0.661   3.834   2.895
 9250SOL    HW228650   0.546   3.807   3.007
 9251SOL     OW28651   4.042   1.838   1.313
 9251SOL    HW128652   3.975   1.880   1.373
 9251SOL    HW228653   4.008   1.749   1.282
 9252SOL     OW28654   5.426   1.237   4.950
 9252SOL    HW128655   5.514   1.209   4.913
 9252SOL    HW228656   5.411   1.190   5.037
 9253SOL     OW28657   2.323   5.270   4.163
 9253SOL    HW128658   2.411   5.316   4.149
 9253SOL    HW228659   2.338   5.172   4.171
 9254SOL     OW28660   0.145   5.718   2.216
 9254SOL    HW128661   0.057   5.707   2.169
 9254SOL    HW228662   0.206   5.774   2.160
 9255SOL     OW28663   6.089   3.416   0.906
 9255SOL    HW128664   6.025   3.453   0.838
 9255SOL    HW228665   6.179   3.402   0.863
 9256SOL     OW28666   2.542   6.425   0.769
 9256SOL    HW128667   2.571   6.339   0.811
 9256SOL    HW228668   2.470   6.407   0.702
 9257SOL     OW28669   6.634   5.934   4.761
 9257SOL    HW128670   6.601   6.029   4.767
 9257SOL    HW228671   6.612   5.885   4.845
 9258SOL     OW28672   5.183   4.981   2.308
 9258SOL    HW128673   5.280   4.980   2.287
 9258SOL    HW228674   5.146   5.072   2.290
 9259SOL     OW28675   0.949   2.461   6.968
 9259SOL    HW128676   0.922   2.509   6.885
 9259SOL    HW228677   0.952   2.362   6.951
 9260SOL     OW28678   4.830   3.987   4.986
 9260SOL    HW128679   4.743   3.962   4.945
 9260SOL    HW228680   4.894   3.911   4.977
 9261SOL     OW28681   1.819   3.613   1.874
 9261SOL    HW128682   1.887   3.578   1.938
 9261SOL    HW228683   1.843   3.706   1.847
 9262SOL     OW28684   0.025   6.637   6.088
 9262SOL    HW128685   0.124   6.646   6.101
 9262SOL    HW228686   7.012   6.545   6.116
 9263SOL     OW28687   2.640   4.643   2.825
 9263SOL    HW128688   2.732   4.659   2.861
 9263SOL    HW228689   2.645   4.625   2.727
 9264SOL     OW28690   5.090   3.098   5.479
 9264SOL    HW128691   5.009   3.126   5.531
 9264SOL    HW228692   5.169   3.149   5.512
 9265SOL     OW28693   5.141   0.167   2.018
 9265SOL    HW128694   5.116   0.263   2.000
 9265SOL    HW228695   5.077   0.107   1.971
 9266SOL     OW28696   1.054   4.756   0.996
 9266SOL    HW128697   1.076   4.704   1.078
 9266SOL    HW228698   1.130   4.816   0.972
 9267SOL     OW28699   6.835   1.571   4.028
 9267SOL    HW128700   6.912   1.525   4.071
 9267SOL    HW228701   6.810   1.652   4.081
 9268SOL     OW28702   0.764   1.554   1.722
 9268SOL    HW128703   0.666   1.549   1.746
 9268SOL    HW228704   0.818   1.530   1.802
 9269SOL     OW28705   4.215   0.329   1.361
 9269SOL    HW128706   4.261   0.401   1.413
 9269SOL    HW228707   4.151   0.371   1.297
 9270SOL     OW28708   2.739   0.952   5.259
 9270SOL    HW128709   2.733   1.002   5.172
 9270SOL    HW228710   2.690   1.002   5.330
 9271SOL     OW28711   1.361   4.345   5.739
 9271SOL    HW128712   1.305   4.396   5.674
 9271SOL    HW228713   1.351   4.247   5.721
 9272SOL     OW28714   6.545   6.375   5.605
 9272SOL    HW128715   6.472   6.366   5.536
 9272SOL    HW228716   6.633   6.357   5.562
 9273SOL     OW28717   5.804   3.436   4.230
 9273SOL    HW128718   5.740   3.388   4.169
 9273SOL    HW228719   5.756   3.463   4.313
 9274SOL     OW28720   0.147   3.671   6.668
 9274SOL    HW128721   0.128   3.573   6.677
 9274SOL    HW228722   0.091   3.722   6.734
 9275SOL     OW28723   5.575   1.396   0.507
 9275SOL    HW128724   5.575   1.326   0.578
 9275SOL    HW228725   5.584   1.352   0.418
 9276SOL     OW28726   2.450   4.081   0.134
 9276SOL    HW128727   2.444   4.039   0.224
 9276SOL    HW228728   2.545   4.079   0.102
 9277SOL     OW28729   4.290   5.785   2.512
 9277SOL    HW128730   4.199   5.752   2.535
 9277SOL    HW228731   4.288   5.834   2.425
 9278SOL     OW28732   1.070   0.219   5.743
 9278SOL    HW128733   1.141   0.148   5.738
 9278SOL    HW228734   0.980   0.177   5.729
 9279SOL     OW28735   3.067   6.108   1.832
 9279SOL    HW128736   3.049   6.170   1.756
 9279SOL    HW228737   3.116   6.157   1.904
 9280SOL     OW28738   1.124   5.425   2.150
 9280SOL    HW128739   1.191   5.388   2.086
 9280SOL    HW228740   1.032   5.421   2.109
 9281SOL     OW28741   1.254   5.468   0.941
 9281SOL    HW128742   1.248   5.471   0.841
 9281SOL    HW228743   1.288   5.378   0.970
 9282SOL     OW28744   2.193   0.221   4.716
 9282SOL    HW128745   2.134   0.280   4.662
 9282SOL    HW228746   2.137   0.152   4.762
 9283SOL     OW28747   4.386   5.774   6.926
 9283SOL    HW128748   4.460   5.836   6.898
 9283SOL    HW228749   4.307   5.828   6.955
 9284SOL     OW28750   4.184   6.578   1.030
 9284SOL    HW128751   4.215   6.502   0.973
 9284SOL    HW228752   4.094   6.610   0.998
 9285SOL     OW28753   6.857   6.041   3.587
 9285SOL    HW128754   6.922   5.988   3.532
 9285SOL    HW228755   6.782   5.981   3.617
 9286SOL     OW28756   4.807   6.727   1.801
 9286SOL    HW128757   4.827   6.704   1.896
 9286SOL    HW228758   4.737   6.664   1.766
 9287SOL     OW28759   4.449   4.392   0.075
 9287SOL    HW128760   4.390   4.471   0.061
 9287SOL    HW228761   4.393   4.312   0.095
 9288SOL     OW28762   4.014   1.949   2.407
 9288SOL    HW128763   3.943   1.936   2.338
 9288SOL    HW228764   4.027   1.863   2.457
 9289SOL     OW28765   4.496   5.775   1.925
 9289SOL    HW128766   4.432   5.842   1.963
 9289SOL    HW228767   4.543   5.729   1.999
 9290SOL     OW28768   5.450   1.148   3.380
 9290SOL    HW128769   5.429   1.097   3.296
 9290SOL    HW228770   5.539   1.191   3.371
 9291SOL     OW28771   0.596   4.171   5.443
 9291SOL    HW128772   0.511   4.181   5.493
 9291SOL    HW228773   0.627   4.076   5.447
 9292SOL     OW28774   0.875   1.850   6.880
 9292SOL    HW128775   0.828   1.786   6.820
 9292SOL    HW228776   0.809   1.892   6.942
 9293SOL     OW28777   4.714   1.317   5.939
 9293SOL    HW128778   4.666   1.251   5.997
 9293SOL    HW228779   4.650   1.388   5.910
 9294SOL     OW28780   5.244   6.275   6.676
 9294SOL    HW128781   5.171   6.258   6.610
 9294SOL    HW228782   5.300   6.193   6.686
 9295SOL     OW28783   6.443   0.681   3.228
 9295SOL    HW128784   6.430   0.583   3.236
 9295SOL    HW228785   6.518   0.700   3.164
 9296SOL     OW28786   1.997   4.348   5.871
 9296SOL    HW128787   1.979   4.322   5.776
 9296SOL    HW228788   2.020   4.266   5.924
 9297SOL     OW28789   6.854   4.654   1.869
 9297SOL    HW128790   6.843   4.604   1.955
 9297SOL    HW228791   6.842   4.752   1.887
 9298SOL     OW28792   0.351   4.089   6.159
 9298SOL    HW128793   0.375   4.178   6.120
 9298SOL    HW228794   0.415   4.020   6.125
 9299SOL     OW28795   3.226   1.890   4.107
 9299SOL    HW128796   3.179   1.820   4.053
 9299SOL    HW228797   3.294   1.846   4.166
 9300SOL     OW28798   2.541   5.866   5.500
 9300SOL    HW128799   2.460   5.923   5.512
 9300SOL    HW228800   2.621   5.924   5.483
 9301SOL     OW28801   1.083   4.178   4.576
 9301SOL    HW128802   1.060   4.200   4.671
 9301SOL    HW228803   1.065   4.258   4.519
 9302SOL     OW28804   3.200   5.474   4.150
 9302SOL    HW128805   3.114   5.489   4.198
 9302SOL    HW228806   3.186   5.485   4.052
 9303SOL     OW28807   2.555   4.543   0.375
 9303SOL    HW128808   2.536   4.622   0.317
 9303SOL    HW228809   2.627   4.487   0.333
 9304SOL     OW28810   5.368   5.674   6.448
 9304SOL    HW128811   5.429   5.753   6.443
 9304SOL    HW228812   5.397   5.606   6.380
 9305SOL     OW28813   1.732   1.631   1.092
 9305SOL    HW128814   1.655   1.691   1.072
 9305SOL    HW228815   1.715   1.541   1.053
 9306SOL     OW28816   7.000   6.116   4.540
 9306SOL    HW128817   6.943   6.081   4.465
 9306SOL    HW228818   6.968   6.079   4.627
 9307SOL     OW28819   2.181   3.641   1.413
 9307SOL    HW128820   2.154   3.590   1.494
 9307SOL    HW228821   2.234   3.721   1.439
 9308SOL     OW28822   2.432   3.667   1.712
 9308SOL    HW128823   2.442   3.577   1.755
 9308SOL    HW228824   2.513   3.686   1.656
 9309SOL     OW28825   4.959   5.099   6.168
 9309SOL    HW128826   4.943   5.187   6.124
 9309SOL    HW228827   4.927   5.026   6.107
 9310SOL     OW28828   6.204   6.298   5.502
 9310SOL    HW128829   6.180   6.207   5.469
 9310SOL    HW228830   6.194   6.301   5.601
 9311SOL     OW28831   5.622   4.207   0.683
 9311SOL    HW128832   5.546   4.201   0.748
 9311SOL    HW228833   5.592   4.255   0.600
 9312SOL     OW28834   6.270   2.712   4.474
 9312SOL    HW128835   6.309   2.661   4.551
 9312SOL    HW228836   6.328   2.698   4.393
 9313SOL     OW28837   0.746   0.865   2.227
 9313SOL    HW128838   0.727   0.917   2.310
 9313SOL    HW228839   0.723   0.921   2.147
 9314SOL     OW28840   5.363   4.981   1.174
 9314SOL    HW128841   5.436   5.050   1.180
 9314SOL    HW228842   5.282   5.023   1.133
 9315SOL     OW28843   5.825   5.473   5.664
 9315SOL    HW128844   5.757   5.477   5.737
 9315SOL    HW228845   5.778   5.459   5.576
 9316SOL     OW28846   5.073   6.883   0.818
 9316SOL    HW128847   4.976   6.880   0.842
 9316SOL    HW228848   5.113   6.793   0.835
 9317SOL     OW28849   2.368   6.123   3.513
 9317SOL    HW128850   2.349   6.150   3.607
 9317SOL    HW228851   2.291   6.148   3.455
 9318SOL     OW28852   3.324   6.510   3.042
 9318SOL    HW128853   3.349   6.485   2.948
 9318SOL    HW228854   3.344   6.607   3.056
 9319SOL     OW28855   3.897   2.001   0.156
 9319SOL    HW128856   3.855   2.047   0.234
 9319SOL    HW228857   3.996   2.016   0.158
 9320SOL     OW28858   6.614   6.672   6.543
 9320SOL    HW128859   6.583   6.702   6.453
 9320SOL    HW228860   6.645   6.751   6.596
 9321SOL     OW28861   0.605   2.909   3.642
 9321SOL    HW128862   0.655   2.903   3.556
 9321SOL    HW228863   0.669   2.931   3.716
 9322SOL     OW28864   4.864   2.555   0.377
 9322SOL    HW128865   4.784   2.602   0.339
 9322SOL    HW228866   4.942   2.568   0.316
 9323SOL     OW28867   0.361   2.369   5.490
 9323SOL    HW128868   0.321   2.297   5.547
 9323SOL    HW228869   0.434   2.330   5.433
 9324SOL     OW28870   0.496   4.865   1.325
 9324SOL    HW128871   0.534   4.950   1.361
 9324SOL    HW228872   0.399   4.878   1.303
 9325SOL     OW28873   0.924   5.039   3.417
 9325SOL    HW128874   0.879   4.970   3.360
 9325SOL    HW228875   0.951   5.117   3.361
 9326SOL     OW28876   4.835   4.480   0.944
 9326SOL    HW128877   4.825   4.485   0.845
 9326SOL    HW228878   4.874   4.566   0.978
 9327SOL     OW28879   2.558   1.734   3.097
 9327SOL    HW128880   2.483   1.787   3.136
 9327SOL    HW228881   2.642   1.788   3.100
 9328SOL     OW28882   1.539   0.271   3.243
 9328SOL    HW128883   1.447   0.244   3.273
 9328SOL    HW228884   1.538   0.288   3.145
 9329SOL     OW28885   1.212   5.466   6.427
 9329SOL    HW128886   1.209   5.566   6.431
 9329SOL    HW228887   1.126   5.431   6.390
 9330SOL     OW28888   0.668   6.821   0.913
 9330SOL    HW128889   0.722   6.747   0.954
 9330SOL    HW228890   0.721   6.863   0.839
 9331SOL     OW28891   2.053   4.661   4.299
 9331SOL    HW128892   2.133   4.675   4.240
 9331SOL    HW228893   2.002   4.747   4.306
 9332SOL     OW28894   6.898   5.285   0.330
 9332SOL    HW128895   6.810   5.328   0.350
 9332SOL    HW228896   6.932   5.238   0.411
 9333SOL     OW28897   2.427   4.947   1.289
 9333SOL    HW128898   2.491   4.968   1.363
 9333SOL    HW228899   2.399   5.033   1.245
 9334SOL     OW28900   6.931   5.604   6.531
 9334SOL    HW128901   6.863   5.627   6.600
 9334SOL    HW228902   7.010   5.665   6.539
 9335SOL     OW28903   0.284   3.487   1.045
 9335SOL    HW128904   0.341   3.407   1.025
 9335SOL    HW228905   0.341   3.561   1.079
 9336SOL     OW28906   4.497   5.861   5.168
 9336SOL    HW128907   4.516   5.849   5.265
 9336SOL    HW228908   4.582   5.880   5.119
 9337SOL     OW28909   2.784   1.768   5.348
 9337SOL    HW128910   2.701   1.772   5.292
 9337SOL    HW228911   2.782   1.841   5.416
 9338SOL     OW28912   4.909   6.596   0.758
 9338SOL    HW128913   4.989   6.535   0.762
 9338SOL    HW228914   4.855   6.585   0.841
 9339SOL     OW28915   6.880   3.376   5.345
 9339SOL    HW128916   6.784   3.404   5.340
 9339SOL    HW228917   6.889   3.282   5.313
 9340SOL     OW28918   2.925   4.753   2.463
 9340SOL    HW128919   2.908   4.826   2.529
 9340SOL    HW228920   2.987   4.686   2.504
 9341SOL     OW28921   5.645   5.298   0.327
 9341SOL    HW128922   5.733   5.344   0.335
 9341SOL    HW228923   5.620   5.289   0.230
 9342SOL     OW28924   3.199   0.488   5.173
 9342SOL    HW128925   3.191   0.391   5.193
 9342SOL    HW228926   3.221   0.501   5.076
 9343SOL     OW28927   5.106   3.850   1.489
 9343SOL    HW128928   5.157   3.896   1.562
 9343SOL    HW228929   5.009   3.847   1.514
 9344SOL     OW28930   5.791   0.008   4.668
 9344SOL    HW128931   5.693   7.002   4.673
 9344SOL    HW228932   5.806   0.079   4.599
 9345SOL     OW28933   0.258   4.698   6.699
 9345SOL    HW128934   0.272   4.623   6.764
 9345SOL    HW228935   0.166   4.735   6.710
 9346SOL     OW28936   5.391   0.467   2.292
 9346SOL    HW128937   5.401   0.521   2.375
 9346SOL    HW228938   5.294   0.447   2.278
 9347SOL     OW28939   4.943   6.181   1.817
 9347SOL    HW128940   5.022   6.179   1.755
 9347SOL    HW228941   4.871   6.121   1.781
 9348SOL     OW28942   2.553   4.886   2.167
 9348SOL    HW128943   2.458   4.900   2.195
 9348SOL    HW228944   2.559   4.804   2.110
 9349SOL     OW28945   6.289   5.858   0.946
 9349SOL    HW128946   6.255   5.892   0.859
 9349SOL    HW228947   6.237   5.777   0.973
 9350SOL     OW28948   6.377   6.933   0.332
 9350SOL    HW128949   6.332   6.971   0.252
 9350SOL    HW228950   6.410   6.841   0.311
 9351SOL     OW28951   4.328   3.467   6.519
 9351SOL    HW128952   4.394   3.540   6.538
 9351SOL    HW228953   4.353   3.385   6.570
 9352SOL     OW28954   2.597   2.090   6.515
 9352SOL    HW128955   2.651   2.011   6.541
 9352SOL    HW228956   2.561   2.135   6.597
 9353SOL     OW28957   1.048   2.900   1.509
 9353SOL    HW128958   1.112   2.924   1.583
 9353SOL    HW228959   1.100   2.878   1.427
 9354SOL     OW28960   5.315   2.092   2.408
 9354SOL    HW128961   5.249   2.108   2.481
 9354SOL    HW228962   5.282   2.018   2.349
 9355SOL     OW28963   0.026   1.765   2.322
 9355SOL    HW128964   0.032   1.690   2.388
 9355SOL    HW228965   0.109   1.821   2.328
 9356SOL     OW28966   5.459   3.163   2.662
 9356SOL    HW128967   5.467   3.141   2.759
 9356SOL    HW228968   5.454   3.262   2.650
 9357SOL     OW28969   2.287   4.811   0.508
 9357SOL    HW128970   2.355   4.876   0.476
 9357SOL    HW228971   2.334   4.730   0.545
 9358SOL     OW28972   5.052   3.582   2.435
 9358SOL    HW128973   4.986   3.651   2.406
 9358SOL    HW228974   5.121   3.570   2.365
 9359SOL     OW28975   4.588   5.566   6.038
 9359SOL    HW128976   4.622   5.645   6.089
 9359SOL    HW228977   4.528   5.599   5.964
 9360SOL     OW28978   1.483   0.940   4.938
 9360SOL    HW128979   1.432   0.978   5.016
 9360SOL    HW228980   1.513   1.015   4.879
 9361SOL     OW28981   2.023   1.471   2.380
 9361SOL    HW128982   1.951   1.533   2.349
 9361SOL    HW228983   2.107   1.524   2.395
 9362SOL     OW28984   2.337   1.906   3.152
 9362SOL    HW128985   2.239   1.890   3.153
 9362SOL    HW228986   2.359   1.978   3.218
 9363SOL     OW28987   1.405   6.561   2.210
 9363SOL    HW128988   1.389   6.579   2.307
 9363SOL    HW228989   1.346   6.486   2.180
 9364SOL     OW28990   5.332   4.656   1.066
 9364SOL    HW128991   5.276   4.599   1.006
 9364SOL    HW228992   5.422   4.613   1.077
 9365SOL     OW28993   2.331   1.140   3.997
 9365SOL    HW128994   2.369   1.108   4.084
 9365SOL    HW228995   2.235   1.163   4.010
 9366SOL     OW28996   3.236   1.414   2.061
 9366SOL    HW128997   3.331   1.442   2.068
 9366SOL    HW228998   3.225   1.322   2.097
 9367SOL     OW28999   6.487   6.487   4.024
 9367SOL    HW129000   6.390   6.510   4.031
 9367SOL    HW229001   6.529   6.488   4.115
 9368SOL     OW29002   4.501   3.039   0.586
 9368SOL    HW129003   4.448   3.042   0.501
 9368SOL    HW229004   4.576   3.104   0.580
 9369SOL     OW29005   0.512   1.858   5.349
 9369SOL    HW129006   0.513   1.886   5.445
 9369SOL    HW229007   0.467   1.928   5.294
 9370SOL     OW29008   5.634   5.772   2.880
 9370SOL    HW129009   5.635   5.865   2.844
 9370SOL    HW229010   5.679   5.710   2.816
 9371SOL     OW29011   1.010   6.929   0.446
 9371SOL    HW129012   1.069   6.850   0.428
 9371SOL    HW229013   1.009   6.949   0.544
 9372SOL     OW29014   5.793   6.504   0.448
 9372SOL    HW129015   5.821   6.594   0.482
 9372SOL    HW229016   5.833   6.433   0.506
 9373SOL     OW29017   5.704   2.170   4.600
 9373SOL    HW129018   5.751   2.225   4.530
 9373SOL    HW229019   5.618   2.136   4.563
 9374SOL     OW29020   4.622   4.189   0.378
 9374SOL    HW129021   4.658   4.213   0.288
 9374SOL    HW229022   4.662   4.103   0.408
 9375SOL     OW29023   6.744   1.223   4.171
 9375SOL    HW129024   6.754   1.284   4.250
 9375SOL    HW229025   6.747   1.277   4.087
 9376SOL     OW29026   2.147   2.701   1.470
 9376SOL    HW129027   2.106   2.793   1.473
 9376SOL    HW229028   2.094   2.640   1.530
 9377SOL     OW29029   6.014   4.941   2.660
 9377SOL    HW129030   5.958   4.859   2.647
 9377SOL    HW229031   6.082   4.924   2.731
 9378SOL     OW29032   3.349   6.117   1.327
 9378SOL    HW129033   3.440   6.093   1.296
 9378SOL    HW229034   3.355   6.163   1.416
 9379SOL     OW29035   5.683   5.013   5.255
 9379SOL    HW129036   5.763   5.008   5.194
 9379SOL    HW229037   5.696   4.949   5.331
 9380SOL     OW29038   6.412   5.484   6.170
 9380SOL    HW129039   6.463   5.563   6.135
 9380SOL    HW229040   6.464   5.401   6.152
 9381SOL     OW29041   1.098   0.804   0.134
 9381SOL    HW129042   1.046   0.725   0.166
 9381SOL    HW229043   1.091   0.878   0.201
 9382SOL     OW29044   5.000   2.130   2.416
 9382SOL    HW129045   5.047   2.199   2.471
 9382SOL    HW229046   4.926   2.173   2.365
 9383SOL     OW29047   6.359   5.330   5.882
 9383SOL    HW129048   6.358   5.387   5.799
 9383SOL    HW229049   6.267   5.325   5.919
 9384SOL     OW29050   3.899   6.403   3.261
 9384SOL    HW129051   3.844   6.376   3.341
 9384SOL    HW229052   3.874   6.496   3.234
 9385SOL     OW29053   3.920   1.062   4.284
 9385SOL    HW129054   3.821   1.076   4.280
 9385SOL    HW229055   3.940   0.979   4.337
 9386SOL     OW29056   4.122   0.325   5.605
 9386SOL    HW129057   4.191   0.294   5.540
 9386SOL    HW229058   4.034   0.333   5.558
 9387SOL     OW29059   3.812   5.879   1.161
 9387SOL    HW129060   3.787   5.807   1.096
 9387SOL    HW229061   3.795   5.847   1.254
 9388SOL     OW29062   6.219   6.650   2.326
 9388SOL    HW129063   6.271   6.736   2.330
 9388SOL    HW229064   6.207   6.623   2.231
 9389SOL     OW29065   3.480   1.821   0.031
 9389SOL    HW129066   3.548   1.762   7.004
 9389SOL    HW229067   3.437   1.878   6.976
 9390SOL     OW29068   3.039   5.612   1.451
 9390SOL    HW129069   3.063   5.701   1.491
 9390SOL    HW229070   2.957   5.622   1.394
 9391SOL     OW29071   6.698   1.263   5.264
 9391SOL    HW129072   6.632   1.189   5.275
 9391SOL    HW229073   6.757   1.244   5.186
 9392SOL     OW29074   1.280   6.825   4.247
 9392SOL    HW129075   1.380   6.829   4.248
 9392SOL    HW229076   1.244   6.839   4.339
 9393SOL     OW29077   3.819   1.924   5.338
 9393SOL    HW129078   3.759   2.002   5.354
 9393SOL    HW229079   3.784   1.844   5.388
 9394SOL     OW29080   5.752   2.350   1.559
 9394SOL    HW129081   5.794   2.437   1.585
 9394SOL    HW229082   5.672   2.334   1.616
 9395SOL     OW29083   1.975   2.761   6.311
 9395SOL    HW129084   1.885   2.759   6.354
 9395SOL    HW229085   1.972   2.708   6.226
 9396SOL     OW29086   6.664   0.900   6.527
 9396SOL    HW129087   6.683   0.948   6.441
 9396SOL    HW229088   6.662   0.966   6.602
 9397SOL     OW29089   2.752   1.925   1.252
 9397SOL    HW129090   2.668   1.971   1.221
 9397SOL    HW229091   2.788   1.972   1.332
 9398SOL     OW29092   2.489   1.516   1.047
 9398SOL    HW129093   2.394   1.540   1.066
 9398SOL    HW229094   2.493   1.464   0.961
 9399SOL     OW29095   6.525   0.363   5.555
 9399SOL    HW129096   6.589   0.440   5.556
 9399SOL    HW229097   6.544   0.302   5.632
 9400SOL     OW29098   4.096   1.758   3.537
 9400SOL    HW129099   4.042   1.797   3.462
 9400SOL    HW229100   4.068   1.664   3.552
 9401SOL     OW29101   4.546   6.763   3.522
 9401SOL    HW129102   4.523   6.843   3.466
 9401SOL    HW229103   4.462   6.725   3.561
 9402SOL     OW29104   2.192   5.092   0.326
 9402SOL    HW129105   2.278   5.062   0.368
 9402SOL    HW229106   2.208   5.177   0.276
 9403SOL     OW29107   5.689   0.689   5.048
 9403SOL    HW129108   5.673   0.664   5.144
 9403SOL    HW229109   5.614   0.654   4.991
 9404SOL     OW29110   1.489   3.986   5.586
 9404SOL    HW129111   1.445   4.039   5.658
 9404SOL    HW229112   1.420   3.944   5.528
 9405SOL     OW29113   6.990   6.967   0.996
 9405SOL    HW129114   6.992   6.906   0.917
 9405SOL    HW229115   0.023   0.036   0.973
 9406SOL     OW29116   6.639   0.949   5.451
 9406SOL    HW129117   6.624   0.907   5.541
 9406SOL    HW229118   6.737   0.953   5.432
 9407SOL     OW29119   3.964   5.986   3.310
 9407SOL    HW129120   3.871   6.022   3.299
 9407SOL    HW229121   3.987   5.929   3.231
 9408SOL     OW29122   4.288   1.824   0.296
 9408SOL    HW129123   4.282   1.793   0.201
 9408SOL    HW229124   4.276   1.746   0.358
 9409SOL     OW29125   5.881   3.496   3.713
 9409SOL    HW129126   5.796   3.541   3.740
 9409SOL    HW229127   5.885   3.404   3.751
 9410SOL     OW29128   4.432   6.615   2.013
 9410SOL    HW129129   4.454   6.659   2.100
 9410SOL    HW229130   4.486   6.531   2.003
 9411SOL     OW29131   4.678   5.684   1.565
 9411SOL    HW129132   4.698   5.610   1.502
 9411SOL    HW229133   4.753   5.749   1.566
 9412SOL     OW29134   5.905   3.085   2.488
 9412SOL    HW129135   5.950   3.093   2.577
 9412SOL    HW229136   5.853   3.000   2.484
 9413SOL     OW29137   3.642   4.931   4.079
 9413SOL    HW129138   3.726   4.984   4.086
 9413SOL    HW229139   3.592   4.957   3.996
 9414SOL     OW29140   2.073   1.213   2.409
 9414SOL    HW129141   2.065   1.312   2.403
 9414SOL    HW229142   2.104   1.177   2.321
 9415SOL     OW29143   2.295   1.208   2.086
 9415SOL    HW129144   2.361   1.162   2.145
 9415SOL    HW229145   2.220   1.146   2.064
 9416SOL     OW29146   1.751   2.058   1.098
 9416SOL    HW129147   1.782   1.967   1.072
 9416SOL    HW229148   1.765   2.072   1.196
 9417SOL     OW29149   1.786   0.272   4.627
 9417SOL    HW129150   1.773   0.229   4.716
 9417SOL    HW229151   1.882   0.297   4.615
 9418SOL     OW29152   4.324   4.294   1.349
 9418SOL    HW129153   4.286   4.265   1.261
 9418SOL    HW229154   4.293   4.387   1.370
 9419SOL     OW29155   3.484   5.444   4.518
 9419SOL    HW129156   3.437   5.357   4.533
 9419SOL    HW229157   3.538   5.467   4.600
 9420SOL     OW29158   1.270   1.446   4.615
 9420SOL    HW129159   1.322   1.517   4.663
 9420SOL    HW229160   1.290   1.450   4.518
 9421SOL     OW29161   1.849   5.477   4.223
 9421SOL    HW129162   1.919   5.424   4.176
 9421SOL    HW229163   1.805   5.540   4.158
 9422SOL     OW29164   4.512   1.150   2.641
 9422SOL    HW129165   4.601   1.157   2.598
 9422SOL    HW229166   4.523   1.116   2.735
 9423SOL     OW29167   4.846   6.836   4.546
 9423SOL    HW129168   4.843   6.898   4.468
 9423SOL    HW229169   4.856   6.889   4.630
 9424SOL     OW29170   3.023   6.265   4.441
 9424SOL    HW129171   3.109   6.282   4.489
 9424SOL    HW229172   3.009   6.166   4.431
 9425SOL     OW29173   1.008   5.201   3.226
 9425SOL    HW129174   1.011   5.230   3.130
 9425SOL    HW229175   1.096   5.221   3.269
 9426SOL     OW29176   3.175   5.700   0.909
 9426SOL    HW129177   3.193   5.786   0.956
 9426SOL    HW229178   3.115   5.717   0.830
 9427SOL     OW29179   3.022   4.875   4.523
 9427SOL    HW129180   2.993   4.959   4.568
 9427SOL    HW229181   2.953   4.804   4.539
 9428SOL     OW29182   5.197   6.056   2.195
 9428SOL    HW129183   5.102   6.072   2.223
 9428SOL    HW229184   5.218   5.959   2.202
 9429SOL     OW29185   0.040   3.297   2.642
 9429SOL    HW129186   0.041   3.286   2.742
 9429SOL    HW229187   0.025   3.208   2.599
 9430SOL     OW29188   5.638   7.001   2.408
 9430SOL    HW129189   5.541   0.003   2.427
 9430SOL    HW229190   5.646   6.926   2.343
 9431SOL     OW29191   6.390   3.705   0.987
 9431SOL    HW129192   6.365   3.771   1.059
 9431SOL    HW229193   6.431   3.624   1.029
 9432SOL     OW29194   6.661   6.450   4.547
 9432SOL    HW129195   6.697   6.542   4.531
 9432SOL    HW229196   6.685   6.420   4.639
 9433SOL     OW29197   3.308   4.876   4.984
 9433SOL    HW129198   3.279   4.848   5.075
 9433SOL    HW229199   3.386   4.821   4.954
 9434SOL     OW29200   5.659   4.691   3.104
 9434SOL    HW129201   5.602   4.610   3.120
 9434SOL    HW229202   5.753   4.662   3.085
 9435SOL     OW29203   1.882   2.077   4.801
 9435SOL    HW129204   1.977   2.052   4.785
 9435SOL    HW229205   1.874   2.176   4.807
 9436SOL     OW29206   2.330   2.117   5.993
 9436SOL    HW129207   2.409   2.056   5.987
 9436SOL    HW229208   2.343   2.196   5.933
 9437SOL     OW29209   0.960   5.204   3.936
 9437SOL    HW129210   0.909   5.280   3.976
 9437SOL    HW229211   0.967   5.218   3.837
 9438SOL     OW29212   0.640   6.951   2.193
 9438SOL    HW129213   0.637   6.870   2.133
 9438SOL    HW229214   0.608   0.015   2.142
 9439SOL     OW29215   1.685   2.840   1.573
 9439SOL    HW129216   1.729   2.752   1.590
 9439SOL    HW229217   1.600   2.846   1.626
 9440SOL     OW29218   4.262   5.754   4.796
 9440SOL    HW129219   4.299   5.826   4.855
 9440SOL    HW229220   4.214   5.795   4.718
 9441SOL     OW29221   1.514   5.911   5.169
 9441SOL    HW129222   1.543   5.855   5.246
 9441SOL    HW229223   1.458   5.856   5.107
 9442SOL     OW29224   0.513   3.601   1.425
 9442SOL    HW129225   0.600   3.614   1.471
 9442SOL    HW229226   0.471   3.515   1.455
 9443SOL     OW29227   1.902   2.950   1.442
 9443SOL    HW129228   1.919   3.047   1.426
 9443SOL    HW229229   1.810   2.939   1.480
 9444SOL     OW29230   1.313   4.071   5.791
 9444SOL    HW129231   1.224   4.042   5.755
 9444SOL    HW229232   1.324   4.037   5.885
 9445SOL     OW29233   6.256   3.335   1.812
 9445SOL    HW129234   6.336   3.287   1.776
 9445SOL    HW229235   6.286   3.420   1.855
 9446SOL     OW29236   5.905   4.426   0.597
 9446SOL    HW129237   5.929   4.329   0.600
 9446SOL    HW229238   5.889   4.459   0.690
 9447SOL     OW29239   5.981   2.016   1.525
 9447SOL    HW129240   5.944   2.052   1.439
 9447SOL    HW229241   6.003   2.092   1.586
 9448SOL     OW29242   6.224   6.231   0.566
 9448SOL    HW129243   6.186   6.274   0.484
 9448SOL    HW229244   6.295   6.289   0.605
 9449SOL     OW29245   6.703   5.000   5.262
 9449SOL    HW129246   6.634   4.941   5.303
 9449SOL    HW229247   6.770   5.027   5.331
 9450SOL     OW29248   2.738   5.973   4.271
 9450SOL    HW129249   2.664   5.908   4.281
 9450SOL    HW229250   2.814   5.948   4.331
 9451SOL     OW29251   4.353   4.136   5.774
 9451SOL    HW129252   4.281   4.085   5.726
 9451SOL    HW229253   4.313   4.219   5.814
 9452SOL     OW29254   3.415   4.752   1.118
 9452SOL    HW129255   3.483   4.815   1.081
 9452SOL    HW229256   3.455   4.700   1.194
 9453SOL     OW29257   2.745   5.406   1.389
 9453SOL    HW129258   2.751   5.504   1.368
 9453SOL    HW229259   2.710   5.357   1.309
 9454SOL     OW29260   2.049   1.772   5.570
 9454SOL    HW129261   1.988   1.823   5.630
 9454SOL    HW229262   2.009   1.766   5.478
 9455SOL     OW29263   2.424   2.217   2.515
 9455SOL    HW129264   2.436   2.312   2.489
 9455SOL    HW229265   2.498   2.190   2.578
 9456SOL     OW29266   1.090   3.556   0.648
 9456SOL    HW129267   1.139   3.544   0.734
 9456SOL    HW229268   0.991   3.551   0.666
 9457SOL     OW29269   6.853   3.441   0.429
 9457SOL    HW129270   6.755   3.430   0.443
 9457SOL    HW229271   6.901   3.365   0.474
 9458SOL     OW29272   0.907   5.686   4.299
 9458SOL    HW129273   0.902   5.734   4.387
 9458SOL    HW229274   0.899   5.588   4.314
 9459SOL     OW29275   4.384   6.430   1.557
 9459SOL    HW129276   4.328   6.512   1.568
 9459SOL    HW229277   4.454   6.447   1.487
 9460SOL     OW29278   0.945   2.358   5.749
 9460SOL    HW129279   0.924   2.268   5.789
 9460SOL    HW229280   0.913   2.430   5.811
 9461SOL     OW29281   1.785   0.669   2.410
 9461SOL    HW129282   1.699   0.641   2.369
 9461SOL    HW229283   1.859   0.610   2.377
 9462SOL     OW29284   0.050   2.785   3.162
 9462SOL    HW129285   0.107   2.722   3.215
 9462SOL    HW229286   0.108   2.857   3.123
 9463SOL     OW29287   5.275   1.839   6.507
 9463SOL    HW129288   5.193   1.816   6.454
 9463SOL    HW229289   5.356   1.813   6.455
 9464SOL     OW29290   4.387   0.009   6.108
 9464SOL    HW129291   4.361   6.941   6.156
 9464SOL    HW229292   4.484   0.006   6.084
 9465SOL     OW29293   5.493   0.007   4.403
 9465SOL    HW129294   5.431   0.074   4.443
 9465SOL    HW229295   5.572   0.054   4.364
 9466SOL     OW29296   2.270   1.792   6.905
 9466SOL    HW129297   2.230   1.818   6.817
 9466SOL    HW229298   2.370   1.795   6.899
 9467SOL     OW29299   1.993   3.344   2.029
 9467SOL    HW129300   2.062   3.402   1.985
 9467SOL    HW229301   2.034   3.297   2.107
 9468SOL     OW29302   0.451   2.508   6.527
 9468SOL    HW129303   0.487   2.450   6.600
 9468SOL    HW229304   0.512   2.505   6.448
 9469SOL     OW29305   6.681   4.097   2.737
 9469SOL    HW129306   6.700   4.004   2.706
 9469SOL    HW229307   6.582   4.110   2.746
 9470SOL     OW29308   6.199   3.520   1.566
 9470SOL    HW129309   6.101   3.519   1.543
 9470SOL    HW229310   6.217   3.451   1.635
 9471SOL     OW29311   0.382   2.776   6.227
 9471SOL    HW129312   0.328   2.849   6.186
 9471SOL    HW229313   0.338   2.688   6.211
 9472SOL     OW29314   6.778   2.359   4.488
 9472SOL    HW129315   6.702   2.366   4.552
 9472SOL    HW229316   6.745   2.328   4.399
 9473SOL     OW29317   3.651   5.595   4.688
 9473SOL    HW129318   3.692   5.610   4.778
 9473SOL    HW229319   3.705   5.643   4.618
 9474SOL     OW29320   3.620   5.354   3.946
 9474SOL    HW129321   3.718   5.364   3.960
 9474SOL    HW229322   3.570   5.396   4.021
 9475SOL     OW29323   1.910   3.206   1.378
 9475SOL    HW129324   1.893   3.302   1.401
 9475SOL    HW229325   1.899   3.194   1.279
 9476SOL     OW29326   3.552   3.341   5.592
 9476SOL    HW129327   3.585   3.372   5.502
 9476SOL    HW229328   3.455   3.317   5.584
 9477SOL     OW29329   0.367   1.888   1.013
 9477SOL    HW129330   0.379   1.973   0.963
 9477SOL    HW229331   0.299   1.831   0.965
 9478SOL     OW29332   5.213   3.693   5.488
 9478SOL    HW129333   5.301   3.703   5.535
 9478SOL    HW229334   5.224   3.633   5.409
 9479SOL     OW29335   6.320   5.617   4.914
 9479SOL    HW129336   6.384   5.675   4.965
 9479SOL    HW229337   6.368   5.535   4.881
 9480SOL     OW29338   5.572   3.935   6.326
 9480SOL    HW129339   5.547   3.903   6.235
 9480SOL    HW229340   5.593   3.857   6.385
 9481SOL     OW29341   6.670   3.841   2.497
 9481SOL    HW129342   6.758   3.793   2.498
 9481SOL    HW229343   6.660   3.891   2.411
 9482SOL     OW29344   4.735   0.062   3.070
 9482SOL    HW129345   4.704   0.064   2.975
 9482SOL    HW229346   4.657   0.046   3.131
 9483SOL     OW29347   1.969   1.963   0.422
 9483SOL    HW129348   2.006   2.055   0.409
 9483SOL    HW229349   2.043   1.900   0.446
 9484SOL     OW29350   5.991   1.175   2.719
 9484SOL    HW129351   5.915   1.119   2.752
 9484SOL    HW229352   6.039   1.128   2.645
 9485SOL     OW29353   1.129   0.221   2.569
 9485SOL    HW129354   1.170   0.138   2.531
 9485SOL    HW229355   1.159   0.232   2.664
 9486SOL     OW29356   2.702   5.910   2.331
 9486SOL    HW129357   2.799   5.889   2.342
 9486SOL    HW229358   2.651   5.876   2.410
 9487SOL     OW29359   3.020   3.187   3.270
 9487SOL    HW129360   3.022   3.145   3.361
 9487SOL    HW229361   2.986   3.281   3.278
 9488SOL     OW29362   1.381   1.498   1.477
 9488SOL    HW129363   1.450   1.514   1.407
 9488SOL    HW229364   1.421   1.509   1.567
 9489SOL     OW29365   3.199   4.256   0.743
 9489SOL    HW129366   3.236   4.165   0.727
 9489SOL    HW229367   3.176   4.299   0.656
 9490SOL     OW29368   5.487   1.631   0.041
 9490SOL    HW129369   5.438   1.714   0.014
 9490SOL    HW229370   5.521   1.641   0.134
 9491SOL     OW29371   0.286   5.048   5.186
 9491SOL    HW129372   0.241   5.019   5.271
 9491SOL    HW229373   0.385   5.049   5.199
 9492SOL     OW29374   2.866   4.236   1.466
 9492SOL    HW129375   2.934   4.268   1.400
 9492SOL    HW229376   2.887   4.274   1.556
 9493SOL     OW29377   5.559   6.409   2.253
 9493SOL    HW129378   5.506   6.463   2.187
 9493SOL    HW229379   5.653   6.443   2.255
 9494SOL     OW29380   3.289   3.161   6.152
 9494SOL    HW129381   3.256   3.227   6.219
 9494SOL    HW229382   3.288   3.203   6.061
 9495SOL     OW29383   5.764   1.895   4.754
 9495SOL    HW129384   5.759   1.980   4.701
 9495SOL    HW229385   5.673   1.869   4.784
 9496SOL     OW29386   5.617   3.801   0.146
 9496SOL    HW129387   5.682   3.793   0.223
 9496SOL    HW229388   5.664   3.840   0.067
 9497SOL     OW29389   0.548   6.679   6.083
 9497SOL    HW129390   0.561   6.708   6.178
 9497SOL    HW229391   0.462   6.629   6.075
 9498SOL     OW29392   4.107   0.471   6.282
 9498SOL    HW129393   4.176   0.495   6.214
 9498SOL    HW229394   4.034   0.538   6.281
 9499SOL     OW29395   4.522   4.629   6.327
 9499SOL    HW129396   4.603   4.576   6.300
 9499SOL    HW229397   4.472   4.579   6.398
 9500SOL     OW29398   5.345   5.604   1.847
 9500SOL    HW129399   5.427   5.580   1.898
 9500SOL    HW229400   5.308   5.690   1.883
 9501SOL     OW29401   3.292   1.903   4.821
 9501SOL    HW129402   3.346   1.918   4.903
 9501SOL    HW229403   3.237   1.820   4.831
 9502SOL     OW29404   4.581   3.376   5.853
 9502SOL    HW129405   4.519   3.425   5.914
 9502SOL    HW229406   4.537   3.293   5.820
 9503SOL     OW29407   1.429   0.004   0.959
 9503SOL    HW129408   1.403   0.027   1.052
 9503SOL    HW229409   1.451   0.087   0.908
 9504SOL     OW29410   1.091   3.190   6.900
 9504SOL    HW129411   1.009   3.189   6.842
 9504SOL    HW229412   1.150   3.113   6.877
 9505SOL     OW29413   4.848   3.740   3.055
 9505SOL    HW129414   4.847   3.763   3.153
 9505SOL    HW229415   4.772   3.679   3.035
 9506SOL     OW29416   6.896   2.547   0.957
 9506SOL    HW129417   6.941   2.628   0.994
 9506SOL    HW229418   6.812   2.528   1.009
 9507SOL     OW29419   1.247   1.886   4.320
 9507SOL    HW129420   1.190   1.909   4.399
 9507SOL    HW229421   1.306   1.964   4.298
 9508SOL     OW29422   4.841   1.839   6.196
 9508SOL    HW129423   4.780   1.776   6.148
 9508SOL    HW229424   4.834   1.930   6.155
 9509SOL     OW29425   2.930   6.562   5.502
 9509SOL    HW129426   2.978   6.544   5.588
 9509SOL    HW229427   2.995   6.559   5.426
 9510SOL     OW29428   6.525   4.196   3.187
 9510SOL    HW129429   6.601   4.131   3.192
 9510SOL    HW229430   6.449   4.154   3.137
 9511SOL     OW29431   2.023   1.415   1.217
 9511SOL    HW129432   2.035   1.500   1.165
 9511SOL    HW229433   2.049   1.337   1.161
 9512SOL     OW29434   1.381   2.921   4.673
 9512SOL    HW129435   1.353   2.948   4.581
 9512SOL    HW229436   1.470   2.875   4.669
 9513SOL     OW29437   2.308   4.392   4.010
 9513SOL    HW129438   2.213   4.384   4.040
 9513SOL    HW229439   2.367   4.410   4.089
 9514SOL     OW29440   2.673   2.696   6.075
 9514SOL    HW129441   2.635   2.677   6.166
 9514SOL    HW229442   2.630   2.779   6.038
 9515SOL     OW29443   2.437   5.085   5.752
 9515SOL    HW129444   2.470   5.018   5.686
 9515SOL    HW229445   2.342   5.066   5.775
 9516SOL     OW29446   5.421   4.013   5.402
 9516SOL    HW129447   5.405   3.956   5.321
 9516SOL    HW229448   5.349   4.082   5.408
 9517SOL     OW29449   1.025   5.857   1.758
 9517SOL    HW129450   1.068   5.876   1.670
 9517SOL    HW229451   0.927   5.875   1.752
 9518SOL     OW29452   0.693   2.916   5.145
 9518SOL    HW129453   0.655   3.002   5.109
 9518SOL    HW229454   0.736   2.934   5.234
 9519SOL     OW29455   3.730   2.919   3.566
 9519SOL    HW129456   3.661   2.917   3.493
 9519SOL    HW229457   3.690   2.960   3.648
 9520SOL     OW29458   4.886   6.827   6.138
 9520SOL    HW129459   4.897   6.844   6.237
 9520SOL    HW229460   4.977   6.823   6.096
 9521SOL     OW29461   3.489   1.389   1.280
 9521SOL    HW129462   3.430   1.319   1.241
 9521SOL    HW229463   3.478   1.390   1.380
 9522SOL     OW29464   3.412   6.022   1.983
 9522SOL    HW129465   3.458   5.968   1.913
 9522SOL    HW229466   3.337   5.969   2.023
 9523SOL     OW29467   2.616   4.676   4.209
 9523SOL    HW129468   2.701   4.710   4.169
 9523SOL    HW229469   2.558   4.753   4.234
 9524SOL     OW29470   2.087   3.759   0.892
 9524SOL    HW129471   2.046   3.768   0.801
 9524SOL    HW229472   2.023   3.794   0.961
 9525SOL     OW29473   2.452   3.195   5.433
 9525SOL    HW129474   2.472   3.161   5.341
 9525SOL    HW229475   2.476   3.292   5.439
 9526SOL     OW29476   5.354   5.547   0.118
 9526SOL    HW129477   5.303   5.632   0.137
 9526SOL    HW229478   5.450   5.560   0.144
 9527SOL     OW29479   4.139   6.742   4.442
 9527SOL    HW129480   4.047   6.723   4.477
 9527SOL    HW229481   4.205   6.684   4.489
 9528SOL     OW29482   5.545   2.049   0.748
 9528SOL    HW129483   5.483   2.008   0.681
 9528SOL    HW229484   5.527   2.147   0.754
 9529SOL     OW29485   5.622   1.005   1.939
 9529SOL    HW129486   5.527   1.015   1.910
 9529SOL    HW229487   5.677   0.972   1.862
 9530SOL     OW29488   1.475   5.747   3.565
 9530SOL    HW129489   1.556   5.709   3.611
 9530SOL    HW229490   1.402   5.759   3.632
 9531SOL     OW29491   3.455   5.543   2.626
 9531SOL    HW129492   3.523   5.597   2.676
 9531SOL    HW229493   3.368   5.547   2.674
 9532SOL     OW29494   6.553   5.039   3.802
 9532SOL    HW129495   6.606   5.124   3.800
 9532SOL    HW229496   6.456   5.061   3.799
 9533SOL     OW29497   1.745   3.991   3.426
 9533SOL    HW129498   1.649   4.015   3.421
 9533SOL    HW229499   1.789   4.045   3.498
 9534SOL     OW29500   5.472   4.999   4.687
 9534SOL    HW129501   5.408   5.032   4.757
 9534SOL    HW229502   5.523   4.921   4.723
 9535SOL     OW29503   0.020   1.712   4.672
 9535SOL    HW129504   6.975   1.782   4.635
 9535SOL    HW229505   0.075   1.673   4.597
 9536SOL     OW29506   3.489   3.898   4.790
 9536SOL    HW129507   3.441   3.903   4.702
 9536SOL    HW229508   3.587   3.904   4.775
 9537SOL     OW29509   6.778   1.354   4.427
 9537SOL    HW129510   6.699   1.359   4.488
 9537SOL    HW229511   6.812   1.446   4.408
 9538SOL     OW29512   5.206   6.870   4.814
 9538SOL    HW129513   5.226   6.881   4.717
 9538SOL    HW229514   5.209   6.959   4.859
 9539SOL     OW29515   3.084   3.792   2.453
 9539SOL    HW129516   3.141   3.712   2.470
 9539SOL    HW229517   3.009   3.767   2.391
 9540SOL     OW29518   4.577   4.978   3.225
 9540SOL    HW129519   4.662   5.028   3.210
 9540SOL    HW229520   4.597   4.880   3.233
 9541SOL     OW29521   2.343   5.209   5.380
 9541SOL    HW129522   2.430   5.168   5.356
 9541SOL    HW229523   2.294   5.150   5.445
 9542SOL     OW29524   6.245   4.435   3.990
 9542SOL    HW129525   6.289   4.460   3.903
 9542SOL    HW229526   6.148   4.420   3.974
 9543SOL     OW29527   2.525   0.180   5.936
 9543SOL    HW129528   2.609   0.133   5.909
 9543SOL    HW229529   2.476   0.209   5.853
 9544SOL     OW29530   5.813   3.079   4.468
 9544SOL    HW129531   5.789   3.017   4.542
 9544SOL    HW229532   5.859   3.159   4.505
 9545SOL     OW29533   6.751   4.433   1.746
 9545SOL    HW129534   6.654   4.423   1.721
 9545SOL    HW229535   6.770   4.529   1.767
 9546SOL     OW29536   2.975   2.782   1.055
 9546SOL    HW129537   2.927   2.806   0.971
 9546SOL    HW229538   3.073   2.792   1.042
 9547SOL     OW29539   4.493   0.229   3.484
 9547SOL    HW129540   4.446   0.143   3.502
 9547SOL    HW229541   4.429   0.295   3.445
 9548SOL     OW29542   1.257   5.122   6.255
 9548SOL    HW129543   1.161   5.118   6.228
 9548SOL    HW229544   1.311   5.163   6.181
 9549SOL     OW29545   4.863   1.705   1.047
 9549SOL    HW129546   4.907   1.628   1.002
 9549SOL    HW229547   4.796   1.671   1.114
 9550SOL     OW29548   6.035   3.198   1.898
 9550SOL    HW129549   6.120   3.225   1.852
 9550SOL    HW229550   6.012   3.105   1.872
 9551SOL     OW29551   5.953   3.412   6.483
 9551SOL    HW129552   5.949   3.469   6.565
 9551SOL    HW229553   6.046   3.377   6.471
 9552SOL     OW29554   3.130   1.504   0.167
 9552SOL    HW129555   3.083   1.578   0.119
 9552SOL    HW229556   3.208   1.542   0.218
 9553SOL     OW29557   5.438   1.336   6.580
 9553SOL    HW129558   5.528   1.315   6.540
 9553SOL    HW229559   5.377   1.258   6.566
 9554SOL     OW29560   3.054   0.980   3.834
 9554SOL    HW129561   3.069   1.069   3.792
 9554SOL    HW229562   2.969   0.941   3.800
 9555SOL     OW29563   6.614   6.980   3.848
 9555SOL    HW129564   6.692   6.919   3.835
 9555SOL    HW229565   6.529   6.929   3.832
 9556SOL     OW29566   2.209   4.984   6.631
 9556SOL    HW129567   2.190   5.060   6.692
 9556SOL    HW229568   2.165   4.901   6.666
 9557SOL     OW29569   5.631   0.621   1.561
 9557SOL    HW129570   5.714   0.576   1.596
 9557SOL    HW229571   5.607   0.697   1.622
 9558SOL     OW29572   5.105   6.672   6.364
 9558SOL    HW129573   5.142   6.732   6.293
 9558SOL    HW229574   5.032   6.616   6.326
 9559SOL     OW29575   1.807   4.679   0.058
 9559SOL    HW129576   1.765   4.656   0.146
 9559SOL    HW229577   1.869   4.605   0.030
 9560SOL     OW29578   3.263   0.252   2.685
 9560SOL    HW129579   3.216   0.235   2.598
 9560SOL    HW229580   3.223   0.331   2.730
 9561SOL     OW29581   0.267   0.999   0.281
 9561SOL    HW129582   0.359   0.965   0.298
 9561SOL    HW229583   0.210   0.981   0.361
 9562SOL     OW29584   2.203   6.512   2.672
 9562SOL    HW129585   2.104   6.522   2.680
 9562SOL    HW229586   2.227   6.414   2.672
 9563SOL     OW29587   0.686   5.840   6.407
 9563SOL    HW129588   0.619   5.780   6.363
 9563SOL    HW229589   0.777   5.821   6.369
 9564SOL     OW29590   1.917   0.563   0.171
 9564SOL    HW129591   1.847   0.571   0.243
 9564SOL    HW229592   1.962   0.474   0.179
 9565SOL     OW29593   3.133   1.747   4.391
 9565SOL    HW129594   3.084   1.817   4.339
 9565SOL    HW229595   3.068   1.682   4.430
 9566SOL     OW29596   3.471   0.764   0.049
 9566SOL    HW129597   3.390   0.739   7.011
 9566SOL    HW229598   3.501   0.684   0.101
 9567SOL     OW29599   0.264   3.868   1.227
 9567SOL    HW129600   0.284   3.962   1.199
 9567SOL    HW229601   0.338   3.808   1.198
 9568SOL     OW29602   4.739   1.271   6.823
 9568SOL    HW129603   4.833   1.292   6.797
 9568SOL    HW229604   4.679   1.284   6.744
 9569SOL     OW29605   5.818   0.380   2.189
 9569SOL    HW129606   5.813   0.469   2.234
 9569SOL    HW229607   5.727   0.338   2.188
 9570SOL     OW29608   0.553   3.072   1.579
 9570SOL    HW129609   0.641   3.112   1.600
 9570SOL    HW229610   0.566   2.984   1.533
 9571SOL     OW29611   1.596   2.062   6.698
 9571SOL    HW129612   1.677   2.095   6.747
 9571SOL    HW229613   1.556   1.986   6.748
 9572SOL     OW29614   2.105   4.135   3.923
 9572SOL    HW129615   2.074   4.214   3.976
 9572SOL    HW229616   2.158   4.166   3.844
 9573SOL     OW29617   6.445   0.431   4.503
 9573SOL    HW129618   6.531   0.387   4.479
 9573SOL    HW229619   6.387   0.366   4.551
 9574SOL     OW29620   3.695   3.299   1.004
 9574SOL    HW129621   3.704   3.216   0.949
 9574SOL    HW229622   3.772   3.360   0.984
 9575SOL     OW29623   5.560   6.099   1.277
 9575SOL    HW129624   5.588   6.004   1.288
 9575SOL    HW229625   5.592   6.133   1.189
 9576SOL     OW29626   1.331   0.592   6.517
 9576SOL    HW129627   1.291   0.679   6.493
 9576SOL    HW229628   1.259   0.525   6.535
 9577SOL     OW29629   6.412   5.199   2.672
 9577SOL    HW129630   6.388   5.118   2.724
 9577SOL    HW229631   6.448   5.172   2.583
 9578SOL     OW29632   2.149   3.512   2.637
 9578SOL    HW129633   2.242   3.494   2.669
 9578SOL    HW229634   2.144   3.604   2.598
 9579SOL     OW29635   6.251   5.874   2.262
 9579SOL    HW129636   6.249   5.827   2.350
 9579SOL    HW229637   6.242   5.806   2.188
 9580SOL     OW29638   5.294   3.910   3.497
 9580SOL    HW129639   5.360   3.958   3.439
 9580SOL    HW229640   5.253   3.976   3.561
 9581SOL     OW29641   6.083   0.909   6.980
 9581SOL    HW129642   6.075   0.969   6.900
 9581SOL    HW229643   6.163   0.937   0.019
 9582SOL     OW29644   5.596   6.320   4.635
 9582SOL    HW129645   5.521   6.294   4.696
 9582SOL    HW229646   5.603   6.420   4.631
 9583SOL     OW29647   3.495   4.921   1.728
 9583SOL    HW129648   3.511   4.894   1.633
 9583SOL    HW229649   3.542   4.857   1.789
 9584SOL     OW29650   2.347   5.549   3.912
 9584SOL    HW129651   2.280   5.611   3.871
 9584SOL    HW229652   2.400   5.599   3.981
 9585SOL     OW29653   4.329   5.878   1.099
 9585SOL    HW129654   4.348   5.970   1.134
 9585SOL    HW229655   4.406   5.818   1.122
 9586SOL     OW29656   4.207   5.020   2.974
 9586SOL    HW129657   4.260   4.964   3.038
 9586SOL    HW229658   4.253   5.108   2.962
 9587SOL     OW29659   2.956   5.896   1.263
 9587SOL    HW129660   2.998   5.971   1.212
 9587SOL    HW229661   2.991   5.897   1.357
 9588SOL     OW29662   6.647   5.835   0.235
 9588SOL    HW129663   6.724   5.780   0.202
 9588SOL    HW229664   6.630   5.910   0.171
 9589SOL     OW29665   1.722   3.321   6.699
 9589SOL    HW129666   1.728   3.303   6.798
 9589SOL    HW229667   1.775   3.402   6.677
 9590SOL     OW29668   6.266   0.749   1.195
 9590SOL    HW129669   6.311   0.749   1.284
 9590SOL    HW229670   6.191   0.816   1.196
 9591SOL     OW29671   3.778   0.759   0.159
 9591SOL    HW129672   3.717   0.684   0.134
 9591SOL    HW229673   3.862   0.754   0.104
 9592SOL     OW29674   2.483   6.441   5.824
 9592SOL    HW129675   2.530   6.529   5.830
 9592SOL    HW229676   2.549   6.367   5.836
 9593SOL     OW29677   2.038   2.212   3.819
 9593SOL    HW129678   2.098   2.275   3.869
 9593SOL    HW229679   1.949   2.255   3.804
 9594SOL     OW29680   0.168   6.415   4.198
 9594SOL    HW129681   0.143   6.371   4.112
 9594SOL    HW229682   0.264   6.442   4.195
 9595SOL     OW29683   0.370   3.217   3.381
 9595SOL    HW129684   0.380   3.126   3.422
 9595SOL    HW229685   0.430   3.225   3.302
 9596SOL     OW29686   0.595   6.455   0.722
 9596SOL    HW129687   0.522   6.402   0.677
 9596SOL    HW229688   0.635   6.518   0.656
 9597SOL     OW29689   1.368   3.330   2.434
 9597SOL    HW129690   1.355   3.239   2.394
 9597SOL    HW229691   1.279   3.372   2.450
 9598SOL     OW29692   1.851   4.434   3.640
 9598SOL    HW129693   1.914   4.473   3.707
 9598SOL    HW229694   1.757   4.442   3.673
 9599SOL     OW29695   4.554   6.209   4.125
 9599SOL    HW129696   4.472   6.214   4.068
 9599SOL    HW229697   4.575   6.301   4.159
 9600SOL     OW29698   3.514   1.135   1.616
 9600SOL    HW129699   3.464   1.069   1.560
 9600SOL    HW229700   3.564   1.086   1.688
 9601SOL     OW29701   1.163   3.601   0.908
 9601SOL    HW129702   1.086   3.663   0.924
 9601SOL    HW229703   1.217   3.592   0.991
 9602SOL     OW29704   4.599   5.167   5.302
 9602SOL    HW129705   4.500   5.160   5.292
 9602SOL    HW229706   4.644   5.100   5.243
 9603SOL     OW29707   4.942   6.100   5.242
 9603SOL    HW129708   4.932   6.065   5.335
 9603SOL    HW229709   4.943   6.200   5.245
 9604SOL     OW29710   5.111   6.694   0.328
 9604SOL    HW129711   5.031   6.659   0.377
 9604SOL    HW229712   5.115   6.794   0.337
 9605SOL     OW29713   6.029   5.557   2.359
 9605SOL    HW129714   6.125   5.555   2.386
 9605SOL    HW229715   5.983   5.475   2.393
 9606SOL     OW29716   1.755   1.251   0.200
 9606SOL    HW129717   1.777   1.274   0.105
 9606SOL    HW229718   1.664   1.287   0.223
 9607SOL     OW29719   2.548   2.346   6.106
 9607SOL    HW129720   2.598   2.413   6.051
 9607SOL    HW229721   2.466   2.389   6.144
 9608SOL     OW29722   6.628   3.029   4.449
 9608SOL    HW129723   6.586   3.102   4.397
 9608SOL    HW229724   6.713   3.001   4.405
 9609SOL     OW29725   4.368   3.299   6.727
 9609SOL    HW129726   4.442   3.328   6.787
 9609SOL    HW229727   4.311   3.231   6.774
 9610SOL     OW29728   0.853   5.001   3.044
 9610SOL    HW129729   0.802   5.086   3.055
 9610SOL    HW229730   0.855   4.952   3.131
 9611SOL     OW29731   2.006   0.341   0.547
 9611SOL    HW129732   2.091   0.381   0.581
 9611SOL    HW229733   1.930   0.372   0.604
 9612SOL     OW29734   6.378   3.036   4.098
 9612SOL    HW129735   6.358   3.070   4.189
 9612SOL    HW229736   6.468   2.993   4.097
 9613SOL     OW29737   6.012   5.524   2.972
 9613SOL    HW129738   5.936   5.470   2.936
 9613SOL    HW229739   5.977   5.599   3.028
 9614SOL     OW29740   4.577   2.571   3.757
 9614SOL    HW129741   4.555   2.654   3.706
 9614SOL    HW229742   4.676   2.559   3.759
 9615SOL     OW29743   2.945   3.941   1.422
 9615SOL    HW129744   2.891   4.018   1.455
 9615SOL    HW229745   2.923   3.924   1.325
 9616SOL     OW29746   3.983   3.689   7.010
 9616SOL    HW129747   4.069   3.653   0.032
 9616SOL    HW229748   4.003   3.738   6.924
 9617SOL     OW29749   1.717   2.430   3.276
 9617SOL    HW129750   1.694   2.525   3.255
 9617SOL    HW229751   1.746   2.383   3.193
 9618SOL     OW29752   2.212   1.521   0.951
 9618SOL    HW129753   2.223   1.529   0.852
 9618SOL    HW229754   2.158   1.598   0.985
 9619SOL     OW29755   3.113   1.111   5.457
 9619SOL    HW129756   3.212   1.123   5.465
 9619SOL    HW229757   3.086   1.113   5.361
 9620SOL     OW29758   5.925   0.814   5.591
 9620SOL    HW129759   5.914   0.806   5.492
 9620SOL    HW229760   5.940   0.724   5.631
 9621SOL     OW29761   1.797   2.842   3.726
 9621SOL    HW129762   1.880   2.830   3.780
 9621SOL    HW229763   1.767   2.753   3.690
 9622SOL     OW29764   5.388   6.997   1.248
 9622SOL    HW129765   5.362   6.967   1.157
 9622SOL    HW229766   5.306   0.005   1.301
 9623SOL     OW29767   2.375   3.525   6.587
 9623SOL    HW129768   2.349   3.523   6.684
 9623SOL    HW229769   2.437   3.449   6.567
 9624SOL     OW29770   6.446   3.181   3.865
 9624SOL    HW129771   6.407   3.145   3.950
 9624SOL    HW229772   6.530   3.132   3.842
 9625SOL     OW29773   5.595   5.765   0.813
 9625SOL    HW129774   5.519   5.799   0.870
 9625SOL    HW229775   5.606   5.667   0.827
 9626SOL     OW29776   3.009   6.331   0.004
 9626SOL    HW129777   2.954   6.343   0.086
 9626SOL    HW229778   3.072   6.255   0.017
 9627SOL     OW29779   1.145   6.638   6.471
 9627SOL    HW129780   1.116   6.568   6.537
 9627SOL    HW229781   1.179   6.594   6.388
 9628SOL     OW29782   3.808   6.510   2.240
 9628SOL    HW129783   3.837   6.448   2.312
 9628SOL    HW229784   3.841   6.476   2.152
 9629SOL     OW29785   2.157   6.730   0.984
 9629SOL    HW129786   2.111   6.719   1.072
 9629SOL    HW229787   2.218   6.652   0.968
 9630SOL     OW29788   6.916   0.879   6.167
 9630SOL    HW129789   6.831   0.910   6.210
 9630SOL    HW229790   6.981   0.851   6.238
 9631SOL     OW29791   6.095   6.372   0.360
 9631SOL    HW129792   6.074   6.469   0.373
 9631SOL    HW229793   6.056   6.340   0.274
 9632SOL     OW29794   1.523   6.073   1.710
 9632SOL    HW129795   1.474   6.157   1.732
 9632SOL    HW229796   1.533   6.018   1.793
 9633SOL     OW29797   6.917   4.905   6.030
 9633SOL    HW129798   6.876   4.825   6.073
 9633SOL    HW229799   6.846   4.972   6.008
 9634SOL     OW29800   1.441   6.094   4.972
 9634SOL    HW129801   1.502   6.035   5.024
 9634SOL    HW229802   1.346   6.072   4.995
 9635SOL     OW29803   1.086   5.968   5.343
 9635SOL    HW129804   1.173   6.007   5.372
 9635SOL    HW229805   1.097   5.870   5.326
 9636SOL     OW29806   4.016   1.769   6.904
 9636SOL    HW129807   4.049   1.810   6.819
 9636SOL    HW229808   4.017   1.669   6.895
 9637SOL     OW29809   2.246   1.293   0.045
 9637SOL    HW129810   2.227   1.353   0.123
 9637SOL    HW229811   2.257   1.348   6.978
 9638SOL     OW29812   6.468   2.117   6.155
 9638SOL    HW129813   6.474   2.021   6.128
 9638SOL    HW229814   6.512   2.175   6.085
 9639SOL     OW29815   4.017   1.077   2.615
 9639SOL    HW129816   3.958   1.103   2.691
 9639SOL    HW229817   3.966   1.079   2.529
 9640SOL     OW29818   1.968   2.480   2.327
 9640SOL    HW129819   2.009   2.535   2.255
 9640SOL    HW229820   2.023   2.398   2.343
 9641SOL     OW29821   5.846   5.588   6.999
 9641SOL    HW129822   5.924   5.536   0.019
 9641SOL    HW229823   5.877   5.678   6.969
 9642SOL     OW29824   3.519   0.184   3.761
 9642SOL    HW129825   3.422   0.206   3.768
 9642SOL    HW229826   3.546   0.128   3.840
 9643SOL     OW29827   3.832   4.877   3.270
 9643SOL    HW129828   3.890   4.855   3.191
 9643SOL    HW229829   3.881   4.855   3.354
 9644SOL     OW29830   2.750   2.063   6.822
 9644SOL    HW129831   2.814   2.120   6.771
 9644SOL    HW229832   2.658   2.099   6.813
 9645SOL     OW29833   3.281   5.158   5.254
 9645SOL    HW129834   3.259   5.253   5.278
 9645SOL    HW229835   3.364   5.130   5.300
 9646SOL     OW29836   4.182   5.372   3.652
 9646SOL    HW129837   4.189   5.447   3.719
 9646SOL    HW229838   4.231   5.292   3.687
 9647SOL     OW29839   6.575   3.118   0.091
 9647SOL    HW129840   6.496   3.174   0.068
 9647SOL    HW229841   6.658   3.174   0.090
 9648SOL     OW29842   4.095   3.735   1.154
 9648SOL    HW129843   4.027   3.671   1.116
 9648SOL    HW229844   4.097   3.726   1.253
 9649SOL     OW29845   1.879   6.136   0.961
 9649SOL    HW129846   1.799   6.167   0.911
 9649SOL    HW229847   1.945   6.097   0.896
 9650SOL     OW29848   0.148   6.869   1.735
 9650SOL    HW129849   0.202   6.946   1.700
 9650SOL    HW229850   0.188   6.838   1.822
 9651SOL     OW29851   0.717   1.691   5.887
 9651SOL    HW129852   0.811   1.677   5.854
 9651SOL    HW229853   0.673   1.762   5.833
 9652SOL     OW29854   0.340   5.415   2.744
 9652SOL    HW129855   0.325   5.378   2.836
 9652SOL    HW229856   0.252   5.444   2.706
 9653SOL     OW29857   6.542   6.051   4.331
 9653SOL    HW129858   6.504   6.053   4.238
 9653SOL    HW229859   6.494   6.117   4.388
 9654SOL     OW29860   2.079   3.103   2.476
 9654SOL    HW129861   2.128   3.023   2.510
 9654SOL    HW229862   2.069   3.169   2.551
 9655SOL     OW29863   5.739   1.809   6.745
 9655SOL    HW129864   5.679   1.729   6.754
 9655SOL    HW229865   5.683   1.891   6.737
 9656SOL     OW29866   3.413   1.160   2.971
 9656SOL    HW129867   3.442   1.251   2.940
 9656SOL    HW229868   3.492   1.109   3.005
 9657SOL     OW29869   0.718   6.940   5.239
 9657SOL    HW129870   0.639   7.001   5.240
 9657SOL    HW229871   0.687   6.846   5.227
 9658SOL     OW29872   5.509   2.024   3.199
 9658SOL    HW129873   5.520   1.974   3.113
 9658SOL    HW229874   5.571   2.103   3.200
 9659SOL     OW29875   0.961   4.894   6.988
 9659SOL    HW129876   1.027   4.886   6.913
 9659SOL    HW229877   0.936   4.803   0.005
 9660SOL     OW29878   0.332   5.197   0.436
 9660SOL    HW129879   0.274   5.234   0.509
 9660SOL    HW229880   0.292   5.219   0.348
 9661SOL     OW29881   4.636   6.564   0.873
 9661SOL    HW129882   4.629   6.492   0.805
 9661SOL    HW229883   4.551   6.617   0.875
 9662SOL     OW29884   4.850   1.047   4.720
 9662SOL    HW129885   4.895   1.021   4.634
 9662SOL    HW229886   4.760   1.085   4.701
 9663SOL     OW29887   2.359   6.534   3.196
 9663SOL    HW129888   2.273   6.563   3.239
 9663SOL    HW229889   2.436   6.562   3.253
 9664SOL     OW29890   2.142   5.748   1.538
 9664SOL    HW129891   2.106   5.658   1.561
 9664SOL    HW229892   2.156   5.801   1.621
 9665SOL     OW29893   5.339   4.081   3.938
 9665SOL    HW129894   5.333   4.175   3.973
 9665SOL    HW229895   5.320   4.080   3.840
 9666SOL     OW29896   5.408   4.571   4.648
 9666SOL    HW129897   5.420   4.543   4.553
 9666SOL    HW229898   5.311   4.569   4.672
 9667SOL     OW29899   3.452   3.250   3.243
 9667SOL    HW129900   3.407   3.166   3.273
 9667SOL    HW229901   3.410   3.283   3.159
 9668SOL     OW29902   0.605   1.288   4.903
 9668SOL    HW129903   0.659   1.254   4.826
 9668SOL    HW229904   0.643   1.374   4.935
 9669SOL     OW29905   1.642   6.318   0.419
 9669SOL    HW129906   1.647   6.249   0.347
 9669SOL    HW229907   1.551   6.316   0.461
 9670SOL     OW29908   6.112   4.565   6.730
 9670SOL    HW129909   6.194   4.617   6.752
 9670SOL    HW229910   6.042   4.627   6.696
 9671SOL     OW29911   0.290   0.297   6.944
 9671SOL    HW129912   0.333   0.348   6.870
 9671SOL    HW229913   0.323   0.332   0.016
 9672SOL     OW29914   1.314   6.508   4.656
 9672SOL    HW129915   1.293   6.420   4.613
 9672SOL    HW229916   1.348   6.493   4.749
 9673SOL     OW29917   2.656   2.509   5.907
 9673SOL    HW129918   2.585   2.528   5.839
 9673SOL    HW229919   2.664   2.587   5.969
 9674SOL     OW29920   2.581   6.985   2.496
 9674SOL    HW129921   2.590   6.984   2.396
 9674SOL    HW229922   2.506   6.925   2.524
 9675SOL     OW29923   0.161   2.434   2.123
 9675SOL    HW129924   0.224   2.376   2.071
 9675SOL    HW229925   0.067   2.406   2.105
 9676SOL     OW29926   0.162   3.365   5.021
 9676SOL    HW129927   0.228   3.438   5.006
 9676SOL    HW229928   0.077   3.404   5.056
 9677SOL     OW29929   1.634   3.455   5.135
 9677SOL    HW129930   1.726   3.465   5.173
 9677SOL    HW229931   1.633   3.485   5.040
 9678SOL     OW29932   3.727   3.336   2.916
 9678SOL    HW129933   3.776   3.285   2.845
 9678SOL    HW229934   3.736   3.287   3.003
 9679SOL     OW29935   0.511   3.712   0.857
 9679SOL    HW129936   0.412   3.726   0.854
 9679SOL    HW229937   0.555   3.795   0.893
 9680SOL     OW29938   5.064   4.784   3.561
 9680SOL    HW129939   5.127   4.828   3.625
 9680SOL    HW229940   4.998   4.729   3.611
 9681SOL     OW29941   0.842   1.046   4.207
 9681SOL    HW129942   0.892   1.066   4.123
 9681SOL    HW229943   0.759   0.995   4.185
 9682SOL     OW29944   6.853   5.246   2.823
 9682SOL    HW129945   6.919   5.254   2.898
 9682SOL    HW229946   6.844   5.150   2.797
 9683SOL     OW29947   4.683   6.503   6.477
 9683SOL    HW129948   4.673   6.423   6.536
 9683SOL    HW229949   4.592   6.538   6.453
 9684SOL     OW29950   0.800   4.292   3.512
 9684SOL    HW129951   0.784   4.201   3.475
 9684SOL    HW229952   0.815   4.286   3.611
 9685SOL     OW29953   1.743   2.459   0.057
 9685SOL    HW129954   1.744   2.416   6.982
 9685SOL    HW229955   1.649   2.458   0.093
 9686SOL     OW29956   5.605   0.958   1.297
 9686SOL    HW129957   5.525   0.957   1.357
 9686SOL    HW229958   5.679   1.010   1.340
 9687SOL     OW29959   3.804   1.441   3.996
 9687SOL    HW129960   3.768   1.381   4.067
 9687SOL    HW229961   3.880   1.495   4.033
 9688SOL     OW29962   6.282   2.070   3.791
 9688SOL    HW129963   6.374   2.105   3.774
 9688SOL    HW229964   6.220   2.103   3.719
 9689SOL     OW29965   1.467   5.869   5.806
 9689SOL    HW129966   1.377   5.883   5.846
 9689SOL    HW229967   1.516   5.956   5.801
 9690SOL     OW29968   5.959   4.208   0.769
 9690SOL    HW129969   5.975   4.297   0.812
 9690SOL    HW229970   5.860   4.193   0.759
 9691SOL     OW29971   1.447   4.232   1.157
 9691SOL    HW129972   1.453   4.325   1.192
 9691SOL    HW229973   1.382   4.179   1.211
 9692SOL     OW29974   2.115   5.588   0.780
 9692SOL    HW129975   2.043   5.626   0.721
 9692SOL    HW229976   2.201   5.584   0.729
 9693SOL     OW29977   6.405   5.406   1.715
 9693SOL    HW129978   6.344   5.484   1.703
 9693SOL    HW229979   6.479   5.431   1.777
 9694SOL     OW29980   1.496   1.777   0.395
 9694SOL    HW129981   1.524   1.787   0.491
 9694SOL    HW229982   1.564   1.723   0.346
 9695SOL     OW29983   6.413   3.914   0.735
 9695SOL    HW129984   6.331   3.915   0.791
 9695SOL    HW229985   6.489   3.874   0.787
 9696SOL     OW29986   3.604   4.319   0.841
 9696SOL    HW129987   3.541   4.392   0.867
 9696SOL    HW229988   3.621   4.261   0.921
 9697SOL     OW29989   0.535   6.027   6.549
 9697SOL    HW129990   0.595   5.958   6.510
 9697SOL    HW229991   0.588   6.087   6.609
 9698SOL     OW29992   5.037   1.314   5.629
 9698SOL    HW129993   4.991   1.256   5.696
 9698SOL    HW229994   4.980   1.394   5.609
 9699SOL     OW29995   2.047   2.934   0.269
 9699SOL    HW129996   2.120   2.944   0.336
 9699SOL    HW229997   1.959   2.927   0.316
 9700SOL     OW29998   3.213   4.102   3.802
 9700SOL    HW129999   3.235   4.133   3.894
 9700SOL    HW230000   3.173   4.010   3.807
 9701SOL     OW30001   4.660   4.206   5.122
 9701SOL    HW130002   4.694   4.208   5.028
 9701SOL    HW230003   4.697   4.126   5.169
 9702SOL     OW30004   4.577   0.108   0.730
 9702SOL    HW130005   4.535   0.105   0.639
 9702SOL    HW230006   4.669   0.146   0.722
 9703SOL     OW30007   3.321   6.351   4.238
 9703SOL    HW130008   3.372   6.353   4.151
 9703SOL    HW230009   3.348   6.429   4.294
 9704SOL     OW30010   2.566   0.826   3.661
 9704SOL    HW130011   2.538   0.816   3.566
 9704SOL    HW230012   2.496   0.876   3.712
 9705SOL     OW30013   4.018   4.046   0.891
 9705SOL    HW130014   4.025   4.146   0.889
 9705SOL    HW230015   3.927   4.020   0.921
 9706SOL     OW30016   6.252   2.551   2.803
 9706SOL    HW130017   6.313   2.627   2.823
 9706SOL    HW230018   6.216   2.560   2.710
 9707SOL     OW30019   2.602   5.511   2.876
 9707SOL    HW130020   2.568   5.459   2.798
 9707SOL    HW230021   2.586   5.609   2.861
 9708SOL     OW30022   2.227   2.064   2.682
 9708SOL    HW130023   2.284   2.122   2.624
 9708SOL    HW230024   2.252   1.969   2.669
 9709SOL     OW30025   2.273   4.933   2.732
 9709SOL    HW130026   2.331   4.912   2.653
 9709SOL    HW230027   2.193   4.985   2.702
 9710SOL     OW30028   0.550   0.648   3.917
 9710SOL    HW130029   0.490   0.664   3.995
 9710SOL    HW230030   0.644   0.637   3.949
 9711SOL     OW30031   1.764   3.144   6.202
 9711SOL    HW130032   1.790   3.207   6.129
 9711SOL    HW230033   1.702   3.191   6.266
 9712SOL     OW30034   4.993   2.914   4.538
 9712SOL    HW130035   5.071   2.874   4.586
 9712SOL    HW230036   4.930   2.954   4.604
 9713SOL     OW30037   6.536   5.176   2.428
 9713SOL    HW130038   6.543   5.077   2.436
 9713SOL    HW230039   6.506   5.200   2.335
 9714SOL     OW30040   1.442   2.477   2.178
 9714SOL    HW130041   1.433   2.398   2.117
 9714SOL    HW230042   1.418   2.451   2.271
 9715SOL     OW30043   5.632   5.651   5.500
 9715SOL    HW130044   5.620   5.750   5.506
 9715SOL    HW230045   5.594   5.618   5.413
 9716SOL     OW30046   3.835   2.397   5.869
 9716SOL    HW130047   3.893   2.317   5.878
 9716SOL    HW230048   3.889   2.480   5.886
 9717SOL     OW30049   6.040   4.870   3.203
 9717SOL    HW130050   6.128   4.822   3.211
 9717SOL    HW230051   6.033   4.938   3.276
 9718SOL     OW30052   4.550   3.514   1.663
 9718SOL    HW130053   4.552   3.612   1.683
 9718SOL    HW230054   4.456   3.481   1.672
 9719SOL     OW30055   0.392   1.594   0.535
 9719SOL    HW130056   0.334   1.652   0.590
 9719SOL    HW230057   0.458   1.547   0.594
 9720SOL     OW30058   0.974   0.481   0.721
 9720SOL    HW130059   0.875   0.473   0.720
 9720SOL    HW230060   1.009   0.457   0.811
 9721SOL     OW30061   6.599   2.824   3.226
 9721SOL    HW130062   6.515   2.787   3.186
 9721SOL    HW230063   6.679   2.778   3.187
 9722SOL     OW30064   6.596   0.228   4.752
 9722SOL    HW130065   6.503   0.263   4.767
 9722SOL    HW230066   6.655   0.257   4.828
 9723SOL     OW30067   6.454   1.169   3.876
 9723SOL    HW130068   6.432   1.205   3.785
 9723SOL    HW230069   6.532   1.107   3.870
 9724SOL     OW30070   3.775   3.037   0.899
 9724SOL    HW130071   3.793   3.040   0.801
 9724SOL    HW230072   3.721   2.955   0.920
 9725SOL     OW30073   4.455   3.700   5.636
 9725SOL    HW130074   4.548   3.663   5.640
 9725SOL    HW230075   4.416   3.683   5.546
 9726SOL     OW30076   5.992   5.597   4.844
 9726SOL    HW130077   6.030   5.505   4.857
 9726SOL    HW230078   6.058   5.654   4.795
 9727SOL     OW30079   1.285   1.325   6.590
 9727SOL    HW130080   1.352   1.395   6.566
 9727SOL    HW230081   1.217   1.317   6.517
 9728SOL     OW30082   2.932   5.764   7.012
 9728SOL    HW130083   3.031   5.752   0.004
 9728SOL    HW230084   2.894   5.780   0.087
 9729SOL     OW30085   2.990   5.112   2.294
 9729SOL    HW130086   2.928   5.037   2.270
 9729SOL    HW230087   3.059   5.078   2.358
 9730SOL     OW30088   5.748   3.623   3.233
 9730SOL    HW130089   5.823   3.650   3.173
 9730SOL    HW230090   5.727   3.526   3.218
 9731SOL     OW30091   5.061   5.604   1.166
 9731SOL    HW130092   5.050   5.697   1.131
 9731SOL    HW230093   5.058   5.605   1.266
 9732SOL     OW30094   6.317   5.362   4.013
 9732SOL    HW130095   6.359   5.368   4.104
 9732SOL    HW230096   6.372   5.413   3.947
 9733SOL     OW30097   6.121   4.704   6.118
 9733SOL    HW130098   6.081   4.615   6.098
 9733SOL    HW230099   6.191   4.726   6.050
 9734SOL     OW30100   5.582   2.299   4.837
 9734SOL    HW130101   5.633   2.285   4.752
 9734SOL    HW230102   5.566   2.210   4.880
 9735SOL     OW30103   2.679   4.372   0.163
 9735SOL    HW130104   2.669   4.304   0.090
 9735SOL    HW230105   2.743   4.337   0.232
 9736SOL     OW30106   3.311   1.787   1.543
 9736SOL    HW130107   3.338   1.738   1.460
 9736SOL    HW230108   3.343   1.737   1.624
 9737SOL     OW30109   4.282   2.339   4.850
 9737SOL    HW130110   4.234   2.371   4.932
 9737SOL    HW230111   4.244   2.250   4.823
 9738SOL     OW30112   2.037   0.912   2.209
 9738SOL    HW130113   2.119   0.890   2.157
 9738SOL    HW230114   1.956   0.881   2.159
 9739SOL     OW30115   5.438   4.819   1.626
 9739SOL    HW130116   5.417   4.746   1.561
 9739SOL    HW230117   5.528   4.858   1.604
 9740SOL     OW30118   6.330   3.904   3.241
 9740SOL    HW130119   6.340   3.922   3.143
 9740SOL    HW230120   6.420   3.895   3.282
 9741SOL     OW30121   3.960   1.663   1.883
 9741SOL    HW130122   3.983   1.735   1.950
 9741SOL    HW230123   3.903   1.594   1.928
 9742SOL     OW30124   4.584   1.545   3.540
 9742SOL    HW130125   4.594   1.539   3.639
 9742SOL    HW230126   4.560   1.455   3.503
 9743SOL     OW30127   1.778   1.878   5.542
 9743SOL    HW130128   1.812   1.868   5.448
 9743SOL    HW230129   1.827   1.952   5.587
 9744SOL     OW30130   2.403   0.486   1.939
 9744SOL    HW130131   2.317   0.436   1.951
 9744SOL    HW230132   2.383   0.584   1.931
 9745SOL     OW30133   0.406   1.003   4.746
 9745SOL    HW130134   0.447   1.066   4.679
 9745SOL    HW230135   0.429   1.034   4.838
 9746SOL     OW30136   6.378   0.768   3.978
 9746SOL    HW130137   6.317   0.822   3.921
 9746SOL    HW230138   6.334   0.681   4.001
 9747SOL     OW30139   0.075   0.068   6.263
 9747SOL    HW130140   0.051   0.126   6.341
 9747SOL    HW230141   0.158   0.016   6.285
 9748SOL     OW30142   0.560   5.014   4.376
 9748SOL    HW130143   0.623   4.991   4.450
 9748SOL    HW230144   0.488   5.075   4.410
 9749SOL     OW30145   0.244   4.216   4.360
 9749SOL    HW130146   0.291   4.224   4.448
 9749SOL    HW230147   0.305   4.177   4.292
 9750SOL     OW30148   3.356   5.441   3.064
 9750SOL    HW130149   3.450   5.418   3.091
 9750SOL    HW230150   3.300   5.450   3.146
 9751SOL     OW30151   1.917   2.477   0.559
 9751SOL    HW130152   1.956   2.567   0.579
 9751SOL    HW230153   1.953   2.443   0.472
 9752SOL     OW30154   3.843   2.070   6.040
 9752SOL    HW130155   3.848   2.168   6.058
 9752SOL    HW230156   3.789   2.026   6.112
 9753SOL     OW30157   6.721   6.436   5.812
 9753SOL    HW130158   6.681   6.418   5.722
 9753SOL    HW230159   6.820   6.444   5.804
 9754SOL     OW30160   0.069   2.671   6.335
 9754SOL    HW130161   7.003   2.638   6.383
 9754SOL    HW230162   0.053   2.667   6.236
 9755SOL     OW30163   3.760   5.345   5.642
 9755SOL    HW130164   3.766   5.251   5.608
 9755SOL    HW230165   3.795   5.348   5.736
 9756SOL     OW30166   4.894   2.516   5.644
 9756SOL    HW130167   4.897   2.616   5.653
 9756SOL    HW230168   4.809   2.489   5.600
 9757SOL     OW30169   6.287   1.130   3.633
 9757SOL    HW130170   6.218   1.203   3.624
 9757SOL    HW230171   6.313   1.098   3.542
 9758SOL     OW30172   3.081   0.617   0.188
 9758SOL    HW130173   3.152   0.687   0.183
 9758SOL    HW230174   3.094   0.561   0.271
 9759SOL     OW30175   3.282   5.854   1.390
 9759SOL    HW130176   3.358   5.797   1.359
 9759SOL    HW230177   3.295   5.947   1.357
 9760SOL     OW30178   5.875   4.540   6.065
 9760SOL    HW130179   5.777   4.546   6.086
 9760SOL    HW230180   5.906   4.447   6.083
 9761SOL     OW30181   5.377   5.369   2.974
 9761SOL    HW130182   5.401   5.402   2.883
 9761SOL    HW230183   5.460   5.338   3.021
 9762SOL     OW30184   3.009   1.024   3.238
 9762SOL    HW130185   2.953   1.002   3.318
 9762SOL    HW230186   3.012   1.124   3.226
 9763SOL     OW30187   2.034   1.725   2.135
 9763SOL    HW130188   2.038   1.625   2.135
 9763SOL    HW230189   1.943   1.755   2.162
 9764SOL     OW30190   1.343   2.791   2.334
 9764SOL    HW130191   1.417   2.784   2.267
 9764SOL    HW230192   1.350   2.715   2.399
 9765SOL     OW30193   0.313   1.079   5.257
 9765SOL    HW130194   0.388   1.119   5.310
 9765SOL    HW230195   0.350   1.036   5.174
 9766SOL     OW30196   2.023   0.254   2.545
 9766SOL    HW130197   2.012   0.260   2.645
 9766SOL    HW230198   1.934   0.268   2.501
 9767SOL     OW30199   4.906   6.984   5.595
 9767SOL    HW130200   4.861   0.011   5.517
 9767SOL    HW230201   4.854   6.903   5.624
 9768SOL     OW30202   5.008   2.470   3.974
 9768SOL    HW130203   5.057   2.383   3.974
 9768SOL    HW230204   5.065   2.541   4.016
 9769SOL     OW30205   0.428   1.865   1.547
 9769SOL    HW130206   0.357   1.935   1.545
 9769SOL    HW230207   0.517   1.908   1.530
 9770SOL     OW30208   6.883   3.606   5.908
 9770SOL    HW130209   6.855   3.529   5.851
 9770SOL    HW230210   6.914   3.681   5.849
 9771SOL     OW30211   2.854   5.390   4.008
 9771SOL    HW130212   2.824   5.388   4.103
 9771SOL    HW230213   2.847   5.484   3.973
 9772SOL     OW30214   6.384   0.165   1.514
 9772SOL    HW130215   6.303   0.124   1.557
 9772SOL    HW230216   6.465   0.142   1.568
 9773SOL     OW30217   4.894   5.028   3.768
 9773SOL    HW130218   4.863   5.002   3.859
 9773SOL    HW230219   4.819   5.019   3.703
 9774SOL     OW30220   0.372   4.741   3.607
 9774SOL    HW130221   0.300   4.725   3.539
 9774SOL    HW230222   0.370   4.668   3.675
 9775SOL     OW30223   2.813   2.278   4.949
 9775SOL    HW130224   2.857   2.368   4.945
 9775SOL    HW230225   2.823   2.241   5.041
 9776SOL     OW30226   0.254   4.910   4.077
 9776SOL    HW130227   0.237   5.008   4.087
 9776SOL    HW230228   0.313   4.894   3.998
 9777SOL     OW30229   5.934   4.905   6.116
 9777SOL    HW130230   5.995   4.829   6.138
 9777SOL    HW230231   5.844   4.888   6.156
 9778SOL     OW30232   3.868   0.901   3.812
 9778SOL    HW130233   3.796   0.970   3.809
 9778SOL    HW230234   3.874   0.863   3.905
 9779SOL     OW30235   3.026   1.831   6.452
 9779SOL    HW130236   3.072   1.745   6.430
 9779SOL    HW230237   3.090   1.907   6.440
 9780SOL     OW30238   3.184   4.241   0.437
 9780SOL    HW130239   3.186   4.142   0.420
 9780SOL    HW230240   3.222   4.289   0.358
 9781SOL     OW30241   1.649   6.236   4.277
 9781SOL    HW130242   1.707   6.280   4.209
 9781SOL    HW230243   1.555   6.268   4.268
 9782SOL     OW30244   6.456   0.729   0.958
 9782SOL    HW130245   6.418   0.708   1.049
 9782SOL    HW230246   6.386   0.775   0.903
 9783SOL     OW30247   6.099   0.948   3.274
 9783SOL    HW130248   6.129   0.858   3.303
 9783SOL    HW230249   5.999   0.953   3.277
 9784SOL     OW30250   5.904   0.755   4.374
 9784SOL    HW130251   5.879   0.766   4.470
 9784SOL    HW230252   5.823   0.764   4.317
 9785SOL     OW30253   0.524   2.740   0.841
 9785SOL    HW130254   0.426   2.751   0.854
 9785SOL    HW230255   0.564   2.694   0.921
 9786SOL     OW30256   2.735   0.274   4.895
 9786SOL    HW130257   2.822   0.252   4.849
 9786SOL    HW230258   2.677   0.326   4.833
 9787SOL     OW30259   6.372   4.200   1.238
 9787SOL    HW130260   6.416   4.282   1.203
 9787SOL    HW230261   6.402   4.121   1.186
 9788SOL     OW30262   6.922   0.929   5.371
 9788SOL    HW130263   6.918   0.836   5.408
 9788SOL    HW230264   6.949   0.925   5.275
 9789SOL     OW30265   1.955   5.435   4.569
 9789SOL    HW130266   1.938   5.391   4.657
 9789SOL    HW230267   1.888   5.508   4.554
 9790SOL     OW30268   6.642   0.974   3.894
 9790SOL    HW130269   6.626   0.914   3.973
 9790SOL    HW230270   6.701   0.927   3.828
 9791SOL     OW30271   1.193   2.671   1.394
 9791SOL    HW130272   1.129   2.642   1.465
 9791SOL    HW230273   1.170   2.627   1.308
 9792SOL     OW30274   3.718   5.494   2.315
 9792SOL    HW130275   3.743   5.450   2.401
 9792SOL    HW230276   3.677   5.426   2.254
 9793SOL     OW30277   5.296   6.247   2.012
 9793SOL    HW130278   5.298   6.306   2.093
 9793SOL    HW230279   5.251   6.161   2.035
 9794SOL     OW30280   2.702   3.392   6.741
 9794SOL    HW130281   2.793   3.351   6.738
 9794SOL    HW230282   2.642   3.346   6.675
 9795SOL     OW30283   2.331   4.980   4.121
 9795SOL    HW130284   2.360   4.971   4.216
 9795SOL    HW230285   2.383   4.916   4.064
 9796SOL     OW30286   3.508   4.715   0.756
 9796SOL    HW130287   3.476   4.625   0.784
 9796SOL    HW230288   3.461   4.743   0.672
 9797SOL     OW30289   5.533   2.719   4.735
 9797SOL    HW130290   5.599   2.686   4.801
 9797SOL    HW230291   5.471   2.644   4.709
 9798SOL     OW30292   2.476   1.743   1.672
 9798SOL    HW130293   2.517   1.656   1.645
 9798SOL    HW230294   2.543   1.817   1.664
 9799SOL     OW30295   3.405   4.122   2.198
 9799SOL    HW130296   3.337   4.192   2.177
 9799SOL    HW230297   3.420   4.120   2.297
 9800SOL     OW30298   3.927   5.452   0.198
 9800SOL    HW130299   3.843   5.441   0.250
 9800SOL    HW230300   3.915   5.419   0.105
 9801SOL     OW30301   4.783   5.813   0.756
 9801SOL    HW130302   4.846   5.737   0.770
 9801SOL    HW230303   4.748   5.845   0.844
 9802SOL     OW30304   0.480   5.215   1.774
 9802SOL    HW130305   0.399   5.163   1.803
 9802SOL    HW230306   0.451   5.298   1.727
 9803SOL     OW30307   4.967   0.264   6.329
 9803SOL    HW130308   4.904   0.210   6.385
 9803SOL    HW230309   5.006   0.206   6.258
 9804SOL     OW30310   5.456   5.642   4.328
 9804SOL    HW130311   5.545   5.678   4.303
 9804SOL    HW230312   5.438   5.558   4.277
 9805SOL     OW30313   3.630   4.141   1.060
 9805SOL    HW130314   3.677   4.160   1.146
 9805SOL    HW230315   3.533   4.164   1.069
 9806SOL     OW30316   6.964   1.682   2.752
 9806SOL    HW130317   6.978   1.779   2.731
 9806SOL    HW230318   6.997   1.626   2.676
 9807SOL     OW30319   2.708   3.040   0.972
 9807SOL    HW130320   2.678   2.971   0.906
 9807SOL    HW230321   2.629   3.078   1.020
 9808SOL     OW30322   1.406   1.731   4.951
 9808SOL    HW130323   1.433   1.827   4.946
 9808SOL    HW230324   1.464   1.676   4.892
 9809SOL     OW30325   0.744   0.657   4.243
 9809SOL    HW130326   0.701   0.575   4.281
 9809SOL    HW230327   0.754   0.725   4.316
 9810SOL     OW30328   4.685   1.920   2.733
 9810SOL    HW130329   4.751   1.955   2.666
 9810SOL    HW230330   4.628   1.850   2.690
 9811SOL     OW30331   1.198   6.972   2.508
 9811SOL    HW130332   1.124   6.929   2.456
 9811SOL    HW230333   1.286   6.932   2.480
 9812SOL     OW30334   5.526   2.973   5.003
 9812SOL    HW130335   5.595   3.036   5.037
 9812SOL    HW230336   5.551   2.879   5.026
 9813SOL     OW30337   6.438   4.035   0.492
 9813SOL    HW130338   6.409   3.954   0.543
 9813SOL    HW230339   6.522   4.071   0.533
 9814SOL     OW30340   6.705   0.599   5.648
 9814SOL    HW130341   6.741   0.593   5.741
 9814SOL    HW230342   6.774   0.568   5.583
 9815SOL     OW30343   0.457   3.831   2.697
 9815SOL    HW130344   0.541   3.805   2.649
 9815SOL    HW230345   0.385   3.764   2.676
 9816SOL     OW30346   5.737   0.904   5.766
 9816SOL    HW130347   5.808   0.894   5.697
 9816SOL    HW230348   5.704   0.999   5.767
 9817SOL     OW30349   2.478   0.897   0.912
 9817SOL    HW130350   2.499   0.917   0.817
 9817SOL    HW230351   2.540   0.948   0.971
 9818SOL     OW30352   0.179   7.000   2.434
 9818SOL    HW130353   0.121   6.919   2.419
 9818SOL    HW230354   0.216   0.015   2.346
 9819SOL     OW30355   6.628   2.317   4.249
 9819SOL    HW130356   6.637   2.254   4.172
 9819SOL    HW230357   6.557   2.384   4.229
 9820SOL     OW30358   3.647   2.023   6.231
 9820SOL    HW130359   3.552   2.033   6.201
 9820SOL    HW230360   3.649   1.987   6.324
 9821SOL     OW30361   4.114   3.260   0.484
 9821SOL    HW130362   4.056   3.317   0.426
 9821SOL    HW230363   4.170   3.199   0.428
 9822SOL     OW30364   3.372   5.275   4.229
 9822SOL    HW130365   3.316   5.225   4.294
 9822SOL    HW230366   3.329   5.363   4.209
 9823SOL     OW30367   3.729   6.323   3.475
 9823SOL    HW130368   3.646   6.338   3.529
 9823SOL    HW230369   3.801   6.288   3.535
 9824SOL     OW30370   1.579   5.776   5.389
 9824SOL    HW130371   1.651   5.708   5.404
 9824SOL    HW230372   1.511   5.769   5.462
 9825SOL     OW30373   0.335   6.025   5.119
 9825SOL    HW130374   0.265   5.967   5.077
 9825SOL    HW230375   0.387   5.971   5.185
 9826SOL     OW30376   1.828   5.620   6.027
 9826SOL    HW130377   1.903   5.683   6.045
 9826SOL    HW230378   1.772   5.656   5.952
 9827SOL     OW30379   2.082   4.732   1.828
 9827SOL    HW130380   2.056   4.773   1.741
 9827SOL    HW230381   2.113   4.638   1.812
 9828SOL     OW30382   4.451   2.061   4.972
 9828SOL    HW130383   4.541   2.021   4.993
 9828SOL    HW230384   4.449   2.157   5.001
 9829SOL     OW30385   5.359   4.610   5.648
 9829SOL    HW130386   5.388   4.534   5.590
 9829SOL    HW230387   5.289   4.664   5.601
 9830SOL     OW30388   5.625   1.732   3.687
 9830SOL    HW130389   5.589   1.755   3.777
 9830SOL    HW230390   5.725   1.738   3.687
 9831SOL     OW30391   0.458   4.375   2.164
 9831SOL    HW130392   0.385   4.388   2.097
 9831SOL    HW230393   0.431   4.417   2.250
 9832SOL     OW30394   4.997   5.511   4.577
 9832SOL    HW130395   5.086   5.465   4.586
 9832SOL    HW230396   4.950   5.477   4.496
 9833SOL     OW30397   4.082   3.384   4.675
 9833SOL    HW130398   4.129   3.450   4.616
 9833SOL    HW230399   4.143   3.356   4.748
 9834SOL     OW30400   3.453   5.909   5.528
 9834SOL    HW130401   3.493   5.993   5.565
 9834SOL    HW230402   3.357   5.926   5.506
 9835SOL     OW30403   4.141   3.360   3.816
 9835SOL    HW130404   4.114   3.420   3.741
 9835SOL    HW230405   4.226   3.312   3.792
 9836SOL     OW30406   6.582   3.313   5.559
 9836SOL    HW130407   6.599   3.356   5.470
 9836SOL    HW230408   6.639   3.231   5.569
 9837SOL     OW30409   6.347   1.046   3.365
 9837SOL    HW130410   6.349   1.138   3.325
 9837SOL    HW230411   6.279   0.990   3.317
 9838SOL     OW30412   0.361   6.054   0.500
 9838SOL    HW130413   0.374   6.014   0.409
 9838SOL    HW230414   0.327   5.985   0.563
 9839SOL     OW30415   4.457   6.118   3.338
 9839SOL    HW130416   4.363   6.117   3.302
 9839SOL    HW230417   4.474   6.205   3.383
 9840SOL     OW30418   6.513   1.593   6.649
 9840SOL    HW130419   6.594   1.569   6.596
 9840SOL    HW230420   6.432   1.586   6.591
 9841SOL     OW30421   0.173   6.046   2.425
 9841SOL    HW130422   0.268   6.076   2.430
 9841SOL    HW230423   0.168   5.949   2.447
 9842SOL     OW30424   3.402   0.418   0.577
 9842SOL    HW130425   3.385   0.476   0.656
 9842SOL    HW230426   3.491   0.441   0.537
 9843SOL     OW30427   6.906   0.378   1.162
 9843SOL    HW130428   6.858   0.357   1.077
 9843SOL    HW230429   6.959   0.462   1.150
 9844SOL     OW30430   5.060   0.265   5.283
 9844SOL    HW130431   5.092   0.192   5.344
 9844SOL    HW230432   5.093   0.247   5.190
 9845SOL     OW30433   1.042   3.862   2.136
 9845SOL    HW130434   1.130   3.844   2.181
 9845SOL    HW230435   0.971   3.806   2.178
 9846SOL     OW30436   5.523   1.698   1.827
 9846SOL    HW130437   5.461   1.705   1.750
 9846SOL    HW230438   5.494   1.624   1.888
 9847SOL     OW30439   3.979   4.534   6.711
 9847SOL    HW130440   3.910   4.471   6.674
 9847SOL    HW230441   4.007   4.503   6.802
 9848SOL     OW30442   2.909   4.487   5.602
 9848SOL    HW130443   2.844   4.484   5.526
 9848SOL    HW230444   3.000   4.509   5.568
 9849SOL     OW30445   1.985   2.559   3.888
 9849SOL    HW130446   1.979   2.655   3.916
 9849SOL    HW230447   2.068   2.518   3.926
 9850SOL     OW30448   1.191   0.075   4.241
 9850SOL    HW130449   1.200   0.070   4.340
 9850SOL    HW230450   1.241   7.015   4.198
 9851SOL     OW30451   3.857   5.636   3.815
 9851SOL    HW130452   3.890   5.545   3.791
 9851SOL    HW230453   3.780   5.660   3.757
 9852SOL     OW30454   1.526   6.270   0.107
 9852SOL    HW130455   1.433   6.245   0.082
 9852SOL    HW230456   1.589   6.198   0.079
 9853SOL     OW30457   0.307   4.421   3.991
 9853SOL    HW130458   0.332   4.338   4.040
 9853SOL    HW230459   0.227   4.463   4.035
 9854SOL     OW30460   6.551   3.453   6.856
 9854SOL    HW130461   6.470   3.500   6.892
 9854SOL    HW230462   6.614   3.520   6.818
 9855SOL     OW30463   0.703   6.195   6.691
 9855SOL    HW130464   0.801   6.187   6.674
 9855SOL    HW230465   0.679   6.290   6.711
 9856SOL     OW30466   4.861   3.788   3.327
 9856SOL    HW130467   4.834   3.709   3.382
 9856SOL    HW230468   4.961   3.793   3.324
 9857SOL     OW30469   4.791   0.235   5.807
 9857SOL    HW130470   4.865   0.170   5.825
 9857SOL    HW230471   4.710   0.186   5.774
 9858SOL     OW30472   6.299   5.533   2.374
 9858SOL    HW130473   6.354   5.510   2.454
 9858SOL    HW230474   6.358   5.534   2.293
 9859SOL     OW30475   1.006   5.376   2.436
 9859SOL    HW130476   0.948   5.457   2.439
 9859SOL    HW230477   1.084   5.392   2.375
 9860SOL     OW30478   1.508   3.201   3.763
 9860SOL    HW130479   1.472   3.108   3.776
 9860SOL    HW230480   1.540   3.237   3.851
 9861SOL     OW30481   3.825   2.120   3.344
 9861SOL    HW130482   3.901   2.161   3.394
 9861SOL    HW230483   3.825   2.154   3.249
 9862SOL     OW30484   1.739   3.404   6.319
 9862SOL    HW130485   1.647   3.366   6.332
 9862SOL    HW230486   1.789   3.399   6.406
 9863SOL     OW30487   4.259   6.497   2.493
 9863SOL    HW130488   4.250   6.423   2.427
 9863SOL    HW230489   4.171   6.514   2.537
 9864SOL     OW30490   2.750   6.705   5.380
 9864SOL    HW130491   2.661   6.717   5.425
 9864SOL    HW230492   2.806   6.643   5.436
 9865SOL     OW30493   2.245   6.318   5.803
 9865SOL    HW130494   2.318   6.385   5.818
 9865SOL    HW230495   2.284   6.231   5.774
 9866SOL     OW30496   6.672   5.333   5.960
 9866SOL    HW130497   6.718   5.408   6.008
 9866SOL    HW230498   6.584   5.366   5.924
 9867SOL     OW30499   4.520   1.440   2.036
 9867SOL    HW130500   4.461   1.410   2.111
 9867SOL    HW230501   4.506   1.382   1.956
 9868SOL     OW30502   2.248   4.880   3.684
 9868SOL    HW130503   2.247   4.930   3.598
 9868SOL    HW230504   2.234   4.944   3.760
 9869SOL     OW30505   6.592   2.635   2.310
 9869SOL    HW130506   6.625   2.566   2.246
 9869SOL    HW230507   6.669   2.681   2.353
 9870SOL     OW30508   2.063   2.184   3.314
 9870SOL    HW130509   2.007   2.225   3.386
 9870SOL    HW230510   2.063   2.243   3.234
 9871SOL     OW30511   5.326   5.648   3.145
 9871SOL    HW130512   5.322   5.705   3.063
 9871SOL    HW230513   5.238   5.601   3.157
 9872SOL     OW30514   0.612   5.975   5.626
 9872SOL    HW130515   0.712   5.980   5.619
 9872SOL    HW230516   0.587   5.906   5.693
 9873SOL     OW30517   0.730   0.860   5.079
 9873SOL    HW130518   0.820   0.851   5.123
 9873SOL    HW230519   0.725   0.797   5.002
 9874SOL     OW30520   0.205   2.206   3.967
 9874SOL    HW130521   0.171   2.238   4.055
 9874SOL    HW230522   0.278   2.140   3.982
 9875SOL     OW30523   6.510   6.050   0.787
 9875SOL    HW130524   6.554   6.140   0.796
 9875SOL    HW230525   6.428   6.047   0.844
 9876SOL     OW30526   0.045   6.850   3.926
 9876SOL    HW130527   0.123   6.832   3.986
 9876SOL    HW230528   0.079   6.874   3.834
 9877SOL     OW30529   1.170   6.041   4.966
 9877SOL    HW130530   1.100   6.111   4.981
 9877SOL    HW230531   1.128   5.959   4.928
 9878SOL     OW30532   3.302   2.608   6.793
 9878SOL    HW130533   3.383   2.626   6.737
 9878SOL    HW230534   3.330   2.592   6.888
 9879SOL     OW30535   6.661   5.471   4.134
 9879SOL    HW130536   6.586   5.535   4.116
 9879SOL    HW230537   6.746   5.509   4.099
 9880SOL     OW30538   3.696   1.483   1.130
 9880SOL    HW130539   3.614   1.463   1.183
 9880SOL    HW230540   3.760   1.407   1.139
 9881SOL     OW30541   5.982   0.470   3.214
 9881SOL    HW130542   6.000   0.413   3.134
 9881SOL    HW230543   5.914   0.539   3.191
 9882SOL     OW30544   3.531   3.309   4.767
 9882SOL    HW130545   3.578   3.239   4.713
 9882SOL    HW230546   3.571   3.314   4.858
 9883SOL     OW30547   1.633   6.460   2.400
 9883SOL    HW130548   1.619   6.374   2.448
 9883SOL    HW230549   1.565   6.469   2.327
 9884SOL     OW30550   3.120   2.591   5.312
 9884SOL    HW130551   3.135   2.501   5.272
 9884SOL    HW230552   3.179   2.603   5.392
 9885SOL     OW30553   4.650   2.471   5.560
 9885SOL    HW130554   4.597   2.386   5.551
 9885SOL    HW230555   4.588   2.549   5.564
 9886SOL     OW30556   2.239   6.015   1.464
 9886SOL    HW130557   2.233   5.921   1.499
 9886SOL    HW230558   2.334   6.036   1.440
 9887SOL     OW30559   3.342   1.202   0.298
 9887SOL    HW130560   3.278   1.171   0.228
 9887SOL    HW230561   3.295   1.266   0.359
 9888SOL     OW30562   6.709   6.568   3.527
 9888SOL    HW130563   6.660   6.497   3.476
 9888SOL    HW230564   6.656   6.592   3.609
 9889SOL     OW30565   6.543   5.527   2.993
 9889SOL    HW130566   6.603   5.527   2.913
 9889SOL    HW230567   6.447   5.518   2.964
 9890SOL     OW30568   1.379   3.311   2.791
 9890SOL    HW130569   1.294   3.302   2.739
 9890SOL    HW230570   1.378   3.398   2.841
 9891SOL     OW30571   4.723   6.506   2.085
 9891SOL    HW130572   4.687   6.420   2.121
 9891SOL    HW230573   4.814   6.491   2.046
 9892SOL     OW30574   1.663   6.047   3.509
 9892SOL    HW130575   1.656   6.117   3.438
 9892SOL    HW230576   1.659   6.091   3.599
 9893SOL     OW30577   6.212   4.451   5.696
 9893SOL    HW130578   6.221   4.504   5.612
 9893SOL    HW230579   6.298   4.404   5.715
 9894SOL     OW30580   4.372   3.981   5.339
 9894SOL    HW130581   4.275   3.992   5.358
 9894SOL    HW230582   4.412   4.070   5.318
 9895SOL     OW30583   5.192   2.061   6.238
 9895SOL    HW130584   5.201   2.056   6.139
 9895SOL    HW230585   5.269   2.113   6.276
 9896SOL     OW30586   4.168   3.719   6.571
 9896SOL    HW130587   4.153   3.679   6.481
 9896SOL    HW230588   4.179   3.646   6.639
 9897SOL     OW30589   0.679   1.292   3.006
 9897SOL    HW130590   0.586   1.306   2.970
 9897SOL    HW230591   0.676   1.295   3.106
 9898SOL     OW30592   0.856   4.666   0.052
 9898SOL    HW130593   0.881   4.602   0.125
 9898SOL    HW230594   0.891   4.632   6.980
 9899SOL     OW30595   4.238   5.434   2.334
 9899SOL    HW130596   4.186   5.519   2.334
 9899SOL    HW230597   4.329   5.451   2.372
 9900SOL     OW30598   2.053   4.651   3.969
 9900SOL    HW130599   2.057   4.751   3.958
 9900SOL    HW230600   1.965   4.626   4.009
 9901SOL     OW30601   2.517   1.926   5.962
 9901SOL    HW130602   2.579   1.948   6.038
 9901SOL    HW230603   2.518   1.827   5.946
 9902SOL     OW30604   4.237   4.001   6.931
 9902SOL    HW130605   4.188   4.073   6.980
 9902SOL    HW230606   4.172   3.931   6.901
 9903SOL     OW30607   3.170   1.623   1.163
 9903SOL    HW130608   3.182   1.722   1.163
 9903SOL    HW230609   3.226   1.582   1.235
 9904SOL     OW30610   0.117   6.645   2.591
 9904SOL    HW130611   0.149   6.609   2.679
 9904SOL    HW230612   0.018   6.649   2.591
 9905SOL     OW30613   2.237   6.922   5.894
 9905SOL    HW130614   2.277   6.838   5.931
 9905SOL    HW230615   2.260   6.998   5.954
 9906SOL     OW30616   3.287   4.019   6.101
 9906SOL    HW130617   3.193   4.000   6.127
 9906SOL    HW230618   3.306   3.977   6.012
 9907SOL     OW30619   1.129   6.728   2.838
 9907SOL    HW130620   1.205   6.664   2.845
 9907SOL    HW230621   1.114   6.772   2.926
 9908SOL     OW30622   6.135   2.970   5.643
 9908SOL    HW130623   6.224   3.011   5.622
 9908SOL    HW230624   6.096   2.932   5.559
 9909SOL     OW30625   3.255   6.796   2.806
 9909SOL    HW130626   3.224   6.798   2.711
 9909SOL    HW230627   3.254   6.889   2.843
 9910SOL     OW30628   0.823   5.467   0.906
 9910SOL    HW130629   0.886   5.404   0.859
 9910SOL    HW230630   0.735   5.422   0.920
 9911SOL     OW30631   3.500   4.912   2.537
 9911SOL    HW130632   3.401   4.915   2.525
 9911SOL    HW230633   3.529   4.987   2.596
 9912SOL     OW30634   4.794   6.899   0.812
 9912SOL    HW130635   4.791   6.863   0.719
 9912SOL    HW230636   4.712   6.870   0.862
 9913SOL     OW30637   4.988   2.143   2.976
 9913SOL    HW130638   5.023   2.062   3.024
 9913SOL    HW230639   4.899   2.123   2.936
 9914SOL     OW30640   2.313   5.831   4.393
 9914SOL    HW130641   2.339   5.751   4.447
 9914SOL    HW230642   2.227   5.811   4.345
 9915SOL     OW30643   6.287   4.027   4.658
 9915SOL    HW130644   6.251   4.113   4.694
 9915SOL    HW230645   6.314   4.039   4.563
 9916SOL     OW30646   2.851   3.950   0.432
 9916SOL    HW130647   2.761   3.993   0.437
 9916SOL    HW230648   2.910   3.987   0.504
 9917SOL     OW30649   2.195   3.061   4.688
 9917SOL    HW130650   2.138   3.103   4.758
 9917SOL    HW230651   2.253   2.990   4.728
 9918SOL     OW30652   2.389   0.637   4.486
 9918SOL    HW130653   2.305   0.676   4.524
 9918SOL    HW230654   2.466   0.697   4.507
 9919SOL     OW30655   0.612   5.413   1.955
 9919SOL    HW130656   0.685   5.424   1.888
 9919SOL    HW230657   0.560   5.331   1.935
 9920SOL     OW30658   4.401   6.952   2.855
 9920SOL    HW130659   4.424   6.862   2.891
 9920SOL    HW230660   4.424   0.006   2.923
 9921SOL     OW30661   4.738   0.361   2.790
 9921SOL    HW130662   4.784   0.336   2.705
 9921SOL    HW230663   4.721   0.460   2.791
 9922SOL     OW30664   5.250   2.359   2.359
 9922SOL    HW130665   5.266   2.289   2.429
 9922SOL    HW230666   5.183   2.325   2.293
 9923SOL     OW30667   5.689   0.456   6.686
 9923SOL    HW130668   5.747   0.533   6.658
 9923SOL    HW230669   5.659   0.469   6.780
 9924SOL     OW30670   5.471   1.203   3.955
 9924SOL    HW130671   5.396   1.138   3.956
 9924SOL    HW230672   5.439   1.292   3.922
 9925SOL     OW30673   3.898   2.127   4.664
 9925SOL    HW130674   3.820   2.118   4.726
 9925SOL    HW230675   3.873   2.091   4.574
 9926SOL     OW30676   2.036   0.849   5.434
 9926SOL    HW130677   1.954   0.846   5.491
 9926SOL    HW230678   2.100   0.916   5.470
 9927SOL     OW30679   1.008   2.780   3.062
 9927SOL    HW130680   1.089   2.811   3.012
 9927SOL    HW230681   1.032   2.703   3.121
 9928SOL     OW30682   7.004   3.117   2.388
 9928SOL    HW130683   6.929   3.064   2.349
 9928SOL    HW230684   0.065   3.057   2.408
 9929SOL     OW30685   0.811   5.194   5.698
 9929SOL    HW130686   0.871   5.241   5.634
 9929SOL    HW230687   0.865   5.138   5.760
 9930SOL     OW30688   6.629   5.292   6.266
 9930SOL    HW130689   6.675   5.380   6.261
 9930SOL    HW230690   6.647   5.250   6.355
 9931SOL     OW30691   2.074   4.811   6.799
 9931SOL    HW130692   1.981   4.786   6.774
 9931SOL    HW230693   2.074   4.859   6.886
 9932SOL     OW30694   2.697   2.706   1.010
 9932SOL    HW130695   2.607   2.733   1.046
 9932SOL    HW230696   2.761   2.695   1.085
 9933SOL     OW30697   1.022   1.459   2.990
 9933SOL    HW130698   0.976   1.370   2.993
 9933SOL    HW230699   1.045   1.486   3.083
 9934SOL     OW30700   5.231   0.285   6.128
 9934SOL    HW130701   5.235   0.380   6.099
 9934SOL    HW230702   5.264   0.278   6.222
 9935SOL     OW30703   2.588   2.864   0.782
 9935SOL    HW130704   2.675   2.829   0.748
 9935SOL    HW230705   2.559   2.812   0.862
 9936SOL     OW30706   5.114   6.280   0.040
 9936SOL    HW130707   5.105   6.312   6.961
 9936SOL    HW230708   5.063   6.341   0.101
 9937SOL     OW30709   1.513   6.538   3.980
 9937SOL    HW130710   1.423   6.513   4.017
 9937SOL    HW230711   1.584   6.494   4.034
 9938SOL     OW30712   6.819   1.219   3.487
 9938SOL    HW130713   6.880   1.265   3.552
 9938SOL    HW230714   6.824   1.266   3.399
 9939SOL     OW30715   2.607   3.767   1.409
 9939SOL    HW130716   2.636   3.763   1.314
 9939SOL    HW230717   2.566   3.857   1.427
 9940SOL     OW30718   0.149   0.165   3.721
 9940SOL    HW130719   0.096   0.242   3.685
 9940SOL    HW230720   0.246   0.179   3.702
 9941SOL     OW30721   5.416   3.442   0.923
 9941SOL    HW130722   5.514   3.449   0.942
 9941SOL    HW230723   5.384   3.350   0.943
 9942SOL     OW30724   6.284   5.549   2.898
 9942SOL    HW130725   6.295   5.648   2.911
 9942SOL    HW230726   6.196   5.520   2.934
 9943SOL     OW30727   1.577   4.068   5.301
 9943SOL    HW130728   1.561   4.054   5.399
 9943SOL    HW230729   1.631   3.992   5.264
 9944SOL     OW30730   2.216   5.686   6.710
 9944SOL    HW130731   2.207   5.732   6.621
 9944SOL    HW230732   2.307   5.704   6.747
 9945SOL     OW30733   6.318   3.633   6.837
 9945SOL    HW130734   6.298   3.601   6.745
 9945SOL    HW230735   6.390   3.703   6.833
 9946SOL     OW30736   4.967   2.522   1.675
 9946SOL    HW130737   4.902   2.447   1.668
 9946SOL    HW230738   5.028   2.507   1.753
 9947SOL     OW30739   1.059   1.055   2.891
 9947SOL    HW130740   0.999   1.127   2.856
 9947SOL    HW230741   1.046   1.045   2.990
 9948SOL     OW30742   5.723   0.701   5.349
 9948SOL    HW130743   5.651   0.756   5.393
 9948SOL    HW230744   5.769   0.645   5.417
 9949SOL     OW30745   6.976   3.741   2.780
 9949SOL    HW130746   7.002   3.813   2.845
 9949SOL    HW230747   6.918   3.674   2.826
 9950SOL     OW30748   4.275   5.353   5.829
 9950SOL    HW130749   4.302   5.307   5.914
 9950SOL    HW230750   4.309   5.447   5.830
 9951SOL     OW30751   0.331   2.241   2.994
 9951SOL    HW130752   0.232   2.242   3.007
 9951SOL    HW230753   0.364   2.146   2.992
 9952SOL     OW30754   1.262   4.926   1.588
 9952SOL    HW130755   1.196   4.857   1.618
 9952SOL    HW230756   1.322   4.887   1.518
 9953SOL     OW30757   6.275   4.540   4.691
 9953SOL    HW130758   6.260   4.443   4.671
 9953SOL    HW230759   6.342   4.548   4.764
 9954SOL     OW30760   4.111   1.237   1.058
 9954SOL    HW130761   4.070   1.179   1.128
 9954SOL    HW230762   4.180   1.185   1.007
 9955SOL     OW30763   6.116   5.007   1.088
 9955SOL    HW130764   6.168   4.938   1.036
 9955SOL    HW230765   6.148   5.098   1.063
 9956SOL     OW30766   1.381   3.502   3.687
 9956SOL    HW130767   1.409   3.427   3.627
 9956SOL    HW230768   1.457   3.526   3.748
 9957SOL     OW30769   4.921   6.923   0.038
 9957SOL    HW130770   4.835   6.921   0.089
 9957SOL    HW230771   4.990   6.972   0.090
 9958SOL     OW30772   6.016   5.995   5.885
 9958SOL    HW130773   5.957   5.941   5.944
 9958SOL    HW230774   5.994   6.092   5.895
 9959SOL     OW30775   5.659   4.872   6.807
 9959SOL    HW130776   5.628   4.778   6.820
 9959SOL    HW230777   5.614   4.911   6.727
 9960SOL     OW30778   6.781   0.442   6.759
 9960SOL    HW130779   6.829   0.418   6.843
 9960SOL    HW230780   6.732   0.528   6.771
 9961SOL     OW30781   3.103   6.017   0.365
 9961SOL    HW130782   3.148   6.083   0.425
 9961SOL    HW230783   3.150   5.929   0.370
 9962SOL     OW30784   3.277   0.613   1.471
 9962SOL    HW130785   3.272   0.677   1.548
 9962SOL    HW230786   3.372   0.587   1.456
 9963SOL     OW30787   0.896   0.635   6.206
 9963SOL    HW130788   0.832   0.657   6.131
 9963SOL    HW230789   0.946   0.717   6.231
 9964SOL     OW30790   4.618   5.239   5.008
 9964SOL    HW130791   4.610   5.161   5.069
 9964SOL    HW230792   4.529   5.285   5.001
 9965SOL     OW30793   2.786   4.716   4.473
 9965SOL    HW130794   2.729   4.661   4.534
 9965SOL    HW230795   2.762   4.694   4.378
 9966SOL     OW30796   2.893   5.820   2.624
 9966SOL    HW130797   2.985   5.860   2.624
 9966SOL    HW230798   2.876   5.775   2.536
 9967SOL     OW30799   0.483   0.565   2.758
 9967SOL    HW130800   0.396   0.602   2.791
 9967SOL    HW230801   0.535   0.638   2.712
 9968SOL     OW30802   4.804   6.327   6.777
 9968SOL    HW130803   4.886   6.289   6.734
 9968SOL    HW230804   4.822   6.420   6.808
 9969SOL     OW30805   0.129   5.964   3.093
 9969SOL    HW130806   0.144   5.985   2.997
 9969SOL    HW230807   0.151   5.869   3.111
 9970SOL     OW30808   6.899   3.131   2.049
 9970SOL    HW130809   6.838   3.095   2.119
 9970SOL    HW230810   6.846   3.185   1.983
 9971SOL     OW30811   0.271   5.226   4.795
 9971SOL    HW130812   0.182   5.181   4.790
 9971SOL    HW230813   0.277   5.281   4.878
 9972SOL     OW30814   2.870   4.683   5.996
 9972SOL    HW130815   2.835   4.678   5.903
 9972SOL    HW230816   2.936   4.757   6.003
 9973SOL     OW30817   3.118   2.185   2.950
 9973SOL    HW130818   3.161   2.269   2.983
 9973SOL    HW230819   3.127   2.114   3.020
 9974SOL     OW30820   0.613   2.448   3.257
 9974SOL    HW130821   0.664   2.378   3.307
 9974SOL    HW230822   0.667   2.532   3.253
 9975SOL     OW30823   2.446   4.413   6.476
 9975SOL    HW130824   2.381   4.422   6.400
 9975SOL    HW230825   2.493   4.501   6.489
 9976SOL     OW30826   3.558   6.457   5.186
 9976SOL    HW130827   3.569   6.510   5.270
 9976SOL    HW230828   3.515   6.369   5.208
 9977SOL     OW30829   4.360   0.308   5.415
 9977SOL    HW130830   4.417   0.350   5.344
 9977SOL    HW230831   4.419   0.262   5.482
 9978SOL     OW30832   6.959   2.982   6.978
 9978SOL    HW130833   6.892   2.908   6.979
 9978SOL    HW230834   0.012   2.967   0.032
 9979SOL     OW30835   3.674   3.924   4.434
 9979SOL    HW130836   3.627   3.909   4.347
 9979SOL    HW230837   3.627   3.996   4.486
 9980SOL     OW30838   0.503   0.421   6.782
 9980SOL    HW130839   0.565   0.391   6.710
 9980SOL    HW230840   0.530   0.512   6.814
 9981SOL     OW30841   5.864   0.688   0.300
 9981SOL    HW130842   5.958   0.654   0.298
 9981SOL    HW230843   5.864   0.786   0.282
 9982SOL     OW30844   2.834   2.306   4.500
 9982SOL    HW130845   2.906   2.254   4.547
 9982SOL    HW230846   2.851   2.304   4.401
 9983SOL     OW30847   0.565   2.730   2.307
 9983SOL    HW130848   0.561   2.782   2.221
 9983SOL    HW230849   0.495   2.658   2.305
 9984SOL     OW30850   0.658   4.566   0.948
 9984SOL    HW130851   0.670   4.630   1.023
 9984SOL    HW230852   0.643   4.474   0.984
 9985SOL     OW30853   4.749   4.585   0.392
 9985SOL    HW130854   4.848   4.584   0.406
 9985SOL    HW230855   4.729   4.574   0.295
 9986SOL     OW30856   5.421   4.887   0.440
 9986SOL    HW130857   5.337   4.941   0.447
 9986SOL    HW230858   5.438   4.839   0.526
 9987SOL     OW30859   4.904   2.305   1.179
 9987SOL    HW130860   4.974   2.359   1.225
 9987SOL    HW230861   4.946   2.251   1.106
 9988SOL     OW30862   5.869   6.571   3.906
 9988SOL    HW130863   5.800   6.591   3.976
 9988SOL    HW230864   5.957   6.607   3.935
 9989SOL     OW30865   6.645   5.527   1.800
 9989SOL    HW130866   6.615   5.621   1.814
 9989SOL    HW230867   6.745   5.522   1.807
 9990SOL     OW30868   0.428   6.141   3.183
 9990SOL    HW130869   0.376   6.147   3.098
 9990SOL    HW230870   0.367   6.158   3.260
 9991SOL     OW30871   2.137   4.320   2.218
 9991SOL    HW130872   2.082   4.248   2.259
 9991SOL    HW230873   2.154   4.392   2.285
 9992SOL     OW30874   2.634   5.136   0.511
 9992SOL    HW130875   2.604   5.226   0.545
 9992SOL    HW230876   2.680   5.086   0.585
 9993SOL     OW30877   4.308   0.240   4.861
 9993SOL    HW130878   4.319   0.331   4.900
 9993SOL    HW230879   4.228   0.239   4.801
 9994SOL     OW30880   5.990   5.301   4.980
 9994SOL    HW130881   5.977   5.235   5.053
 9994SOL    HW230882   5.963   5.261   4.892
 9995SOL     OW30883   4.165   1.581   6.358
 9995SOL    HW130884   4.077   1.626   6.344
 9995SOL    HW230885   4.161   1.525   6.441
 9996SOL     OW30886   3.001   4.527   0.942
 9996SOL    HW130887   3.026   4.452   1.004
 9996SOL    HW230888   3.080   4.552   0.886
 9997SOL     OW30889   6.817   1.198   3.050
 9997SOL    HW130890   6.894   1.139   3.025
 9997SOL    HW230891   6.798   1.262   2.975
 9998SOL     OW30892   5.269   4.172   2.359
 9998SOL    HW130893   5.201   4.155   2.429
 9998SOL    HW230894   5.242   4.253   2.305
 9999SOL     OW30895   0.633   6.831   4.717
 9999SOL    HW130896   0.577   6.844   4.635
 9999SOL    HW230897   0.678   6.917   4.741
10000SOL     OW30898   4.684   2.455   1.216
10000SOL    HW130899   4.612   2.393   1.185
10000SOL    HW230900   4.773   2.411   1.204
10001SOL     OW30901   4.066   6.355   1.660
10001SOL    HW130902   4.079   6.269   1.609
10001SOL    HW230903   3.982   6.399   1.629
10002SOL     OW30904   2.423   6.840   1.887
10002SOL    HW130905   2.343   6.826   1.945
10002SOL    HW230906   2.407   6.799   1.798
10003SOL     OW30907   1.484   1.181   2.296
10003SOL    HW130908   1.390   1.202   2.272
10003SOL    HW230909   1.546   1.220   2.227
10004SOL     OW30910   0.227   4.042   3.753
10004SOL    HW130911   0.305   4.099   3.778
10004SOL    HW230912   0.144   4.080   3.792
10005SOL     OW30913   2.605   5.539   3.269
10005SOL    HW130914   2.678   5.482   3.306
10005SOL    HW230915   2.631   5.636   3.276
10006SOL     OW30916   4.979   1.538   5.286
10006SOL    HW130917   5.044   1.550   5.211
10006SOL    HW230918   4.944   1.627   5.315
10007SOL     OW30919   1.816   5.237   3.963
10007SOL    HW130920   1.749   5.224   4.036
10007SOL    HW230921   1.792   5.177   3.886
10008SOL     OW30922   4.353   1.215   6.026
10008SOL    HW130923   4.274   1.169   5.986
10008SOL    HW230924   4.435   1.159   6.012
10009SOL     OW30925   0.632   4.891   2.449
10009SOL    HW130926   0.689   4.881   2.368
10009SOL    HW230927   0.661   4.824   2.518
10010SOL     OW30928   1.826   4.404   1.217
10010SOL    HW130929   1.883   4.486   1.214
10010SOL    HW230930   1.868   4.337   1.279
10011SOL     OW30931   3.209   3.047   0.512
10011SOL    HW130932   3.285   3.103   0.478
10011SOL    HW230933   3.131   3.054   0.449
10012SOL     OW30934   5.583   1.817   3.957
10012SOL    HW130935   5.498   1.865   3.977
10012SOL    HW230936   5.661   1.879   3.969
10013SOL     OW30937   0.733   6.540   4.454
10013SOL    HW130938   0.775   6.513   4.368
10013SOL    HW230939   0.702   6.635   4.449
10014SOL     OW30940   1.258   0.800   3.206
10014SOL    HW130941   1.290   0.706   3.208
10014SOL    HW230942   1.253   0.832   3.111
10015SOL     OW30943   3.911   6.966   6.522
10015SOL    HW130944   3.865   6.883   6.489
10015SOL    HW230945   4.010   6.953   6.518
10016SOL     OW30946   2.869   1.199   4.513
10016SOL    HW130947   2.816   1.270   4.560
10016SOL    HW230948   2.831   1.182   4.423
10017SOL     OW30949   3.068   1.739   2.683
10017SOL    HW130950   3.029   1.829   2.663
10017SOL    HW230951   3.020   1.669   2.629
10018SOL     OW30952   0.123   4.188   5.222
10018SOL    HW130953   0.198   4.190   5.156
10018SOL    HW230954   0.083   4.279   5.230
10019SOL     OW30955   6.967   2.152   1.847
10019SOL    HW130956   6.908   2.119   1.773
10019SOL    HW230957   0.007   2.075   1.881
10020SOL     OW30958   6.856   1.149   2.143
10020SOL    HW130959   6.888   1.072   2.198
10020SOL    HW230960   6.757   1.158   2.152
10021SOL     OW30961   0.800   3.190   1.598
10021SOL    HW130962   0.860   3.183   1.677
10021SOL    HW230963   0.852   3.172   1.515
10022SOL     OW30964   1.474   6.411   5.730
10022SOL    HW130965   1.543   6.339   5.731
10022SOL    HW230966   1.387   6.374   5.764
10023SOL     OW30967   0.295   1.764   5.777
10023SOL    HW130968   0.351   1.685   5.751
10023SOL    HW230969   0.213   1.732   5.825
10024SOL     OW30970   1.975   4.521   2.811
10024SOL    HW130971   1.893   4.478   2.849
10024SOL    HW230972   2.025   4.455   2.755
10025SOL     OW30973   0.961   3.254   1.086
10025SOL    HW130974   1.041   3.289   1.135
10025SOL    HW230975   0.985   3.168   1.040
10026SOL     OW30976   5.369   1.043   5.158
10026SOL    HW130977   5.386   1.127   5.208
10026SOL    HW230978   5.364   0.966   5.222
10027SOL     OW30979   3.315   1.385   5.259
10027SOL    HW130980   3.334   1.454   5.189
10027SOL    HW230981   3.360   1.411   5.344
10028SOL     OW30982   4.273   6.984   2.168
10028SOL    HW130983   4.265   0.056   2.120
10028SOL    HW230984   4.212   6.985   2.248
10029SOL     OW30985   0.060   4.287   4.158
10029SOL    HW130986   0.139   4.291   4.220
10029SOL    HW230987   0.045   4.378   4.118
10030SOL     OW30988   2.423   0.214   4.506
10030SOL    HW130989   2.372   0.284   4.455
10030SOL    HW230990   2.364   0.175   4.576
10031SOL     OW30991   2.059   6.132   3.060
10031SOL    HW130992   2.001   6.052   3.042
10031SOL    HW230993   2.155   6.106   3.056
10032SOL     OW30994   3.153   5.903   4.599
10032SOL    HW130995   3.130   5.889   4.695
10032SOL    HW230996   3.250   5.886   4.584
10033SOL     OW30997   3.425   1.093   5.193
10033SOL    HW130998   3.453   0.999   5.212
10033SOL    HW230999   3.326   1.098   5.188
10034SOL     OW31000   2.534   1.290   2.302
10034SOL    HW131001   2.533   1.390   2.292
10034SOL    HW231002   2.620   1.254   2.265
10035SOL     OW31003   6.741   3.059   2.598
10035SOL    HW131004   6.734   2.977   2.655
10035SOL    HW231005   6.833   3.098   2.607
10036SOL     OW31006   1.142   0.937   6.913
10036SOL    HW131007   1.210   1.006   6.938
10036SOL    HW231008   1.142   0.864   6.980
10037SOL     OW31009   5.784   6.737   6.344
10037SOL    HW131010   5.798   6.641   6.368
10037SOL    HW231011   5.763   6.744   6.247
10038SOL     OW31012   5.023   6.300   6.481
10038SOL    HW131013   5.011   6.221   6.422
10038SOL    HW231014   4.989   6.383   6.435
10039SOL     OW31015   0.243   5.933   2.056
10039SOL    HW131016   0.320   5.979   2.012
10039SOL    HW231017   0.181   6.001   2.095
10040SOL     OW31018   2.514   6.846   0.306
10040SOL    HW131019   2.562   6.842   0.394
10040SOL    HW231020   2.440   6.778   0.306
10041SOL     OW31021   5.582   5.669   5.057
10041SOL    HW131022   5.573   5.752   5.002
10041SOL    HW231023   5.525   5.596   5.017
10042SOL     OW31024   6.898   0.491   5.197
10042SOL    HW131025   6.891   0.398   5.233
10042SOL    HW231026   6.888   0.557   5.271
10043SOL     OW31027   0.722   0.514   3.593
10043SOL    HW131028   0.745   0.584   3.660
10043SOL    HW231029   0.660   0.553   3.524
10044SOL     OW31030   2.938   1.955   0.101
10044SOL    HW131031   2.997   1.951   0.182
10044SOL    HW231032   2.845   1.979   0.129
10045SOL     OW31033   3.862   6.515   4.841
10045SOL    HW131034   3.870   6.446   4.913
10045SOL    HW231035   3.914   6.597   4.867
10046SOL     OW31036   6.002   2.360   1.700
10046SOL    HW131037   6.026   2.450   1.663
10046SOL    HW231038   5.910   2.335   1.667
10047SOL     OW31039   0.357   2.443   3.354
10047SOL    HW131040   0.367   2.372   3.424
10047SOL    HW231041   0.446   2.460   3.311
10048SOL     OW31042   3.720   2.614   1.707
10048SOL    HW131043   3.810   2.655   1.692
10048SOL    HW231044   3.731   2.521   1.740
10049SOL     OW31045   1.940   6.237   4.552
10049SOL    HW131046   1.870   6.166   4.562
10049SOL    HW231047   1.905   6.311   4.493
10050SOL     OW31048   5.515   1.332   4.401
10050SOL    HW131049   5.606   1.337   4.442
10050SOL    HW231050   5.518   1.273   4.320
10051SOL     OW31051   6.361   1.864   0.036
10051SOL    HW131052   6.400   1.954   0.016
10051SOL    HW231053   6.307   1.868   0.120
10052SOL     OW31054   1.141   4.540   1.942
10052SOL    HW131055   1.158   4.593   1.859
10052SOL    HW231056   1.209   4.467   1.949
10053SOL     OW31057   3.089   6.830   3.198
10053SOL    HW131058   3.017   6.894   3.171
10053SOL    HW231059   3.157   6.878   3.254
10054SOL     OW31060   4.403   5.738   3.905
10054SOL    HW131061   4.417   5.793   3.823
10054SOL    HW231062   4.478   5.752   3.969
10055SOL     OW31063   6.182   3.256   6.546
10055SOL    HW131064   6.218   3.190   6.481
10055SOL    HW231065   6.229   3.246   6.633
10056SOL     OW31066   6.573   4.772   1.833
10056SOL    HW131067   6.510   4.849   1.846
10056SOL    HW231068   6.565   4.708   1.909
10057SOL     OW31069   2.660   2.238   4.014
10057SOL    HW131070   2.698   2.145   4.017
10057SOL    HW231071   2.567   2.235   3.980
10058SOL     OW31072   0.775   4.438   3.909
10058SOL    HW131073   0.841   4.365   3.887
10058SOL    HW231074   0.751   4.487   3.825
10059SOL     OW31075   5.745   6.956   1.525
10059SOL    HW131076   5.713   6.945   1.431
10059SOL    HW231077   5.670   6.991   1.581
10060SOL     OW31078   2.146   2.824   2.289
10060SOL    HW131079   2.175   2.733   2.259
10060SOL    HW231080   2.175   2.840   2.383
10061SOL     OW31081   6.334   2.010   4.925
10061SOL    HW131082   6.332   2.102   4.886
10061SOL    HW231083   6.271   1.951   4.874
10062SOL     OW31084   5.878   5.683   3.153
10062SOL    HW131085   5.780   5.669   3.163
10062SOL    HW231086   5.924   5.660   3.240
10063SOL     OW31087   0.828   2.600   2.927
10063SOL    HW131088   0.889   2.678   2.942
10063SOL    HW231089   0.862   2.521   2.977
10064SOL     OW31090   5.833   6.134   5.150
10064SOL    HW131091   5.917   6.181   5.175
10064SOL    HW231092   5.803   6.076   5.226
10065SOL     OW31093   0.290   6.560   3.075
10065SOL    HW131094   0.364   6.565   3.143
10065SOL    HW231095   0.328   6.579   2.984
10066SOL     OW31096   0.794   0.288   3.422
10066SOL    HW131097   0.872   0.238   3.460
10066SOL    HW231098   0.771   0.365   3.481
10067SOL     OW31099   4.887   6.860   3.563
10067SOL    HW131100   4.857   6.867   3.468
10067SOL    HW231101   4.896   6.764   3.589
10068SOL     OW31102   5.060   3.540   5.664
10068SOL    HW131103   4.976   3.586   5.693
10068SOL    HW231104   5.101   3.591   5.588
10069SOL     OW31105   4.869   1.097   3.719
10069SOL    HW131106   4.864   1.053   3.630
10069SOL    HW231107   4.926   1.179   3.712
10070SOL     OW31108   0.872   6.841   4.456
10070SOL    HW131109   0.861   6.792   4.542
10070SOL    HW231110   0.969   6.844   4.431
10071SOL     OW31111   5.129   5.274   4.985
10071SOL    HW131112   5.055   5.341   4.998
10071SOL    HW231113   5.154   5.234   5.073
10072SOL     OW31114   0.855   6.880   3.606
10072SOL    HW131115   0.910   6.952   3.649
10072SOL    HW231116   0.806   6.918   3.528
10073SOL     OW31117   0.366   4.987   6.569
10073SOL    HW131118   0.417   5.019   6.649
10073SOL    HW231119   0.408   4.903   6.534
10074SOL     OW31120   2.640   6.712   5.797
10074SOL    HW131121   2.657   6.714   5.698
10074SOL    HW231122   2.723   6.739   5.846
10075SOL     OW31123   1.794   2.343   3.849
10075SOL    HW131124   1.847   2.428   3.848
10075SOL    HW231125   1.708   2.359   3.899
10076SOL     OW31126   5.495   0.240   4.533
10076SOL    HW131127   5.571   0.278   4.586
10076SOL    HW231128   5.421   0.307   4.529
10077SOL     OW31129   3.200   0.940   6.774
10077SOL    HW131130   3.285   0.973   6.733
10077SOL    HW231131   3.149   0.884   6.708
10078SOL     OW31132   5.619   6.350   5.259
10078SOL    HW131133   5.655   6.271   5.209
10078SOL    HW231134   5.647   6.344   5.355
10079SOL     OW31135   6.567   2.829   6.343
10079SOL    HW131136   6.587   2.787   6.432
10079SOL    HW231137   6.511   2.910   6.356
10080SOL     OW31138   1.397   2.466   6.446
10080SOL    HW131139   1.348   2.520   6.378
10080SOL    HW231140   1.344   2.384   6.469
10081SOL     OW31141   0.368   1.160   6.950
10081SOL    HW131142   0.456   1.186   6.910
10081SOL    HW231143   0.369   1.063   6.972
10082SOL     OW31144   6.557   0.812   0.675
10082SOL    HW131145   6.587   0.861   0.757
10082SOL    HW231146   6.470   0.766   0.694
10083SOL     OW31147   5.112   1.167   4.396
10083SOL    HW131148   5.179   1.094   4.384
10083SOL    HW231149   5.157   1.256   4.394
10084SOL     OW31150   2.312   0.757   6.373
10084SOL    HW131151   2.214   0.754   6.351
10084SOL    HW231152   2.341   0.851   6.386
10085SOL     OW31153   0.709   5.376   2.421
10085SOL    HW131154   0.613   5.348   2.418
10085SOL    HW231155   0.748   5.369   2.330
10086SOL     OW31156   6.608   3.936   2.260
10086SOL    HW131157   6.658   3.896   2.183
10086SOL    HW231158   6.523   3.885   2.273
10087SOL     OW31159   1.597   0.024   3.769
10087SOL    HW131160   1.586   6.974   3.844
10087SOL    HW231161   1.689   0.063   3.773
10088SOL     OW31162   6.757   0.326   4.959
10088SOL    HW131163   6.732   0.422   4.975
10088SOL    HW231164   6.856   0.321   4.941
10089SOL     OW31165   1.828   3.073   2.325
10089SOL    HW131166   1.917   3.027   2.323
10089SOL    HW231167   1.758   3.007   2.351
10090SOL     OW31168   0.596   4.361   1.514
10090SOL    HW131169   0.644   4.274   1.524
10090SOL    HW231170   0.607   4.395   1.421
10091SOL     OW31171   0.472   2.326   4.483
10091SOL    HW131172   0.472   2.397   4.554
10091SOL    HW231173   0.439   2.365   4.397
10092SOL     OW31174   1.703   3.350   4.735
10092SOL    HW131175   1.694   3.250   4.736
10092SOL    HW231176   1.623   3.390   4.690
10093SOL     OW31177   6.873   5.056   6.620
10093SOL    HW131178   6.959   5.069   6.669
10093SOL    HW231179   6.879   4.974   6.563
10094SOL     OW31180   1.622   1.273   2.049
10094SOL    HW131181   1.692   1.209   2.015
10094SOL    HW231182   1.643   1.365   2.017
10095SOL     OW31183   0.501   0.956   6.049
10095SOL    HW131184   0.469   1.036   5.998
10095SOL    HW231185   0.534   0.886   5.985
10096SOL     OW31186   0.275   4.503   1.978
10096SOL    HW131187   0.317   4.463   1.897
10096SOL    HW231188   0.221   4.583   1.951
10097SOL     OW31189   1.029   2.448   6.442
10097SOL    HW131190   1.070   2.515   6.504
10097SOL    HW231191   1.045   2.475   6.347
10098SOL     OW31192   3.411   4.519   6.738
10098SOL    HW131193   3.362   4.433   6.721
10098SOL    HW231194   3.416   4.537   6.836
10099SOL     OW31195   6.629   4.442   4.396
10099SOL    HW131196   6.699   4.505   4.428
10099SOL    HW231197   6.640   4.425   4.298
10100SOL     OW31198   5.571   0.636   5.579
10100SOL    HW131199   5.512   0.577   5.634
10100SOL    HW231200   5.660   0.593   5.569
10101SOL     OW31201   6.909   4.474   2.139
10101SOL    HW131202   6.831   4.513   2.188
10101SOL    HW231203   6.988   4.535   2.150
10102SOL     OW31204   3.841   1.045   3.428
10102SOL    HW131205   3.788   1.073   3.508
10102SOL    HW231206   3.796   0.969   3.382
10103SOL     OW31207   2.364   1.761   0.365
10103SOL    HW131208   2.434   1.703   0.406
10103SOL    HW231209   2.302   1.795   0.436
10104SOL     OW31210   1.912   5.733   5.152
10104SOL    HW131211   1.817   5.745   5.122
10104SOL    HW231212   1.921   5.765   5.247
10105SOL     OW31213   2.778   0.470   6.487
10105SOL    HW131214   2.870   0.491   6.521
10105SOL    HW231215   2.781   0.385   6.434
10106SOL     OW31216   5.546   5.583   0.479
10106SOL    HW131217   5.600   5.563   0.398
10106SOL    HW231218   5.595   5.649   0.536
10107SOL     OW31219   5.692   0.670   5.906
10107SOL    HW131220   5.704   0.748   5.845
10107SOL    HW231221   5.679   0.703   6.000
10108SOL     OW31222   5.818   6.355   6.993
10108SOL    HW131223   5.813   6.307   6.905
10108SOL    HW231224   5.908   6.340   0.019
10109SOL     OW31225   4.712   5.005   3.573
10109SOL    HW131226   4.661   5.087   3.551
10109SOL    HW231227   4.649   4.931   3.595
10110SOL     OW31228   3.470   1.424   5.816
10110SOL    HW131229   3.559   1.456   5.784
10110SOL    HW231230   3.418   1.501   5.853
10111SOL     OW31231   0.265   2.607   2.711
10111SOL    HW131232   0.285   2.538   2.642
10111SOL    HW231233   0.322   2.688   2.694
10112SOL     OW31234   4.169   4.237   6.176
10112SOL    HW131235   4.195   4.162   6.115
10112SOL    HW231236   4.133   4.200   6.262
10113SOL     OW31237   3.556   6.572   0.451
10113SOL    HW131238   3.587   6.643   0.388
10113SOL    HW231239   3.467   6.598   0.490
10114SOL     OW31240   4.287   1.734   1.272
10114SOL    HW131241   4.202   1.786   1.280
10114SOL    HW231242   4.291   1.667   1.346
10115SOL     OW31243   0.743   1.886   3.969
10115SOL    HW131244   0.644   1.897   3.978
10115SOL    HW231245   0.762   1.817   3.899
10116SOL     OW31246   0.989   0.821   1.080
10116SOL    HW131247   0.964   0.798   0.986
10116SOL    HW231248   0.906   0.834   1.135
10117SOL     OW31249   5.123   0.574   5.610
10117SOL    HW131250   5.104   0.603   5.517
10117SOL    HW231251   5.044   0.526   5.647
10118SOL     OW31252   6.663   4.847   2.654
10118SOL    HW131253   6.612   4.897   2.724
10118SOL    HW231254   6.625   4.869   2.564
10119SOL     OW31255   2.565   0.355   5.453
10119SOL    HW131256   2.640   0.387   5.510
10119SOL    HW231257   2.552   0.418   5.376
10120SOL     OW31258   6.194   2.516   4.028
10120SOL    HW131259   6.173   2.465   4.112
10120SOL    HW231260   6.109   2.550   3.988
10121SOL     OW31261   6.114   5.105   4.161
10121SOL    HW131262   6.095   5.119   4.259
10121SOL    HW231263   6.077   5.182   4.109
10122SOL     OW31264   5.278   3.064   0.453
10122SOL    HW131265   5.333   3.144   0.477
10122SOL    HW231266   5.204   3.053   0.520
10123SOL     OW31267   6.905   6.911   0.320
10123SOL    HW131268   6.970   6.984   0.299
10123SOL    HW231269   6.883   6.861   0.236
10124SOL     OW31270   2.896   4.641   0.717
10124SOL    HW131271   2.983   4.680   0.686
10124SOL    HW231272   2.910   4.594   0.805
10125SOL     OW31273   1.459   0.316   1.275
10125SOL    HW131274   1.382   0.336   1.215
10125SOL    HW231275   1.545   0.332   1.226
10126SOL     OW31276   5.721   5.067   6.965
10126SOL    HW131277   5.698   4.995   6.899
10126SOL    HW231278   5.735   5.026   0.039
10127SOL     OW31279   3.531   4.489   5.458
10127SOL    HW131280   3.467   4.432   5.406
10127SOL    HW231281   3.620   4.444   5.461
10128SOL     OW31282   0.033   2.048   1.409
10128SOL    HW131283   6.952   2.046   1.433
10128SOL    HW231284   0.044   2.090   1.319
10129SOL     OW31285   5.341   2.354   3.422
10129SOL    HW131286   5.284   2.386   3.347
10129SOL    HW231287   5.345   2.254   3.420
10130SOL     OW31288   6.663   5.209   1.863
10130SOL    HW131289   6.681   5.215   1.962
10130SOL    HW231290   6.645   5.300   1.827
10131SOL     OW31291   6.719   0.719   0.995
10131SOL    HW131292   6.623   0.701   0.973
10131SOL    HW231293   6.760   0.775   0.923
10132SOL     OW31294   2.914   0.167   2.745
10132SOL    HW131295   2.874   0.081   2.714
10132SOL    HW231296   2.994   0.148   2.802
10133SOL     OW31297   5.048   5.126   3.533
10133SOL    HW131298   4.997   5.121   3.619
10133SOL    HW231299   5.015   5.202   3.478
10134SOL     OW31300   0.359   1.580   2.361
10134SOL    HW131301   0.311   1.535   2.437
10134SOL    HW231302   0.457   1.564   2.369
10135SOL     OW31303   3.280   6.048   2.830
10135SOL    HW131304   3.339   6.031   2.908
10135SOL    HW231305   3.206   6.110   2.858
10136SOL     OW31306   6.156   0.032   2.074
10136SOL    HW131307   6.116   0.117   2.039
10136SOL    HW231308   6.132   0.020   2.170
10137SOL     OW31309   5.712   5.103   4.585
10137SOL    HW131310   5.629   5.123   4.636
10137SOL    HW231311   5.712   5.007   4.558
10138SOL     OW31312   5.576   2.332   6.872
10138SOL    HW131313   5.571   2.341   6.772
10138SOL    HW231314   5.668   2.302   6.897
10139SOL     OW31315   3.777   2.915   3.158
10139SOL    HW131316   3.688   2.888   3.121
10139SOL    HW231317   3.833   2.833   3.176
10140SOL     OW31318   0.710   4.657   5.482
10140SOL    HW131319   0.641   4.629   5.549
10140SOL    HW231320   0.674   4.733   5.427
10141SOL     OW31321   2.057   0.337   4.015
10141SOL    HW131322   2.121   0.286   3.957
10141SOL    HW231323   2.002   0.398   3.958
10142SOL     OW31324   5.006   6.068   4.593
10142SOL    HW131325   4.911   6.041   4.604
10142SOL    HW231326   5.018   6.116   4.507
10143SOL     OW31327   5.259   6.221   1.162
10143SOL    HW131328   5.195   6.275   1.108
10143SOL    HW231329   5.224   6.128   1.173
10144SOL     OW31330   2.953   5.166   3.323
10144SOL    HW131331   2.991   5.173   3.415
10144SOL    HW231332   2.915   5.074   3.309
10145SOL     OW31333   3.147   6.336   6.048
10145SOL    HW131334   3.164   6.256   6.104
10145SOL    HW231335   3.183   6.321   5.955
10146SOL     OW31336   5.096   4.847   4.789
10146SOL    HW131337   5.050   4.868   4.874
10146SOL    HW231338   5.195   4.854   4.802
10147SOL     OW31339   4.950   5.165   4.517
10147SOL    HW131340   5.039   5.164   4.472
10147SOL    HW231341   4.963   5.161   4.616
10148SOL     OW31342   5.733   5.003   0.836
10148SOL    HW131343   5.779   5.092   0.842
10148SOL    HW231344   5.800   4.930   0.854
10149SOL     OW31345   3.858   3.675   1.011
10149SOL    HW131346   3.854   3.775   1.005
10149SOL    HW231347   3.921   3.640   0.942
10150SOL     OW31348   4.934   4.474   1.404
10150SOL    HW131349   4.902   4.412   1.476
10150SOL    HW231350   4.914   4.569   1.431
10151SOL     OW31351   1.627   6.648   5.639
10151SOL    HW131352   1.690   6.650   5.562
10151SOL    HW231353   1.625   6.556   5.678
10152SOL     OW31354   0.239   5.115   3.507
10152SOL    HW131355   0.319   5.062   3.478
10152SOL    HW231356   0.265   5.179   3.579
10153SOL     OW31357   5.415   6.714   3.561
10153SOL    HW131358   5.502   6.763   3.560
10153SOL    HW231359   5.397   6.676   3.470
10154SOL     OW31360   6.516   5.486   5.471
10154SOL    HW131361   6.454   5.467   5.395
10154SOL    HW231362   6.576   5.563   5.447
10155SOL     OW31363   3.679   1.630   6.956
10155SOL    HW131364   3.692   1.572   6.876
10155SOL    HW231365   3.739   1.710   6.949
10156SOL     OW31366   5.659   0.257   2.497
10156SOL    HW131367   5.746   0.286   2.536
10156SOL    HW231368   5.661   0.158   2.482
10157SOL     OW31369   5.209   0.971   5.924
10157SOL    HW131370   5.164   0.952   5.836
10157SOL    HW231371   5.294   0.918   5.929
10158SOL     OW31372   4.442   4.015   6.311
10158SOL    HW131373   4.472   4.101   6.270
10158SOL    HW231374   4.349   4.026   6.348
10159SOL     OW31375   1.191   1.009   6.361
10159SOL    HW131376   1.266   0.979   6.419
10159SOL    HW231377   1.219   1.007   6.265
10160SOL     OW31378   1.077   5.822   3.117
10160SOL    HW131379   0.999   5.875   3.151
10160SOL    HW231380   1.114   5.767   3.192
10161SOL     OW31381   2.357   5.751   5.788
10161SOL    HW131382   2.379   5.847   5.803
10161SOL    HW231383   2.290   5.743   5.714
10162SOL     OW31384   3.151   1.978   6.962
10162SOL    HW131385   3.057   1.983   6.997
10162SOL    HW231386   3.173   1.883   6.940
10163SOL     OW31387   6.525   2.812   5.597
10163SOL    HW131388   6.443   2.807   5.540
10163SOL    HW231389   6.586   2.737   5.573
10164SOL     OW31390   0.807   2.650   5.523
10164SOL    HW131391   0.878   2.656   5.593
10164SOL    HW231392   0.752   2.568   5.538
10165SOL     OW31393   6.663   2.183   3.324
10165SOL    HW131394   6.754   2.203   3.359
10165SOL    HW231395   6.600   2.257   3.351
10166SOL     OW31396   1.094   0.880   2.250
10166SOL    HW131397   1.180   0.905   2.207
10166SOL    HW231398   1.054   0.961   2.294
10167SOL     OW31399   4.297   0.730   0.346
10167SOL    HW131400   4.232   0.659   0.374
10167SOL    HW231401   4.251   0.819   0.345
10168SOL     OW31402   6.663   3.984   4.400
10168SOL    HW131403   6.755   4.015   4.380
10168SOL    HW231404   6.612   4.057   4.445
10169SOL     OW31405   6.243   4.223   4.414
10169SOL    HW131406   6.220   4.171   4.332
10169SOL    HW231407   6.241   4.320   4.393
10170SOL     OW31408   1.765   3.956   4.481
10170SOL    HW131409   1.854   3.930   4.444
10170SOL    HW231410   1.716   3.874   4.510
10171SOL     OW31411   5.927   3.111   6.113
10171SOL    HW131412   5.950   3.030   6.060
10171SOL    HW231413   5.874   3.174   6.056
10172SOL     OW31414   5.255   1.485   3.593
10172SOL    HW131415   5.281   1.444   3.505
10172SOL    HW231416   5.158   1.470   3.608
10173SOL     OW31417   2.362   1.709   2.216
10173SOL    HW131418   2.407   1.730   2.129
10173SOL    HW231419   2.296   1.635   2.203
10174SOL     OW31420   6.232   4.783   0.950
10174SOL    HW131421   6.196   4.750   0.863
10174SOL    HW231422   6.314   4.730   0.974
10175SOL     OW31423   5.939   2.103   6.280
10175SOL    HW131424   5.950   2.005   6.295
10175SOL    HW231425   6.027   2.143   6.254
10176SOL     OW31426   2.403   4.355   0.226
10176SOL    HW131427   2.389   4.278   0.164
10176SOL    HW231428   2.495   4.392   0.214
10177SOL     OW31429   1.709   0.149   6.039
10177SOL    HW131430   1.656   0.192   5.966
10177SOL    HW231431   1.794   0.199   6.054
10178SOL     OW31432   5.819   2.301   4.387
10178SOL    HW131433   5.728   2.301   4.344
10178SOL    HW231434   5.869   2.219   4.359
10179SOL     OW31435   1.412   3.252   6.993
10179SOL    HW131436   1.406   3.305   6.909
10179SOL    HW231437   1.389   3.157   6.974
10180SOL     OW31438   2.438   6.377   5.513
10180SOL    HW131439   2.436   6.456   5.452
10180SOL    HW231440   2.482   6.403   5.599
10181SOL     OW31441   5.998   3.236   1.451
10181SOL    HW131442   6.069   3.187   1.400
10181SOL    HW231443   5.919   3.176   1.465
10182SOL     OW31444   5.689   1.086   0.472
10182SOL    HW131445   5.741   1.057   0.553
10182SOL    HW231446   5.592   1.089   0.494
10183SOL     OW31447   1.544   1.975   6.429
10183SOL    HW131448   1.558   2.000   6.525
10183SOL    HW231449   1.508   1.881   6.424
10184SOL     OW31450   4.324   0.565   6.122
10184SOL    HW131451   4.335   0.578   6.024
10184SOL    HW231452   4.386   0.494   6.154
10185SOL     OW31453   4.839   0.519   6.765
10185SOL    HW131454   4.817   0.566   6.851
10185SOL    HW231455   4.768   0.537   6.698
10186SOL     OW31456   4.196   2.313   3.197
10186SOL    HW131457   4.250   2.388   3.159
10186SOL    HW231458   4.238   2.281   3.282
10187SOL     OW31459   1.231   1.986   2.374
10187SOL    HW131460   1.141   1.996   2.332
10187SOL    HW231461   1.230   1.909   2.437
10188SOL     OW31462   3.478   5.199   1.374
10188SOL    HW131463   3.556   5.257   1.354
10188SOL    HW231464   3.406   5.214   1.306
10189SOL     OW31465   1.313   6.744   5.085
10189SOL    HW131466   1.352   6.815   5.027
10189SOL    HW231467   1.249   6.784   5.149
10190SOL     OW31468   5.449   2.499   0.292
10190SOL    HW131469   5.445   2.518   0.194
10190SOL    HW231470   5.395   2.566   0.342
10191SOL     OW31471   6.398   4.452   6.980
10191SOL    HW131472   6.415   4.416   0.056
10191SOL    HW231473   6.422   4.383   6.912
10192SOL     OW31474   3.140   0.827   6.499
10192SOL    HW131475   3.089   0.744   6.478
10192SOL    HW231476   3.085   0.907   6.477
10193SOL     OW31477   4.215   3.849   0.323
10193SOL    HW131478   4.246   3.772   0.378
10193SOL    HW231479   4.267   3.931   0.347
10194SOL     OW31480   4.950   3.504   5.983
10194SOL    HW131481   4.994   3.471   6.067
10194SOL    HW231482   5.016   3.501   5.908
10195SOL     OW31483   6.623   4.064   1.640
10195SOL    HW131484   6.646   4.004   1.564
10195SOL    HW231485   6.536   4.034   1.681
10196SOL     OW31486   0.566   1.718   4.984
10196SOL    HW131487   0.649   1.771   4.970
10196SOL    HW231488   0.511   1.719   4.900
10197SOL     OW31489   5.795   0.656   6.517
10197SOL    HW131490   5.891   0.630   6.521
10197SOL    HW231491   5.753   0.615   6.436
10198SOL     OW31492   4.213   0.100   3.547
10198SOL    HW131493   4.174   0.015   3.582
10198SOL    HW231494   4.180   0.177   3.601
10199SOL     OW31495   1.083   2.457   5.455
10199SOL    HW131496   1.025   2.449   5.536
10199SOL    HW231497   1.143   2.536   5.464
10200SOL     OW31498   5.852   2.174   1.365
10200SOL    HW131499   5.793   2.215   1.434
10200SOL    HW231500   5.797   2.125   1.297
10201SOL     OW31501   0.818   3.535   0.649
10201SOL    HW131502   0.828   3.447   0.602
10201SOL    HW231503   0.734   3.536   0.703
10202SOL     OW31504   4.098   1.014   4.088
10202SOL    HW131505   4.018   1.058   4.129
10202SOL    HW231506   4.151   1.081   4.036
10203SOL     OW31507   6.861   2.719   4.705
10203SOL    HW131508   6.942   2.738   4.650
10203SOL    HW231509   6.818   2.805   4.731
10204SOL     OW31510   5.631   5.110   6.392
10204SOL    HW131511   5.591   5.150   6.474
10204SOL    HW231512   5.647   5.182   6.324
10205SOL     OW31513   1.284   0.913   5.745
10205SOL    HW131514   1.239   0.898   5.657
10205SOL    HW231515   1.379   0.941   5.730
10206SOL     OW31516   1.556   1.007   4.543
10206SOL    HW131517   1.600   1.022   4.632
10206SOL    HW231518   1.516   0.916   4.541
10207SOL     OW31519   2.188   2.192   5.182
10207SOL    HW131520   2.207   2.173   5.279
10207SOL    HW231521   2.089   2.185   5.166
10208SOL     OW31522   6.710   5.634   5.360
10208SOL    HW131523   6.738   5.729   5.349
10208SOL    HW231524   6.737   5.581   5.279
10209SOL     OW31525   0.136   7.012   5.207
10209SOL    HW131526   0.092   6.923   5.217
10209SOL    HW231527   0.067   0.069   5.211
10210SOL     OW31528   2.862   6.835   1.789
10210SOL    HW131529   2.781   6.849   1.846
10210SOL    HW231530   2.927   6.776   1.837
10211SOL     OW31531   5.300   5.803   6.170
10211SOL    HW131532   5.261   5.886   6.130
10211SOL    HW231533   5.371   5.828   6.236
10212SOL     OW31534   0.559   0.615   6.321
10212SOL    HW131535   0.531   0.680   6.392
10212SOL    HW231536   0.654   0.588   6.337
10213SOL     OW31537   6.410   2.044   0.946
10213SOL    HW131538   6.453   1.959   0.975
10213SOL    HW231539   6.398   2.104   1.026
10214SOL     OW31540   0.824   2.211   0.194
10214SOL    HW131541   0.778   2.280   0.138
10214SOL    HW231542   0.921   2.236   0.204
10215SOL     OW31543   2.968   3.315   2.213
10215SOL    HW131544   3.054   3.364   2.207
10215SOL    HW231545   2.909   3.359   2.280
10216SOL     OW31546   0.505   6.321   1.986
10216SOL    HW131547   0.568   6.323   2.063
10216SOL    HW231548   0.540   6.378   1.912
10217SOL     OW31549   3.714   1.521   4.708
10217SOL    HW131550   3.730   1.543   4.612
10217SOL    HW231551   3.762   1.587   4.765
10218SOL     OW31552   1.355   3.082   2.342
10218SOL    HW131553   1.363   3.099   2.244
10218SOL    HW231554   1.337   2.985   2.358
10219SOL     OW31555   6.928   5.989   3.263
10219SOL    HW131556   6.894   5.895   3.260
10219SOL    HW231557   7.013   5.995   3.211
10220SOL     OW31558   3.425   2.851   0.642
10220SOL    HW131559   3.358   2.843   0.569
10220SOL    HW231560   3.392   2.916   0.711
10221SOL     OW31561   0.836   5.016   4.084
10221SOL    HW131562   0.890   5.091   4.044
10221SOL    HW231563   0.854   4.932   4.034
10222SOL     OW31564   3.474   3.430   4.153
10222SOL    HW131565   3.438   3.439   4.246
10222SOL    HW231566   3.571   3.404   4.157
10223SOL     OW31567   1.239   6.126   0.774
10223SOL    HW131568   1.297   6.166   0.846
10223SOL    HW231569   1.237   6.187   0.695
10224SOL     OW31570   6.021   4.062   3.064
10224SOL    HW131571   5.964   4.083   3.144
10224SOL    HW231572   5.971   4.085   2.980
10225SOL     OW31573   2.342   3.701   5.616
10225SOL    HW131574   2.378   3.707   5.523
10225SOL    HW231575   2.396   3.634   5.668
10226SOL     OW31576   4.836   2.931   0.246
10226SOL    HW131577   4.859   2.994   0.173
10226SOL    HW231578   4.743   2.897   0.233
10227SOL     OW31579   5.629   3.209   1.347
10227SOL    HW131580   5.701   3.213   1.278
10227SOL    HW231581   5.586   3.298   1.356
10228SOL     OW31582   5.213   0.601   0.709
10228SOL    HW131583   5.279   0.589   0.635
10228SOL    HW231584   5.191   0.512   0.749
10229SOL     OW31585   0.077   3.067   5.077
10229SOL    HW131586   0.095   3.134   5.005
10229SOL    HW231587   0.041   3.114   5.157
10230SOL     OW31588   0.231   6.296   2.005
10230SOL    HW131589   0.329   6.276   2.013
10230SOL    HW231590   0.210   6.322   1.911
10231SOL     OW31591   0.600   5.537   2.653
10231SOL    HW131592   0.637   5.515   2.562
10231SOL    HW231593   0.516   5.486   2.668
10232SOL     OW31594   5.180   4.478   3.612
10232SOL    HW131595   5.122   4.502   3.534
10232SOL    HW231596   5.133   4.410   3.668
10233SOL     OW31597   3.012   4.107   5.734
10233SOL    HW131598   3.000   4.054   5.650
10233SOL    HW231599   3.007   4.045   5.813
10234SOL     OW31600   0.751   1.390   2.196
10234SOL    HW131601   0.754   1.449   2.276
10234SOL    HW231602   0.656   1.371   2.172
10235SOL     OW31603   1.495   1.014   3.207
10235SOL    HW131604   1.407   0.991   3.249
10235SOL    HW231605   1.488   1.002   3.108
10236SOL     OW31606   2.019   6.929   2.049
10236SOL    HW131607   2.019   7.005   1.984
10236SOL    HW231608   1.924   6.902   2.067
10237SOL     OW31609   0.537   3.697   4.898
10237SOL    HW131610   0.464   3.765   4.892
10237SOL    HW231611   0.617   3.738   4.942
10238SOL     OW31612   3.110   0.158   1.766
10238SOL    HW131613   3.067   0.241   1.802
10238SOL    HW231614   3.181   0.183   1.700
10239SOL     OW31615   0.741   2.294   4.408
10239SOL    HW131616   0.661   2.314   4.464
10239SOL    HW231617   0.713   2.279   4.313
10240SOL     OW31618   1.724   6.287   0.764
10240SOL    HW131619   1.763   6.372   0.800
10240SOL    HW231620   1.631   6.303   0.732
10241SOL     OW31621   4.401   2.918   1.352
10241SOL    HW131622   4.384   3.016   1.344
10241SOL    HW231623   4.337   2.868   1.292
10242SOL     OW31624   0.252   2.989   6.554
10242SOL    HW131625   0.229   2.892   6.545
10242SOL    HW231626   0.226   3.037   6.469
10243SOL     OW31627   2.769   5.674   1.330
10243SOL    HW131628   2.680   5.669   1.285
10243SOL    HW231629   2.810   5.764   1.314
10244SOL     OW31630   2.466   5.310   1.724
10244SOL    HW131631   2.512   5.392   1.690
10244SOL    HW231632   2.522   5.268   1.795
10245SOL     OW31633   4.927   4.251   1.062
10245SOL    HW131634   4.958   4.292   1.148
10245SOL    HW231635   4.891   4.323   1.002
10246SOL     OW31636   3.081   3.351   4.177
10246SOL    HW131637   3.132   3.437   4.181
10246SOL    HW231638   2.991   3.367   4.138
10247SOL     OW31639   0.715   2.970   3.919
10247SOL    HW131640   0.664   3.038   3.971
10247SOL    HW231641   0.737   2.892   3.979
10248SOL     OW31642   1.109   1.114   4.274
10248SOL    HW131643   1.038   1.164   4.322
10248SOL    HW231644   1.084   1.102   4.178
10249SOL     OW31645   2.834   5.146   6.490
10249SOL    HW131646   2.796   5.075   6.432
10249SOL    HW231647   2.764   5.215   6.509
10250SOL     OW31648   3.784   2.546   0.508
10250SOL    HW131649   3.867   2.498   0.535
10250SOL    HW231650   3.781   2.635   0.553
10251SOL     OW31651   1.763   0.548   4.302
10251SOL    HW131652   1.681   0.519   4.251
10251SOL    HW231653   1.735   0.597   4.384
10252SOL     OW31654   5.315   4.465   6.087
10252SOL    HW131655   5.369   4.442   6.168
10252SOL    HW231656   5.377   4.478   6.009
10253SOL     OW31657   3.331   6.154   6.234
10253SOL    HW131658   3.286   6.220   6.294
10253SOL    HW231659   3.429   6.152   6.255
10254SOL     OW31660   5.812   1.841   5.877
10254SOL    HW131661   5.795   1.834   5.778
10254SOL    HW231662   5.751   1.778   5.925
10255SOL     OW31663   4.073   4.212   1.631
10255SOL    HW131664   4.136   4.279   1.670
10255SOL    HW231665   3.981   4.230   1.664
10256SOL     OW31666   3.632   1.325   3.473
10256SOL    HW131667   3.716   1.352   3.518
10256SOL    HW231668   3.561   1.393   3.490
10257SOL     OW31669   3.989   5.843   3.082
10257SOL    HW131670   4.075   5.793   3.087
10257SOL    HW231671   3.991   5.906   3.004
10258SOL     OW31672   2.196   1.459   2.141
10258SOL    HW131673   2.228   1.366   2.122
10258SOL    HW231674   2.096   1.459   2.148
10259SOL     OW31675   2.042   4.324   4.085
10259SOL    HW131676   1.957   4.341   4.036
10259SOL    HW231677   2.029   4.343   4.183
10260SOL     OW31678   0.230   0.608   2.861
10260SOL    HW131679   0.256   0.529   2.917
10260SOL    HW231680   0.131   0.610   2.851
10261SOL     OW31681   0.152   3.723   0.450
10261SOL    HW131682   0.185   3.813   0.423
10261SOL    HW231683   0.221   3.654   0.428
10262SOL     OW31684   4.103   1.074   0.204
10262SOL    HW131685   4.202   1.070   0.212
10262SOL    HW231686   4.061   1.012   0.270
10263SOL     OW31687   5.639   0.852   2.506
10263SOL    HW131688   5.572   0.920   2.534
10263SOL    HW231689   5.592   0.768   2.478
10264SOL     OW31690   6.637   0.201   6.703
10264SOL    HW131691   6.604   0.231   6.613
10264SOL    HW231692   6.722   0.248   6.725
10265SOL     OW31693   2.254   2.191   0.795
10265SOL    HW131694   2.287   2.097   0.800
10265SOL    HW231695   2.271   2.237   0.882
10266SOL     OW31696   2.598   3.330   1.718
10266SOL    HW131697   2.655   3.408   1.690
10266SOL    HW231698   2.518   3.362   1.767
10267SOL     OW31699   5.566   0.370   1.014
10267SOL    HW131700   5.643   0.317   1.050
10267SOL    HW231701   5.485   0.353   1.071
10268SOL     OW31702   3.644   6.138   2.087
10268SOL    HW131703   3.562   6.090   2.055
10268SOL    HW231704   3.639   6.234   2.060
10269SOL     OW31705   2.816   1.904   0.518
10269SOL    HW131706   2.802   1.984   0.460
10269SOL    HW231707   2.905   1.910   0.562
10270SOL     OW31708   3.070   0.752   3.314
10270SOL    HW131709   3.104   0.846   3.306
10270SOL    HW231710   3.003   0.735   3.242
10271SOL     OW31711   1.684   1.526   6.589
10271SOL    HW131712   1.730   1.590   6.527
10271SOL    HW231713   1.685   1.562   6.682
10272SOL     OW31714   6.077   0.317   4.517
10272SOL    HW131715   6.065   0.351   4.424
10272SOL    HW231716   6.144   0.243   4.517
10273SOL     OW31717   2.426   5.367   3.703
10273SOL    HW131718   2.435   5.413   3.791
10273SOL    HW231719   2.346   5.306   3.705
10274SOL     OW31720   1.208   4.882   5.181
10274SOL    HW131721   1.147   4.921   5.250
10274SOL    HW231722   1.227   4.951   5.110
10275SOL     OW31723   6.754   0.600   1.850
10275SOL    HW131724   6.838   0.547   1.865
10275SOL    HW231725   6.771   0.696   1.870
10276SOL     OW31726   3.733   5.621   4.945
10276SOL    HW131727   3.779   5.665   5.023
10276SOL    HW231728   3.694   5.533   4.974
10277SOL     OW31729   1.158   5.591   3.742
10277SOL    HW131730   1.068   5.553   3.764
10277SOL    HW231731   1.160   5.688   3.765
10278SOL     OW31732   6.743   0.135   5.127
10278SOL    HW131733   6.669   0.075   5.095
10278SOL    HW231734   6.752   0.212   5.064
10279SOL     OW31735   1.115   6.231   3.945
10279SOL    HW131736   1.060   6.185   4.015
10279SOL    HW231737   1.209   6.241   3.977
10280SOL     OW31738   6.744   4.930   0.104
10280SOL    HW131739   6.652   4.964   0.083
10280SOL    HW231740   6.736   4.849   0.162
10281SOL     OW31741   6.090   1.297   3.567
10281SOL    HW131742   6.034   1.226   3.524
10281SOL    HW231743   6.030   1.369   3.602
10282SOL     OW31744   4.874   3.551   3.457
10282SOL    HW131745   4.955   3.508   3.418
10282SOL    HW231746   4.880   3.550   3.557
10283SOL     OW31747   1.215   2.833   0.922
10283SOL    HW131748   1.215   2.746   0.873
10283SOL    HW231749   1.305   2.850   0.960
10284SOL     OW31750   0.055   3.850   4.430
10284SOL    HW131751   0.071   3.937   4.478
10284SOL    HW231752   0.098   3.776   4.480
10285SOL     OW31753   5.924   6.566   5.885
10285SOL    HW131754   5.964   6.657   5.897
10285SOL    HW231755   5.888   6.533   5.972
10286SOL     OW31756   2.733   1.924   3.132
10286SOL    HW131757   2.807   1.898   3.193
10286SOL    HW231758   2.685   2.004   3.169
10287SOL     OW31759   2.077   5.940   2.764
10287SOL    HW131760   2.098   5.852   2.720
10287SOL    HW231761   2.016   5.993   2.705
10288SOL     OW31762   3.869   6.377   5.316
10288SOL    HW131763   3.829   6.292   5.351
10288SOL    HW231764   3.814   6.454   5.347
10289SOL     OW31765   2.727   5.638   6.873
10289SOL    HW131766   2.687   5.580   6.943
10289SOL    HW231767   2.804   5.690   6.912
10290SOL     OW31768   3.599   2.817   1.873
10290SOL    HW131769   3.648   2.747   1.821
10290SOL    HW231770   3.624   2.907   1.840
10291SOL     OW31771   2.453   1.777   1.964
10291SOL    HW131772   2.439   1.749   1.869
10291SOL    HW231773   2.517   1.854   1.968
10292SOL     OW31774   6.684   6.789   5.635
10292SOL    HW131775   6.729   6.743   5.711
10292SOL    HW231776   6.753   6.827   5.573
10293SOL     OW31777   1.252   4.504   4.618
10293SOL    HW131778   1.212   4.579   4.566
10293SOL    HW231779   1.297   4.439   4.556
10294SOL     OW31780   3.579   1.127   2.173
10294SOL    HW131781   3.663   1.100   2.127
10294SOL    HW231782   3.533   1.045   2.208
10295SOL     OW31783   1.326   1.725   6.554
10295SOL    HW131784   1.380   1.643   6.536
10295SOL    HW231785   1.308   1.772   6.468
10296SOL     OW31786   6.047   1.289   5.854
10296SOL    HW131787   5.955   1.267   5.888
10296SOL    HW231788   6.067   1.385   5.875
10297SOL     OW31789   3.072   1.244   0.060
10297SOL    HW131790   3.085   1.343   0.056
10297SOL    HW231791   2.985   1.219   0.017
10298SOL     OW31792   0.289   2.634   2.279
10298SOL    HW131793   0.240   2.582   2.209
10298SOL    HW231794   0.323   2.720   2.239
10299SOL     OW31795   4.486   0.012   3.185
10299SOL    HW131796   4.487   6.940   3.138
10299SOL    HW231797   4.431   0.005   3.268
10300SOL     OW31798   1.323   4.338   1.947
10300SOL    HW131799   1.389   4.312   2.018
10300SOL    HW231800   1.266   4.259   1.925
10301SOL     OW31801   3.575   0.889   0.269
10301SOL    HW131802   3.666   0.857   0.243
10301SOL    HW231803   3.508   0.861   0.200
10302SOL     OW31804   2.805   6.306   5.332
10302SOL    HW131805   2.878   6.255   5.287
10302SOL    HW231806   2.843   6.390   5.371
10303SOL     OW31807   0.638   5.211   4.707
10303SOL    HW131808   0.615   5.139   4.774
10303SOL    HW231809   0.555   5.253   4.672
10304SOL     OW31810   5.962   6.442   1.132
10304SOL    HW131811   5.928   6.469   1.043
10304SOL    HW231812   5.919   6.356   1.160
10305SOL     OW31813   3.423   3.928   5.840
10305SOL    HW131814   3.430   4.023   5.808
10305SOL    HW231815   3.457   3.867   5.769
10306SOL     OW31816   3.872   0.638   1.199
10306SOL    HW131817   3.785   0.618   1.154
10306SOL    HW231818   3.942   0.573   1.167
10307SOL     OW31819   2.192   0.351   5.719
10307SOL    HW131820   2.157   0.436   5.680
10307SOL    HW231821   2.181   0.353   5.819
10308SOL     OW31822   2.828   4.840   1.997
10308SOL    HW131823   2.834   4.883   2.087
10308SOL    HW231824   2.784   4.751   2.006
10309SOL     OW31825   0.479   1.044   5.012
10309SOL    HW131826   0.527   0.961   5.039
10309SOL    HW231827   0.545   1.119   5.005
10310SOL     OW31828   2.140   3.917   5.583
10310SOL    HW131829   2.204   3.843   5.602
10310SOL    HW231830   2.186   4.005   5.597
10311SOL     OW31831   5.083   5.360   6.823
10311SOL    HW131832   5.000   5.340   6.770
10311SOL    HW231833   5.146   5.414   6.767
10312SOL     OW31834   4.018   0.116   2.233
10312SOL    HW131835   3.969   0.061   2.166
10312SOL    HW231836   4.046   0.203   2.191
10313SOL     OW31837   5.492   6.649   3.014
10313SOL    HW131838   5.455   6.564   3.052
10313SOL    HW231839   5.570   6.679   3.070
10314SOL     OW31840   0.412   0.104   1.068
10314SOL    HW131841   0.359   0.178   1.109
10314SOL    HW231842   0.367   0.017   1.088
10315SOL     OW31843   5.842   5.280   3.533
10315SOL    HW131844   5.757   5.227   3.539
10315SOL    HW231845   5.839   5.355   3.599
10316SOL     OW31846   0.427   1.899   6.754
10316SOL    HW131847   0.500   1.962   6.779
10316SOL    HW231848   0.422   1.891   6.654
10317SOL     OW31849   3.355   6.200   5.012
10317SOL    HW131850   3.449   6.221   4.986
10317SOL    HW231851   3.295   6.210   4.932
10318SOL     OW31852   6.696   6.969   0.045
10318SOL    HW131853   6.676   7.004   0.136
10318SOL    HW231854   6.742   6.881   0.052
10319SOL     OW31855   0.505   4.110   3.806
10319SOL    HW131856   0.565   4.030   3.813
10319SOL    HW231857   0.493   4.135   3.710
10320SOL     OW31858   0.399   6.395   3.764
10320SOL    HW131859   0.335   6.432   3.831
10320SOL    HW231860   0.430   6.468   3.703
10321SOL     OW31861   5.327   2.834   2.449
10321SOL    HW131862   5.304   2.930   2.434
10321SOL    HW231863   5.364   2.822   2.541
10322SOL     OW31864   4.580   4.403   4.902
10322SOL    HW131865   4.610   4.478   4.842
10322SOL    HW231866   4.488   4.421   4.935
10323SOL     OW31867   0.991   4.263   5.869
10323SOL    HW131868   0.919   4.200   5.840
10323SOL    HW231869   1.080   4.228   5.839
10324SOL     OW31870   2.808   3.404   1.990
10324SOL    HW131871   2.872   3.360   2.053
10324SOL    HW231872   2.716   3.367   2.005
10325SOL     OW31873   6.381   5.539   3.789
10325SOL    HW131874   6.465   5.492   3.761
10325SOL    HW231875   6.352   5.600   3.716
10326SOL     OW31876   5.242   3.816   6.645
10326SOL    HW131877   5.242   3.730   6.696
10326SOL    HW231878   5.334   3.837   6.614
10327SOL     OW31879   2.154   4.546   0.790
10327SOL    HW131880   2.232   4.513   0.843
10327SOL    HW231881   2.115   4.627   0.834
10328SOL     OW31882   5.663   1.989   2.403
10328SOL    HW131883   5.639   2.069   2.348
10328SOL    HW231884   5.586   1.924   2.402
10329SOL     OW31885   3.561   2.124   2.893
10329SOL    HW131886   3.495   2.061   2.853
10329SOL    HW231887   3.572   2.204   2.833
10330SOL     OW31888   5.332   0.727   1.906
10330SOL    HW131889   5.308   0.822   1.886
10330SOL    HW231890   5.255   0.682   1.950
10331SOL     OW31891   6.078   5.589   5.985
10331SOL    HW131892   6.101   5.492   5.989
10331SOL    HW231893   6.139   5.640   6.047
10332SOL     OW31894   1.379   1.360   6.207
10332SOL    HW131895   1.294   1.356   6.259
10332SOL    HW231896   1.417   1.268   6.197
10333SOL     OW31897   1.255   4.092   4.344
10333SOL    HW131898   1.280   3.996   4.360
10333SOL    HW231899   1.211   4.129   4.425
10334SOL     OW31900   3.253   1.437   3.717
10334SOL    HW131901   3.235   1.526   3.674
10334SOL    HW231902   3.182   1.417   3.784
10335SOL     OW31903   0.799   2.188   5.170
10335SOL    HW131904   0.786   2.265   5.108
10335SOL    HW231905   0.869   2.210   5.237
10336SOL     OW31906   5.415   6.920   3.265
10336SOL    HW131907   5.446   6.832   3.228
10336SOL    HW231908   5.471   6.944   3.344
10337SOL     OW31909   6.721   5.639   6.741
10337SOL    HW131910   6.759   5.659   6.832
10337SOL    HW231911   6.622   5.626   6.749
10338SOL     OW31912   1.132   6.499   1.931
10338SOL    HW131913   1.166   6.433   1.998
10338SOL    HW231914   1.093   6.578   1.979
10339SOL     OW31915   5.953   2.600   6.186
10339SOL    HW131916   6.009   2.680   6.165
10339SOL    HW231917   6.002   2.517   6.158
10340SOL     OW31918   2.475   3.173   6.189
10340SOL    HW131919   2.389   3.210   6.224
10340SOL    HW231920   2.548   3.241   6.199
10341SOL     OW31921   2.139   3.325   3.262
10341SOL    HW131922   2.171   3.330   3.357
10341SOL    HW231923   2.154   3.233   3.226
10342SOL     OW31924   0.145   0.923   3.898
10342SOL    HW131925   0.080   0.995   3.924
10342SOL    HW231926   0.151   0.918   3.798
10343SOL     OW31927   3.430   5.766   2.439
10343SOL    HW131928   3.503   5.699   2.452
10343SOL    HW231929   3.414   5.816   2.524
10344SOL     OW31930   4.351   6.181   6.349
10344SOL    HW131931   4.318   6.192   6.443
10344SOL    HW231932   4.274   6.172   6.287
10345SOL     OW31933   1.811   3.531   4.276
10345SOL    HW131934   1.908   3.554   4.269
10345SOL    HW231935   1.761   3.569   4.198
10346SOL     OW31936   0.083   6.135   0.075
10346SOL    HW131937   0.074   6.132   0.174
10346SOL    HW231938   0.026   6.209   0.038
10347SOL     OW31939   4.924   1.803   4.417
10347SOL    HW131940   4.890   1.763   4.332
10347SOL    HW231941   4.867   1.774   4.493
10348SOL     OW31942   6.406   4.401   0.680
10348SOL    HW131943   6.495   4.402   0.636
10348SOL    HW231944   6.353   4.322   0.648
10349SOL     OW31945   1.098   7.013   5.951
10349SOL    HW131946   1.124   0.052   6.031
10349SOL    HW231947   1.000   0.009   5.934
10350SOL     OW31948   2.735   0.022   5.869
10350SOL    HW131949   2.785   0.098   5.826
10350SOL    HW231950   2.739   6.958   5.809
10351SOL     OW31951   4.225   5.510   6.358
10351SOL    HW131952   4.130   5.524   6.387
10351SOL    HW231953   4.226   5.476   6.264
10352SOL     OW31954   3.462   4.066   6.315
10352SOL    HW131955   3.472   4.133   6.388
10352SOL    HW231956   3.377   4.084   6.265
10353SOL     OW31957   0.840   3.228   4.860
10353SOL    HW131958   0.809   3.211   4.766
10353SOL    HW231959   0.822   3.323   4.884
10354SOL     OW31960   5.294   1.800   1.415
10354SOL    HW131961   5.265   1.734   1.346
10354SOL    HW231962   5.269   1.892   1.386
10355SOL     OW31963   1.322   5.088   2.820
10355SOL    HW131964   1.353   5.138   2.901
10355SOL    HW231965   1.379   5.007   2.806
10356SOL     OW31966   0.137   2.620   4.584
10356SOL    HW131967   0.111   2.668   4.668
10356SOL    HW231968   0.108   2.673   4.505
10357SOL     OW31969   2.669   2.074   0.082
10357SOL    HW131970   2.701   2.064   7.004
10357SOL    HW231971   2.596   2.007   0.100
10358SOL     OW31972   0.216   1.539   2.116
10358SOL    HW131973   0.215   1.624   2.064
10358SOL    HW231974   0.259   1.555   2.205
10359SOL     OW31975   0.670   1.649   1.183
10359SOL    HW131976   0.689   1.620   1.276
10359SOL    HW231977   0.613   1.731   1.185
10360SOL     OW31978   6.892   5.741   2.824
10360SOL    HW131979   6.987   5.772   2.827
10360SOL    HW231980   6.856   5.733   2.917
10361SOL     OW31981   1.406   4.878   1.354
10361SOL    HW131982   1.432   4.859   1.259
10361SOL    HW231983   1.436   4.970   1.379
10362SOL     OW31984   1.641   5.135   4.606
10362SOL    HW131985   1.727   5.090   4.580
10362SOL    HW231986   1.605   5.185   4.528
10363SOL     OW31987   5.921   0.273   3.386
10363SOL    HW131988   5.825   0.266   3.414
10363SOL    HW231989   5.930   0.343   3.315
10364SOL     OW31990   1.556   4.452   1.243
10364SOL    HW131991   1.653   4.436   1.225
10364SOL    HW231992   1.541   4.467   1.341
10365SOL     OW31993   4.565   5.945   6.825
10365SOL    HW131994   4.567   5.992   6.736
10365SOL    HW231995   4.593   6.009   6.896
10366SOL     OW31996   3.852   6.767   3.784
10366SOL    HW131997   3.813   6.845   3.833
10366SOL    HW231998   3.935   6.796   3.735
10367SOL     OW31999   6.524   2.016   3.028
10367SOL    HW132000   6.468   2.047   3.105
10367SOL    HW232001   6.467   2.006   2.947
10368SOL     OW32002   2.895   0.052   1.374
10368SOL    HW132003   2.927   7.000   1.308
10368SOL    HW232004   2.845   0.124   1.326
10369SOL     OW32005   4.432   2.984   0.057
10369SOL    HW132006   4.451   2.928   6.992
10369SOL    HW232007   4.359   3.049   0.037
10370SOL     OW32008   4.008   0.458   5.054
10370SOL    HW132009   3.938   0.392   5.027
10370SOL    HW232010   4.098   0.422   5.029
10371SOL     OW32011   5.025   6.579   5.811
10371SOL    HW132012   5.041   6.532   5.724
10371SOL    HW232013   5.092   6.549   5.879
10372SOL     OW32014   1.189   0.391   3.541
10372SOL    HW132015   1.193   0.454   3.618
10372SOL    HW232016   1.159   0.439   3.459
10373SOL     OW32017   1.561   5.408   5.087
10373SOL    HW132018   1.633   5.412   5.156
10373SOL    HW232019   1.549   5.313   5.056
10374SOL     OW32020   2.906   1.980   4.845
10374SOL    HW132021   2.939   2.068   4.878
10374SOL    HW232022   2.842   1.942   4.912
10375SOL     OW32023   0.316   1.948   0.452
10375SOL    HW132024   0.299   2.032   0.502
10375SOL    HW232025   0.258   1.945   0.370
10376SOL     OW32026   6.555   0.884   3.413
10376SOL    HW132027   6.474   0.943   3.421
10376SOL    HW232028   6.531   0.802   3.363
10377SOL     OW32029   0.483   6.845   4.474
10377SOL    HW132030   0.516   6.924   4.422
10377SOL    HW232031   0.387   6.860   4.499
10378SOL     OW32032   6.414   6.808   5.774
10378SOL    HW132033   6.505   6.774   5.753
10378SOL    HW232034   6.376   6.755   5.850
10379SOL     OW32035   4.949   1.483   4.639
10379SOL    HW132036   5.004   1.406   4.673
10379SOL    HW232037   5.002   1.535   4.573
10380SOL     OW32038   4.609   1.280   3.755
10380SOL    HW132039   4.679   1.255   3.687
10380SOL    HW232040   4.589   1.201   3.813
10381SOL     OW32041   4.377   5.374   5.020
10381SOL    HW132042   4.320   5.325   4.954
10381SOL    HW232043   4.332   5.460   5.046
10382SOL     OW32044   1.477   5.870   0.527
10382SOL    HW132045   1.557   5.930   0.527
10382SOL    HW232046   1.487   5.802   0.600
10383SOL     OW32047   5.474   2.546   0.003
10383SOL    HW132048   5.442   2.621   6.960
10383SOL    HW232049   5.493   2.466   6.961
10384SOL     OW32050   6.161   0.858   6.650
10384SOL    HW132051   6.229   0.794   6.686
10384SOL    HW232052   6.156   0.938   6.710
10385SOL     OW32053   5.826   2.179   6.937
10385SOL    HW132054   5.926   2.171   6.928
10385SOL    HW232055   5.797   2.140   0.008
10386SOL     OW32056   6.553   1.723   6.308
10386SOL    HW132057   6.503   1.779   6.242
10386SOL    HW232058   6.549   1.768   6.398
10387SOL     OW32059   2.232   4.203   2.476
10387SOL    HW132060   2.298   4.269   2.441
10387SOL    HW232061   2.213   4.135   2.405
10388SOL     OW32062   1.638   5.348   2.436
10388SOL    HW132063   1.686   5.394   2.511
10388SOL    HW232064   1.637   5.249   2.452
10389SOL     OW32065   0.642   5.248   3.604
10389SOL    HW132066   0.593   5.248   3.691
10389SOL    HW232067   0.594   5.190   3.538
10390SOL     OW32068   2.062   3.663   3.349
10390SOL    HW132069   2.107   3.717   3.421
10390SOL    HW232070   2.108   3.574   3.341
10391SOL     OW32071   3.597   6.243   4.930
10391SOL    HW132072   3.609   6.338   4.959
10391SOL    HW232073   3.658   6.225   4.852
10392SOL     OW32074   6.715   5.350   6.819
10392SOL    HW132075   6.753   5.310   6.902
10392SOL    HW232076   6.789   5.364   6.752
10393SOL     OW32077   1.035   1.177   3.993
10393SOL    HW132078   0.941   1.161   3.961
10393SOL    HW232079   1.099   1.165   3.917
10394SOL     OW32080   3.249   6.452   0.691
10394SOL    HW132081   3.197   6.532   0.720
10394SOL    HW232082   3.266   6.393   0.769
10395SOL     OW32083   1.361   1.204   4.905
10395SOL    HW132084   1.277   1.200   4.850
10395SOL    HW232085   1.440   1.198   4.845
10396SOL     OW32086   0.995   6.770   4.897
10396SOL    HW132087   0.988   6.714   4.980
10396SOL    HW232088   0.971   6.714   4.818
10397SOL     OW32089   4.181   1.838   2.708
10397SOL    HW132090   4.084   1.818   2.722
10397SOL    HW232091   4.213   1.900   2.781
10398SOL     OW32092   6.831   3.812   2.108
10398SOL    HW132093   6.891   3.802   2.029
10398SOL    HW232094   6.884   3.797   2.192
10399SOL     OW32095   6.139   2.524   5.865
10399SOL    HW132096   6.127   2.457   5.937
10399SOL    HW232097   6.073   2.507   5.792
10400SOL     OW32098   1.331   5.053   2.286
10400SOL    HW132099   1.320   5.115   2.364
10400SOL    HW232100   1.254   5.066   2.222
10401SOL     OW32101   0.600   5.271   0.915
10401SOL    HW132102   0.508   5.293   0.885
10401SOL    HW232103   0.647   5.219   0.844
10402SOL     OW32104   1.091   2.171   4.735
10402SOL    HW132105   1.121   2.115   4.812
10402SOL    HW232106   1.002   2.212   4.756
10403SOL     OW32107   4.554   0.959   2.213
10403SOL    HW132108   4.574   0.862   2.231
10403SOL    HW232109   4.569   0.977   2.116
10404SOL     OW32110   0.012   0.262   4.147
10404SOL    HW132111   0.006   0.204   4.228
10404SOL    HW232112   0.004   0.205   4.065
10405SOL     OW32113   1.842   6.510   6.432
10405SOL    HW132114   1.901   6.434   6.459
10405SOL    HW232115   1.888   6.596   6.449
10406SOL     OW32116   2.089   5.962   5.722
10406SOL    HW132117   2.134   6.030   5.664
10406SOL    HW232118   2.103   5.871   5.682
10407SOL     OW32119   1.923   1.350   6.280
10407SOL    HW132120   1.844   1.317   6.229
10407SOL    HW232121   1.905   1.342   6.378
10408SOL     OW32122   4.171   6.149   3.430
10408SOL    HW132123   4.098   6.100   3.382
10408SOL    HW232124   4.176   6.243   3.397
10409SOL     OW32125   6.624   4.464   2.568
10409SOL    HW132126   6.562   4.434   2.641
10409SOL    HW232127   6.702   4.402   2.563
10410SOL     OW32128   5.659   6.325   0.713
10410SOL    HW132129   5.744   6.284   0.679
10410SOL    HW232130   5.586   6.257   0.711
10411SOL     OW32131   1.457   4.867   2.752
10411SOL    HW132132   1.447   4.890   2.656
10411SOL    HW232133   1.399   4.789   2.774
10412SOL     OW32134   7.008   2.278   6.276
10412SOL    HW132135   0.059   2.208   6.303
10412SOL    HW232136   0.009   2.361   6.328
10413SOL     OW32137   0.569   1.911   5.642
10413SOL    HW132138   0.657   1.943   5.608
10413SOL    HW232139   0.540   1.969   5.719
10414SOL     OW32140   5.700   6.511   4.976
10414SOL    HW132141   5.622   6.528   4.915
10414SOL    HW232142   5.700   6.578   5.050
10415SOL     OW32143   0.190   5.641   3.000
10415SOL    HW132144   0.281   5.632   3.042
10415SOL    HW232145   0.195   5.705   2.923
10416SOL     OW32146   4.917   0.051   0.313
10416SOL    HW132147   4.836   0.029   0.258
10416SOL    HW232148   4.921   0.149   0.328
10417SOL     OW32149   4.162   4.743   4.397
10417SOL    HW132150   4.162   4.763   4.299
10417SOL    HW232151   4.080   4.780   4.439
10418SOL     OW32152   6.088   3.935   6.740
10418SOL    HW132153   6.184   3.961   6.747
10418SOL    HW232154   6.051   3.967   6.653
10419SOL     OW32155   2.031   0.376   4.559
10419SOL    HW132156   2.090   0.442   4.607
10419SOL    HW232157   2.048   0.381   4.461
10420SOL     OW32158   5.856   3.498   4.840
10420SOL    HW132159   5.787   3.427   4.839
10420SOL    HW232160   5.902   3.501   4.751
10421SOL     OW32161   1.459   4.388   4.045
10421SOL    HW132162   1.361   4.399   4.025
10421SOL    HW232163   1.470   4.338   4.130
10422SOL     OW32164   5.766   3.050   5.825
10422SOL    HW132165   5.850   3.001   5.844
10422SOL    HW232166   5.689   3.004   5.870
10423SOL     OW32167   2.827   5.310   3.732
10423SOL    HW132168   2.859   5.397   3.694
10423SOL    HW232169   2.834   5.313   3.832
10424SOL     OW32170   4.181   1.300   1.749
10424SOL    HW132171   4.092   1.301   1.796
10424SOL    HW232172   4.180   1.366   1.674
10425SOL     OW32173   1.530   3.978   0.322
10425SOL    HW132174   1.624   3.948   0.341
10425SOL    HW232175   1.467   3.903   0.336
10426SOL     OW32176   6.002   2.242   6.659
10426SOL    HW132177   6.018   2.315   6.726
10426SOL    HW232178   6.073   2.246   6.588
10427SOL     OW32179   5.802   0.998   3.264
10427SOL    HW132180   5.733   1.036   3.202
10427SOL    HW232181   5.756   0.945   3.335
10428SOL     OW32182   1.474   6.883   4.891
10428SOL    HW132183   1.563   6.838   4.880
10428SOL    HW232184   1.404   6.832   4.842
10429SOL     OW32185   2.154   4.155   1.586
10429SOL    HW132186   2.126   4.177   1.680
10429SOL    HW232187   2.178   4.058   1.580
10430SOL     OW32188   3.860   0.298   4.698
10430SOL    HW132189   3.957   0.294   4.672
10430SOL    HW232190   3.806   0.242   4.636
10431SOL     OW32191   3.998   1.627   4.082
10431SOL    HW132192   4.021   1.706   4.024
10431SOL    HW232193   3.970   1.660   4.172
10432SOL     OW32194   1.327   5.113   0.524
10432SOL    HW132195   1.253   5.109   0.592
10432SOL    HW232196   1.335   5.024   0.479
10433SOL     OW32197   4.163   6.484   3.779
10433SOL    HW132198   4.125   6.393   3.789
10433SOL    HW232199   4.155   6.534   3.865
10434SOL     OW32200   4.275   1.207   6.688
10434SOL    HW132201   4.259   1.156   6.603
10434SOL    HW232202   4.311   1.145   6.757
10435SOL     OW32203   2.327   1.497   1.490
10435SOL    HW132204   2.425   1.511   1.480
10435SOL    HW232205   2.299   1.416   1.438
10436SOL     OW32206   1.216   3.596   4.655
10436SOL    HW132207   1.186   3.518   4.711
10436SOL    HW232208   1.224   3.677   4.712
10437SOL     OW32209   6.970   6.120   5.022
10437SOL    HW132210   0.003   6.034   5.042
10437SOL    HW232211   6.915   6.108   4.939
10438SOL     OW32212   6.992   5.969   6.511
10438SOL    HW132213   6.897   5.935   6.510
10438SOL    HW232214   0.036   5.899   6.548
10439SOL     OW32215   6.178   5.678   4.668
10439SOL    HW132216   6.230   5.675   4.754
10439SOL    HW232217   6.226   5.735   4.602
10440SOL     OW32218   6.110   2.717   1.104
10440SOL    HW132219   6.031   2.738   1.161
10440SOL    HW232220   6.160   2.801   1.083
10441SOL     OW32221   4.523   2.280   6.932
10441SOL    HW132222   4.534   2.220   7.011
10441SOL    HW232223   4.426   2.297   6.916
10442SOL     OW32224   3.009   1.519   5.048
10442SOL    HW132225   2.959   1.468   4.978
10442SOL    HW232226   2.960   1.513   5.135
10443SOL     OW32227   0.554   0.479   0.381
10443SOL    HW132228   0.476   0.540   0.394
10443SOL    HW232229   0.547   0.402   0.445
10444SOL     OW32230   4.525   4.825   3.731
10444SOL    HW132231   4.569   4.826   3.821
10444SOL    HW232232   4.491   4.733   3.712
10445SOL     OW32233   0.936   3.305   3.687
10445SOL    HW132234   0.841   3.286   3.663
10445SOL    HW232235   0.940   3.381   3.752
10446SOL     OW32236   2.331   4.832   5.098
10446SOL    HW132237   2.366   4.913   5.051
10446SOL    HW232238   2.289   4.771   5.031
10447SOL     OW32239   0.983   2.076   2.894
10447SOL    HW132240   0.920   2.041   2.963
10447SOL    HW232241   0.931   2.121   2.821
10448SOL     OW32242   1.368   6.104   2.246
10448SOL    HW132243   1.440   6.146   2.191
10448SOL    HW232244   1.392   6.009   2.265
10449SOL     OW32245   3.874   4.916   4.611
10449SOL    HW132246   3.784   4.930   4.653
10449SOL    HW232247   3.864   4.903   4.513
10450SOL     OW32248   0.588   2.268   4.191
10450SOL    HW132249   0.494   2.303   4.197
10450SOL    HW232250   0.591   2.194   4.124
10451SOL     OW32251   3.257   2.090   3.758
10451SOL    HW132252   3.297   2.003   3.786
10451SOL    HW232253   3.298   2.120   3.672
10452SOL     OW32254   6.993   2.996   4.635
10452SOL    HW132255   6.916   3.057   4.654
10452SOL    HW232256   0.044   3.002   4.709
10453SOL     OW32257   4.219   5.758   4.134
10453SOL    HW132258   4.189   5.808   4.215
10453SOL    HW232259   4.273   5.679   4.162
10454SOL     OW32260   6.700   0.949   6.944
10454SOL    HW132261   6.684   1.028   7.003
10454SOL    HW232262   6.704   0.979   6.849
10455SOL     OW32263   0.645   6.231   2.624
10455SOL    HW132264   0.668   6.176   2.544
10455SOL    HW232265   0.558   6.278   2.608
10456SOL     OW32266   1.312   5.547   5.793
10456SOL    HW132267   1.341   5.581   5.882
10456SOL    HW232268   1.375   5.476   5.762
10457SOL     OW32269   4.194   1.700   0.067
10457SOL    HW132270   4.168   1.609   0.096
10457SOL    HW232271   4.123   1.738   0.007
10458SOL     OW32272   1.476   6.455   6.764
10458SOL    HW132273   1.481   6.534   6.825
10458SOL    HW232274   1.412   6.474   6.689
10459SOL     OW32275   6.082   5.641   1.205
10459SOL    HW132276   5.988   5.646   1.238
10459SOL    HW232277   6.140   5.702   1.260
10460SOL     OW32278   6.152   0.360   0.169
10460SOL    HW132279   6.120   0.407   0.251
10460SOL    HW232280   6.227   0.413   0.128
10461SOL     OW32281   6.737   4.094   6.298
10461SOL    HW132282   6.694   4.158   6.362
10461SOL    HW232283   6.782   4.021   6.350
10462SOL     OW32284   3.028   3.727   6.508
10462SOL    HW132285   2.982   3.676   6.436
10462SOL    HW232286   3.095   3.790   6.468
10463SOL     OW32287   4.893   2.726   6.472
10463SOL    HW132288   4.962   2.721   6.400
10463SOL    HW232289   4.902   2.647   6.532
10464SOL     OW32290   6.175   4.585   1.713
10464SOL    HW132291   6.152   4.518   1.642
10464SOL    HW232292   6.225   4.661   1.673
10465SOL     OW32293   5.635   4.413   1.350
10465SOL    HW132294   5.709   4.473   1.381
10465SOL    HW232295   5.664   4.317   1.358
10466SOL     OW32296   5.785   3.557   5.741
10466SOL    HW132297   5.771   3.627   5.671
10466SOL    HW232298   5.797   3.601   5.830
10467SOL     OW32299   0.156   2.467   6.671
10467SOL    HW132300   0.218   2.544   6.654
10467SOL    HW232301   0.205   2.395   6.720
10468SOL     OW32302   1.452   4.261   4.285
10468SOL    HW132303   1.376   4.200   4.308
10468SOL    HW232304   1.468   4.324   4.360
10469SOL     OW32305   1.048   1.597   4.045
10469SOL    HW132306   0.960   1.564   4.079
10469SOL    HW232307   1.070   1.683   4.090
10470SOL     OW32308   2.205   4.083   2.049
10470SOL    HW132309   2.166   4.162   2.096
10470SOL    HW232310   2.275   4.114   1.984
10471SOL     OW32311   2.282   5.312   6.539
10471SOL    HW132312   2.187   5.340   6.545
10471SOL    HW232313   2.292   5.241   6.470
10472SOL     OW32314   3.872   5.630   5.920
10472SOL    HW132315   3.905   5.718   5.887
10472SOL    HW232316   3.775   5.637   5.943
10473SOL     OW32317   6.206   4.680   0.218
10473SOL    HW132318   6.141   4.674   0.294
10473SOL    HW232319   6.164   4.642   0.135
10474SOL     OW32320   6.359   6.565   5.023
10474SOL    HW132321   6.382   6.643   5.081
10474SOL    HW232322   6.371   6.590   4.927
10475SOL     OW32323   0.492   5.145   1.403
10475SOL    HW132324   0.394   5.155   1.419
10475SOL    HW232325   0.538   5.122   1.489
10476SOL     OW32326   5.073   6.433   1.014
10476SOL    HW132327   4.982   6.471   1.032
10476SOL    HW232328   5.137   6.507   0.991
10477SOL     OW32329   0.013   5.690   3.673
10477SOL    HW132330   0.050   5.782   3.658
10477SOL    HW232331   0.080   5.634   3.722
10478SOL     OW32332   0.049   0.834   6.398
10478SOL    HW132333   6.989   0.788   6.445
10478SOL    HW232334   0.129   0.775   6.397
10479SOL     OW32335   0.700   3.495   1.994
10479SOL    HW132336   0.697   3.455   1.902
10479SOL    HW232337   0.760   3.575   1.993
10480SOL     OW32338   2.638   0.845   2.861
10480SOL    HW132339   2.609   0.890   2.945
10480SOL    HW232340   2.573   0.865   2.788
10481SOL     OW32341   6.814   1.460   1.527
10481SOL    HW132342   6.843   1.539   1.472
10481SOL    HW232343   6.890   1.429   1.583
10482SOL     OW32344   5.514   3.053   3.984
10482SOL    HW132345   5.415   3.063   3.995
10482SOL    HW232346   5.538   2.956   3.986
10483SOL     OW32347   5.775   0.131   0.152
10483SOL    HW132348   5.749   0.151   0.057
10483SOL    HW232349   5.764   0.214   0.207
10484SOL     OW32350   6.856   0.839   1.913
10484SOL    HW132351   6.950   0.865   1.936
10484SOL    HW232352   6.793   0.888   1.973
10485SOL     OW32353   5.398   3.385   4.863
10485SOL    HW132354   5.426   3.290   4.852
10485SOL    HW232355   5.316   3.403   4.809
10486SOL     OW32356   5.249   2.605   2.821
10486SOL    HW132357   5.336   2.558   2.837
10486SOL    HW232358   5.189   2.546   2.767
10487SOL     OW32359   4.516   6.828   2.522
10487SOL    HW132360   4.546   6.923   2.530
10487SOL    HW232361   4.463   6.802   2.603
10488SOL     OW32362   3.818   4.025   6.985
10488SOL    HW132363   3.747   4.025   0.040
10488SOL    HW232364   3.872   3.941   6.993
10489SOL     OW32365   2.032   5.247   5.282
10489SOL    HW132366   2.130   5.266   5.290
10489SOL    HW232367   2.018   5.158   5.239
10490SOL     OW32368   6.104   0.325   4.123
10490SOL    HW132369   6.060   0.294   4.038
10490SOL    HW232370   6.177   0.261   4.147
10491SOL     OW32371   0.259   4.608   5.146
10491SOL    HW132372   0.185   4.557   5.191
10491SOL    HW232373   0.219   4.678   5.087
10492SOL     OW32374   3.862   4.497   5.957
10492SOL    HW132375   3.895   4.404   5.937
10492SOL    HW232376   3.778   4.514   5.906
10493SOL     OW32377   3.327   1.717   0.879
10493SOL    HW132378   3.395   1.751   0.943
10493SOL    HW232379   3.348   1.622   0.856
10494SOL     OW32380   5.495   1.952   5.624
10494SOL    HW132381   5.458   1.933   5.715
10494SOL    HW232382   5.592   1.927   5.621
10495SOL     OW32383   1.276   0.065   6.646
10495SOL    HW132384   1.333   0.067   6.565
10495SOL    HW232385   1.290   0.148   6.700
10496SOL     OW32386   6.192   0.395   5.302
10496SOL    HW132387   6.220   0.471   5.360
10496SOL    HW232388   6.122   0.426   5.238
10497SOL     OW32389   1.408   1.837   6.789
10497SOL    HW132390   1.382   1.801   6.699
10497SOL    HW232391   1.327   1.869   6.837
10498SOL     OW32392   2.855   4.399   6.069
10498SOL    HW132393   2.847   4.499   6.075
10498SOL    HW232394   2.828   4.370   5.977
10499SOL     OW32395   3.145   5.701   3.214
10499SOL    HW132396   3.110   5.660   3.130
10499SOL    HW232397   3.216   5.767   3.191
10500SOL     OW32398   1.961   2.161   6.550
10500SOL    HW132399   2.031   2.102   6.511
10500SOL    HW232400   1.893   2.184   6.480
10501SOL     OW32401   0.920   3.183   3.229
10501SOL    HW132402   0.880   3.212   3.316
10501SOL    HW232403   0.950   3.263   3.177
10502SOL     OW32404   3.296   5.460   5.148
10502SOL    HW132405   3.273   5.549   5.187
10502SOL    HW232406   3.388   5.433   5.177
10503SOL     OW32407   2.778   3.217   5.559
10503SOL    HW132408   2.762   3.226   5.461
10503SOL    HW232409   2.860   3.268   5.584
10504SOL     OW32410   2.210   3.238   1.470
10504SOL    HW132411   2.199   3.267   1.565
10504SOL    HW232412   2.121   3.217   1.430
10505SOL     OW32413   6.950   6.973   1.269
10505SOL    HW132414   6.949   6.977   1.169
10505SOL    HW232415   6.921   6.882   1.300
10506SOL     OW32416   0.429   3.931   5.195
10506SOL    HW132417   0.413   4.016   5.143
10506SOL    HW232418   0.341   3.886   5.212
10507SOL     OW32419   1.857   0.372   3.614
10507SOL    HW132420   1.933   0.350   3.552
10507SOL    HW232421   1.794   0.435   3.568
10508SOL     OW32422   5.291   3.878   2.589
10508SOL    HW132423   5.214   3.912   2.536
10508SOL    HW232424   5.270   3.787   2.625
10509SOL     OW32425   2.135   0.747   6.062
10509SOL    HW132426   2.205   0.684   6.095
10509SOL    HW232427   2.161   0.841   6.083
10510SOL     OW32428   6.165   6.575   6.816
10510SOL    HW132429   6.090   6.528   6.769
10510SOL    HW232430   6.251   6.559   6.767
10511SOL     OW32431   0.564   1.906   0.549
10511SOL    HW132432   0.477   1.932   0.507
10511SOL    HW232433   0.630   1.981   0.540
10512SOL     OW32434   3.259   0.031   6.481
10512SOL    HW132435   3.280   7.015   6.573
10512SOL    HW232436   3.229   6.970   6.425
10513SOL     OW32437   0.110   2.003   0.178
10513SOL    HW132438   0.203   2.004   0.139
10513SOL    HW232439   0.070   2.094   0.170
10514SOL     OW32440   6.919   2.928   1.540
10514SOL    HW132441   6.965   2.841   1.518
10514SOL    HW232442   6.911   2.937   1.639
10515SOL     OW32443   6.196   2.910   4.804
10515SOL    HW132444   6.162   2.999   4.833
10515SOL    HW232445   6.266   2.923   4.733
10516SOL     OW32446   3.109   6.683   0.715
10516SOL    HW132447   3.029   6.709   0.662
10516SOL    HW232448   3.167   6.763   0.730
10517SOL     OW32449   0.077   2.151   3.061
10517SOL    HW132450   0.119   2.061   3.051
10517SOL    HW232451   6.999   2.148   3.027
10518SOL     OW32452   0.489   6.580   2.873
10518SOL    HW132453   0.545   6.611   2.796
10518SOL    HW232454   0.538   6.510   2.924
10519SOL     OW32455   3.374   3.972   5.310
10519SOL    HW132456   3.406   3.878   5.300
10519SOL    HW232457   3.439   4.024   5.365
10520SOL     OW32458   3.330   4.725   6.341
10520SOL    HW132459   3.369   4.692   6.427
10520SOL    HW232460   3.278   4.652   6.297
10521SOL     OW32461   6.015   5.256   2.053
10521SOL    HW132462   5.940   5.262   2.119
10521SOL    HW232463   5.977   5.233   1.963
10522SOL     OW32464   6.543   0.168   2.187
10522SOL    HW132465   6.604   0.243   2.161
10522SOL    HW232466   6.452   0.205   2.207
10523SOL     OW32467   0.025   5.720   6.002
10523SOL    HW132468   0.035   5.653   5.929
10523SOL    HW232469   0.088   5.697   6.077
10524SOL     OW32470   4.720   0.472   4.657
10524SOL    HW132471   4.803   0.528   4.656
10524SOL    HW232472   4.639   0.532   4.655
10525SOL     OW32473   2.996   6.389   4.935
10525SOL    HW132474   2.905   6.425   4.956
10525SOL    HW232475   3.048   6.459   4.886
10526SOL     OW32476   5.373   0.035   2.384
10526SOL    HW132477   5.367   0.006   2.288
10526SOL    HW232478   5.313   0.114   2.398
10527SOL     OW32479   1.615   2.780   4.628
10527SOL    HW132480   1.582   2.695   4.587
10527SOL    HW232481   1.644   2.843   4.557
10528SOL     OW32482   6.310   4.963   5.635
10528SOL    HW132483   6.265   5.047   5.605
10528SOL    HW232484   6.400   4.986   5.674
10529SOL     OW32485   0.200   5.877   4.652
10529SOL    HW132486   0.162   5.908   4.565
10529SOL    HW232487   0.252   5.951   4.694
10530SOL     OW32488   1.947   1.810   5.304
10530SOL    HW132489   1.936   1.902   5.265
10530SOL    HW232490   1.972   1.746   5.232
10531SOL     OW32491   1.475   2.133   5.579
10531SOL    HW132492   1.489   2.045   5.624
10531SOL    HW232493   1.563   2.169   5.548
10532SOL     OW32494   3.331   3.034   5.079
10532SOL    HW132495   3.370   3.114   5.125
10532SOL    HW232496   3.272   3.064   5.005
10533SOL     OW32497   2.705   1.141   6.559
10533SOL    HW132498   2.773   1.109   6.625
10533SOL    HW232499   2.665   1.227   6.591
10534SOL     OW32500   5.446   5.563   1.045
10534SOL    HW132501   5.455   5.557   1.144
10534SOL    HW232502   5.411   5.654   1.020
10535SOL     OW32503   0.353   1.370   1.935
10535SOL    HW132504   0.299   1.421   2.002
10535SOL    HW232505   0.403   1.297   1.982
10536SOL     OW32506   5.396   5.820   3.716
10536SOL    HW132507   5.334   5.848   3.789
10536SOL    HW232508   5.343   5.789   3.637
10537SOL     OW32509   6.836   5.690   0.921
10537SOL    HW132510   6.828   5.698   0.821
10537SOL    HW232511   6.786   5.764   0.965
10538SOL     OW32512   4.114   4.430   6.944
10538SOL    HW132513   4.078   4.408   0.019
10538SOL    HW232514   4.136   4.345   6.896
10539SOL     OW32515   0.890   3.682   5.197
10539SOL    HW132516   0.988   3.703   5.193
10539SOL    HW232517   0.870   3.636   5.283
10540SOL     OW32518   2.907   0.671   0.555
10540SOL    HW132519   3.004   0.666   0.578
10540SOL    HW232520   2.853   0.660   0.638
10541SOL     OW32521   4.269   2.231   0.606
10541SOL    HW132522   4.253   2.281   0.521
10541SOL    HW232523   4.269   2.296   0.683
10542SOL     OW32524   1.097   2.215   0.306
10542SOL    HW132525   1.164   2.140   0.307
10542SOL    HW232526   1.051   2.219   0.394
10543SOL     OW32527   2.979   0.737   4.995
10543SOL    HW132528   3.057   0.796   5.016
10543SOL    HW232529   2.947   0.693   5.079
10544SOL     OW32530   6.833   2.361   1.619
10544SOL    HW132531   6.806   2.358   1.523
10544SOL    HW232532   6.833   2.268   1.656
10545SOL     OW32533   4.995   0.975   3.203
10545SOL    HW132534   5.006   0.897   3.141
10545SOL    HW232535   5.084   1.018   3.218
10546SOL     OW32536   3.952   1.438   5.400
10546SOL    HW132537   3.963   1.537   5.414
10546SOL    HW232538   3.876   1.405   5.455
10547SOL     OW32539   4.516   0.070   1.445
10547SOL    HW132540   4.421   0.046   1.423
10547SOL    HW232541   4.553   0.003   1.509
10548SOL     OW32542   4.127   4.819   5.512
10548SOL    HW132543   4.222   4.785   5.512
10548SOL    HW232544   4.078   4.780   5.591
10549SOL     OW32545   1.511   1.599   1.729
10549SOL    HW132546   1.511   1.575   1.826
10549SOL    HW232547   1.494   1.697   1.719
10550SOL     OW32548   5.292   6.920   4.566
10550SOL    HW132549   5.240   6.990   4.517
10550SOL    HW232550   5.371   6.893   4.510
10551SOL     OW32551   1.457   2.818   6.338
10551SOL    HW132552   1.512   2.772   6.407
10551SOL    HW232553   1.459   2.765   6.253
10552SOL     OW32554   3.200   2.148   4.736
10552SOL    HW132555   3.184   2.192   4.825
10552SOL    HW232556   3.233   2.055   4.752
10553SOL     OW32557   3.019   5.274   5.965
10553SOL    HW132558   3.116   5.269   5.990
10553SOL    HW232559   2.967   5.319   6.038
10554SOL     OW32560   6.318   4.103   5.998
10554SOL    HW132561   6.263   4.044   6.057
10554SOL    HW232562   6.410   4.110   6.036
10555SOL     OW32563   3.597   2.817   1.013
10555SOL    HW132564   3.626   2.851   1.102
10555SOL    HW232565   3.633   2.725   0.999
10556SOL     OW32566   1.182   3.450   3.895
10556SOL    HW132567   1.222   3.445   3.804
10556SOL    HW232568   1.090   3.489   3.888
10557SOL     OW32569   5.657   1.340   3.357
10557SOL    HW132570   5.686   1.430   3.389
10557SOL    HW232571   5.627   1.347   3.262
10558SOL     OW32572   5.396   5.510   4.942
10558SOL    HW132573   5.358   5.503   4.850
10558SOL    HW232574   5.323   5.533   5.007
10559SOL     OW32575   4.754   2.732   1.076
10559SOL    HW132576   4.811   2.687   1.145
10559SOL    HW232577   4.803   2.736   0.989
10560SOL     OW32578   0.108   3.108   4.113
10560SOL    HW132579   0.130   3.014   4.089
10560SOL    HW232580   0.170   3.140   4.184
10561SOL     OW32581   2.789   4.091   6.171
10561SOL    HW132582   2.811   4.187   6.156
10561SOL    HW232583   2.870   4.035   6.157
10562SOL     OW32584   2.987   1.727   0.354
10562SOL    HW132585   2.946   1.765   0.437
10562SOL    HW232586   3.056   1.790   0.319
10563SOL     OW32587   1.376   1.970   3.354
10563SOL    HW132588   1.465   1.957   3.310
10563SOL    HW232589   1.345   2.064   3.342
10564SOL     OW32590   6.921   2.325   2.074
10564SOL    HW132591   6.933   2.253   2.142
10564SOL    HW232592   6.898   2.285   1.986
10565SOL     OW32593   5.274   1.403   4.805
10565SOL    HW132594   5.326   1.348   4.870
10565SOL    HW232595   5.219   1.342   4.747
10566SOL     OW32596   4.163   5.584   6.985
10566SOL    HW132597   4.095   5.635   0.021
10566SOL    HW232598   4.253   5.595   0.013
10567SOL     OW32599   2.045   5.312   4.127
10567SOL    HW132600   2.145   5.308   4.121
10567SOL    HW232601   2.005   5.263   4.049
10568SOL     OW32602   3.833   1.861   2.654
10568SOL    HW132603   3.741   1.857   2.614
10568SOL    HW232604   3.892   1.794   2.609
10569SOL     OW32605   6.315   3.021   3.380
10569SOL    HW132606   6.248   3.095   3.390
10569SOL    HW232607   6.395   3.042   3.437
10570SOL     OW32608   1.265   4.130   1.667
10570SOL    HW132609   1.168   4.106   1.668
10570SOL    HW232610   1.313   4.070   1.604
10571SOL     OW32611   6.344   6.642   4.766
10571SOL    HW132612   6.401   6.691   4.700
10571SOL    HW232613   6.254   6.686   4.772
10572SOL     OW32614   6.459   3.201   1.677
10572SOL    HW132615   6.448   3.103   1.661
10572SOL    HW232616   6.556   3.221   1.695
10573SOL     OW32617   6.497   4.644   6.205
10573SOL    HW132618   6.453   4.561   6.171
10573SOL    HW232619   6.466   4.663   6.299
10574SOL     OW32620   0.389   2.008   3.539
10574SOL    HW132621   0.435   1.927   3.578
10574SOL    HW232622   0.429   2.029   3.450
10575SOL     OW32623   1.197   6.748   5.871
10575SOL    HW132624   1.157   6.839   5.877
10575SOL    HW232625   1.232   6.733   5.778
10576SOL     OW32626   1.262   5.274   3.379
10576SOL    HW132627   1.326   5.350   3.387
10576SOL    HW232628   1.231   5.247   3.471
10577SOL     OW32629   0.189   2.825   5.812
10577SOL    HW132630   0.222   2.755   5.749
10577SOL    HW232631   0.232   2.913   5.790
10578SOL     OW32632   5.444   0.861   5.415
10578SOL    HW132633   5.475   0.769   5.442
10578SOL    HW232634   5.447   0.921   5.494
10579SOL     OW32635   4.783   0.125   0.987
10579SOL    HW132636   4.750   0.041   0.944
10579SOL    HW232637   4.883   0.125   0.985
10580SOL     OW32638   6.966   6.119   0.307
10580SOL    HW132639   6.879   6.076   0.284
10580SOL    HW232640   7.009   6.068   0.381
10581SOL     OW32641   4.766   2.240   4.081
10581SOL    HW132642   4.740   2.336   4.079
10581SOL    HW232643   4.683   2.183   4.072
10582SOL     OW32644   3.556   4.814   0.015
10582SOL    HW132645   3.521   4.831   6.939
10582SOL    HW232646   3.624   4.741   0.012
10583SOL     OW32647   4.365   1.012   1.956
10583SOL    HW132648   4.453   0.966   1.945
10583SOL    HW232649   4.360   1.090   1.893
10584SOL     OW32650   6.030   0.342   1.010
10584SOL    HW132651   6.056   0.415   1.072
10584SOL    HW232652   6.110   0.289   0.984
10585SOL     OW32653   2.497   4.728   6.333
10585SOL    HW132654   2.587   4.744   6.375
10585SOL    HW232655   2.504   4.743   6.234
10586SOL     OW32656   4.797   1.431   0.701
10586SOL    HW132657   4.845   1.474   0.625
10586SOL    HW232658   4.741   1.499   0.749
10587SOL     OW32659   6.288   2.965   0.207
10587SOL    HW132660   6.373   3.018   0.196
10587SOL    HW232661   6.274   2.946   0.304
10588SOL     OW32662   1.385   5.080   3.222
10588SOL    HW132663   1.457   5.124   3.169
10588SOL    HW232664   1.346   5.146   3.287
10589SOL     OW32665   6.082   1.345   4.337
10589SOL    HW132666   6.124   1.255   4.348
10589SOL    HW232667   5.993   1.335   4.293
10590SOL     OW32668   1.427   0.832   4.689
10590SOL    HW132669   1.376   0.747   4.674
10590SOL    HW232670   1.432   0.851   4.787
10591SOL     OW32671   2.163   2.417   0.669
10591SOL    HW132672   2.177   2.348   0.740
10591SOL    HW232673   2.068   2.417   0.640
10592SOL     OW32674   6.277   1.454   6.540
10592SOL    HW132675   6.202   1.389   6.530
10592SOL    HW232676   6.246   1.545   6.512
10593SOL     OW32677   1.181   5.080   1.964
10593SOL    HW132678   1.243   5.139   2.016
10593SOL    HW232679   1.144   5.131   1.887
10594SOL     OW32680   0.822   1.541   4.359
10594SOL    HW132681   0.813   1.546   4.259
10594SOL    HW232682   0.848   1.631   4.394
10595SOL     OW32683   2.718   5.523   5.199
10595SOL    HW132684   2.629   5.563   5.221
10595SOL    HW232685   2.760   5.488   5.283
10596SOL     OW32686   3.155   1.150   2.139
10596SOL    HW132687   3.134   1.082   2.209
10596SOL    HW232688   3.227   1.116   2.079
10597SOL     OW32689   2.121   0.673   3.491
10597SOL    HW132690   2.141   0.629   3.578
10597SOL    HW232691   2.022   0.683   3.480
10598SOL     OW32692   2.118   1.033   0.275
10598SOL    HW132693   2.199   1.090   0.287
10598SOL    HW232694   2.071   1.023   0.363
10599SOL     OW32695   5.095   0.479   6.702
10599SOL    HW132696   4.996   0.491   6.717
10599SOL    HW232697   5.125   0.536   6.626
10600SOL     OW32698   1.698   2.210   5.451
10600SOL    HW132699   1.693   2.286   5.386
10600SOL    HW232700   1.790   2.173   5.453
10601SOL     OW32701   3.713   6.161   5.397
10601SOL    HW132702   3.737   6.082   5.453
10601SOL    HW232703   3.627   6.145   5.350
10602SOL     OW32704   4.661   0.784   1.028
10602SOL    HW132705   4.676   0.882   1.044
10602SOL    HW232706   4.604   0.746   1.101
10603SOL     OW32707   0.743   5.437   4.972
10603SOL    HW132708   0.756   5.346   4.930
10603SOL    HW232709   0.649   5.467   4.957
10604SOL     OW32710   6.883   4.067   5.670
10604SOL    HW132711   6.974   4.108   5.679
10604SOL    HW232712   6.870   4.036   5.576
10605SOL     OW32713   1.988   5.238   6.229
10605SOL    HW132714   1.909   5.177   6.242
10605SOL    HW232715   1.979   5.285   6.141
10606SOL     OW32716   0.637   0.758   2.668
10606SOL    HW132717   0.704   0.786   2.600
10606SOL    HW232718   0.635   0.825   2.742
10607SOL     OW32719   5.904   4.783   6.615
10607SOL    HW132720   5.816   4.765   6.658
10607SOL    HW232721   5.909   4.879   6.587
10608SOL     OW32722   5.767   0.551   2.970
10608SOL    HW132723   5.818   0.468   2.994
10608SOL    HW232724   5.791   0.624   3.034
10609SOL     OW32725   3.634   6.629   2.944
10609SOL    HW132726   3.677   6.685   2.873
10609SOL    HW232727   3.559   6.680   2.987
10610SOL     OW32728   2.011   4.400   4.346
10610SOL    HW132729   1.978   4.488   4.312
10610SOL    HW232730   2.066   4.415   4.428
10611SOL     OW32731   4.846   2.445   6.193
10611SOL    HW132732   4.749   2.450   6.168
10611SOL    HW232733   4.854   2.417   6.288
10612SOL     OW32734   1.831   0.142   1.288
10612SOL    HW132735   1.924   0.104   1.286
10612SOL    HW232736   1.765   0.068   1.273
10613SOL     OW32737   0.432   6.864   6.330
10613SOL    HW132738   0.420   6.942   6.391
10613SOL    HW232739   0.384   6.785   6.367
10614SOL     OW32740   6.754   0.706   3.552
10614SOL    HW132741   6.746   0.787   3.493
10614SOL    HW232742   6.664   0.665   3.565
10615SOL     OW32743   6.808   5.972   5.604
10615SOL    HW132744   6.782   5.929   5.690
10615SOL    HW232745   6.730   5.973   5.542
10616SOL     OW32746   2.308   5.928   0.742
10616SOL    HW132747   2.317   5.893   0.835
10616SOL    HW232748   2.383   5.990   0.722
10617SOL     OW32749   0.087   1.685   6.653
10617SOL    HW132750   0.084   1.655   6.749
10617SOL    HW232751   7.010   1.700   6.620
10618SOL     OW32752   6.726   3.679   1.068
10618SOL    HW132753   6.741   3.585   1.036
10618SOL    HW232754   6.753   3.686   1.164
10619SOL     OW32755   0.676   4.102   3.170
10619SOL    HW132756   0.666   4.034   3.098
10619SOL    HW232757   0.762   4.086   3.220
10620SOL     OW32758   1.178   5.100   4.089
10620SOL    HW132759   1.264   5.151   4.088
10620SOL    HW232760   1.114   5.141   4.024
10621SOL     OW32761   2.980   6.282   0.807
10621SOL    HW132762   2.954   6.186   0.815
10621SOL    HW232763   3.066   6.298   0.856
10622SOL     OW32764   4.542   1.939   1.012
10622SOL    HW132765   4.454   1.924   0.966
10622SOL    HW232766   4.528   1.944   1.111
10623SOL     OW32767   6.911   1.013   4.283
10623SOL    HW132768   6.851   1.051   4.213
10623SOL    HW232769   6.875   1.034   4.374
10624SOL     OW32770   3.027   1.196   4.183
10624SOL    HW132771   3.072   1.213   4.095
10624SOL    HW232772   2.999   1.100   4.188
10625SOL     OW32773   0.889   2.826   0.242
10625SOL    HW132774   0.914   2.849   0.148
10625SOL    HW232775   0.794   2.855   0.259
10626SOL     OW32776   5.724   1.739   1.993
10626SOL    HW132777   5.653   1.736   1.923
10626SOL    HW232778   5.803   1.789   1.957
10627SOL     OW32779   6.023   6.032   4.278
10627SOL    HW132780   5.994   6.002   4.369
10627SOL    HW232781   6.106   6.087   4.287
10628SOL     OW32782   6.984   5.327   5.713
10628SOL    HW132783   6.997   5.332   5.812
10628SOL    HW232784   0.053   5.299   5.669
10629SOL     OW32785   2.405   4.873   6.790
10629SOL    HW132786   2.341   4.912   6.725
10629SOL    HW232787   2.454   4.946   6.838
10630SOL     OW32788   6.519   0.818   2.262
10630SOL    HW132789   6.468   0.858   2.338
10630SOL    HW232790   6.515   0.718   2.268
10631SOL     OW32791   1.117   6.549   5.037
10631SOL    HW132792   1.118   6.480   4.965
10631SOL    HW232793   1.194   6.611   5.025
10632SOL     OW32794   0.183   2.945   6.115
10632SOL    HW132795   0.183   3.007   6.037
10632SOL    HW232796   0.118   2.870   6.099
10633SOL     OW32797   0.546   4.875   0.674
10633SOL    HW132798   0.461   4.926   0.686
10633SOL    HW232799   0.598   4.877   0.759
10634SOL     OW32800   3.988   6.504   2.556
10634SOL    HW132801   3.903   6.555   2.569
10634SOL    HW232802   3.968   6.418   2.509
10635SOL     OW32803   1.402   1.069   1.669
10635SOL    HW132804   1.324   1.011   1.646
10635SOL    HW232805   1.476   1.053   1.603
10636SOL     OW32806   5.397   1.450   0.833
10636SOL    HW132807   5.412   1.547   0.850
10636SOL    HW232808   5.471   1.397   0.874
10637SOL     OW32809   2.809   4.310   5.809
10637SOL    HW132810   2.843   4.379   5.746
10637SOL    HW232811   2.861   4.226   5.798
10638SOL     OW32812   6.699   6.867   6.001
10638SOL    HW132813   6.775   6.855   5.938
10638SOL    HW232814   6.696   6.963   6.031
10639SOL     OW32815   3.677   2.145   4.828
10639SOL    HW132816   3.634   2.106   4.909
10639SOL    HW232817   3.709   2.237   4.847
10640SOL     OW32818   4.370   6.133   1.254
10640SOL    HW132819   4.279   6.174   1.258
10640SOL    HW232820   4.430   6.189   1.197
10641SOL     OW32821   3.730   0.911   6.346
10641SOL    HW132822   3.655   0.881   6.287
10641SOL    HW232823   3.698   0.985   6.406
10642SOL     OW32824   0.106   4.761   0.034
10642SOL    HW132825   0.080   4.744   0.130
10642SOL    HW232826   0.075   4.684   6.994
10643SOL     OW32827   3.912   3.514   5.601
10643SOL    HW132828   3.952   3.431   5.638
10643SOL    HW232829   3.952   3.535   5.512
10644SOL     OW32830   3.862   1.324   4.882
10644SOL    HW132831   3.795   1.383   4.837
10644SOL    HW232832   3.947   1.375   4.894
10645SOL     OW32833   2.393   0.151   4.933
10645SOL    HW132834   2.298   0.131   4.908
10645SOL    HW232835   2.397   0.175   5.030
10646SOL     OW32836   1.157   4.546   6.583
10646SOL    HW132837   1.062   4.514   6.584
10646SOL    HW232838   1.182   4.573   6.490
10647SOL     OW32839   0.218   6.142   1.102
10647SOL    HW132840   0.159   6.127   1.182
10647SOL    HW232841   0.253   6.054   1.070
10648SOL     OW32842   4.837   5.255   6.711
10648SOL    HW132843   4.764   5.312   6.749
10648SOL    HW232844   4.857   5.180   6.773
10649SOL     OW32845   0.085   3.925   5.913
10649SOL    HW132846   0.149   3.998   5.939
10649SOL    HW232847   0.009   3.922   5.977
10650SOL     OW32848   3.186   0.913   5.262
10650SOL    HW132849   3.108   0.852   5.263
10650SOL    HW232850   3.219   0.928   5.355
10651SOL     OW32851   2.672   0.683   5.311
10651SOL    HW132852   2.685   0.705   5.407
10651SOL    HW232853   2.665   0.768   5.258
10652SOL     OW32854   3.771   1.597   0.625
10652SOL    HW132855   3.739   1.578   0.718
10652SOL    HW232856   3.692   1.616   0.566
10653SOL     OW32857   6.001   3.639   4.277
10653SOL    HW132858   6.066   3.655   4.203
10653SOL    HW232859   5.940   3.563   4.252
10654SOL     OW32860   4.485   0.716   1.879
10654SOL    HW132861   4.476   0.617   1.892
10654SOL    HW232862   4.405   0.751   1.830
10655SOL     OW32863   2.182   5.415   1.431
10655SOL    HW132864   2.265   5.359   1.437
10655SOL    HW232865   2.145   5.429   1.523
10656SOL     OW32866   6.399   2.430   6.861
10656SOL    HW132867   6.456   2.425   6.944
10656SOL    HW232868   6.400   2.523   6.826
10657SOL     OW32869   6.414   0.428   1.482
10657SOL    HW132870   6.411   0.329   1.469
10657SOL    HW232871   6.492   0.452   1.541
10658SOL     OW32872   0.147   6.520   4.445
10658SOL    HW132873   0.146   6.523   4.345
10658SOL    HW232874   0.128   6.611   4.481
10659SOL     OW32875   5.015   0.722   0.554
10659SOL    HW132876   4.962   0.778   0.617
10659SOL    HW232877   5.093   0.683   0.601
10660SOL     OW32878   5.431   5.504   6.262
10660SOL    HW132879   5.525   5.471   6.269
10660SOL    HW232880   5.410   5.524   6.167
10661SOL     OW32881   0.469   0.854   2.208
10661SOL    HW132882   0.562   0.818   2.208
10661SOL    HW232883   0.449   0.893   2.118
10662SOL     OW32884   6.495   1.809   6.818
10662SOL    HW132885   6.475   1.737   6.752
10662SOL    HW232886   6.427   1.807   6.891
10663SOL     OW32887   0.746   1.685   0.566
10663SOL    HW132888   0.657   1.728   0.553
10663SOL    HW232889   0.816   1.755   0.581
10664SOL     OW32890   2.269   5.184   6.286
10664SOL    HW132891   2.289   5.216   6.193
10664SOL    HW232892   2.175   5.152   6.290
10665SOL     OW32893   5.478   1.066   6.788
10665SOL    HW132894   5.520   0.997   6.848
10665SOL    HW232895   5.534   1.149   6.790
10666SOL     OW32896   0.290   0.060   0.235
10666SOL    HW132897   0.321   7.001   0.175
10666SOL    HW232898   0.339   0.055   0.322
10667SOL     OW32899   3.176   2.330   5.831
10667SOL    HW132900   3.082   2.304   5.851
10667SOL    HW232901   3.179   2.375   5.741
10668SOL     OW32902   2.386   0.963   6.594
10668SOL    HW132903   2.344   0.934   6.680
10668SOL    HW232904   2.478   0.924   6.588
10669SOL     OW32905   1.235   6.496   6.243
10669SOL    HW132906   1.268   6.402   6.249
10669SOL    HW232907   1.248   6.530   6.150
10670SOL     OW32908   6.771   4.109   4.679
10670SOL    HW132909   6.862   4.126   4.718
10670SOL    HW232910   6.773   4.129   4.581
10671SOL     OW32911   2.012   2.365   3.119
10671SOL    HW132912   2.048   2.435   3.181
10671SOL    HW232913   1.952   2.407   3.051
10672SOL     OW32914   0.045   2.561   0.512
10672SOL    HW132915   0.088   2.514   0.589
10672SOL    HW232916   6.984   2.616   0.545
10673SOL     OW32917   3.380   3.897   4.501
10673SOL    HW132918   3.430   3.865   4.421
10673SOL    HW232919   3.289   3.928   4.474
10674SOL     OW32920   4.000   1.674   2.535
10674SOL    HW132921   4.091   1.631   2.534
10674SOL    HW232922   3.930   1.603   2.537
10675SOL     OW32923   0.774   1.121   5.610
10675SOL    HW132924   0.813   1.097   5.521
10675SOL    HW232925   0.828   1.193   5.652
10676SOL     OW32926   6.837   0.366   6.517
10676SOL    HW132927   6.757   0.379   6.458
10676SOL    HW232928   6.814   0.394   6.610
10677SOL     OW32929   6.022   1.343   0.991
10677SOL    HW132930   5.987   1.250   0.984
10677SOL    HW232931   6.059   1.359   1.082
10678SOL     OW32932   1.935   5.262   3.545
10678SOL    HW132933   1.849   5.308   3.524
10678SOL    HW232934   1.971   5.219   3.462
10679SOL     OW32935   5.652   4.710   3.743
10679SOL    HW132936   5.666   4.615   3.716
10679SOL    HW232937   5.639   4.715   3.842
10680SOL     OW32938   0.644   2.570   3.674
10680SOL    HW132939   0.690   2.553   3.761
10680SOL    HW232940   0.676   2.657   3.636
10681SOL     OW32941   0.506   2.316   6.940
10681SOL    HW132942   0.409   2.340   6.939
10681SOL    HW232943   0.549   2.354   0.007
10682SOL     OW32944   6.355   1.884   2.839
10682SOL    HW132945   6.353   1.925   2.747
10682SOL    HW232946   6.268   1.838   2.856
10683SOL     OW32947   1.387   0.382   4.292
10683SOL    HW132948   1.431   0.355   4.207
10683SOL    HW232949   1.362   0.300   4.344
10684SOL     OW32950   5.154   5.736   0.437
10684SOL    HW132951   5.239   5.772   0.400
10684SOL    HW232952   5.138   5.644   0.402
10685SOL     OW32953   6.166   2.536   2.530
10685SOL    HW132954   6.195   2.454   2.481
10685SOL    HW232955   6.080   2.569   2.491
10686SOL     OW32956   4.088   5.010   0.829
10686SOL    HW132957   4.167   5.071   0.823
10686SOL    HW232958   4.119   4.917   0.850
10687SOL     OW32959   6.481   5.135   1.408
10687SOL    HW132960   6.553   5.204   1.405
10687SOL    HW232961   6.511   5.054   1.358
10688SOL     OW32962   0.437   5.007   0.996
10688SOL    HW132963   0.448   4.942   1.071
10688SOL    HW232964   0.414   5.097   1.033
10689SOL     OW32965   1.103   0.143   0.899
10689SOL    HW132966   1.078   0.083   0.975
10689SOL    HW232967   1.152   0.223   0.934
10690SOL     OW32968   4.630   6.404   3.172
10690SOL    HW132969   4.693   6.466   3.219
10690SOL    HW232970   4.574   6.356   3.239
10691SOL     OW32971   5.948   1.318   1.780
10691SOL    HW132972   5.848   1.318   1.781
10691SOL    HW232973   5.982   1.392   1.837
10692SOL     OW32974   6.539   6.576   3.743
10692SOL    HW132975   6.534   6.545   3.838
10692SOL    HW232976   6.514   6.673   3.738
10693SOL     OW32977   5.139   2.710   4.043
10693SOL    HW132978   5.137   2.749   3.951
10693SOL    HW232979   5.148   2.783   4.111
10694SOL     OW32980   2.362   6.139   0.418
10694SOL    HW132981   2.381   6.177   0.328
10694SOL    HW232982   2.294   6.066   0.410
10695SOL     OW32983   5.404   3.128   5.783
10695SOL    HW132984   5.475   3.077   5.733
10695SOL    HW232985   5.360   3.193   5.721
10696SOL     OW32986   6.550   0.037   1.714
10696SOL    HW132987   6.509   6.976   1.763
10696SOL    HW232988   6.567   0.112   1.778
10697SOL     OW32989   1.836   6.326   2.736
10697SOL    HW132990   1.765   6.358   2.799
10697SOL    HW232991   1.924   6.323   2.783
10698SOL     OW32992   3.311   0.339   4.235
10698SOL    HW132993   3.211   0.350   4.230
10698SOL    HW232994   3.340   0.342   4.331
10699SOL     OW32995   1.661   2.604   3.615
10699SOL    HW132996   1.681   2.507   3.626
10699SOL    HW232997   1.581   2.627   3.672
10700SOL     OW32998   0.797   2.103   2.436
10700SOL    HW132999   0.874   2.087   2.373
10700SOL    HW233000   0.800   2.197   2.469
10701SOL     OW33001   2.773   0.266   1.675
10701SOL    HW133002   2.687   0.224   1.646
10701SOL    HW233003   2.835   0.195   1.707
10702SOL     OW33004   5.189   2.330   1.015
10702SOL    HW133005   5.168   2.369   0.926
10702SOL    HW233006   5.152   2.390   1.087
10703SOL     OW33007   3.911   2.995   4.057
10703SOL    HW133008   3.965   3.046   3.991
10703SOL    HW233009   3.886   2.906   4.018
10704SOL     OW33010   5.813   6.255   2.103
10704SOL    HW133011   5.753   6.328   2.070
10704SOL    HW233012   5.785   6.168   2.063
10705SOL     OW33013   1.478   3.158   6.600
10705SOL    HW133014   1.561   3.213   6.607
10705SOL    HW233015   1.432   3.155   6.689
10706SOL     OW33016   3.158   3.315   1.109
10706SOL    HW133017   3.136   3.229   1.155
10706SOL    HW233018   3.253   3.339   1.128
10707SOL     OW33019   6.099   6.990   6.502
10707SOL    HW133020   6.143   0.062   6.481
10707SOL    HW233021   6.142   6.950   6.583
10708SOL     OW33022   5.117   1.149   1.493
10708SOL    HW133023   5.114   1.233   1.439
10708SOL    HW233024   5.094   1.071   1.435
10709SOL     OW33025   0.866   6.897   6.201
10709SOL    HW133026   0.940   6.901   6.268
10709SOL    HW233027   0.873   6.976   6.139
10710SOL     OW33028   6.975   6.475   3.610
10710SOL    HW133029   6.982   6.396   3.550
10710SOL    HW233030   6.886   6.519   3.599
10711SOL     OW33031   2.334   4.640   5.680
10711SOL    HW133032   2.376   4.719   5.724
10711SOL    HW233033   2.276   4.592   5.746
10712SOL     OW33034   3.424   1.427   6.446
10712SOL    HW133035   3.419   1.464   6.538
10712SOL    HW233036   3.519   1.402   6.426
10713SOL     OW33037   1.757   6.652   0.478
10713SOL    HW133038   1.726   6.697   0.394
10713SOL    HW233039   1.734   6.710   0.557
10714SOL     OW33040   5.987   5.944   4.539
10714SOL    HW133041   5.914   6.001   4.576
10714SOL    HW233042   6.073   5.965   4.587
10715SOL     OW33043   5.765   0.747   2.800
10715SOL    HW133044   5.772   0.688   2.881
10715SOL    HW233045   5.675   0.735   2.758
10716SOL     OW33046   0.232   0.937   1.629
10716SOL    HW133047   0.258   0.986   1.546
10716SOL    HW233048   0.236   1.000   1.707
10717SOL     OW33049   0.141   6.423   2.349
10717SOL    HW133050   0.152   6.462   2.441
10717SOL    HW233051   0.049   6.445   2.315
10718SOL     OW33052   1.192   4.144   5.441
10718SOL    HW133053   1.112   4.175   5.389
10718SOL    HW233054   1.270   4.203   5.418
10719SOL     OW33055   3.657   6.161   2.369
10719SOL    HW133056   3.571   6.144   2.418
10719SOL    HW233057   3.649   6.130   2.274
10720SOL     OW33058   0.442   3.501   6.333
10720SOL    HW133059   0.378   3.474   6.260
10720SOL    HW233060   0.503   3.573   6.299
10721SOL     OW33061   5.666   1.872   4.311
10721SOL    HW133062   5.733   1.903   4.379
10721SOL    HW233063   5.622   1.788   4.344
10722SOL     OW33064   0.543   5.398   0.177
10722SOL    HW133065   0.476   5.368   0.110
10722SOL    HW233066   0.584   5.319   0.222
10723SOL     OW33067   6.156   4.056   6.284
10723SOL    HW133068   6.083   4.042   6.351
10723SOL    HW233069   6.178   3.970   6.239
10724SOL     OW33070   3.706   0.068   5.606
10724SOL    HW133071   3.682   0.097   5.513
10724SOL    HW233072   3.725   0.149   5.662
10725SOL     OW33073   0.552   6.493   5.315
10725SOL    HW133074   0.492   6.427   5.270
10725SOL    HW233075   0.498   6.565   5.357
10726SOL     OW33076   6.907   0.509   3.373
10726SOL    HW133077   6.858   0.568   3.437
10726SOL    HW233078   6.916   0.417   3.412
10727SOL     OW33079   4.622   6.858   6.379
10727SOL    HW133080   4.690   6.825   6.445
10727SOL    HW233081   4.629   6.805   6.294
10728SOL     OW33082   5.812   5.471   3.752
10728SOL    HW133083   5.851   5.562   3.758
10728SOL    HW233084   5.734   5.463   3.815
10729SOL     OW33085   6.691   3.408   3.988
10729SOL    HW133086   6.708   3.315   4.019
10729SOL    HW233087   6.773   3.445   3.945
10730SOL     OW33088   1.410   6.389   4.276
10730SOL    HW133089   1.316   6.407   4.249
10730SOL    HW233090   1.434   6.448   4.354
10731SOL     OW33091   5.212   5.698   6.659
10731SOL    HW133092   5.139   5.631   6.674
10731SOL    HW233093   5.272   5.665   6.586
10732SOL     OW33094   6.629   6.054   2.446
10732SOL    HW133095   6.691   6.036   2.522
10732SOL    HW233096   6.539   6.014   2.466
10733SOL     OW33097   0.471   2.055   6.125
10733SOL    HW133098   0.381   2.013   6.116
10733SOL    HW233099   0.479   2.097   6.215
10734SOL     OW33100   0.521   1.115   4.528
10734SOL    HW133101   0.518   1.166   4.443
10734SOL    HW233102   0.593   1.152   4.587
10735SOL     OW33103   0.066   0.455   1.854
10735SOL    HW133104   0.089   0.533   1.796
10735SOL    HW233105   0.063   0.484   1.950
10736SOL     OW33106   5.984   5.798   3.764
10736SOL    HW133107   6.035   5.780   3.848
10736SOL    HW233108   5.997   5.893   3.736
10737SOL     OW33109   6.827   0.721   1.452
10737SOL    HW133110   6.781   0.776   1.382
10737SOL    HW233111   6.876   0.782   1.515
10738SOL     OW33112   2.507   6.557   1.444
10738SOL    HW133113   2.429   6.582   1.387
10738SOL    HW233114   2.591   6.591   1.403
10739SOL     OW33115   4.860   2.937   4.123
10739SOL    HW133116   4.844   2.884   4.039
10739SOL    HW233117   4.825   2.886   4.201
10740SOL     OW33118   2.846   0.231   5.741
10740SOL    HW133119   2.815   0.295   5.671
10740SOL    HW233120   2.944   0.213   5.729
10741SOL     OW33121   1.186   2.506   3.840
10741SOL    HW133122   1.121   2.459   3.900
10741SOL    HW233123   1.152   2.599   3.822
10742SOL     OW33124   0.112   0.273   2.123
10742SOL    HW133125   0.016   0.298   2.111
10742SOL    HW233126   0.127   0.240   2.216
10743SOL     OW33127   3.764   1.981   5.770
10743SOL    HW133128   3.781   2.008   5.865
10743SOL    HW233129   3.843   2.006   5.714
10744SOL     OW33130   2.760   2.286   1.574
10744SOL    HW133131   2.797   2.223   1.506
10744SOL    HW233132   2.798   2.377   1.560
10745SOL     OW33133   2.270   5.666   1.299
10745SOL    HW133134   2.205   5.712   1.359
10745SOL    HW233135   2.263   5.567   1.312
10746SOL     OW33136   1.978   5.402   6.010
10746SOL    HW133137   1.912   5.477   6.018
10746SOL    HW233138   2.071   5.439   6.013
10747SOL     OW33139   0.629   0.657   4.613
10747SOL    HW133140   0.641   0.636   4.516
10747SOL    HW233141   0.539   0.698   4.628
10748SOL     OW33142   3.120   6.757   2.362
10748SOL    HW133143   3.032   6.711   2.353
10748SOL    HW233144   3.187   6.694   2.400
10749SOL     OW33145   5.885   4.305   2.193
10749SOL    HW133146   5.814   4.363   2.154
10749SOL    HW233147   5.910   4.235   2.126
10750SOL     OW33148   4.258   2.259   4.126
10750SOL    HW133149   4.337   2.259   4.064
10750SOL    HW233150   4.273   2.327   4.198
10751SOL     OW33151   6.595   6.198   3.978
10751SOL    HW133152   6.539   6.278   3.995
10751SOL    HW233153   6.692   6.221   3.986
10752SOL     OW33154   0.208   6.423   6.814
10752SOL    HW133155   0.212   6.523   6.814
10752SOL    HW233156   0.296   6.385   6.788
10753SOL     OW33157   5.426   6.679   4.864
10753SOL    HW133158   5.351   6.745   4.855
10753SOL    HW233159   5.412   6.624   4.946
10754SOL     OW33160   0.513   5.701   2.363
10754SOL    HW133161   0.511   5.686   2.265
10754SOL    HW233162   0.596   5.752   2.387
10755SOL     OW33163   0.307   2.204   1.987
10755SOL    HW133164   0.251   2.189   2.069
10755SOL    HW233165   0.253   2.182   1.905
10756SOL     OW33166   1.029   0.154   6.494
10756SOL    HW133167   1.102   0.111   6.546
10756SOL    HW233168   1.028   0.118   6.401
10757SOL     OW33169   6.680   3.270   1.997
10757SOL    HW133170   6.593   3.233   1.962
10757SOL    HW233171   6.666   3.364   2.027
10758SOL     OW33172   1.259   1.561   0.761
10758SOL    HW133173   1.207   1.521   0.836
10758SOL    HW233174   1.198   1.615   0.703
10759SOL     OW33175   2.914   3.891   4.881
10759SOL    HW133176   2.829   3.883   4.933
10759SOL    HW233177   2.978   3.950   4.930
10760SOL     OW33178   0.893   5.170   7.013
10760SOL    HW133179   0.938   5.081   7.013
10760SOL    HW233180   0.803   5.161   0.041
10761SOL     OW33181   1.729   1.274   6.084
10761SOL    HW133182   1.754   1.344   6.017
10761SOL    HW233183   1.666   1.209   6.042
10762SOL     OW33184   1.461   6.661   0.503
10762SOL    HW133185   1.532   6.599   0.471
10762SOL    HW233186   1.444   6.731   0.433
10763SOL     OW33187   4.915   1.360   2.823
10763SOL    HW133188   4.964   1.432   2.775
10763SOL    HW233189   4.880   1.293   2.757
10764SOL     OW33190   5.220   5.819   4.959
10764SOL    HW133191   5.170   5.733   4.948
10764SOL    HW233192   5.288   5.826   4.886
10765SOL     OW33193   0.581   2.303   0.779
10765SOL    HW133194   0.502   2.355   0.746
10765SOL    HW233195   0.645   2.365   0.824
10766SOL     OW33196   2.274   5.246   6.009
10766SOL    HW133197   2.205   5.217   5.943
10766SOL    HW233198   2.341   5.305   5.964
10767SOL     OW33199   1.617   5.103   6.500
10767SOL    HW133200   1.530   5.152   6.498
10767SOL    HW233201   1.602   5.009   6.529
10768SOL     OW33202   5.397   6.286   0.064
10768SOL    HW133203   5.300   6.280   0.038
10768SOL    HW233204   5.432   6.377   0.040
10769SOL     OW33205   2.939   3.689   4.680
10769SOL    HW133206   2.916   3.753   4.753
10769SOL    HW233207   3.023   3.719   4.635
10770SOL     OW33208   5.310   0.159   3.556
10770SOL    HW133209   5.231   0.187   3.501
10770SOL    HW233210   5.283   0.153   3.652
10771SOL     OW33211   4.170   6.005   5.885
10771SOL    HW133212   4.224   6.074   5.838
10771SOL    HW233213   4.222   5.968   5.962
10772SOL     OW33214   4.860   4.269   2.453
10772SOL    HW133215   4.853   4.313   2.364
10772SOL    HW233216   4.774   4.281   2.503
10773SOL     OW33217   0.729   3.827   0.258
10773SOL    HW133218   0.720   3.807   0.355
10773SOL    HW233219   0.778   3.913   0.246
10774SOL     OW33220   0.394   3.271   0.884
10774SOL    HW133221   0.486   3.265   0.845
10774SOL    HW233222   0.338   3.196   0.848
10775SOL     OW33223   1.999   4.459   0.313
10775SOL    HW133224   1.910   4.417   0.296
10775SOL    HW233225   1.996   4.510   0.398
10776SOL     OW33226   0.695   3.148   2.987
10776SOL    HW133227   0.745   3.072   3.029
10776SOL    HW233228   0.730   3.165   2.895
10777SOL     OW33229   1.819   0.324   1.488
10777SOL    HW133230   1.816   0.277   1.401
10777SOL    HW233231   1.757   0.281   1.553
10778SOL     OW33232   4.699   0.216   3.671
10778SOL    HW133233   4.702   0.291   3.738
10778SOL    HW233234   4.621   0.228   3.611
10779SOL     OW33235   5.701   2.425   5.850
10779SOL    HW133236   5.665   2.514   5.824
10779SOL    HW233237   5.626   2.363   5.871
10780SOL     OW33238   1.538   5.158   5.035
10780SOL    HW133239   1.445   5.125   5.051
10780SOL    HW233240   1.597   5.082   5.010
10781SOL     OW33241   5.983   1.834   6.327
10781SOL    HW133242   6.014   1.797   6.240
10781SOL    HW233243   6.031   1.788   6.402
10782SOL     OW33244   1.112   3.142   5.157
10782SOL    HW133245   1.092   3.240   5.154
10782SOL    HW233246   1.059   3.096   5.085
10783SOL     OW33247   1.472   3.929   3.335
10783SOL    HW133248   1.447   3.917   3.239
10783SOL    HW233249   1.532   3.854   3.364
10784SOL     OW33250   4.851   5.244   4.015
10784SOL    HW133251   4.934   5.276   4.060
10784SOL    HW233252   4.849   5.144   4.015
10785SOL     OW33253   1.456   5.126   1.445
10785SOL    HW133254   1.370   5.146   1.398
10785SOL    HW233255   1.459   5.177   1.531
10786SOL     OW33256   5.227   1.471   2.355
10786SOL    HW133257   5.327   1.477   2.361
10786SOL    HW233258   5.202   1.401   2.289
10787SOL     OW33259   3.703   1.998   3.569
10787SOL    HW133260   3.750   2.053   3.500
10787SOL    HW233261   3.766   1.976   3.643
10788SOL     OW33262   1.560   3.357   0.171
10788SOL    HW133263   1.523   3.372   0.263
10788SOL    HW233264   1.488   3.319   0.112
10789SOL     OW33265   6.697   1.615   2.310
10789SOL    HW133266   6.611   1.634   2.262
10789SOL    HW233267   6.724   1.695   2.364
10790SOL     OW33268   6.880   1.947   5.495
10790SOL    HW133269   6.787   1.962   5.461
10790SOL    HW233270   6.915   1.860   5.460
10791SOL     OW33271   1.713   2.920   4.023
10791SOL    HW133272   1.758   2.894   3.937
10791SOL    HW233273   1.716   3.020   4.033
10792SOL     OW33274   3.425   0.810   2.109
10792SOL    HW133275   3.335   0.775   2.085
10792SOL    HW233276   3.418   0.872   2.187
10793SOL     OW33277   3.357   1.821   4.526
10793SOL    HW133278   3.316   1.828   4.617
10793SOL    HW233279   3.286   1.801   4.459
10794SOL     OW33280   4.904   2.927   6.826
10794SOL    HW133281   4.821   2.903   6.777
10794SOL    HW233282   4.896   3.021   6.861
10795SOL     OW33283   6.243   3.281   3.497
10795SOL    HW133284   6.225   3.374   3.530
10795SOL    HW233285   6.306   3.285   3.419
10796SOL     OW33286   0.431   1.452   6.178
10796SOL    HW133287   0.434   1.543   6.220
10796SOL    HW233288   0.493   1.448   6.100
10797SOL     OW33289   5.458   4.813   6.535
10797SOL    HW133290   5.414   4.807   6.446
10797SOL    HW233291   5.448   4.725   6.583
10798SOL     OW33292   1.704   6.021   0.598
10798SOL    HW133293   1.772   6.036   0.525
10798SOL    HW233294   1.692   6.105   0.650
10799SOL     OW33295   2.812   0.629   2.485
10799SOL    HW133296   2.818   0.718   2.530
10799SOL    HW233297   2.800   0.558   2.554
10800SOL     OW33298   1.976   0.152   5.092
10800SOL    HW133299   2.023   0.065   5.105
10800SOL    HW233300   2.041   0.227   5.105
10801SOL     OW33301   2.896   6.115   6.838
10801SOL    HW133302   2.805   6.110   6.796
10801SOL    HW233303   2.966   6.101   6.768
10802SOL     OW33304   0.871   4.475   4.179
10802SOL    HW133305   0.939   4.485   4.106
10802SOL    HW233306   0.795   4.538   4.163
10803SOL     OW33307   0.027   3.927   4.962
10803SOL    HW133308   7.005   3.872   4.889
10803SOL    HW233309   6.998   3.904   5.049
10804SOL     OW33310   3.952   4.650   1.245
10804SOL    HW133311   3.968   4.582   1.174
10804SOL    HW233312   3.977   4.612   1.334
10805SOL     OW33313   3.971   6.307   0.331
10805SOL    HW133314   3.877   6.336   0.314
10805SOL    HW233315   4.020   6.298   0.244
10806SOL     OW33316   5.469   3.074   6.410
10806SOL    HW133317   5.513   3.046   6.495
10806SOL    HW233318   5.459   3.173   6.408
10807SOL     OW33319   5.161   2.360   5.003
10807SOL    HW133320   5.096   2.389   4.933
10807SOL    HW233321   5.216   2.284   4.969
10808SOL     OW33322   0.732   2.137   6.623
10808SOL    HW133323   0.690   2.103   6.707
10808SOL    HW233324   0.813   2.083   6.602
10809SOL     OW33325   1.533   0.912   2.278
10809SOL    HW133326   1.511   1.003   2.313
10809SOL    HW233327   1.460   0.881   2.217
10810SOL     OW33328   2.099   1.186   6.108
10810SOL    HW133329   2.034   1.239   6.162
10810SOL    HW233330   2.064   1.176   6.014
10811SOL     OW33331   4.139   5.682   6.717
10811SOL    HW133332   4.083   5.762   6.740
10811SOL    HW233333   4.158   5.629   6.799
10812SOL     OW33334   6.446   3.047   3.018
10812SOL    HW133335   6.539   3.016   3.001
10812SOL    HW233336   6.417   3.018   3.110
10813SOL     OW33337   3.260   6.576   2.494
10813SOL    HW133338   3.189   6.519   2.536
10813SOL    HW233339   3.336   6.518   2.465
10814SOL     OW33340   1.730   6.423   4.460
10814SOL    HW133341   1.654   6.485   4.478
10814SOL    HW233342   1.696   6.341   4.415
10815SOL     OW33343   5.289   1.848   5.435
10815SOL    HW133344   5.341   1.797   5.366
10815SOL    HW233345   5.352   1.899   5.494
10816SOL     OW33346   2.137   1.718   1.881
10816SOL    HW133347   2.139   1.700   1.980
10816SOL    HW233348   2.162   1.634   1.832
10817SOL     OW33349   3.393   1.793   1.974
10817SOL    HW133350   3.422   1.883   1.943
10817SOL    HW233351   3.450   1.765   2.051
10818SOL     OW33352   4.630   3.849   6.420
10818SOL    HW133353   4.553   3.894   6.375
10818SOL    HW233354   4.707   3.913   6.428
10819SOL     OW33355   1.436   4.174   5.094
10819SOL    HW133356   1.482   4.142   5.177
10819SOL    HW233357   1.442   4.273   5.088
10820SOL     OW33358   0.835   5.954   4.623
10820SOL    HW133359   0.877   5.866   4.645
10820SOL    HW233360   0.768   5.941   4.550
10821SOL     OW33361   0.727   0.630   6.634
10821SOL    HW133362   0.724   0.712   6.576
10821SOL    HW233363   0.779   0.559   6.588
10822SOL     OW33364   0.614   4.140   6.461
10822SOL    HW133365   0.634   4.044   6.444
10822SOL    HW233366   0.611   4.190   6.374
10823SOL     OW33367   2.429   2.470   0.634
10823SOL    HW133368   2.331   2.449   0.628
10823SOL    HW233369   2.462   2.502   0.545
10824SOL     OW33370   5.562   1.154   4.204
10824SOL    HW133371   5.652   1.128   4.239
10824SOL    HW233372   5.572   1.195   4.113
10825SOL     OW33373   2.824   1.474   2.524
10825SOL    HW133374   2.751   1.506   2.463
10825SOL    HW233375   2.786   1.460   2.615
10826SOL     OW33376   6.934   3.317   1.284
10826SOL    HW133377   6.963   3.354   1.195
10826SOL    HW233378   6.841   3.349   1.304
10827SOL     OW33379   0.978   2.763   4.548
10827SOL    HW133380   1.030   2.776   4.632
10827SOL    HW233381   0.949   2.668   4.540
10828SOL     OW33382   2.551   4.875   0.154
10828SOL    HW133383   2.586   4.790   0.115
10828SOL    HW233384   2.559   4.948   0.085
10829SOL     OW33385   2.358   4.216   1.874
10829SOL    HW133386   2.322   4.305   1.847
10829SOL    HW233387   2.412   4.177   1.800
10830SOL     OW33388   6.153   0.839   3.592
10830SOL    HW133389   6.228   0.855   3.656
10830SOL    HW233390   6.180   0.772   3.524
10831SOL     OW33391   5.330   2.259   1.869
10831SOL    HW133392   5.334   2.308   1.956
10831SOL    HW233393   5.356   2.163   1.883
10832SOL     OW33394   0.809   3.151   2.701
10832SOL    HW133395   0.811   3.192   2.610
10832SOL    HW233396   0.787   3.053   2.693
10833SOL     OW33397   3.499   0.098   4.396
10833SOL    HW133398   3.540   0.146   4.318
10833SOL    HW233399   3.430   0.034   4.362
10834SOL     OW33400   0.037   1.370   5.940
10834SOL    HW133401   0.072   1.428   5.866
10834SOL    HW233402   0.112   1.343   6.000
10835SOL     OW33403   0.952   1.686   0.821
10835SOL    HW133404   0.950   1.751   0.745
10835SOL    HW233405   0.863   1.642   0.829
10836SOL     OW33406   0.806   2.671   1.258
10836SOL    HW133407   0.891   2.674   1.205
10836SOL    HW233408   0.776   2.764   1.277
10837SOL     OW33409   0.445   5.615   0.757
10837SOL    HW133410   0.521   5.620   0.693
10837SOL    HW233411   0.479   5.626   0.850
10838SOL     OW33412   6.270   6.185   0.907
10838SOL    HW133413   6.237   6.207   0.815
10838SOL    HW233414   6.225   6.245   0.973
10839SOL     OW33415   2.189   2.002   6.458
10839SOL    HW133416   2.138   1.924   6.496
10839SOL    HW233417   2.206   1.987   6.361
10840SOL     OW33418   2.248   0.092   2.505
10840SOL    HW133419   2.284   0.129   2.419
10840SOL    HW233420   2.155   0.124   2.518
10841SOL     OW33421   4.543   3.704   0.950
10841SOL    HW133422   4.477   3.722   1.022
10841SOL    HW233423   4.501   3.722   0.861
10842SOL     OW33424   6.250   2.230   1.806
10842SOL    HW133425   6.313   2.160   1.773
10842SOL    HW233426   6.181   2.248   1.735
10843SOL     OW33427   0.825   2.338   1.714
10843SOL    HW133428   0.877   2.402   1.770
10843SOL    HW233429   0.842   2.244   1.745
10844SOL     OW33430   5.173   0.465   4.278
10844SOL    HW133431   5.250   0.478   4.215
10844SOL    HW233432   5.103   0.409   4.234
10845SOL     OW33433   2.148   3.005   0.964
10845SOL    HW133434   2.166   3.103   0.975
10845SOL    HW233435   2.051   2.987   0.974
10846SOL     OW33436   3.472   2.870   1.561
10846SOL    HW133437   3.546   2.927   1.524
10846SOL    HW233438   3.509   2.781   1.587
10847SOL     OW33439   4.531   2.142   5.335
10847SOL    HW133440   4.478   2.203   5.276
10847SOL    HW233441   4.620   2.125   5.292
10848SOL     OW33442   1.474   0.939   6.764
10848SOL    HW133443   1.573   0.937   6.778
10848SOL    HW233444   1.439   1.029   6.789
10849SOL     OW33445   1.579   4.685   4.288
10849SOL    HW133446   1.651   4.652   4.350
10849SOL    HW233447   1.604   4.661   4.194
10850SOL     OW33448   5.705   0.843   2.162
10850SOL    HW133449   5.631   0.776   2.169
10850SOL    HW233450   5.686   0.904   2.084
10851SOL     OW33451   4.496   2.852   6.855
10851SOL    HW133452   4.568   2.851   6.785
10851SOL    HW233453   4.455   2.761   6.860
10852SOL     OW33454   6.145   0.582   5.964
10852SOL    HW133455   6.055   0.552   5.996
10852SOL    HW233456   6.182   0.649   6.029
10853SOL     OW33457   3.428   0.927   4.468
10853SOL    HW133458   3.339   0.911   4.424
10853SOL    HW233459   3.440   0.862   4.543
10854SOL     OW33460   6.192   6.825   0.663
10854SOL    HW133461   6.172   6.921   0.643
10854SOL    HW233462   6.110   6.781   0.701
10855SOL     OW33463   0.586   5.879   1.125
10855SOL    HW133464   0.580   5.959   1.066
10855SOL    HW233465   0.681   5.863   1.152
10856SOL     OW33466   5.596   6.519   6.798
10856SOL    HW133467   5.566   6.544   6.890
10856SOL    HW233468   5.516   6.508   6.739
10857SOL     OW33469   6.582   6.965   5.012
10857SOL    HW133470   6.506   6.925   5.064
10857SOL    HW233471   6.554   6.976   4.916
10858SOL     OW33472   2.077   2.260   0.118
10858SOL    HW133473   2.139   2.322   0.069
10858SOL    HW233474   2.008   2.226   0.054
10859SOL     OW33475   2.446   5.292   2.630
10859SOL    HW133476   2.463   5.207   2.679
10859SOL    HW233477   2.401   5.357   2.692
10860SOL     OW33478   6.175   1.960   1.263
10860SOL    HW133479   6.181   1.861   1.246
10860SOL    HW233480   6.134   1.976   1.353
10861SOL     OW33481   1.660   4.078   1.648
10861SOL    HW133482   1.753   4.069   1.615
10861SOL    HW233483   1.646   4.170   1.684
10862SOL     OW33484   3.299   4.344   5.409
10862SOL    HW133485   3.208   4.313   5.381
10862SOL    HW233486   3.290   4.416   5.477
10863SOL     OW33487   1.507   0.282   2.911
10863SOL    HW133488   1.506   0.381   2.926
10863SOL    HW233489   1.581   0.259   2.847
10864SOL     OW33490   2.913   3.649   2.159
10864SOL    HW133491   2.879   3.604   2.076
10864SOL    HW233492   2.893   3.591   2.239
10865SOL     OW33493   3.032   2.023   2.658
10865SOL    HW133494   3.048   2.092   2.729
10865SOL    HW233495   3.119   1.994   2.619
10866SOL     OW33496   0.940   3.165   4.400
10866SOL    HW133497   0.869   3.157   4.470
10866SOL    HW233498   1.029   3.181   4.444
10867SOL     OW33499   4.581   3.216   0.170
10867SOL    HW133500   4.526   3.132   0.167
10867SOL    HW233501   4.554   3.271   0.249
10868SOL     OW33502   1.126   6.995   5.188
10868SOL    HW133503   1.050   7.001   5.253
10868SOL    HW233504   1.211   6.980   5.237
10869NA      NA33505   0.131   1.070   6.481
10870NA      NA33506   4.651   4.762   5.225
10871NA      NA33507   0.893   4.880   2.854
10872NA      NA33508   5.997   3.616   3.508
10873NA      NA33509   3.909   2.653   5.425
10874NA      NA33510   2.332   4.458   6.880
10875NA      NA33511   1.500   5.499   0.374
10876NA      NA33512   4.332   5.128   1.974
10877NA      NA33513   5.147   3.619   1.440
10878NA      NA33514   3.794   1.881   0.527
10879NA      NA33515   5.471   6.518   1.356
10880NA      NA33516   2.587   0.067   4.867
10881NA      NA33517   4.114   5.018   2.742
10882NA      NA33518   3.957   4.875   6.571
   7.01562   7.01562   7.01562
