Generated by trjconv : CNT in water t=  87.00000
33518
    1C        C    1   2.839   2.768   4.745
    1C        C    2   2.894   2.718   4.865
    1C        C    3   2.835   2.765   4.983
    1C        C    4   2.849   2.779   4.259
    1C        C    5   2.902   2.732   4.381
    1C        C    6   2.847   2.774   4.504
    1C        C    7   3.012   2.639   4.624
    1C        C    8   2.899   2.724   4.625
    1C        C    9   3.072   2.599   4.746
    1C        C   10   3.007   2.633   4.867
    1C        C   11   3.176   2.486   4.972
    1C        C   12   3.060   2.565   4.977
    1C        C   13   2.857   2.774   3.771
    1C        C   14   2.904   2.724   3.895
    1C        C   15   2.848   2.773   4.015
    1C        C   16   3.018   2.650   4.137
    1C        C   17   2.900   2.727   4.138
    1C        C   18   3.081   2.616   4.259
    1C        C   19   3.016   2.648   4.381
    1C        C   20   3.209   2.559   4.502
    1C        C   21   3.077   2.609   4.502
    1C        C   22   3.276   2.533   4.624
    1C        C   23   3.204   2.547   4.745
    1C        C   24   3.409   2.486   4.863
    1C        C   25   3.266   2.494   4.861
    1C        C   26   3.489   2.479   4.977
    1C        C   27   2.855   2.771   3.284
    1C        C   28   2.908   2.724   3.406
    1C        C   29   2.855   2.775   3.526
    1C        C   30   3.024   2.646   3.646
    1C        C   31   2.909   2.729   3.648
    1C        C   32   3.082   2.611   3.770
    1C        C   33   3.021   2.645   3.893
    1C        C   34   3.210   2.556   4.014
    1C        C   35   3.079   2.609   4.016
    1C        C   36   3.278   2.536   4.137
    1C        C   37   3.210   2.559   4.258
    1C        C   38   3.416   2.511   4.381
    1C        C   39   3.277   2.537   4.380
    1C        C   40   3.488   2.502   4.502
    1C        C   41   3.415   2.506   4.623
    1C        C   42   3.628   2.483   4.744
    1C        C   43   3.486   2.486   4.743
    1C        C   44   3.704   2.484   4.863
    1C        C   45   3.628   2.486   4.980
    1C        C   46   2.841   2.754   2.793
    1C        C   47   2.901   2.716   2.915
    1C        C   48   2.854   2.771   3.036
    1C        C   49   3.016   2.639   3.161
    1C        C   50   2.907   2.728   3.159
    1C        C   51   3.081   2.601   3.280
    1C        C   52   3.023   2.642   3.403
    1C        C   53   3.214   2.550   3.525
    1C        C   54   3.086   2.609   3.525
    1C        C   55   3.278   2.526   3.649
    1C        C   56   3.210   2.550   3.771
    1C        C   57   3.417   2.503   3.893
    1C        C   58   3.278   2.533   3.893
    1C        C   59   3.486   2.492   4.016
    1C        C   60   3.416   2.503   4.138
    1C        C   61   3.629   2.501   4.259
    1C        C   62   3.487   2.499   4.260
    1C        C   63   3.702   2.508   4.379
    1C        C   64   3.629   2.505   4.500
    1C        C   65   3.835   2.544   4.623
    1C        C   66   3.698   2.507   4.623
    1C        C   67   3.902   2.567   4.745
    1C        C   68   3.837   2.533   4.865
    1C        C   69   4.051   2.586   4.975
    1C        C   70   3.919   2.539   4.979
    1C        C   71   2.827   2.735   2.304
    1C        C   72   2.885   2.697   2.427
    1C        C   73   2.834   2.747   2.549
    1C        C   74   3.005   2.622   2.671
    1C        C   75   2.887   2.699   2.671
    1C        C   76   3.074   2.596   2.792
    1C        C   77   3.017   2.635   2.916
    1C        C   78   3.207   2.549   3.037
    1C        C   79   3.074   2.596   3.039
    1C        C   80   3.277   2.527   3.158
    1C        C   81   3.209   2.542   3.280
    1C        C   82   3.416   2.494   3.402
    1C        C   83   3.277   2.521   3.402
    1C        C   84   3.484   2.489   3.525
    1C        C   85   3.416   2.497   3.649
    1C        C   86   3.628   2.496   3.767
    1C        C   87   3.487   2.491   3.771
    1C        C   88   3.697   2.510   3.890
    1C        C   89   3.627   2.500   4.012
    1C        C   90   3.834   2.541   4.138
    1C        C   91   3.696   2.510   4.135
    1C        C   92   3.903   2.570   4.258
    1C        C   93   3.839   2.544   4.381
    1C        C   94   4.030   2.632   4.499
    1C        C   95   3.907   2.562   4.503
    1C        C   96   4.087   2.675   4.621
    1C        C   97   4.026   2.635   4.741
    1C        C   98   4.191   2.769   4.864
    1C        C   99   4.097   2.662   4.862
    1C        C  100   4.207   2.846   4.980
    1C        C  101   2.820   2.728   2.065
    1C        C  102   2.991   2.592   2.188
    1C        C  103   2.877   2.679   2.183
    1C        C  104   3.063   2.575   2.309
    1C        C  105   3.003   2.620   2.429
    1C        C  106   3.198   2.533   2.548
    1C        C  107   3.067   2.584   2.550
    1C        C  108   3.270   2.519   2.669
    1C        C  109   3.204   2.543   2.791
    1C        C  110   3.411   2.499   2.911
    1C        C  111   3.273   2.528   2.914
    1C        C  112   3.484   2.494   3.032
    1C        C  113   3.416   2.499   3.156
    1C        C  114   3.626   2.500   3.278
    1C        C  115   3.485   2.491   3.279
    1C        C  116   3.696   2.508   3.400
    1C        C  117   3.625   2.495   3.522
    1C        C  118   3.833   2.537   3.647
    1C        C  119   3.697   2.501   3.644
    1C        C  120   3.901   2.559   3.769
    1C        C  121   3.835   2.539   3.893
    1C        C  122   4.025   2.633   4.012
    1C        C  123   3.901   2.565   4.015
    1C        C  124   4.085   2.672   4.133
    1C        C  125   4.028   2.636   4.258
    1C        C  126   4.202   2.760   4.375
    1C        C  127   4.089   2.675   4.379
    1C        C  128   4.248   2.816   4.497
    1C        C  129   4.192   2.770   4.618
    1C        C  130   4.327   2.932   4.743
    1C        C  131   4.245   2.816   4.741
    1C        C  132   4.357   3.001   4.862
    1C        C  133   4.285   2.961   4.976
    1C        C  134   3.173   2.469   2.079
    1C        C  135   3.038   2.507   2.083
    1C        C  136   3.259   2.479   2.189
    1C        C  137   3.194   2.519   2.308
    1C        C  138   3.405   2.478   2.426
    1C        C  139   3.266   2.502   2.428
    1C        C  140   3.480   2.478   2.547
    1C        C  141   3.409   2.493   2.668
    1C        C  142   3.623   2.491   2.788
    1C        C  143   3.482   2.489   2.789
    1C        C  144   3.694   2.501   2.910
    1C        C  145   3.625   2.491   3.032
    1C        C  146   3.833   2.533   3.154
    1C        C  147   3.695   2.502   3.154
    1C        C  148   3.899   2.557   3.277
    1C        C  149   3.834   2.540   3.402
    1C        C  150   4.027   2.622   3.523
    1C        C  151   3.898   2.564   3.525
    1C        C  152   4.081   2.667   3.645
    1C        C  153   4.021   2.633   3.769
    1C        C  154   4.195   2.759   3.888
    1C        C  155   4.082   2.674   3.889
    1C        C  156   4.246   2.810   4.010
    1C        C  157   4.194   2.761   4.132
    1C        C  158   4.335   2.922   4.253
    1C        C  159   4.250   2.809   4.252
    1C        C  160   4.371   2.985   4.375
    1C        C  161   4.331   2.930   4.499
    1C        C  162   4.438   3.113   4.617
    1C        C  163   4.365   2.992   4.621
    1C        C  164   4.473   3.181   4.736
    1C        C  165   4.438   3.117   4.857
    1C        C  166   4.518   3.317   4.972
    1C        C  167   4.487   3.181   4.972
    1C        C  168   3.473   2.433   2.069
    1C        C  169   3.398   2.455   2.186
    1C        C  170   3.617   2.466   2.304
    1C        C  171   3.475   2.463   2.304
    1C        C  172   3.692   2.478   2.423
    1C        C  173   3.621   2.482   2.545
    1C        C  174   3.829   2.537   2.664
    1C        C  175   3.692   2.502   2.665
    1C        C  176   3.896   2.561   2.787
    1C        C  177   3.831   2.536   2.910
    1C        C  178   4.025   2.621   3.032
    1C        C  179   3.899   2.557   3.032
    1C        C  180   4.085   2.657   3.154
    1C        C  181   4.025   2.621   3.277
    1C        C  182   4.194   2.749   3.396
    1C        C  183   4.085   2.659   3.399
    1C        C  184   4.245   2.799   3.519
    1C        C  185   4.195   2.751   3.642
    1C        C  186   4.335   2.912   3.761
    1C        C  187   4.245   2.803   3.763
    1C        C  188   4.372   2.975   3.882
    1C        C  189   4.334   2.921   4.007
    1C        C  190   4.439   3.104   4.128
    1C        C  191   4.376   2.978   4.130
    1C        C  192   4.468   3.171   4.249
    1C        C  193   4.438   3.109   4.373
    1C        C  194   4.507   3.311   4.490
    1C        C  195   4.469   3.175   4.494
    1C        C  196   4.525   3.385   4.609
    1C        C  197   4.513   3.317   4.732
    1C        C  198   4.552   3.531   4.850
    1C        C  199   4.534   3.389   4.853
    1C        C  200   4.584   3.616   4.961
    1C        C  201   3.612   2.415   2.074
    1C        C  202   3.826   2.513   2.182
    1C        C  203   3.691   2.465   2.183
    1C        C  204   3.897   2.542   2.302
    1C        C  205   3.829   2.513   2.423
    1C        C  206   4.023   2.614   2.542
    1C        C  207   3.897   2.550   2.541
    1C        C  208   4.083   2.655   2.663
    1C        C  209   4.022   2.624   2.787
    1C        C  210   4.197   2.742   2.905
    1C        C  211   4.086   2.655   2.909
    1C        C  212   4.248   2.793   3.027
    1C        C  213   4.197   2.744   3.149
    1C        C  214   4.329   2.907   3.273
    1C        C  215   4.243   2.795   3.272
    1C        C  216   4.373   2.966   3.394
    1C        C  217   4.336   2.907   3.517
    1C        C  218   4.434   3.097   3.637
    1C        C  219   4.376   2.967   3.638
    1C        C  220   4.462   3.164   3.758
    1C        C  221   4.433   3.102   3.882
    1C        C  222   4.499   3.304   4.003
    1C        C  223   4.462   3.167   4.004
    1C        C  224   4.512   3.377   4.123
    1C        C  225   4.506   3.307   4.246
    1C        C  226   4.516   3.521   4.365
    1C        C  227   4.514   3.379   4.366
    1C        C  228   4.514   3.595   4.485
    1C        C  229   4.526   3.526   4.608
    1C        C  230   4.503   3.740   4.726
    1C        C  231   4.535   3.601   4.727
    1C        C  232   4.494   3.816   4.845
    1C        C  233   4.542   3.749   4.958
    1C        C  234   4.022   2.603   2.063
    1C        C  235   3.894   2.550   2.066
    1C        C  236   4.090   2.640   2.180
    1C        C  237   4.026   2.600   2.299
    1C        C  238   4.204   2.724   2.419
    1C        C  239   4.085   2.646   2.419
    1C        C  240   4.254   2.779   2.539
    1C        C  241   4.197   2.738   2.662
    1C        C  242   4.334   2.902   2.783
    1C        C  243   4.250   2.789   2.783
    1C        C  244   4.374   2.963   2.904
    1C        C  245   4.338   2.902   3.027
    1C        C  246   4.428   3.093   3.147
    1C        C  247   4.369   2.964   3.150
    1C        C  248   4.455   3.158   3.269
    1C        C  249   4.429   3.096   3.393
    1C        C  250   4.491   3.301   3.512
    1C        C  251   4.450   3.165   3.515
    1C        C  252   4.501   3.369   3.635
    1C        C  253   4.492   3.302   3.759
    1C        C  254   4.520   3.513   3.877
    1C        C  255   4.514   3.372   3.880
    1C        C  256   4.517   3.585   3.998
    1C        C  257   4.520   3.518   4.122
    1C        C  258   4.484   3.730   4.240
    1C        C  259   4.507   3.591   4.243
    1C        C  260   4.466   3.800   4.361
    1C        C  261   4.485   3.733   4.484
    1C        C  262   4.424   3.938   4.605
    1C        C  263   4.470   3.804   4.605
    1C        C  264   4.404   4.011   4.724
    1C        C  265   4.434   3.944   4.845
    1C        C  266   4.319   4.128   4.959
    1C        C  267   4.391   4.009   4.961
    1C        C  268   4.265   2.770   2.062
    1C        C  269   4.199   2.730   2.179
    1C        C  270   4.347   2.885   2.297
    1C        C  271   4.260   2.773   2.299
    1C        C  272   4.384   2.948   2.418
    1C        C  273   4.344   2.888   2.540
    1C        C  274   4.444   3.080   2.657
    1C        C  275   4.379   2.955   2.659
    1C        C  276   4.464   3.151   2.777
    1C        C  277   4.432   3.091   2.901
    1C        C  278   4.495   3.293   3.023
    1C        C  279   4.458   3.156   3.024
    1C        C  280   4.502   3.364   3.144
    1C        C  281   4.488   3.295   3.267
    1C        C  282   4.517   3.507   3.386
    1C        C  283   4.503   3.367   3.388
    1C        C  284   4.512   3.580   3.507
    1C        C  285   4.511   3.510   3.630
    1C        C  286   4.488   3.720   3.752
    1C        C  287   4.513   3.581   3.753
    1C        C  288   4.467   3.787   3.874
    1C        C  289   4.491   3.724   3.999
    1C        C  290   4.421   3.930   4.115
    1C        C  291   4.476   3.800   4.117
    1C        C  292   4.393   3.996   4.237
    1C        C  293   4.423   3.934   4.361
    1C        C  294   4.320   4.121   4.480
    1C        C  295   4.391   3.999   4.482
    1C        C  296   4.281   4.185   4.600
    1C        C  297   4.327   4.130   4.722
    1C        C  298   4.196   4.309   4.837
    1C        C  299   4.280   4.193   4.841
    1C        C  300   4.170   4.403   4.941
    1C        C  301   4.350   2.880   2.060
    1C        C  302   4.469   3.065   2.170
    1C        C  303   4.395   2.943   2.176
    1C        C  304   4.482   3.138   2.291
    1C        C  305   4.448   3.074   2.413
    1C        C  306   4.509   3.278   2.535
    1C        C  307   4.477   3.141   2.534
    1C        C  308   4.520   3.354   2.653
    1C        C  309   4.504   3.287   2.776
    1C        C  310   4.521   3.498   2.896
    1C        C  311   4.514   3.357   2.898
    1C        C  312   4.513   3.570   3.018
    1C        C  313   4.510   3.505   3.143
    1C        C  314   4.486   3.717   3.260
    1C        C  315   4.511   3.578   3.264
    1C        C  316   4.471   3.785   3.384
    1C        C  317   4.489   3.719   3.508
    1C        C  318   4.423   3.921   3.626
    1C        C  319   4.474   3.789   3.629
    1C        C  320   4.387   3.984   3.747
    1C        C  321   4.415   3.918   3.869
    1C        C  322   4.314   4.107   3.990
    1C        C  323   4.389   3.987   3.990
    1C        C  324   4.275   4.169   4.111
    1C        C  325   4.316   4.114   4.234
    1C        C  326   4.183   4.280   4.353
    1C        C  327   4.278   4.175   4.356
    1C        C  328   4.134   4.334   4.474
    1C        C  329   4.188   4.291   4.597
    1C        C  330   4.021   4.434   4.712
    1C        C  331   4.132   4.345   4.715
    1C        C  332   3.968   4.490   4.829
    1C        C  333   4.049   4.472   4.943
    1C        C  334   4.551   3.265   2.061
    1C        C  335   4.535   3.126   2.058
    1C        C  336   4.534   3.346   2.174
    1C        C  337   4.509   3.278   2.295
    1C        C  338   4.521   3.493   2.411
    1C        C  339   4.511   3.353   2.415
    1C        C  340   4.520   3.567   2.532
    1C        C  341   4.516   3.496   2.653
    1C        C  342   4.488   3.708   2.773
    1C        C  343   4.510   3.569   2.774
    1C        C  344   4.471   3.778   2.895
    1C        C  345   4.485   3.708   3.017
    1C        C  346   4.422   3.916   3.140
    1C        C  347   4.466   3.782   3.136
    1C        C  348   4.391   3.982   3.261
    1C        C  349   4.423   3.918   3.382
    1C        C  350   4.316   4.103   3.500
    1C        C  351   4.392   3.984   3.503
    1C        C  352   4.271   4.159   3.621
    1C        C  353   4.316   4.105   3.744
    1C        C  354   4.174   4.263   3.865
    1C        C  355   4.271   4.161   3.866
    1C        C  356   4.122   4.313   3.987
    1C        C  357   4.178   4.271   4.110
    1C        C  358   4.007   4.398   4.230
    1C        C  359   4.126   4.321   4.231
    1C        C  360   3.954   4.450   4.349
    1C        C  361   4.021   4.419   4.470
    1C        C  362   3.828   4.517   4.590
    1C        C  363   3.959   4.463   4.589
    1C        C  364   3.760   4.546   4.711
    1C        C  365   3.837   4.543   4.829
    1C        C  366   3.624   4.588   4.952
    1C        C  367   3.761   4.567   4.944
    1C        C  368   4.508   3.562   2.053
    1C        C  369   4.525   3.487   2.171
    1C        C  370   4.497   3.703   2.286
    1C        C  371   4.519   3.564   2.289
    1C        C  372   4.484   3.775   2.408
    1C        C  373   4.500   3.707   2.531
    1C        C  374   4.423   3.909   2.648
    1C        C  375   4.474   3.777   2.651
    1C        C  376   4.397   3.975   2.771
    1C        C  377   4.429   3.913   2.894
    1C        C  378   4.319   4.096   3.009
    1C        C  379   4.393   3.976   3.015
    1C        C  380   4.273   4.153   3.129
    1C        C  381   4.311   4.098   3.254
    1C        C  382   4.170   4.254   3.376
    1C        C  383   4.271   4.155   3.376
    1C        C  384   4.117   4.303   3.497
    1C        C  385   4.171   4.259   3.620
    1C        C  386   4.001   4.384   3.739
    1C        C  387   4.120   4.308   3.742
    1C        C  388   3.942   4.424   3.862
    1C        C  389   4.004   4.390   3.984
    1C        C  390   3.816   4.487   4.109
    1C        C  391   3.944   4.428   4.107
    1C        C  392   3.749   4.517   4.229
    1C        C  393   3.822   4.502   4.349
    1C        C  394   3.617   4.555   4.473
    1C        C  395   3.757   4.535   4.469
    1C        C  396   3.545   4.563   4.594
    1C        C  397   3.620   4.563   4.713
    1C        C  398   3.410   4.548   4.838
    1C        C  399   3.549   4.572   4.835
    1C        C  400   3.343   4.506   4.953
    1C        C  401   4.509   3.701   2.052
    1C        C  402   4.454   3.915   2.165
    1C        C  403   4.490   3.779   2.167
    1C        C  404   4.416   3.978   2.286
    1C        C  405   4.436   3.907   2.406
    1C        C  406   4.322   4.092   2.524
    1C        C  407   4.402   3.976   2.525
    1C        C  408   4.275   4.147   2.646
    1C        C  409   4.318   4.092   2.769
    1C        C  410   4.170   4.250   2.885
    1C        C  411   4.272   4.152   2.888
    1C        C  412   4.122   4.301   3.008
    1C        C  413   4.174   4.255   3.131
    1C        C  414   3.997   4.373   3.255
    1C        C  415   4.117   4.299   3.252
    1C        C  416   3.933   4.410   3.376
    1C        C  417   3.995   4.376   3.498
    1C        C  418   3.808   4.479   3.617
    1C        C  419   3.934   4.415   3.619
    1C        C  420   3.747   4.508   3.741
    1C        C  421   3.814   4.483   3.863
    1C        C  422   3.612   4.538   3.985
    1C        C  423   3.750   4.510   3.986
    1C        C  424   3.540   4.547   4.106
    1C        C  425   3.611   4.549   4.228
    1C        C  426   3.403   4.547   4.355
    1C        C  427   3.544   4.556   4.352
    1C        C  428   3.330   4.544   4.476
    1C        C  429   3.404   4.559   4.595
    1C        C  430   3.196   4.514   4.719
    1C        C  431   3.335   4.546   4.718
    1C        C  432   3.124   4.493   4.840
    1C        C  433   3.204   4.498   4.954
    1C        C  434   4.385   4.122   2.051
    1C        C  435   4.449   3.997   2.052
    1C        C  436   4.299   4.157   2.160
    1C        C  437   4.333   4.094   2.283
    1C        C  438   4.180   4.248   2.400
    1C        C  439   4.284   4.151   2.402
    1C        C  440   4.122   4.292   2.521
    1C        C  441   4.176   4.247   2.643
    1C        C  442   4.003   4.379   2.766
    1C        C  443   4.117   4.296   2.762
    1C        C  444   3.942   4.414   2.888
    1C        C  445   4.002   4.375   3.009
    1C        C  446   3.812   4.471   3.126
    1C        C  447   3.938   4.408   3.131
    1C        C  448   3.744   4.497   3.246
    1C        C  449   3.808   4.476   3.370
    1C        C  450   3.605   4.530   3.494
    1C        C  451   3.743   4.499   3.493
    1C        C  452   3.540   4.546   3.619
    1C        C  453   3.607   4.532   3.742
    1C        C  454   3.396   4.547   3.865
    1C        C  455   3.538   4.545   3.865
    1C        C  456   3.328   4.540   3.989
    1C        C  457   3.399   4.545   4.111
    1C        C  458   3.195   4.500   4.235
    1C        C  459   3.330   4.541   4.234
    1C        C  460   3.125   4.481   4.356
    1C        C  461   3.193   4.510   4.477
    1C        C  462   2.998   4.431   4.601
    1C        C  463   3.125   4.491   4.599
    1C        C  464   2.929   4.403   4.722
    1C        C  465   2.990   4.441   4.844
    1C        C  466   2.804   4.334   4.959
    1C        C  467   2.906   4.430   4.960
    1C        C  468   4.121   4.281   2.040
    1C        C  469   4.184   4.242   2.159
    1C        C  470   4.009   4.375   2.279
    1C        C  471   4.127   4.295   2.278
    1C        C  472   3.941   4.402   2.400
    1C        C  473   4.002   4.367   2.522
    1C        C  474   3.814   4.469   2.642
    1C        C  475   3.942   4.409   2.642
    1C        C  476   3.742   4.490   2.762
    1C        C  477   3.812   4.470   2.883
    1C        C  478   3.605   4.523   3.007
    1C        C  479   3.743   4.492   3.004
    1C        C  480   3.533   4.534   3.128
    1C        C  481   3.605   4.524   3.249
    1C        C  482   3.394   4.535   3.378
    1C        C  483   3.535   4.537   3.371
    1C        C  484   3.328   4.526   3.503
    1C        C  485   3.399   4.549   3.623
    1C        C  486   3.191   4.502   3.744
    1C        C  487   3.325   4.546   3.743
    1C        C  488   3.127   4.474   3.867
    1C        C  489   3.192   4.503   3.989
    1C        C  490   3.002   4.414   4.113
    1C        C  491   3.126   4.482   4.113
    1C        C  492   2.939   4.383   4.235
    1C        C  493   2.994   4.427   4.358
    1C        C  494   2.829   4.298   4.482
    1C        C  495   2.935   4.392   4.481
    1C        C  496   2.776   4.253   4.605
    1C        C  497   2.820   4.311   4.726
    1C        C  498   2.663   4.164   4.846
    1C        C  499   2.755   4.271   4.844
    1C        C  500   2.594   4.115   4.958
    1C        C  501   4.003   4.354   2.041
    1C        C  502   3.816   4.465   2.157
    1C        C  503   3.944   4.406   2.158
    1C        C  504   3.745   4.483   2.278
    1C        C  505   3.810   4.456   2.400
    1C        C  506   3.603   4.504   2.519
    1C        C  507   3.742   4.479   2.521
    1C        C  508   3.531   4.517   2.640
    1C        C  509   3.603   4.515   2.762
    1C        C  510   3.393   4.529   2.886
    1C        C  511   3.535   4.527   2.885
    1C        C  512   3.323   4.529   3.008
    1C        C  513   3.391   4.536   3.132
    1C        C  514   3.188   4.495   3.256
    1C        C  515   3.324   4.534   3.256
    1C        C  516   3.123   4.469   3.379
    1C        C  517   3.190   4.496   3.500
    1C        C  518   2.997   4.410   3.624
    1C        C  519   3.124   4.473   3.623
    1C        C  520   2.941   4.371   3.748
    1C        C  521   3.001   4.410   3.870
    1C        C  522   2.832   4.282   3.995
    1C        C  523   2.945   4.368   3.992
    1C        C  524   2.785   4.234   4.119
    1C        C  525   2.834   4.289   4.239
    1C        C  526   2.695   4.130   4.364
    1C        C  527   2.781   4.242   4.362
    1C        C  528   2.655   4.076   4.488
    1C        C  529   2.694   4.138   4.608
    1C        C  530   2.581   3.958   4.730
    1C        C  531   2.644   4.086   4.730
    1C        C  532   2.543   3.899   4.853
    1C        C  533   2.530   3.991   4.962
    1C        C  534   3.618   4.557   2.043
    1C        C  535   3.749   4.508   2.042
    1C        C  536   3.534   4.538   2.158
    1C        C  537   3.606   4.513   2.278
    1C        C  538   3.390   4.524   2.400
    1C        C  539   3.531   4.517   2.398
    1C        C  540   3.318   4.516   2.521
    1C        C  541   3.390   4.523   2.642
    1C        C  542   3.183   4.485   2.765
    1C        C  543   3.321   4.515   2.765
    1C        C  544   3.118   4.467   2.889
    1C        C  545   3.187   4.493   3.010
    1C        C  546   3.000   4.399   3.134
    1C        C  547   3.123   4.469   3.134
    1C        C  548   2.940   4.360   3.256
    1C        C  549   2.997   4.404   3.378
    1C        C  550   2.833   4.277   3.503
    1C        C  551   2.938   4.371   3.502
    1C        C  552   2.781   4.232   3.627
    1C        C  553   2.830   4.283   3.749
    1C        C  554   2.701   4.118   3.870
    1C        C  555   2.783   4.233   3.872
    1C        C  556   2.667   4.060   3.994
    1C        C  557   2.700   4.121   4.118
    1C        C  558   2.596   3.941   4.243
    1C        C  559   2.661   4.067   4.242
    1C        C  560   2.566   3.879   4.366
    1C        C  561   2.594   3.948   4.486
    1C        C  562   2.531   3.749   4.613
    1C        C  563   2.565   3.885   4.610
    1C        C  564   2.515   3.681   4.737
    1C        C  565   2.517   3.759   4.856
    1C        C  566   2.527   3.544   4.973
    1C        C  567   2.514   3.683   4.974
    1C        C  568   3.326   4.482   2.039
    1C        C  569   3.393   4.520   2.156
    1C        C  570   3.186   4.469   2.280
    1C        C  571   3.320   4.517   2.278
    1C        C  572   3.116   4.450   2.402
    1C        C  573   3.182   4.479   2.523
    1C        C  574   2.984   4.402   2.647
    1C        C  575   3.113   4.461   2.645
    1C        C  576   2.930   4.360   2.771
    1C        C  577   2.995   4.398   2.891
    1C        C  578   2.830   4.267   3.013
    1C        C  579   2.940   4.356   3.014
    1C        C  580   2.784   4.214   3.135
    1C        C  581   2.837   4.264   3.256
    1C        C  582   2.700   4.111   3.384
    1C        C  583   2.787   4.222   3.381
    1C        C  584   2.664   4.051   3.507
    1C        C  585   2.697   4.118   3.627
    1C        C  586   2.596   3.933   3.751
    1C        C  587   2.656   4.061   3.749
    1C        C  588   2.571   3.871   3.876
    1C        C  589   2.603   3.934   3.999
    1C        C  590   2.537   3.736   4.125
    1C        C  591   2.572   3.873   4.122
    1C        C  592   2.520   3.671   4.249
    1C        C  593   2.526   3.744   4.370
    1C        C  594   2.513   3.534   4.498
    1C        C  595   2.519   3.675   4.494
    1C        C  596   2.514   3.463   4.620
    1C        C  597   2.512   3.539   4.739
    1C        C  598   2.530   3.323   4.861
    1C        C  599   2.522   3.464   4.859
    1C        C  600   2.535   3.248   4.979
    1C        C  601   3.197   4.434   2.041
    1C        C  602   2.984   4.392   2.159
    1C        C  603   3.120   4.435   2.159
    1C        C  604   2.925   4.355   2.283
    1C        C  605   2.986   4.395   2.404
    1C        C  606   2.818   4.267   2.528
    1C        C  607   2.927   4.357   2.526
    1C        C  608   2.767   4.217   2.650
    1C        C  609   2.823   4.268   2.769
    1C        C  610   2.689   4.106   2.894
    1C        C  611   2.777   4.216   2.892
    1C        C  612   2.651   4.049   3.017
    1C        C  613   2.692   4.107   3.140
    1C        C  614   2.591   3.925   3.265
    1C        C  615   2.653   4.052   3.264
    1C        C  616   2.567   3.860   3.388
    1C        C  617   2.593   3.929   3.509
    1C        C  618   2.528   3.728   3.636
    1C        C  619   2.565   3.865   3.631
    1C        C  620   2.515   3.664   3.762
    1C        C  621   2.528   3.737   3.882
    1C        C  622   2.513   3.523   4.009
    1C        C  623   2.525   3.664   4.003
    1C        C  624   2.515   3.456   4.133
    1C        C  625   2.513   3.530   4.254
    1C        C  626   2.535   3.321   4.380
    1C        C  627   2.516   3.461   4.377
    1C        C  628   2.554   3.251   4.501
    1C        C  629   2.534   3.323   4.621
    1C        C  630   2.595   3.117   4.741
    1C        C  631   2.547   3.251   4.741
    1C        C  632   2.617   3.050   4.864
    1C        C  633   2.559   3.110   4.981
    1C        C  634   2.786   4.300   2.052
    1C        C  635   2.892   4.392   2.050
    1C        C  636   2.747   4.229   2.166
    1C        C  637   2.807   4.274   2.285
    1C        C  638   2.679   4.106   2.409
    1C        C  639   2.761   4.221   2.407
    1C        C  640   2.640   4.044   2.529
    1C        C  641   2.682   4.104   2.650
    1C        C  642   2.582   3.921   2.774
    1C        C  643   2.640   4.050   2.773
    1C        C  644   2.562   3.856   2.898
    1C        C  645   2.586   3.924   3.019
    1C        C  646   2.520   3.725   3.145
    1C        C  647   2.561   3.860   3.143
    1C        C  648   2.513   3.654   3.267
    1C        C  649   2.532   3.724   3.389
    1C        C  650   2.508   3.518   3.517
    1C        C  651   2.519   3.659   3.514
    1C        C  652   2.512   3.450   3.641
    1C        C  653   2.510   3.523   3.762
    1C        C  654   2.536   3.316   3.886
    1C        C  655   2.513   3.455   3.886
    1C        C  656   2.554   3.250   4.010
    1C        C  657   2.537   3.317   4.133
    1C        C  658   2.600   3.119   4.255
    1C        C  659   2.555   3.252   4.258
    1C        C  660   2.627   3.052   4.377
    1C        C  661   2.600   3.117   4.500
    1C        C  662   2.702   2.929   4.623
    1C        C  663   2.631   3.051   4.621
    1C        C  664   2.748   2.877   4.746
    1C        C  665   2.694   2.929   4.867
    1C        C  666   2.739   2.865   4.984
    1C        C  667   2.684   4.023   2.051
    1C        C  668   2.682   4.103   2.166
    1C        C  669   2.585   3.913   2.289
    1C        C  670   2.647   4.041   2.288
    1C        C  671   2.556   3.847   2.410
    1C        C  672   2.573   3.919   2.530
    1C        C  673   2.515   3.718   2.658
    1C        C  674   2.550   3.855   2.654
    1C        C  675   2.505   3.647   2.780
    1C        C  676   2.523   3.720   2.900
    1C        C  677   2.498   3.512   3.027
    1C        C  678   2.510   3.653   3.024
    1C        C  679   2.502   3.443   3.150
    1C        C  680   2.501   3.513   3.273
    1C        C  681   2.519   3.305   3.399
    1C        C  682   2.500   3.445   3.396
    1C        C  683   2.546   3.238   3.521
    1C        C  684   2.530   3.310   3.641
    1C        C  685   2.599   3.112   3.768
    1C        C  686   2.548   3.244   3.765
    1C        C  687   2.638   3.054   3.890
    1C        C  688   2.609   3.120   4.012
    1C        C  689   2.712   2.936   4.135
    1C        C  690   2.637   3.055   4.135
    1C        C  691   2.757   2.885   4.259
    1C        C  692   2.704   2.934   4.381
    1C        C  693   2.749   2.876   4.501
    1C        C  694   2.625   3.896   2.053
    1C        C  695   2.524   3.706   2.176
    1C        C  696   2.577   3.837   2.170
    1C        C  697   2.503   3.634   2.296
    1C        C  698   2.520   3.711   2.413
    1C        C  699   2.488   3.505   2.541
    1C        C  700   2.505   3.645   2.538
    1C        C  701   2.497   3.433   2.663
    1C        C  702   2.501   3.506   2.784
    1C        C  703   2.526   3.298   2.908
    1C        C  704   2.499   3.437   2.907
    1C        C  705   2.537   3.233   3.033
    1C        C  706   2.524   3.304   3.154
    1C        C  707   2.592   3.105   3.277
    1C        C  708   2.539   3.236   3.277
    1C        C  709   2.633   3.047   3.400
    1C        C  710   2.603   3.109   3.523
    1C        C  711   2.714   2.932   3.647
    1C        C  712   2.633   3.047   3.647
    1C        C  713   2.761   2.877   3.769
    1C        C  714   2.715   2.936   3.889
    1C        C  715   2.757   2.881   4.012
    1C        C  716   2.448   3.498   2.060
    1C        C  717   2.499   3.628   2.062
    1C        C  718   2.471   3.420   2.178
    1C        C  719   2.479   3.494   2.299
    1C        C  720   2.510   3.288   2.424
    1C        C  721   2.484   3.427   2.423
    1C        C  722   2.530   3.219   2.546
    1C        C  723   2.519   3.294   2.665
    1C        C  724   2.588   3.094   2.790
    1C        C  725   2.536   3.225   2.788
    1C        C  726   2.620   3.034   2.914
    1C        C  727   2.587   3.101   3.034
    1C        C  728   2.709   2.927   3.158
    1C        C  729   2.624   3.040   3.156
    1C        C  730   2.760   2.875   3.279
    1C        C  731   2.714   2.932   3.401
    1C        C  732   2.755   2.876   3.524
    1C        C  733   2.492   3.194   2.071
    1C        C  734   2.484   3.278   2.183
    1C        C  735   2.583   3.086   2.306
    1C        C  736   2.520   3.213   2.305
    1C        C  737   2.614   3.020   2.427
    1C        C  738   2.589   3.091   2.547
    1C        C  739   2.695   2.908   2.672
    1C        C  740   2.623   3.030   2.670
    1C        C  741   2.745   2.858   2.794
    1C        C  742   2.700   2.917   2.914
    1C        C  743   2.752   2.869   3.037
    1C        C  744   2.547   3.067   2.072
    1C        C  745   2.686   2.897   2.187
    1C        C  746   2.607   3.014   2.187
    1C        C  747   2.732   2.841   2.308
    1C        C  748   2.688   2.900   2.428
    1C        C  749   2.734   2.847   2.551
    1C        C  750   2.737   2.839   2.070
    1C        C  751   3.657   2.297   1.997
    1C        O  752   3.651   2.176   2.032
    1C        O  753   3.709   2.320   1.869
    1C        C  754   4.631   3.044   1.981
    1C        O  755   4.603   3.018   1.861
    1C        O  756   4.767   3.076   1.992
    1C        C  757   4.470   4.214   1.973
    1C        O  758   4.551   4.295   2.025
    1C        O  759   4.423   4.269   1.853
    1C        C  760   3.590   4.675   1.957
    1C        O  761   3.573   4.789   2.008
    1C        O  762   3.636   4.681   1.825
    1C        C  763   2.870   4.499   1.950
    1C        O  764   2.885   4.480   1.826
    1C        O  765   2.845   4.634   1.975
    1C        C  766   2.320   3.473   1.990
    1C        O  767   2.293   3.514   1.873
    1C        O  768   2.206   3.419   2.052
    1C        C  769   4.648   3.582   5.090
    1C        O  770   4.595   3.566   5.204
    1C        O  771   4.786   3.560   5.104
    1C        C  772   4.271   4.440   5.044
    1C        O  773   4.261   4.413   5.166
    1C        O  774   4.342   4.557   5.018
    1C        C  775   4.143   2.507   5.059
    1C        O  776   4.222   2.418   5.016
    1C        O  777   4.183   2.548   5.187
    1C        C  778   2.865   4.547   5.041
    1C        O  779   2.805   4.643   4.987
    1C        O  780   2.862   4.542   5.181
    1C        C  781   2.491   3.049   5.098
    1C        O  782   2.390   2.974   5.104
    1C        O  783   2.535   3.090   5.223
    1C        C  784   2.411   4.000   5.051
    1C        O  785   2.308   4.064   5.020
    1C        O  786   2.389   3.925   5.167
    1C        C  787   2.954   2.458   1.971
    1C        O  788   2.961   2.523   1.864
    1C        O  789   2.903   2.330   1.958
    1C        C  790   3.182   2.382   5.078
    1C        O  791   3.190   2.257   5.064
    1C        O  792   3.163   2.417   5.212
    1C        H  793   4.247   3.042   5.034
    1C        H  794   4.211   2.795   5.073
    1C        H  795   4.505   3.117   5.055
    1C        H  796   4.487   3.379   5.053
    1C        H  797   4.549   3.804   5.050
    1C        H  798   4.398   3.963   5.058
    1C        H  799   4.270   4.157   5.050
    1C        H  800   4.040   4.543   5.023
    1C        H  801   3.812   4.625   5.018
    1C        H  802   3.589   4.644   5.037
    1C        H  803   3.389   4.446   5.028
    1C        H  804   3.158   4.540   5.042
    1C        H  805   3.903   2.458   5.047
    1C        H  806   3.662   2.522   5.075
    1C        H  807   3.049   2.611   5.073
    1C        H  808   3.445   2.488   5.075
    1C        H  809   2.907   2.773   5.061
    1C        H  810   2.669   2.870   5.065
    1C        H  811   2.516   3.293   5.074
    1C        H  812   2.559   3.503   5.067
    1C        H  813   2.531   3.732   5.067
    1C        H  814   2.555   4.186   5.028
    1C        H  815   2.721   4.358   5.022
    1C        H  816   2.689   2.869   1.979
    1C        H  817   2.833   2.676   1.972
    1C        H  818   3.220   2.434   1.989
    1C        H  819   3.437   2.482   1.981
    1C        H  820   3.837   2.564   1.976
    1C        H  821   4.089   2.567   1.987
    1C        H  822   4.291   2.688   1.999
    1C        H  823   4.383   2.910   1.962
    1C        H  824   4.592   3.308   1.972
    1C        H  825   4.513   3.518   1.956
    1C        H  826   4.514   3.752   1.958
    1C        H  827   3.791   4.486   1.946
    1C        H  828   3.955   4.360   1.946
    1C        H  829   4.193   4.329   1.977
    1C        H  830   4.474   3.962   1.954
    1C        H  831   2.564   3.878   1.967
    1C        H  832   2.777   4.031   1.998
    1C        H  833   2.728   4.286   1.963
    1C        H  834   3.384   4.472   1.950
    1C        H  835   3.175   4.365   1.963
    1C        H  836   2.518   2.999   1.993
    1C        H  837   2.487   3.246   1.977
    1C        H  838   2.539   3.670   1.972
    2V3OU   H29  839   2.807   3.546   1.486
    2V3OU   C27  840   2.777   3.501   1.584
    2V3OU   H27  841   2.716   3.570   1.648
    2V3OU   H28  842   2.723   3.404   1.573
    2V3OU   O11  843   2.900   3.480   1.653
    2V3OU   C15  844   2.918   3.393   1.759
    2V3OU   C13  845   3.047   3.375   1.812
    2V3OU   C14  846   3.073   3.266   1.897
    2V3OU   C16  847   2.969   3.181   1.932
    2V3OU    H6  848   2.986   3.106   2.011
    2V3OU   C12  849   3.211   3.229   1.934
    2V3OU    O2  850   3.244   3.124   1.993
    2V3OU   C10  851   3.323   3.301   1.872
    2V3OU    C8  852   3.456   3.268   1.894
    2V3OU   O10  853   3.490   3.145   1.940
    2V3OU   H26  854   3.407   3.114   1.979
    2V3OU    C6  855   3.562   3.350   1.841
    2V3OU    C5  856   3.537   3.466   1.769
    2V3OU    C4  857   3.698   3.291   1.834
    2V3OU    H4  858   3.723   3.224   1.923
    2V3OU    H5  859   3.708   3.229   1.740
    2V3OU    C2  860   3.810   3.395   1.834
    2V3OU    O6  861   3.796   3.471   1.954
    2V3OU   H21  862   3.764   3.562   1.939
    2V3OU    C3  863   3.778   3.495   1.723
    2V3OU    H2  864   3.860   3.570   1.718
    2V3OU    H3  865   3.783   3.440   1.626
    2V3OU   C25  866   3.948   3.329   1.816
    2V3OU    O7  867   4.002   3.295   1.711
    2V3OU   C26  868   4.027   3.288   1.939
    2V3OU   H22  869   4.068   3.380   1.985
    2V3OU   H23  870   4.110   3.219   1.908
    2V3OU    O8  871   3.962   3.208   2.036
    2V3OU   H24  872   3.924   3.256   2.111
    2V3OU    C1  873   3.644   3.566   1.736
    2V3OU    H1  874   3.624   3.620   1.639
    2V3OU    O3  875   3.661   3.655   1.847
    2V3OU   C19  876   3.614   3.789   1.835
    2V3OU    H9  877   3.520   3.806   1.776
    2V3OU    O4  878   3.712   3.845   1.750
    2V3OU   C20  879   3.843   3.873   1.801
    2V3OU   H10  880   3.891   3.775   1.829
    2V3OU   C24  881   3.610   3.853   1.974
    2V3OU   H16  882   3.539   3.795   2.038
    2V3OU   H17  883   3.565   3.953   1.955
    2V3OU   C23  884   3.749   3.875   2.036
    2V3OU   H15  885   3.788   3.769   2.050
    2V3OU    N1  886   3.740   3.949   2.160
    2V3OU   H19  887   3.806   3.924   2.230
    2V3OU   H20  888   3.649   3.933   2.200
    2V3OU   C21  889   3.848   3.943   1.937
    2V3OU   H11  890   3.950   3.925   1.980
    2V3OU    O5  891   3.824   4.083   1.939
    2V3OU   H18  892   3.783   4.101   2.025
    2V3OU   C22  893   3.911   3.947   1.687
    2V3OU   H12  894   3.864   4.047   1.672
    2V3OU   H13  895   3.900   3.888   1.592
    2V3OU   H14  896   4.021   3.957   1.708
    2V3OU   C11  897   3.157   3.469   1.787
    2V3OU    O1  898   3.133   3.587   1.755
    2V3OU    C9  899   3.296   3.421   1.801
    2V3OU    C7  900   3.399   3.499   1.750
    2V3OU    O9  901   3.386   3.621   1.686
    2V3OU   H25  902   3.294   3.628   1.656
    2V3OU   C17  903   2.813   3.309   1.802
    2V3OU    H7  904   2.710   3.340   1.785
    2V3OU   C18  905   2.839   3.202   1.887
    2V3OU    H8  906   2.757   3.143   1.930
    3SOL     OW  907   1.380   3.211   1.021
    3SOL    HW1  908   1.471   3.252   1.030
    3SOL    HW2  909   1.389   3.114   0.996
    4SOL     OW  910   5.677   0.396   1.950
    4SOL    HW1  911   5.683   0.432   2.043
    4SOL    HW2  912   5.609   0.447   1.898
    5SOL     OW  913   3.653   1.564   1.200
    5SOL    HW1  914   3.626   1.497   1.269
    5SOL    HW2  915   3.736   1.532   1.153
    6SOL     OW  916   2.905   1.788   1.748
    6SOL    HW1  917   2.957   1.756   1.826
    6SOL    HW2  918   2.888   1.887   1.757
    7SOL     OW  919   5.891   1.560   2.187
    7SOL    HW1  920   5.940   1.647   2.189
    7SOL    HW2  921   5.955   1.487   2.163
    8SOL     OW  922   2.929   0.983   4.114
    8SOL    HW1  923   2.839   0.941   4.113
    8SOL    HW2  924   2.977   0.958   4.198
    9SOL     OW  925   1.493   3.902   5.664
    9SOL    HW1  926   1.490   3.976   5.730
    9SOL    HW2  927   1.451   3.820   5.703
   10SOL     OW  928   0.914   3.941   0.023
   10SOL    HW1  929   0.832   3.885   0.014
   10SOL    HW2  930   0.892   4.024   0.074
   11SOL     OW  931   4.028   6.627   0.200
   11SOL    HW1  932   4.067   6.611   0.109
   11SOL    HW2  933   3.938   6.671   0.191
   12SOL     OW  934   5.611   6.130   2.454
   12SOL    HW1  935   5.545   6.197   2.422
   12SOL    HW2  936   5.590   6.104   2.548
   13SOL     OW  937   2.642   6.186   3.138
   13SOL    HW1  938   2.730   6.233   3.123
   13SOL    HW2  939   2.569   6.254   3.145
   14SOL     OW  940   3.618   6.358   0.747
   14SOL    HW1  941   3.543   6.381   0.809
   14SOL    HW2  942   3.592   6.378   0.653
   15SOL     OW  943   1.340   6.766   6.870
   15SOL    HW1  944   1.345   6.673   6.906
   15SOL    HW2  945   1.417   6.820   6.906
   16SOL     OW  946   5.998   2.441   6.134
   16SOL    HW1  947   6.014   2.345   6.156
   16SOL    HW2  948   6.080   2.495   6.154
   17SOL     OW  949   5.183   6.785   4.528
   17SOL    HW1  950   5.093   6.795   4.487
   17SOL    HW2  951   5.189   6.840   4.611
   18SOL     OW  952   1.813   1.902   5.919
   18SOL    HW1  953   1.876   1.901   5.997
   18SOL    HW2  954   1.861   1.935   5.838
   19SOL     OW  955   0.735   6.845   2.610
   19SOL    HW1  956   0.651   6.792   2.620
   19SOL    HW2  957   0.738   6.917   2.679
   20SOL     OW  958   3.381   1.861   3.802
   20SOL    HW1  959   3.416   1.842   3.894
   20SOL    HW2  960   3.453   1.903   3.747
   21SOL     OW  961   3.057   2.056   1.487
   21SOL    HW1  962   3.067   2.011   1.398
   21SOL    HW2  963   3.077   2.153   1.479
   22SOL     OW  964   1.369   6.410   5.598
   22SOL    HW1  965   1.414   6.427   5.686
   22SOL    HW2  966   1.397   6.479   5.532
   23SOL     OW  967   4.111   6.343   4.643
   23SOL    HW1  968   4.183   6.394   4.690
   23SOL    HW2  969   4.136   6.246   4.639
   24SOL     OW  970   4.969   1.382   5.253
   24SOL    HW1  971   4.993   1.466   5.205
   24SOL    HW2  972   4.940   1.312   5.188
   25SOL     OW  973   3.841   5.784   0.478
   25SOL    HW1  974   3.788   5.783   0.563
   25SOL    HW2  975   3.898   5.702   0.474
   26SOL     OW  976   6.518   1.636   2.315
   26SOL    HW1  977   6.487   1.613   2.407
   26SOL    HW2  978   6.616   1.617   2.307
   27SOL     OW  979   5.996   6.756   2.661
   27SOL    HW1  980   6.047   6.744   2.746
   27SOL    HW2  981   6.060   6.760   2.584
   28SOL     OW  982   3.790   0.567   0.026
   28SOL    HW1  983   3.879   0.534   0.057
   28SOL    HW2  984   3.796   0.664   0.004
   29SOL     OW  985   4.497   2.265   1.433
   29SOL    HW1  986   4.523   2.320   1.513
   29SOL    HW2  987   4.512   2.168   1.453
   30SOL     OW  988   3.203   0.983   4.814
   30SOL    HW1  989   3.222   0.995   4.717
   30SOL    HW2  990   3.256   0.906   4.849
   31SOL     OW  991   0.325   0.708   5.051
   31SOL    HW1  992   0.309   0.640   4.980
   31SOL    HW2  993   0.384   0.668   5.122
   32SOL     OW  994   0.102   2.218   1.264
   32SOL    HW1  995   0.138   2.125   1.273
   32SOL    HW2  996   0.170   2.276   1.219
   33SOL     OW  997   2.000   2.538   6.053
   33SOL    HW1  998   2.074   2.591   6.095
   33SOL    HW2  999   1.927   2.601   6.023
   34SOL     OW 1000   1.649   0.303   4.675
   34SOL    HW1 1001   1.611   0.323   4.585
   34SOL    HW2 1002   1.686   0.210   4.676
   35SOL     OW 1003   5.375   1.510   6.730
   35SOL    HW1 1004   5.331   1.422   6.747
   35SOL    HW2 1005   5.390   1.521   6.632
   36SOL     OW 1006   1.813   1.805   5.145
   36SOL    HW1 1007   1.903   1.760   5.140
   36SOL    HW2 1008   1.816   1.877   5.214
   37SOL     OW 1009   3.272   6.904   1.553
   37SOL    HW1 1010   3.188   6.949   1.524
   37SOL    HW2 1011   3.334   6.972   1.591
   38SOL     OW 1012   0.012   6.356   3.212
   38SOL    HW1 1013   0.004   6.444   3.165
   38SOL    HW2 1014   0.108   6.339   3.235
   39SOL     OW 1015   6.816   3.264   5.024
   39SOL    HW1 1016   6.736   3.235   5.076
   39SOL    HW2 1017   6.877   3.318   5.082
   40SOL     OW 1018   6.401   1.220   2.287
   40SOL    HW1 1019   6.427   1.263   2.200
   40SOL    HW2 1020   6.402   1.121   2.277
   41SOL     OW 1021   1.085   6.926   5.461
   41SOL    HW1 1022   1.184   6.929   5.452
   41SOL    HW2 1023   1.060   6.870   5.541
   42SOL     OW 1024   3.486   0.728   0.361
   42SOL    HW1 1025   3.585   0.732   0.374
   42SOL    HW2 1026   3.466   0.702   0.266
   43SOL     OW 1027   5.271   6.355   5.412
   43SOL    HW1 1028   5.335   6.313   5.348
   43SOL    HW2 1029   5.178   6.346   5.377
   44SOL     OW 1030   1.212   2.871   6.258
   44SOL    HW1 1031   1.152   2.858   6.337
   44SOL    HW2 1032   1.232   2.782   6.216
   45SOL     OW 1033   2.481   0.996   1.661
   45SOL    HW1 1034   2.575   0.967   1.678
   45SOL    HW2 1035   2.435   0.928   1.603
   46SOL     OW 1036   1.426   4.306   4.661
   46SOL    HW1 1037   1.478   4.367   4.721
   46SOL    HW2 1038   1.330   4.307   4.688
   47SOL     OW 1039   6.753   4.550   3.666
   47SOL    HW1 1040   6.678   4.522   3.725
   47SOL    HW2 1041   6.840   4.542   3.716
   48SOL     OW 1042   0.096   2.240   5.054
   48SOL    HW1 1043   0.098   2.142   5.035
   48SOL    HW2 1044   0.087   2.254   5.152
   49SOL     OW 1045   4.608   2.475   0.537
   49SOL    HW1 1046   4.655   2.438   0.457
   49SOL    HW2 1047   4.667   2.542   0.582
   50SOL     OW 1048   6.579   4.128   4.194
   50SOL    HW1 1049   6.520   4.123   4.275
   50SOL    HW2 1050   6.673   4.145   4.222
   51SOL     OW 1051   3.355   4.972   2.882
   51SOL    HW1 1052   3.264   4.931   2.876
   51SOL    HW2 1053   3.350   5.069   2.862
   52SOL     OW 1054   2.241   1.813   2.274
   52SOL    HW1 1055   2.205   1.901   2.244
   52SOL    HW2 1056   2.210   1.741   2.211
   53SOL     OW 1057   4.962   6.887   4.388
   53SOL    HW1 1058   4.978   6.872   4.290
   53SOL    HW2 1059   4.864   6.886   4.407
   54SOL     OW 1060   4.025   5.296   5.764
   54SOL    HW1 1061   4.002   5.199   5.763
   54SOL    HW2 1062   4.087   5.317   5.688
   55SOL     OW 1063   3.853   2.253   6.315
   55SOL    HW1 1064   3.932   2.217   6.366
   55SOL    HW2 1065   3.776   2.266   6.377
   56SOL     OW 1066   0.907   0.347   2.425
   56SOL    HW1 1067   0.825   0.392   2.460
   56SOL    HW2 1068   0.945   0.400   2.349
   57SOL     OW 1069   5.701   1.003   0.284
   57SOL    HW1 1070   5.660   1.086   0.246
   57SOL    HW2 1071   5.703   1.010   0.384
   58SOL     OW 1072   0.090   6.051   6.712
   58SOL    HW1 1073   0.024   6.042   6.638
   58SOL    HW2 1074   0.041   6.051   6.800
   59SOL     OW 1075   1.651   0.328   5.888
   59SOL    HW1 1076   1.743   0.296   5.866
   59SOL    HW2 1077   1.634   0.317   5.986
   60SOL     OW 1078   4.481   0.176   5.094
   60SOL    HW1 1079   4.468   0.250   5.160
   60SOL    HW2 1080   4.544   0.109   5.132
   61SOL     OW 1081   4.813   0.192   4.051
   61SOL    HW1 1082   4.867   0.171   3.970
   61SOL    HW2 1083   4.854   0.269   4.100
   62SOL     OW 1084   2.082   0.511   4.240
   62SOL    HW1 1085   2.084   0.412   4.224
   62SOL    HW2 1086   2.114   0.530   4.333
   63SOL     OW 1087   6.887   2.654   3.089
   63SOL    HW1 1088   6.933   2.714   3.156
   63SOL    HW2 1089   6.950   2.634   3.014
   64SOL     OW 1090   6.894   3.648   6.102
   64SOL    HW1 1091   6.872   3.666   6.198
   64SOL    HW2 1092   6.828   3.696   6.043
   65SOL     OW 1093   6.808   4.856   5.585
   65SOL    HW1 1094   6.747   4.790   5.627
   65SOL    HW2 1095   6.900   4.846   5.623
   66SOL     OW 1096   3.132   0.693   0.286
   66SOL    HW1 1097   3.108   0.653   0.198
   66SOL    HW2 1098   3.209   0.643   0.326
   67SOL     OW 1099   5.260   5.741   4.890
   67SOL    HW1 1100   5.308   5.828   4.890
   67SOL    HW2 1101   5.277   5.693   4.804
   68SOL     OW 1102   6.066   2.336   5.874
   68SOL    HW1 1103   6.022   2.383   5.797
   68SOL    HW2 1104   6.054   2.390   5.957
   69SOL     OW 1105   2.939   4.099   6.413
   69SOL    HW1 1106   2.977   4.056   6.494
   69SOL    HW2 1107   3.006   4.162   6.374
   70SOL     OW 1108   6.792   5.411   2.748
   70SOL    HW1 1109   6.838   5.452   2.670
   70SOL    HW2 1110   6.753   5.323   2.722
   71SOL     OW 1111   1.442   2.828   3.066
   71SOL    HW1 1112   1.521   2.793   3.117
   71SOL    HW2 1113   1.458   2.817   2.968
   72SOL     OW 1114   2.669   5.505   3.865
   72SOL    HW1 1115   2.597   5.572   3.884
   72SOL    HW2 1116   2.628   5.416   3.845
   73SOL     OW 1117   4.354   2.319   0.265
   73SOL    HW1 1118   4.376   2.408   0.305
   73SOL    HW2 1119   4.268   2.286   0.303
   74SOL     OW 1120   5.457   6.021   6.517
   74SOL    HW1 1121   5.473   6.022   6.615
   74SOL    HW2 1122   5.473   6.112   6.479
   75SOL     OW 1123   3.768   5.665   5.585
   75SOL    HW1 1124   3.801   5.695   5.496
   75SOL    HW2 1125   3.775   5.565   5.591
   76SOL     OW 1126   2.800   2.432   1.512
   76SOL    HW1 1127   2.863   2.480   1.573
   76SOL    HW2 1128   2.840   2.427   1.421
   77SOL     OW 1129   5.934   5.294   5.440
   77SOL    HW1 1130   5.979   5.355   5.505
   77SOL    HW2 1131   6.001   5.231   5.400
   78SOL     OW 1132   6.569   6.527   5.591
   78SOL    HW1 1133   6.591   6.606   5.649
   78SOL    HW2 1134   6.554   6.447   5.649
   79SOL     OW 1135   3.302   0.244   0.443
   79SOL    HW1 1136   3.361   0.198   0.509
   79SOL    HW2 1137   3.221   0.280   0.490
   80SOL     OW 1138   0.058   1.405   4.438
   80SOL    HW1 1139   0.117   1.485   4.452
   80SOL    HW2 1140   6.989   1.434   4.405
   81SOL     OW 1141   1.763   1.174   2.876
   81SOL    HW1 1142   1.730   1.098   2.932
   81SOL    HW2 1143   1.859   1.192   2.897
   82SOL     OW 1144   6.758   4.412   6.152
   82SOL    HW1 1145   6.839   4.465   6.128
   82SOL    HW2 1146   6.729   4.437   6.245
   83SOL     OW 1147   0.528   6.566   0.431
   83SOL    HW1 1148   0.429   6.559   0.418
   83SOL    HW2 1149   0.569   6.612   0.352
   84SOL     OW 1150   5.330   3.926   1.542
   84SOL    HW1 1151   5.422   3.887   1.539
   84SOL    HW2 1152   5.275   3.877   1.609
   85SOL     OW 1153   1.302   2.006   5.580
   85SOL    HW1 1154   1.331   1.918   5.619
   85SOL    HW2 1155   1.209   1.997   5.545
   86SOL     OW 1156   0.749   0.563   5.544
   86SOL    HW1 1157   0.655   0.587   5.521
   86SOL    HW2 1158   0.802   0.647   5.555
   87SOL     OW 1159   4.834   1.702   0.626
   87SOL    HW1 1160   4.915   1.666   0.581
   87SOL    HW2 1161   4.791   1.772   0.569
   88SOL     OW 1162   5.625   1.242   0.989
   88SOL    HW1 1163   5.692   1.256   1.062
   88SOL    HW2 1164   5.539   1.287   1.013
   89SOL     OW 1165   1.565   2.662   6.301
   89SOL    HW1 1166   1.491   2.628   6.243
   89SOL    HW2 1167   1.529   2.726   6.368
   90SOL     OW 1168   5.150   5.998   4.080
   90SOL    HW1 1169   5.216   6.060   4.039
   90SOL    HW2 1170   5.188   5.906   4.084
   91SOL     OW 1171   4.933   4.696   5.206
   91SOL    HW1 1172   4.978   4.643   5.134
   91SOL    HW2 1173   4.891   4.633   5.272
   92SOL     OW 1174   3.376   4.610   1.298
   92SOL    HW1 1175   3.343   4.686   1.354
   92SOL    HW2 1176   3.377   4.526   1.353
   93SOL     OW 1177   3.420   5.408   6.185
   93SOL    HW1 1178   3.334   5.441   6.146
   93SOL    HW2 1179   3.410   5.398   6.284
   94SOL     OW 1180   3.147   5.902   0.243
   94SOL    HW1 1181   3.186   5.834   0.180
   94SOL    HW2 1182   3.048   5.890   0.248
   95SOL     OW 1183   0.325   0.131   3.827
   95SOL    HW1 1184   0.255   0.070   3.863
   95SOL    HW2 1185   0.408   0.124   3.882
   96SOL     OW 1186   2.189   0.078   5.503
   96SOL    HW1 1187   2.174   0.141   5.427
   96SOL    HW2 1188   2.114   0.085   5.568
   97SOL     OW 1189   6.216   3.310   4.331
   97SOL    HW1 1190   6.129   3.275   4.296
   97SOL    HW2 1191   6.291   3.252   4.300
   98SOL     OW 1192   4.882   2.328   6.131
   98SOL    HW1 1193   4.810   2.324   6.062
   98SOL    HW2 1194   4.966   2.290   6.092
   99SOL     OW 1195   4.388   2.002   0.917
   99SOL    HW1 1196   4.316   2.047   0.971
   99SOL    HW2 1197   4.462   2.067   0.901
  100SOL     OW 1198   0.575   6.005   6.722
  100SOL    HW1 1199   0.480   5.974   6.716
  100SOL    HW2 1200   0.636   5.931   6.692
  101SOL     OW 1201   1.613   6.186   3.610
  101SOL    HW1 1202   1.670   6.191   3.692
  101SOL    HW2 1203   1.602   6.090   3.584
  102SOL     OW 1204   3.556   0.564   3.512
  102SOL    HW1 1205   3.620   0.632   3.548
  102SOL    HW2 1206   3.464   0.583   3.549
  103SOL     OW 1207   4.123   2.702   1.432
  103SOL    HW1 1208   4.055   2.720   1.504
  103SOL    HW2 1209   4.137   2.604   1.422
  104SOL     OW 1210   6.971   5.804   2.193
  104SOL    HW1 1211   0.003   5.885   2.220
  104SOL    HW2 1212   7.011   5.764   2.110
  105SOL     OW 1213   5.586   0.949   6.332
  105SOL    HW1 1214   5.618   1.043   6.345
  105SOL    HW2 1215   5.585   0.901   6.420
  106SOL     OW 1216   2.945   6.434   6.488
  106SOL    HW1 1217   2.899   6.369   6.427
  106SOL    HW2 1218   2.940   6.526   6.447
  107SOL     OW 1219   2.187   2.622   0.824
  107SOL    HW1 1220   2.223   2.561   0.753
  107SOL    HW2 1221   2.088   2.628   0.816
  108SOL     OW 1222   5.014   4.532   6.250
  108SOL    HW1 1223   5.109   4.560   6.240
  108SOL    HW2 1224   4.954   4.602   6.210
  109SOL     OW 1225   6.919   0.448   0.434
  109SOL    HW1 1226   6.995   0.490   0.384
  109SOL    HW2 1227   6.832   0.485   0.401
  110SOL     OW 1228   3.500   5.829   5.333
  110SOL    HW1 1229   3.521   5.869   5.422
  110SOL    HW2 1230   3.403   5.844   5.312
  111SOL     OW 1231   4.065   1.159   3.059
  111SOL    HW1 1232   3.969   1.131   3.073
  111SOL    HW2 1233   4.118   1.135   3.140
  112SOL     OW 1234   6.355   6.120   5.827
  112SOL    HW1 1235   6.362   6.177   5.908
  112SOL    HW2 1236   6.418   6.042   5.835
  113SOL     OW 1237   0.187   4.376   3.519
  113SOL    HW1 1238   0.131   4.412   3.593
  113SOL    HW2 1239   0.276   4.347   3.556
  114SOL     OW 1240   0.651   6.733   0.251
  114SOL    HW1 1241   0.618   6.703   0.162
  114SOL    HW2 1242   0.671   6.831   0.248
  115SOL     OW 1243   5.168   1.484   4.517
  115SOL    HW1 1244   5.099   1.451   4.581
  115SOL    HW2 1245   5.129   1.554   4.458
  116SOL     OW 1246   6.226   4.428   2.012
  116SOL    HW1 1247   6.128   4.409   2.021
  116SOL    HW2 1248   6.255   4.491   2.083
  117SOL     OW 1249   1.679   0.181   6.386
  117SOL    HW1 1250   1.661   0.179   6.484
  117SOL    HW2 1251   1.643   0.097   6.344
  118SOL     OW 1252   0.408   0.615   2.080
  118SOL    HW1 1253   0.340   0.592   2.149
  118SOL    HW2 1254   0.372   0.596   1.989
  119SOL     OW 1255   6.652   2.931   5.722
  119SOL    HW1 1256   6.677   3.025   5.698
  119SOL    HW2 1257   6.572   2.903   5.669
  120SOL     OW 1258   5.900   6.660   0.961
  120SOL    HW1 1259   5.923   6.707   0.875
  120SOL    HW2 1260   5.855   6.573   0.941
  121SOL     OW 1261   2.496   3.436   6.321
  121SOL    HW1 1262   2.460   3.518   6.277
  121SOL    HW2 1263   2.548   3.382   6.254
  122SOL     OW 1264   0.531   3.370   4.389
  122SOL    HW1 1265   0.520   3.450   4.447
  122SOL    HW2 1266   0.617   3.376   4.339
  123SOL     OW 1267   0.554   1.802   1.195
  123SOL    HW1 1268   0.484   1.762   1.136
  123SOL    HW2 1269   0.615   1.731   1.229
  124SOL     OW 1270   4.684   3.211   0.464
  124SOL    HW1 1271   4.597   3.161   0.460
  124SOL    HW2 1272   4.756   3.150   0.498
  125SOL     OW 1273   1.715   2.327   1.917
  125SOL    HW1 1274   1.787   2.330   1.986
  125SOL    HW2 1275   1.745   2.272   1.839
  126SOL     OW 1276   3.276   4.850   1.362
  126SOL    HW1 1277   3.184   4.812   1.363
  126SOL    HW2 1278   3.272   4.949   1.376
  127SOL     OW 1279   7.002   5.692   5.891
  127SOL    HW1 1280   0.025   5.703   5.802
  127SOL    HW2 1281   0.051   5.690   5.962
  128SOL     OW 1282   4.566   2.462   1.646
  128SOL    HW1 1283   4.650   2.507   1.676
  128SOL    HW2 1284   4.490   2.491   1.704
  129SOL     OW 1285   3.307   3.550   6.797
  129SOL    HW1 1286   3.211   3.529   6.817
  129SOL    HW2 1287   3.327   3.525   6.702
  130SOL     OW 1288   0.971   0.969   4.386
  130SOL    HW1 1289   1.063   0.929   4.390
  130SOL    HW2 1290   0.924   0.935   4.304
  131SOL     OW 1291   4.753   1.613   2.901
  131SOL    HW1 1292   4.825   1.653   2.844
  131SOL    HW2 1293   4.700   1.549   2.847
  132SOL     OW 1294   1.385   2.702   1.843
  132SOL    HW1 1295   1.414   2.796   1.856
  132SOL    HW2 1296   1.465   2.644   1.826
  133SOL     OW 1297   6.477   6.093   2.620
  133SOL    HW1 1298   6.522   6.028   2.681
  133SOL    HW2 1299   6.542   6.122   2.550
  134SOL     OW 1300   6.985   3.650   3.027
  134SOL    HW1 1301   6.889   3.662   3.005
  134SOL    HW2 1302   0.016   3.730   2.998
  135SOL     OW 1303   4.848   1.871   3.993
  135SOL    HW1 1304   4.836   1.773   4.013
  135SOL    HW2 1305   4.795   1.925   4.059
  136SOL     OW 1306   5.130   4.077   5.631
  136SOL    HW1 1307   5.199   4.046   5.565
  136SOL    HW2 1308   5.078   4.153   5.591
  137SOL     OW 1309   4.444   6.838   5.931
  137SOL    HW1 1310   4.453   6.785   5.847
  137SOL    HW2 1311   4.495   6.924   5.922
  138SOL     OW 1312   6.623   5.172   4.741
  138SOL    HW1 1313   6.557   5.098   4.727
  138SOL    HW2 1314   6.710   5.148   4.698
  139SOL     OW 1315   2.913   4.908   4.977
  139SOL    HW1 1316   2.941   4.909   5.073
  139SOL    HW2 1317   2.861   4.825   4.958
  140SOL     OW 1318   5.604   5.089   4.601
  140SOL    HW1 1319   5.673   5.017   4.598
  140SOL    HW2 1320   5.572   5.101   4.695
  141SOL     OW 1321   1.337   1.928   4.387
  141SOL    HW1 1322   1.280   2.009   4.399
  141SOL    HW2 1323   1.356   1.887   4.476
  142SOL     OW 1324   1.655   5.852   1.491
  142SOL    HW1 1325   1.616   5.933   1.534
  142SOL    HW2 1326   1.755   5.854   1.501
  143SOL     OW 1327   5.298   4.623   2.493
  143SOL    HW1 1328   5.270   4.692   2.426
  143SOL    HW2 1329   5.224   4.608   2.559
  144SOL     OW 1330   1.731   6.583   6.675
  144SOL    HW1 1331   1.725   6.648   6.751
  144SOL    HW2 1332   1.827   6.572   6.649
  145SOL     OW 1333   0.455   5.828   0.873
  145SOL    HW1 1334   0.528   5.884   0.833
  145SOL    HW2 1335   0.413   5.772   0.802
  146SOL     OW 1336   5.595   6.266   1.005
  146SOL    HW1 1337   5.536   6.229   1.077
  146SOL    HW2 1338   5.542   6.279   0.921
  147SOL     OW 1339   6.835   2.521   0.728
  147SOL    HW1 1340   6.758   2.571   0.769
  147SOL    HW2 1341   6.909   2.585   0.709
  148SOL     OW 1342   1.107   5.314   5.562
  148SOL    HW1 1343   1.119   5.347   5.655
  148SOL    HW2 1344   1.188   5.335   5.507
  149SOL     OW 1345   3.037   1.291   4.641
  149SOL    HW1 1346   2.986   1.299   4.555
  149SOL    HW2 1347   3.065   1.381   4.672
  150SOL     OW 1348   0.118   5.145   0.028
  150SOL    HW1 1349   0.204   5.114   0.068
  150SOL    HW2 1350   0.133   5.170   6.953
  151SOL     OW 1351   4.070   1.791   1.428
  151SOL    HW1 1352   4.140   1.760   1.492
  151SOL    HW2 1353   4.012   1.714   1.401
  152SOL     OW 1354   2.941   0.798   4.643
  152SOL    HW1 1355   2.914   0.741   4.565
  152SOL    HW2 1356   2.982   0.883   4.609
  153SOL     OW 1357   1.938   0.835   2.943
  153SOL    HW1 1358   1.865   0.893   2.980
  153SOL    HW2 1359   1.989   0.794   3.019
  154SOL     OW 1360   6.894   1.944   1.971
  154SOL    HW1 1361   6.809   1.989   1.944
  154SOL    HW2 1362   6.905   1.860   1.919
  155SOL     OW 1363   6.904   1.039   2.717
  155SOL    HW1 1364   6.904   1.038   2.817
  155SOL    HW2 1365   6.997   1.027   2.683
  156SOL     OW 1366   6.250   1.896   0.641
  156SOL    HW1 1367   6.290   1.933   0.724
  156SOL    HW2 1368   6.271   1.956   0.564
  157SOL     OW 1369   6.110   3.557   2.767
  157SOL    HW1 1370   6.183   3.506   2.722
  157SOL    HW2 1371   6.148   3.629   2.825
  158SOL     OW 1372   2.303   1.081   2.695
  158SOL    HW1 1373   2.359   1.150   2.740
  158SOL    HW2 1374   2.235   1.046   2.760
  159SOL     OW 1375   4.823   4.229   1.951
  159SOL    HW1 1376   4.784   4.286   1.878
  159SOL    HW2 1377   4.763   4.232   2.031
  160SOL     OW 1378   6.852   4.129   5.761
  160SOL    HW1 1379   6.877   4.036   5.733
  160SOL    HW2 1380   6.768   4.156   5.714
  161SOL     OW 1381   1.958   4.937   5.135
  161SOL    HW1 1382   1.992   4.930   5.229
  161SOL    HW2 1383   1.899   5.017   5.127
  162SOL     OW 1384   4.372   5.887   1.252
  162SOL    HW1 1385   4.390   5.840   1.166
  162SOL    HW2 1386   4.283   5.860   1.287
  163SOL     OW 1387   4.611   0.201   2.031
  163SOL    HW1 1388   4.628   0.210   1.933
  163SOL    HW2 1389   4.630   0.108   2.060
  164SOL     OW 1390   6.110   3.554   1.008
  164SOL    HW1 1391   6.034   3.588   0.953
  164SOL    HW2 1392   6.093   3.458   1.033
  165SOL     OW 1393   4.798   3.057   6.614
  165SOL    HW1 1394   4.787   3.020   6.706
  165SOL    HW2 1395   4.768   3.152   6.613
  166SOL     OW 1396   0.391   6.896   2.453
  166SOL    HW1 1397   0.302   6.878   2.410
  166SOL    HW2 1398   0.462   6.896   2.382
  167SOL     OW 1399   6.411   2.799   0.008
  167SOL    HW1 1400   6.403   2.750   6.941
  167SOL    HW2 1401   6.498   2.848   0.011
  168SOL     OW 1402   2.201   5.375   1.121
  168SOL    HW1 1403   2.269   5.314   1.160
  168SOL    HW2 1404   2.240   5.467   1.112
  169SOL     OW 1405   2.055   0.202   1.938
  169SOL    HW1 1406   2.122   0.163   2.001
  169SOL    HW2 1407   2.076   0.299   1.923
  170SOL     OW 1408   0.130   1.478   3.490
  170SOL    HW1 1409   0.228   1.498   3.483
  170SOL    HW2 1410   0.097   1.445   3.402
  171SOL     OW 1411   3.760   3.833   0.138
  171SOL    HW1 1412   3.720   3.849   0.047
  171SOL    HW2 1413   3.688   3.803   0.201
  172SOL     OW 1414   6.752   2.476   5.321
  172SOL    HW1 1415   6.756   2.377   5.334
  172SOL    HW2 1416   6.734   2.497   5.224
  173SOL     OW 1417   0.335   6.729   4.942
  173SOL    HW1 1418   0.320   6.805   5.006
  173SOL    HW2 1419   0.286   6.747   4.857
  174SOL     OW 1420   2.483   5.030   3.650
  174SOL    HW1 1421   2.497   4.965   3.575
  174SOL    HW2 1422   2.389   5.065   3.646
  175SOL     OW 1423   1.930   5.950   2.508
  175SOL    HW1 1424   2.007   5.950   2.445
  175SOL    HW2 1425   1.916   5.857   2.544
  176SOL     OW 1426   2.009   4.110   0.958
  176SOL    HW1 1427   2.021   4.037   0.892
  176SOL    HW2 1428   1.966   4.074   1.041
  177SOL     OW 1429   5.076   2.285   2.400
  177SOL    HW1 1430   5.044   2.257   2.491
  177SOL    HW2 1431   5.004   2.337   2.354
  178SOL     OW 1432   5.165   4.910   6.670
  178SOL    HW1 1433   5.205   4.978   6.608
  178SOL    HW2 1434   5.071   4.889   6.641
  179SOL     OW 1435   3.119   0.259   0.873
  179SOL    HW1 1436   3.083   0.243   0.781
  179SOL    HW2 1437   3.157   0.351   0.879
  180SOL     OW 1438   0.696   1.370   6.649
  180SOL    HW1 1439   0.781   1.373   6.596
  180SOL    HW2 1440   0.718   1.373   6.746
  181SOL     OW 1441   3.782   2.910   5.731
  181SOL    HW1 1442   3.865   2.894   5.784
  181SOL    HW2 1443   3.709   2.940   5.793
  182SOL     OW 1444   4.037   1.966   4.960
  182SOL    HW1 1445   4.098   1.897   4.999
  182SOL    HW2 1446   4.048   2.052   5.010
  183SOL     OW 1447   4.777   1.246   1.872
  183SOL    HW1 1448   4.873   1.254   1.899
  183SOL    HW2 1449   4.718   1.272   1.949
  184SOL     OW 1450   0.584   4.877   3.054
  184SOL    HW1 1451   0.570   4.839   3.146
  184SOL    HW2 1452   0.624   4.807   2.995
  185SOL     OW 1453   1.763   3.618   6.070
  185SOL    HW1 1454   1.761   3.518   6.059
  185SOL    HW2 1455   1.857   3.647   6.088
  186SOL     OW 1456   5.385   0.211   3.437
  186SOL    HW1 1457   5.353   0.280   3.372
  186SOL    HW2 1458   5.438   0.255   3.509
  187SOL     OW 1459   5.435   0.770   4.212
  187SOL    HW1 1460   5.456   0.868   4.220
  187SOL    HW2 1461   5.515   0.716   4.240
  188SOL     OW 1462   6.122   2.406   3.352
  188SOL    HW1 1463   6.174   2.476   3.401
  188SOL    HW2 1464   6.059   2.361   3.415
  189SOL     OW 1465   1.972   4.502   2.603
  189SOL    HW1 1466   1.983   4.498   2.503
  189SOL    HW2 1467   1.883   4.463   2.628
  190SOL     OW 1468   4.031   0.947   5.433
  190SOL    HW1 1469   3.965   0.964   5.360
  190SOL    HW2 1470   4.109   0.895   5.398
  191SOL     OW 1471   5.792   5.388   6.597
  191SOL    HW1 1472   5.857   5.356   6.666
  191SOL    HW2 1473   5.700   5.386   6.635
  192SOL     OW 1474   6.966   0.676   1.858
  192SOL    HW1 1475   7.012   0.741   1.919
  192SOL    HW2 1476   6.890   0.633   1.908
  193SOL     OW 1477   5.414   3.962   6.881
  193SOL    HW1 1478   5.481   4.015   6.934
  193SOL    HW2 1479   5.327   3.960   6.930
  194SOL     OW 1480   3.307   0.632   3.600
  194SOL    HW1 1481   3.279   0.727   3.586
  194SOL    HW2 1482   3.227   0.572   3.595
  195SOL     OW 1483   1.301   5.692   3.240
  195SOL    HW1 1484   1.286   5.660   3.146
  195SOL    HW2 1485   1.213   5.693   3.289
  196SOL     OW 1486   1.299   1.674   0.160
  196SOL    HW1 1487   1.326   1.757   0.111
  196SOL    HW2 1488   1.292   1.599   0.095
  197SOL     OW 1489   1.618   0.800   1.099
  197SOL    HW1 1490   1.518   0.800   1.098
  197SOL    HW2 1491   1.650   0.880   1.151
  198SOL     OW 1492   3.506   1.940   3.540
  198SOL    HW1 1493   3.530   1.880   3.464
  198SOL    HW2 1494   3.417   1.983   3.522
  199SOL     OW 1495   1.278   2.662   3.688
  199SOL    HW1 1496   1.193   2.613   3.670
  199SOL    HW2 1497   1.303   2.651   3.784
  200SOL     OW 1498   0.347   2.616   0.390
  200SOL    HW1 1499   0.356   2.711   0.362
  200SOL    HW2 1500   0.266   2.576   0.348
  201SOL     OW 1501   0.236   0.857   6.187
  201SOL    HW1 1502   0.302   0.814   6.125
  201SOL    HW2 1503   0.264   0.843   6.281
  202SOL     OW 1504   4.549   6.984   6.729
  202SOL    HW1 1505   4.482   0.037   6.742
  202SOL    HW2 1506   4.507   6.909   6.678
  203SOL     OW 1507   5.596   2.815   5.613
  203SOL    HW1 1508   5.545   2.901   5.618
  203SOL    HW2 1509   5.569   2.764   5.531
  204SOL     OW 1510   6.589   0.848   5.827
  204SOL    HW1 1511   6.526   0.866   5.902
  204SOL    HW2 1512   6.574   0.914   5.754
  205SOL     OW 1513   0.943   2.856   1.939
  205SOL    HW1 1514   0.969   2.949   1.964
  205SOL    HW2 1515   0.846   2.854   1.914
  206SOL     OW 1516   0.658   2.922   0.643
  206SOL    HW1 1517   0.668   3.018   0.667
  206SOL    HW2 1518   0.640   2.914   0.545
  207SOL     OW 1519   5.084   2.165   3.782
  207SOL    HW1 1520   5.031   2.246   3.757
  207SOL    HW2 1521   5.028   2.083   3.768
  208SOL     OW 1522   1.003   3.887   4.314
  208SOL    HW1 1523   0.971   3.853   4.403
  208SOL    HW2 1524   1.101   3.869   4.306
  209SOL     OW 1525   6.593   4.138   2.637
  209SOL    HW1 1526   6.573   4.045   2.670
  209SOL    HW2 1527   6.620   4.195   2.715
  210SOL     OW 1528   5.346   2.458   0.180
  210SOL    HW1 1529   5.332   2.453   0.279
  210SOL    HW2 1530   5.259   2.442   0.134
  211SOL     OW 1531   6.992   0.876   3.515
  211SOL    HW1 1532   6.960   0.807   3.449
  211SOL    HW2 1533   0.054   0.843   3.560
  212SOL     OW 1534   1.790   3.723   3.249
  212SOL    HW1 1535   1.771   3.721   3.348
  212SOL    HW2 1536   1.875   3.675   3.231
  213SOL     OW 1537   1.956   5.082   1.109
  213SOL    HW1 1538   1.902   5.160   1.139
  213SOL    HW2 1539   2.034   5.069   1.170
  214SOL     OW 1540   4.108   6.061   2.509
  214SOL    HW1 1541   4.010   6.062   2.493
  214SOL    HW2 1542   4.128   6.006   2.590
  215SOL     OW 1543   2.485   4.604   2.077
  215SOL    HW1 1544   2.494   4.617   1.978
  215SOL    HW2 1545   2.554   4.660   2.124
  216SOL     OW 1546   1.385   6.767   2.436
  216SOL    HW1 1547   1.383   6.694   2.369
  216SOL    HW2 1548   1.401   6.854   2.390
  217SOL     OW 1549   1.755   3.828   6.539
  217SOL    HW1 1550   1.781   3.743   6.584
  217SOL    HW2 1551   1.837   3.870   6.499
  218SOL     OW 1552   0.738   2.475   5.053
  218SOL    HW1 1553   0.785   2.563   5.052
  218SOL    HW2 1554   0.805   2.401   5.054
  219SOL     OW 1555   4.011   1.681   0.772
  219SOL    HW1 1556   4.096   1.735   0.765
  219SOL    HW2 1557   3.933   1.743   0.770
  220SOL     OW 1558   3.225   6.763   0.892
  220SOL    HW1 1559   3.207   6.774   0.795
  220SOL    HW2 1560   3.190   6.674   0.922
  221SOL     OW 1561   4.944   6.008   1.358
  221SOL    HW1 1562   4.919   6.019   1.455
  221SOL    HW2 1563   4.943   6.097   1.314
  222SOL     OW 1564   2.302   4.251   6.102
  222SOL    HW1 1565   2.289   4.159   6.065
  222SOL    HW2 1566   2.337   4.311   6.030
  223SOL     OW 1567   6.489   2.231   5.326
  223SOL    HW1 1568   6.442   2.143   5.336
  223SOL    HW2 1569   6.574   2.229   5.379
  224SOL     OW 1570   2.235   1.923   5.992
  224SOL    HW1 1571   2.151   1.894   6.038
  224SOL    HW2 1572   2.259   2.015   6.021
  225SOL     OW 1573   4.647   5.113   6.259
  225SOL    HW1 1574   4.680   5.126   6.166
  225SOL    HW2 1575   4.677   5.023   6.293
  226SOL     OW 1576   1.141   2.003   6.665
  226SOL    HW1 1577   1.120   1.952   6.748
  226SOL    HW2 1578   1.056   2.029   6.620
  227SOL     OW 1579   1.436   3.762   1.826
  227SOL    HW1 1580   1.474   3.674   1.856
  227SOL    HW2 1581   1.341   3.749   1.798
  228SOL     OW 1582   1.578   6.970   2.594
  228SOL    HW1 1583   1.566   0.000   2.508
  228SOL    HW2 1584   1.491   6.965   2.642
  229SOL     OW 1585   4.951   5.413   6.330
  229SOL    HW1 1586   5.030   5.466   6.298
  229SOL    HW2 1587   4.945   5.328   6.277
  230SOL     OW 1588   4.809   6.032   5.361
  230SOL    HW1 1589   4.863   6.073   5.288
  230SOL    HW2 1590   4.809   6.093   5.441
  231SOL     OW 1591   5.128   1.017   0.163
  231SOL    HW1 1592   5.146   0.966   0.079
  231SOL    HW2 1593   5.123   1.115   0.142
  232SOL     OW 1594   1.699   2.792   5.786
  232SOL    HW1 1595   1.606   2.829   5.792
  232SOL    HW2 1596   1.739   2.788   5.878
  233SOL     OW 1597   2.553   1.069   3.065
  233SOL    HW1 1598   2.600   0.985   3.038
  233SOL    HW2 1599   2.470   1.047   3.115
  234SOL     OW 1600   4.675   1.344   6.495
  234SOL    HW1 1601   4.674   1.333   6.594
  234SOL    HW2 1602   4.765   1.377   6.466
  235SOL     OW 1603   4.911   2.469   2.277
  235SOL    HW1 1604   4.918   2.569   2.275
  235SOL    HW2 1605   4.872   2.437   2.191
  236SOL     OW 1606   4.400   4.273   6.292
  236SOL    HW1 1607   4.497   4.251   6.306
  236SOL    HW2 1608   4.391   4.371   6.274
  237SOL     OW 1609   6.238   3.802   2.855
  237SOL    HW1 1610   6.236   3.902   2.857
  237SOL    HW2 1611   6.239   3.767   2.949
  238SOL     OW 1612   6.469   1.436   0.256
  238SOL    HW1 1613   6.480   1.526   0.298
  238SOL    HW2 1614   6.542   1.376   0.288
  239SOL     OW 1615   0.957   3.584   0.480
  239SOL    HW1 1616   0.917   3.559   0.392
  239SOL    HW2 1617   1.043   3.632   0.465
  240SOL     OW 1618   6.204   2.879   3.232
  240SOL    HW1 1619   6.166   2.797   3.276
  240SOL    HW2 1620   6.303   2.879   3.242
  241SOL     OW 1621   2.722   1.501   3.685
  241SOL    HW1 1622   2.691   1.562   3.759
  241SOL    HW2 1623   2.822   1.494   3.690
  242SOL     OW 1624   3.848   3.545   3.749
  242SOL    HW1 1625   3.946   3.524   3.744
  242SOL    HW2 1626   3.807   3.493   3.824
  243SOL     OW 1627   4.484   2.537   6.239
  243SOL    HW1 1628   4.494   2.439   6.259
  243SOL    HW2 1629   4.435   2.581   6.314
  244SOL     OW 1630   6.020   3.857   5.693
  244SOL    HW1 1631   5.922   3.878   5.686
  244SOL    HW2 1632   6.050   3.809   5.610
  245SOL     OW 1633   3.648   1.977   2.382
  245SOL    HW1 1634   3.619   1.891   2.341
  245SOL    HW2 1635   3.730   2.011   2.334
  246SOL     OW 1636   6.304   1.455   3.579
  246SOL    HW1 1637   6.330   1.551   3.573
  246SOL    HW2 1638   6.270   1.424   3.490
  247SOL     OW 1639   2.185   1.283   0.888
  247SOL    HW1 1640   2.201   1.378   0.913
  247SOL    HW2 1641   2.271   1.240   0.862
  248SOL     OW 1642   1.603   1.514   1.969
  248SOL    HW1 1643   1.604   1.569   2.052
  248SOL    HW2 1644   1.508   1.501   1.939
  249SOL     OW 1645   5.891   6.555   4.875
  249SOL    HW1 1646   5.903   6.482   4.943
  249SOL    HW2 1647   5.811   6.610   4.899
  250SOL     OW 1648   3.342   2.551   1.122
  250SOL    HW1 1649   3.377   2.638   1.159
  250SOL    HW2 1650   3.398   2.476   1.155
  251SOL     OW 1651   4.448   3.824   5.847
  251SOL    HW1 1652   4.398   3.905   5.816
  251SOL    HW2 1653   4.441   3.753   5.777
  252SOL     OW 1654   6.091   6.323   5.656
  252SOL    HW1 1655   6.026   6.382   5.608
  252SOL    HW2 1656   6.139   6.266   5.591
  253SOL     OW 1657   4.600   5.513   6.108
  253SOL    HW1 1658   4.663   5.488   6.035
  253SOL    HW2 1659   4.650   5.525   6.193
  254SOL     OW 1660   6.059   2.883   4.484
  254SOL    HW1 1661   5.968   2.925   4.486
  254SOL    HW2 1662   6.064   2.811   4.553
  255SOL     OW 1663   2.051   4.443   5.903
  255SOL    HW1 1664   2.053   4.351   5.943
  255SOL    HW2 1665   2.050   4.435   5.804
  256SOL     OW 1666   5.078   3.192   5.064
  256SOL    HW1 1667   4.999   3.217   5.120
  256SOL    HW2 1668   5.112   3.273   5.016
  257SOL     OW 1669   4.774   6.003   3.053
  257SOL    HW1 1670   4.754   6.017   2.956
  257SOL    HW2 1671   4.873   5.990   3.065
  258SOL     OW 1672   2.378   3.897   5.797
  258SOL    HW1 1673   2.472   3.865   5.783
  258SOL    HW2 1674   2.319   3.819   5.816
  259SOL     OW 1675   3.850   0.039   3.193
  259SOL    HW1 1676   3.808   7.013   3.116
  259SOL    HW2 1677   3.782   0.096   3.239
  260SOL     OW 1678   4.086   5.739   3.096
  260SOL    HW1 1679   4.140   5.755   3.179
  260SOL    HW2 1680   3.995   5.707   3.122
  261SOL     OW 1681   4.534   4.899   0.402
  261SOL    HW1 1682   4.524   4.919   0.499
  261SOL    HW2 1683   4.454   4.847   0.370
  262SOL     OW 1684   2.064   4.314   0.047
  262SOL    HW1 1685   2.063   4.316   6.967
  262SOL    HW2 1686   2.122   4.239   0.079
  263SOL     OW 1687   1.265   6.542   4.009
  263SOL    HW1 1688   1.278   6.483   3.929
  263SOL    HW2 1689   1.353   6.572   4.043
  264SOL     OW 1690   0.171   3.428   6.760
  264SOL    HW1 1691   0.250   3.485   6.736
  264SOL    HW2 1692   0.174   3.406   6.857
  265SOL     OW 1693   6.373   0.272   4.037
  265SOL    HW1 1694   6.445   0.217   4.080
  265SOL    HW2 1695   6.297   0.283   4.102
  266SOL     OW 1696   4.227   1.522   5.605
  266SOL    HW1 1697   4.248   1.565   5.518
  266SOL    HW2 1698   4.162   1.579   5.656
  267SOL     OW 1699   1.324   0.613   5.287
  267SOL    HW1 1700   1.409   0.571   5.256
  267SOL    HW2 1701   1.320   0.610   5.387
  268SOL     OW 1702   3.786   1.220   0.981
  268SOL    HW1 1703   3.792   1.144   0.916
  268SOL    HW2 1704   3.729   1.193   1.058
  269SOL     OW 1705   4.083   2.090   0.082
  269SOL    HW1 1706   3.986   2.081   0.058
  269SOL    HW2 1707   4.134   2.119   0.002
  270SOL     OW 1708   6.740   6.981   0.006
  270SOL    HW1 1709   6.802   0.038   0.017
  270SOL    HW2 1710   6.782   6.912   6.969
  271SOL     OW 1711   0.119   2.668   5.821
  271SOL    HW1 1712   0.186   2.630   5.756
  271SOL    HW2 1713   0.097   2.762   5.794
  272SOL     OW 1714   3.118   6.303   3.583
  272SOL    HW1 1715   3.211   6.275   3.607
  272SOL    HW2 1716   3.065   6.223   3.557
  273SOL     OW 1717   1.793   5.463   5.320
  273SOL    HW1 1718   1.878   5.435   5.274
  273SOL    HW2 1719   1.730   5.386   5.323
  274SOL     OW 1720   4.261   0.876   4.014
  274SOL    HW1 1721   4.322   0.888   4.093
  274SOL    HW2 1722   4.316   0.856   3.933
  275SOL     OW 1723   0.092   6.596   2.544
  275SOL    HW1 1724   0.015   6.592   2.608
  275SOL    HW2 1725   0.178   6.599   2.595
  276SOL     OW 1726   0.212   0.050   4.549
  276SOL    HW1 1727   0.163   0.083   4.468
  276SOL    HW2 1728   0.216   0.123   4.617
  277SOL     OW 1729   2.204   3.207   0.946
  277SOL    HW1 1730   2.220   3.119   0.903
  277SOL    HW2 1731   2.210   3.280   0.878
  278SOL     OW 1732   0.565   2.584   2.424
  278SOL    HW1 1733   0.512   2.598   2.340
  278SOL    HW2 1734   0.566   2.669   2.477
  279SOL     OW 1735   5.827   2.675   4.233
  279SOL    HW1 1736   5.769   2.640   4.307
  279SOL    HW2 1737   5.796   2.766   4.207
  280SOL     OW 1738   1.858   4.366   2.074
  280SOL    HW1 1739   1.859   4.462   2.045
  280SOL    HW2 1740   1.951   4.335   2.089
  281SOL     OW 1741   2.015   3.870   0.750
  281SOL    HW1 1742   2.109   3.862   0.784
  281SOL    HW2 1743   1.982   3.779   0.724
  282SOL     OW 1744   3.504   1.665   6.123
  282SOL    HW1 1745   3.494   1.629   6.030
  282SOL    HW2 1746   3.480   1.761   6.125
  283SOL     OW 1747   4.930   2.945   6.171
  283SOL    HW1 1748   4.835   2.922   6.189
  283SOL    HW2 1749   4.965   2.888   6.096
  284SOL     OW 1750   0.763   3.418   3.814
  284SOL    HW1 1751   0.709   3.441   3.895
  284SOL    HW2 1752   0.860   3.427   3.835
  285SOL     OW 1753   5.607   4.513   4.129
  285SOL    HW1 1754   5.636   4.433   4.182
  285SOL    HW2 1755   5.579   4.586   4.191
  286SOL     OW 1756   3.556   3.640   6.821
  286SOL    HW1 1757   3.456   3.649   6.818
  286SOL    HW2 1758   3.596   3.724   6.856
  287SOL     OW 1759   1.853   3.899   0.457
  287SOL    HW1 1760   1.820   3.993   0.471
  287SOL    HW2 1761   1.828   3.868   0.365
  288SOL     OW 1762   5.140   1.948   6.881
  288SOL    HW1 1763   5.170   2.008   6.806
  288SOL    HW2 1764   5.191   1.862   6.878
  289SOL     OW 1765   2.849   4.751   6.200
  289SOL    HW1 1766   2.913   4.808   6.150
  289SOL    HW2 1767   2.818   4.676   6.141
  290SOL     OW 1768   0.093   1.948   5.671
  290SOL    HW1 1769   0.192   1.952   5.687
  290SOL    HW2 1770   0.047   2.021   5.721
  291SOL     OW 1771   6.865   2.039   2.826
  291SOL    HW1 1772   6.941   2.101   2.808
  291SOL    HW2 1773   6.899   1.945   2.829
  292SOL     OW 1774   1.757   0.234   3.202
  292SOL    HW1 1775   1.728   0.306   3.264
  292SOL    HW2 1776   1.718   0.249   3.111
  293SOL     OW 1777   4.002   5.303   3.835
  293SOL    HW1 1778   3.973   5.378   3.775
  293SOL    HW2 1779   3.921   5.254   3.868
  294SOL     OW 1780   4.746   5.946   6.828
  294SOL    HW1 1781   4.704   5.919   6.741
  294SOL    HW2 1782   4.812   6.020   6.812
  295SOL     OW 1783   5.256   0.546   4.569
  295SOL    HW1 1784   5.351   0.517   4.557
  295SOL    HW2 1785   5.250   0.609   4.647
  296SOL     OW 1786   2.955   2.256   3.923
  296SOL    HW1 1787   2.905   2.288   3.843
  296SOL    HW2 1788   2.994   2.334   3.971
  297SOL     OW 1789   1.319   4.118   3.095
  297SOL    HW1 1790   1.270   4.182   3.036
  297SOL    HW2 1791   1.368   4.168   3.166
  298SOL     OW 1792   6.280   4.911   1.133
  298SOL    HW1 1793   6.372   4.892   1.100
  298SOL    HW2 1794   6.253   5.003   1.104
  299SOL     OW 1795   6.642   2.378   4.403
  299SOL    HW1 1796   6.736   2.405   4.381
  299SOL    HW2 1797   6.638   2.346   4.497
  300SOL     OW 1798   6.194   0.063   2.803
  300SOL    HW1 1799   6.268   0.129   2.786
  300SOL    HW2 1800   6.106   0.110   2.800
  301SOL     OW 1801   5.549   4.100   6.151
  301SOL    HW1 1802   5.470   4.078   6.095
  301SOL    HW2 1803   5.519   4.143   6.237
  302SOL     OW 1804   0.428   6.696   3.359
  302SOL    HW1 1805   0.485   6.776   3.337
  302SOL    HW2 1806   0.341   6.705   3.311
  303SOL     OW 1807   5.339   0.761   3.920
  303SOL    HW1 1808   5.243   0.782   3.900
  303SOL    HW2 1809   5.352   0.758   4.019
  304SOL     OW 1810   2.915   0.045   3.118
  304SOL    HW1 1811   2.895   0.143   3.110
  304SOL    HW2 1812   2.860   0.006   3.192
  305SOL     OW 1813   1.376   3.451   1.273
  305SOL    HW1 1814   1.351   3.524   1.337
  305SOL    HW2 1815   1.313   3.453   1.195
  306SOL     OW 1816   2.239   0.309   3.597
  306SOL    HW1 1817   2.172   0.366   3.644
  306SOL    HW2 1818   2.228   0.318   3.498
  307SOL     OW 1819   3.761   0.394   1.314
  307SOL    HW1 1820   3.782   0.297   1.323
  307SOL    HW2 1821   3.723   0.429   1.400
  308SOL     OW 1822   0.584   5.342   4.160
  308SOL    HW1 1823   0.550   5.318   4.069
  308SOL    HW2 1824   0.678   5.374   4.153
  309SOL     OW 1825   4.323   5.201   5.069
  309SOL    HW1 1826   4.371   5.280   5.030
  309SOL    HW2 1827   4.363   5.117   5.032
  310SOL     OW 1828   0.470   6.810   5.891
  310SOL    HW1 1829   0.562   6.795   5.854
  310SOL    HW2 1830   0.476   6.866   5.974
  311SOL     OW 1831   0.586   0.328   0.943
  311SOL    HW1 1832   0.626   0.413   0.978
  311SOL    HW2 1833   0.549   0.275   1.019
  312SOL     OW 1834   4.421   1.864   4.833
  312SOL    HW1 1835   4.351   1.849   4.902
  312SOL    HW2 1836   4.378   1.893   4.747
  313SOL     OW 1837   1.133   3.843   1.217
  313SOL    HW1 1838   1.042   3.881   1.204
  313SOL    HW2 1839   1.167   3.867   1.308
  314SOL     OW 1840   3.775   6.612   0.825
  314SOL    HW1 1841   3.874   6.622   0.820
  314SOL    HW2 1842   3.748   6.524   0.788
  315SOL     OW 1843   0.728   2.574   3.135
  315SOL    HW1 1844   0.800   2.636   3.103
  315SOL    HW2 1845   0.641   2.624   3.142
  316SOL     OW 1846   2.965   2.281   4.331
  316SOL    HW1 1847   3.059   2.264   4.301
  316SOL    HW2 1848   2.953   2.242   4.423
  317SOL     OW 1849   0.009   1.907   6.622
  317SOL    HW1 1850   0.037   1.829   6.677
  317SOL    HW2 1851   0.079   1.978   6.625
  318SOL     OW 1852   2.381   5.098   0.817
  318SOL    HW1 1853   2.471   5.108   0.776
  318SOL    HW2 1854   2.342   5.188   0.836
  319SOL     OW 1855   1.411   6.506   0.272
  319SOL    HW1 1856   1.426   6.604   0.258
  319SOL    HW2 1857   1.315   6.485   0.253
  320SOL     OW 1858   5.599   3.462   0.627
  320SOL    HW1 1859   5.646   3.514   0.556
  320SOL    HW2 1860   5.660   3.452   0.706
  321SOL     OW 1861   2.045   1.678   0.818
  321SOL    HW1 1862   2.088   1.747   0.761
  321SOL    HW2 1863   2.023   1.597   0.763
  322SOL     OW 1864   3.468   2.939   4.780
  322SOL    HW1 1865   3.456   2.985   4.868
  322SOL    HW2 1866   3.562   2.953   4.748
  323SOL     OW 1867   0.779   4.725   1.794
  323SOL    HW1 1868   0.733   4.748   1.879
  323SOL    HW2 1869   0.828   4.638   1.804
  324SOL     OW 1870   0.769   3.070   4.693
  324SOL    HW1 1871   0.767   3.001   4.621
  324SOL    HW2 1872   0.832   3.144   4.667
  325SOL     OW 1873   2.168   3.099   2.628
  325SOL    HW1 1874   2.208   3.008   2.643
  325SOL    HW2 1875   2.175   3.122   2.531
  326SOL     OW 1876   1.933   4.754   6.317
  326SOL    HW1 1877   1.940   4.727   6.221
  326SOL    HW2 1878   1.851   4.712   6.357
  327SOL     OW 1879   6.354   5.330   5.268
  327SOL    HW1 1880   6.421   5.387   5.221
  327SOL    HW2 1881   6.345   5.243   5.219
  328SOL     OW 1882   3.135   5.741   2.075
  328SOL    HW1 1883   3.193   5.753   1.994
  328SOL    HW2 1884   3.176   5.672   2.135
  329SOL     OW 1885   3.319   3.174   2.636
  329SOL    HW1 1886   3.330   3.252   2.575
  329SOL    HW2 1887   3.331   3.203   2.731
  330SOL     OW 1888   3.817   0.800   1.627
  330SOL    HW1 1889   3.790   0.723   1.684
  330SOL    HW2 1890   3.743   0.867   1.626
  331SOL     OW 1891   4.940   5.195   6.155
  331SOL    HW1 1892   4.878   5.161   6.085
  331SOL    HW2 1893   5.035   5.180   6.126
  332SOL     OW 1894   3.973   1.721   2.967
  332SOL    HW1 1895   3.910   1.722   3.044
  332SOL    HW2 1896   4.015   1.630   2.959
  333SOL     OW 1897   3.672   5.990   6.356
  333SOL    HW1 1898   3.634   6.045   6.282
  333SOL    HW2 1899   3.755   5.944   6.324
  334SOL     OW 1900   4.302   6.962   2.782
  334SOL    HW1 1901   4.390   6.916   2.798
  334SOL    HW2 1902   4.279   6.957   2.685
  335SOL     OW 1903   3.060   6.948   3.363
  335SOL    HW1 1904   3.132   7.010   3.394
  335SOL    HW2 1905   3.023   6.981   3.276
  336SOL     OW 1906   3.117   1.009   4.502
  336SOL    HW1 1907   3.207   1.003   4.544
  336SOL    HW2 1908   3.087   1.105   4.503
  337SOL     OW 1909   6.743   4.041   1.379
  337SOL    HW1 1910   6.716   4.133   1.406
  337SOL    HW2 1911   6.688   4.011   1.301
  338SOL     OW 1912   3.552   2.597   1.363
  338SOL    HW1 1913   3.591   2.515   1.321
  338SOL    HW2 1914   3.625   2.663   1.382
  339SOL     OW 1915   4.165   6.476   3.063
  339SOL    HW1 1916   4.077   6.482   3.112
  339SOL    HW2 1917   4.235   6.526   3.114
  340SOL     OW 1918   4.913   4.051   4.276
  340SOL    HW1 1919   4.937   3.994   4.354
  340SOL    HW2 1920   4.919   3.997   4.192
  341SOL     OW 1921   5.349   5.352   4.753
  341SOL    HW1 1922   5.355   5.425   4.684
  341SOL    HW2 1923   5.440   5.315   4.771
  342SOL     OW 1924   6.314   4.144   0.766
  342SOL    HW1 1925   6.300   4.222   0.827
  342SOL    HW2 1926   6.338   4.064   0.821
  343SOL     OW 1927   3.252   0.465   2.777
  343SOL    HW1 1928   3.231   0.368   2.772
  343SOL    HW2 1929   3.204   0.506   2.855
  344SOL     OW 1930   3.174   5.289   0.369
  344SOL    HW1 1931   3.141   5.345   0.445
  344SOL    HW2 1932   3.106   5.220   0.346
  345SOL     OW 1933   0.685   6.842   5.483
  345SOL    HW1 1934   0.683   6.941   5.493
  345SOL    HW2 1935   0.678   6.818   5.386
  346SOL     OW 1936   1.557   6.971   3.435
  346SOL    HW1 1937   1.476   6.939   3.484
  346SOL    HW2 1938   1.555   6.937   3.341
  347SOL     OW 1939   4.936   6.481   6.412
  347SOL    HW1 1940   4.940   6.570   6.368
  347SOL    HW2 1941   5.025   6.436   6.403
  348SOL     OW 1942   3.662   5.803   2.110
  348SOL    HW1 1943   3.623   5.894   2.095
  348SOL    HW2 1944   3.606   5.735   2.062
  349SOL     OW 1945   1.460   5.056   2.220
  349SOL    HW1 1946   1.413   5.092   2.140
  349SOL    HW2 1947   1.556   5.039   2.197
  350SOL     OW 1948   4.874   3.177   0.969
  350SOL    HW1 1949   4.913   3.269   0.963
  350SOL    HW2 1950   4.859   3.153   1.065
  351SOL     OW 1951   3.276   2.320   0.508
  351SOL    HW1 1952   3.358   2.269   0.480
  351SOL    HW2 1953   3.255   2.390   0.439
  352SOL     OW 1954   3.148   1.065   6.601
  352SOL    HW1 1955   3.164   0.989   6.664
  352SOL    HW2 1956   3.129   1.148   6.654
  353SOL     OW 1957   2.388   6.596   1.122
  353SOL    HW1 1958   2.426   6.610   1.213
  353SOL    HW2 1959   2.442   6.646   1.054
  354SOL     OW 1960   4.530   1.131   1.730
  354SOL    HW1 1961   4.591   1.199   1.770
  354SOL    HW2 1962   4.548   1.124   1.632
  355SOL     OW 1963   0.496   2.294   1.878
  355SOL    HW1 1964   0.552   2.212   1.869
  355SOL    HW2 1965   0.415   2.274   1.932
  356SOL     OW 1966   4.221   5.434   3.409
  356SOL    HW1 1967   4.279   5.383   3.347
  356SOL    HW2 1968   4.276   5.501   3.460
  357SOL     OW 1969   0.785   5.076   5.152
  357SOL    HW1 1970   0.696   5.117   5.130
  357SOL    HW2 1971   0.840   5.142   5.204
  358SOL     OW 1972   5.655   0.743   1.783
  358SOL    HW1 1973   5.653   0.808   1.706
  358SOL    HW2 1974   5.749   0.714   1.800
  359SOL     OW 1975   0.811   1.281   2.016
  359SOL    HW1 1976   0.886   1.348   2.023
  359SOL    HW2 1977   0.753   1.288   2.098
  360SOL     OW 1978   4.038   6.658   0.757
  360SOL    HW1 1979   4.053   6.632   0.661
  360SOL    HW2 1980   4.073   6.750   0.772
  361SOL     OW 1981   4.708   0.461   2.818
  361SOL    HW1 1982   4.674   0.538   2.872
  361SOL    HW2 1983   4.673   0.468   2.724
  362SOL     OW 1984   2.500   3.229   1.085
  362SOL    HW1 1985   2.435   3.178   1.141
  362SOL    HW2 1986   2.573   3.264   1.142
  363SOL     OW 1987   4.596   4.992   4.451
  363SOL    HW1 1988   4.561   5.084   4.436
  363SOL    HW2 1989   4.616   4.949   4.363
  364SOL     OW 1990   1.790   5.497   5.771
  364SOL    HW1 1991   1.702   5.535   5.801
  364SOL    HW2 1992   1.864   5.547   5.816
  365SOL     OW 1993   4.593   6.379   2.768
  365SOL    HW1 1994   4.591   6.460   2.827
  365SOL    HW2 1995   4.674   6.381   2.710
  366SOL     OW 1996   5.606   0.380   6.938
  366SOL    HW1 1997   5.700   0.373   6.971
  366SOL    HW2 1998   5.543   0.376   7.016
  367SOL     OW 1999   5.066   2.855   1.022
  367SOL    HW1 2000   5.074   2.954   1.025
  367SOL    HW2 2001   5.070   2.818   1.115
  368SOL     OW 2002   1.128   4.823   5.190
  368SOL    HW1 2003   1.138   4.896   5.257
  368SOL    HW2 2004   1.199   4.753   5.205
  369SOL     OW 2005   0.815   4.104   1.857
  369SOL    HW1 2006   0.762   4.156   1.790
  369SOL    HW2 2007   0.909   4.137   1.859
  370SOL     OW 2008   3.827   0.918   6.504
  370SOL    HW1 2009   3.747   0.926   6.564
  370SOL    HW2 2010   3.867   0.827   6.514
  371SOL     OW 2011   4.148   2.943   6.630
  371SOL    HW1 2012   4.241   2.940   6.595
  371SOL    HW2 2013   4.141   3.017   6.698
  372SOL     OW 2014   1.518   5.523   5.904
  372SOL    HW1 2015   1.520   5.444   5.842
  372SOL    HW2 2016   1.432   5.571   5.894
  373SOL     OW 2017   6.866   6.774   0.434
  373SOL    HW1 2018   6.770   6.763   0.409
  373SOL    HW2 2019   6.884   6.729   0.521
  374SOL     OW 2020   3.586   0.944   1.685
  374SOL    HW1 2021   3.547   0.960   1.776
  374SOL    HW2 2022   3.596   1.031   1.637
  375SOL     OW 2023   0.220   4.789   2.730
  375SOL    HW1 2024   0.268   4.744   2.806
  375SOL    HW2 2025   0.250   4.885   2.724
  376SOL     OW 2026   2.219   2.413   4.040
  376SOL    HW1 2027   2.209   2.360   3.955
  376SOL    HW2 2028   2.283   2.488   4.025
  377SOL     OW 2029   4.972   1.919   3.739
  377SOL    HW1 2030   4.922   1.923   3.826
  377SOL    HW2 2031   4.981   1.825   3.709
  378SOL     OW 2032   5.064   2.448   4.458
  378SOL    HW1 2033   4.970   2.415   4.467
  378SOL    HW2 2034   5.118   2.417   4.535
  379SOL     OW 2035   6.818   3.645   1.359
  379SOL    HW1 2036   6.852   3.561   1.401
  379SOL    HW2 2037   6.770   3.699   1.427
  380SOL     OW 2038   1.168   2.146   0.327
  380SOL    HW1 2039   1.090   2.086   0.307
  380SOL    HW2 2040   1.246   2.091   0.356
  381SOL     OW 2041   2.988   3.869   0.219
  381SOL    HW1 2042   2.969   3.832   0.128
  381SOL    HW2 2043   2.913   3.929   0.247
  382SOL     OW 2044   2.605   5.744   0.642
  382SOL    HW1 2045   2.608   5.844   0.632
  382SOL    HW2 2046   2.567   5.703   0.559
  383SOL     OW 2047   6.547   2.475   6.419
  383SOL    HW1 2048   6.493   2.526   6.486
  383SOL    HW2 2049   6.575   2.536   6.345
  384SOL     OW 2050   1.942   5.625   4.772
  384SOL    HW1 2051   2.030   5.664   4.744
  384SOL    HW2 2052   1.887   5.696   4.816
  385SOL     OW 2053   5.311   5.721   1.098
  385SOL    HW1 2054   5.269   5.811   1.107
  385SOL    HW2 2055   5.384   5.725   1.029
  386SOL     OW 2056   3.289   6.200   5.476
  386SOL    HW1 2057   3.290   6.201   5.576
  386SOL    HW2 2058   3.369   6.248   5.441
  387SOL     OW 2059   0.051   0.428   5.607
  387SOL    HW1 2060   0.131   0.485   5.626
  387SOL    HW2 2061   7.006   0.435   5.682
  388SOL     OW 2062   0.017   2.132   5.443
  388SOL    HW1 2063   6.989   2.103   5.360
  388SOL    HW2 2064   0.051   2.051   5.491
  389SOL     OW 2065   3.922   4.581   1.455
  389SOL    HW1 2066   3.984   4.505   1.433
  389SOL    HW2 2067   3.880   4.565   1.544
  390SOL     OW 2068   4.286   2.628   0.285
  390SOL    HW1 2069   4.191   2.646   0.313
  390SOL    HW2 2070   4.341   2.710   0.300
  391SOL     OW 2071   3.741   4.111   4.362
  391SOL    HW1 2072   3.745   4.139   4.458
  391SOL    HW2 2073   3.682   4.032   4.352
  392SOL     OW 2074   1.584   3.755   1.578
  392SOL    HW1 2075   1.569   3.777   1.675
  392SOL    HW2 2076   1.598   3.840   1.527
  393SOL     OW 2077   1.233   4.667   1.294
  393SOL    HW1 2078   1.224   4.736   1.366
  393SOL    HW2 2079   1.330   4.647   1.279
  394SOL     OW 2080   6.362   1.335   6.418
  394SOL    HW1 2081   6.448   1.386   6.429
  394SOL    HW2 2082   6.381   1.237   6.421
  395SOL     OW 2083   5.647   5.073   1.144
  395SOL    HW1 2084   5.600   5.161   1.148
  395SOL    HW2 2085   5.588   5.002   1.183
  396SOL     OW 2086   1.473   0.350   1.293
  396SOL    HW1 2087   1.464   0.281   1.364
  396SOL    HW2 2088   1.405   0.422   1.308
  397SOL     OW 2089   4.141   2.151   5.387
  397SOL    HW1 2090   4.220   2.213   5.379
  397SOL    HW2 2091   4.079   2.185   5.458
  398SOL     OW 2092   1.348   0.879   3.649
  398SOL    HW1 2093   1.445   0.854   3.650
  398SOL    HW2 2094   1.316   0.893   3.743
  399SOL     OW 2095   5.513   6.060   4.289
  399SOL    HW1 2096   5.488   6.107   4.205
  399SOL    HW2 2097   5.612   6.061   4.300
  400SOL     OW 2098   6.093   0.186   4.171
  400SOL    HW1 2099   6.033   0.151   4.244
  400SOL    HW2 2100   6.142   0.110   4.129
  401SOL     OW 2101   0.606   5.497   5.914
  401SOL    HW1 2102   0.525   5.453   5.952
  401SOL    HW2 2103   0.582   5.587   5.878
  402SOL     OW 2104   5.901   1.579   3.643
  402SOL    HW1 2105   5.906   1.572   3.742
  402SOL    HW2 2106   5.807   1.596   3.615
  403SOL     OW 2107   3.031   1.080   5.257
  403SOL    HW1 2108   2.937   1.115   5.265
  403SOL    HW2 2109   3.096   1.154   5.274
  404SOL     OW 2110   3.506   5.152   3.372
  404SOL    HW1 2111   3.541   5.058   3.368
  404SOL    HW2 2112   3.559   5.203   3.439
  405SOL     OW 2113   2.143   4.905   4.115
  405SOL    HW1 2114   2.192   4.881   4.031
  405SOL    HW2 2115   2.157   5.001   4.136
  406SOL     OW 2116   0.164   6.398   5.874
  406SOL    HW1 2117   0.117   6.363   5.954
  406SOL    HW2 2118   0.260   6.369   5.876
  407SOL     OW 2119   2.279   2.949   4.354
  407SOL    HW1 2120   2.228   2.948   4.440
  407SOL    HW2 2121   2.316   3.040   4.337
  408SOL     OW 2122   1.856   1.359   3.421
  408SOL    HW1 2123   1.913   1.282   3.450
  408SOL    HW2 2124   1.911   1.422   3.366
  409SOL     OW 2125   0.233   3.533   2.598
  409SOL    HW1 2126   0.188   3.597   2.535
  409SOL    HW2 2127   0.186   3.536   2.686
  410SOL     OW 2128   1.683   1.505   1.572
  410SOL    HW1 2129   1.715   1.545   1.486
  410SOL    HW2 2130   1.746   1.529   1.646
  411SOL     OW 2131   6.937   2.570   1.647
  411SOL    HW1 2132   7.019   2.514   1.656
  411SOL    HW2 2133   6.959   2.655   1.600
  412SOL     OW 2134   1.354   4.862   2.365
  412SOL    HW1 2135   1.394   4.933   2.307
  412SOL    HW2 2136   1.258   4.849   2.340
  413SOL     OW 2137   5.911   6.083   2.426
  413SOL    HW1 2138   5.943   6.129   2.343
  413SOL    HW2 2139   5.814   6.105   2.440
  414SOL     OW 2140   2.055   6.824   2.770
  414SOL    HW1 2141   1.973   6.866   2.730
  414SOL    HW2 2142   2.037   6.727   2.788
  415SOL     OW 2143   6.053   1.036   0.029
  415SOL    HW1 2144   6.107   0.991   0.100
  415SOL    HW2 2145   6.049   1.134   0.048
  416SOL     OW 2146   5.746   3.593   5.725
  416SOL    HW1 2147   5.654   3.582   5.687
  416SOL    HW2 2148   5.745   3.661   5.798
  417SOL     OW 2149   1.982   1.864   6.151
  417SOL    HW1 2150   1.972   1.775   6.197
  417SOL    HW2 2151   1.984   1.937   6.220
  418SOL     OW 2152   3.734   0.277   4.642
  418SOL    HW1 2153   3.779   0.194   4.607
  418SOL    HW2 2154   3.790   0.357   4.622
  419SOL     OW 2155   6.821   0.265   0.620
  419SOL    HW1 2156   6.867   0.333   0.563
  419SOL    HW2 2157   6.863   0.175   0.605
  420SOL     OW 2158   4.044   0.464   0.082
  420SOL    HW1 2159   4.125   0.509   0.120
  420SOL    HW2 2160   4.071   0.413   0.000
  421SOL     OW 2161   4.705   4.297   2.260
  421SOL    HW1 2162   4.648   4.282   2.179
  421SOL    HW2 2163   4.758   4.214   2.279
  422SOL     OW 2164   5.511   3.145   1.794
  422SOL    HW1 2165   5.583   3.130   1.726
  422SOL    HW2 2166   5.438   3.078   1.780
  423SOL     OW 2167   3.180   0.578   6.189
  423SOL    HW1 2168   3.137   0.602   6.101
  423SOL    HW2 2169   3.210   0.661   6.235
  424SOL     OW 2170   1.292   3.589   3.865
  424SOL    HW1 2171   1.378   3.557   3.826
  424SOL    HW2 2172   1.275   3.683   3.836
  425SOL     OW 2173   3.286   1.186   6.874
  425SOL    HW1 2174   3.200   1.180   6.924
  425SOL    HW2 2175   3.320   1.094   6.854
  426SOL     OW 2176   2.926   2.060   4.097
  426SOL    HW1 2177   2.911   2.137   4.035
  426SOL    HW2 2178   2.976   2.092   4.178
  427SOL     OW 2179   4.374   2.273   2.983
  427SOL    HW1 2180   4.428   2.351   2.952
  427SOL    HW2 2181   4.395   2.253   3.079
  428SOL     OW 2182   2.687   2.055   5.833
  428SOL    HW1 2183   2.752   1.979   5.833
  428SOL    HW2 2184   2.738   2.142   5.838
  429SOL     OW 2185   6.593   5.467   4.398
  429SOL    HW1 2186   6.512   5.440   4.347
  429SOL    HW2 2187   6.644   5.384   4.425
  430SOL     OW 2188   1.665   6.980   3.935
  430SOL    HW1 2189   1.687   6.979   4.033
  430SOL    HW2 2190   1.709   6.902   3.890
  431SOL     OW 2191   2.245   1.954   1.828
  431SOL    HW1 2192   2.234   2.053   1.833
  431SOL    HW2 2193   2.158   1.909   1.849
  432SOL     OW 2194   4.719   1.954   0.991
  432SOL    HW1 2195   4.691   1.916   0.903
  432SOL    HW2 2196   4.641   2.000   1.034
  433SOL     OW 2197   1.879   4.831   0.898
  433SOL    HW1 2198   1.902   4.738   0.870
  433SOL    HW2 2199   1.960   4.890   0.889
  434SOL     OW 2200   5.209   4.919   3.685
  434SOL    HW1 2201   5.185   4.989   3.617
  434SOL    HW2 2202   5.126   4.886   3.730
  435SOL     OW 2203   3.635   2.616   5.942
  435SOL    HW1 2204   3.682   2.637   6.027
  435SOL    HW2 2205   3.640   2.518   5.923
  436SOL     OW 2206   4.996   6.435   3.028
  436SOL    HW1 2207   5.016   6.342   2.997
  436SOL    HW2 2208   5.047   6.500   2.972
  437SOL     OW 2209   6.661   0.648   4.777
  437SOL    HW1 2210   6.682   0.722   4.841
  437SOL    HW2 2211   6.575   0.667   4.731
  438SOL     OW 2212   0.884   4.987   2.360
  438SOL    HW1 2213   0.872   5.073   2.410
  438SOL    HW2 2214   0.857   4.999   2.265
  439SOL     OW 2215   0.097   0.740   4.705
  439SOL    HW1 2216   0.053   0.701   4.624
  439SOL    HW2 2217   0.134   0.830   4.682
  440SOL     OW 2218   4.275   1.368   0.449
  440SOL    HW1 2219   4.348   1.308   0.415
  440SOL    HW2 2220   4.227   1.409   0.372
  441SOL     OW 2221   0.722   4.660   2.269
  441SOL    HW1 2222   0.707   4.728   2.198
  441SOL    HW2 2223   0.787   4.591   2.237
  442SOL     OW 2224   5.054   3.115   5.576
  442SOL    HW1 2225   5.111   3.131   5.495
  442SOL    HW2 2226   5.062   3.193   5.638
  443SOL     OW 2227   5.029   2.965   2.284
  443SOL    HW1 2228   5.125   2.947   2.306
  443SOL    HW2 2229   5.020   2.978   2.185
  444SOL     OW 2230   4.631   1.631   1.905
  444SOL    HW1 2231   4.717   1.607   1.949
  444SOL    HW2 2232   4.650   1.677   1.818
  445SOL     OW 2233   1.627   5.045   2.546
  445SOL    HW1 2234   1.599   4.987   2.623
  445SOL    HW2 2235   1.565   5.123   2.538
  446SOL     OW 2236   5.718   0.130   1.616
  446SOL    HW1 2237   5.644   0.125   1.550
  446SOL    HW2 2238   5.806   0.129   1.569
  447SOL     OW 2239   5.971   4.757   1.102
  447SOL    HW1 2240   5.937   4.664   1.087
  447SOL    HW2 2241   5.997   4.797   1.015
  448SOL     OW 2242   3.382   6.409   3.891
  448SOL    HW1 2243   3.454   6.472   3.919
  448SOL    HW2 2244   3.369   6.416   3.792
  449SOL     OW 2245   1.797   3.941   4.866
  449SOL    HW1 2246   1.830   3.904   4.952
  449SOL    HW2 2247   1.737   4.020   4.884
  450SOL     OW 2248   6.715   4.532   3.393
  450SOL    HW1 2249   6.619   4.550   3.369
  450SOL    HW2 2250   6.726   4.539   3.492
  451SOL     OW 2251   0.678   2.068   0.800
  451SOL    HW1 2252   0.610   2.120   0.852
  451SOL    HW2 2253   0.702   1.986   0.852
  452SOL     OW 2254   5.100   5.167   2.785
  452SOL    HW1 2255   5.037   5.225   2.732
  452SOL    HW2 2256   5.183   5.150   2.732
  453SOL     OW 2257   3.279   0.893   6.801
  453SOL    HW1 2258   3.356   0.880   6.864
  453SOL    HW2 2259   3.215   0.817   6.809
  454SOL     OW 2260   6.618   3.479   6.058
  454SOL    HW1 2261   6.577   3.393   6.087
  454SOL    HW2 2262   6.693   3.504   6.119
  455SOL     OW 2263   5.627   4.854   5.804
  455SOL    HW1 2264   5.551   4.857   5.870
  455SOL    HW2 2265   5.591   4.855   5.711
  456SOL     OW 2266   2.573   1.187   2.364
  456SOL    HW1 2267   2.488   1.166   2.315
  456SOL    HW2 2268   2.602   1.107   2.417
  457SOL     OW 2269   2.544   6.642   0.066
  457SOL    HW1 2270   2.530   6.573   7.016
  457SOL    HW2 2271   2.621   6.701   0.040
  458SOL     OW 2272   3.166   1.339   2.707
  458SOL    HW1 2273   3.107   1.377   2.636
  458SOL    HW2 2274   3.118   1.340   2.795
  459SOL     OW 2275   3.213   0.411   3.294
  459SOL    HW1 2276   3.296   0.464   3.277
  459SOL    HW2 2277   3.229   0.315   3.272
  460SOL     OW 2278   0.753   1.824   6.520
  460SOL    HW1 2279   0.766   1.745   6.579
  460SOL    HW2 2280   0.657   1.852   6.523
  461SOL     OW 2281   1.241   5.617   5.473
  461SOL    HW1 2282   1.244   5.625   5.373
  461SOL    HW2 2283   1.147   5.603   5.502
  462SOL     OW 2284   3.700   4.173   5.043
  462SOL    HW1 2285   3.631   4.101   5.048
  462SOL    HW2 2286   3.701   4.212   4.951
  463SOL     OW 2287   5.497   6.238   4.064
  463SOL    HW1 2288   5.573   6.254   4.002
  463SOL    HW2 2289   5.445   6.323   4.077
  464SOL     OW 2290   3.487   5.100   6.496
  464SOL    HW1 2291   3.500   5.093   6.397
  464SOL    HW2 2292   3.407   5.048   6.523
  465SOL     OW 2293   0.552   4.153   0.912
  465SOL    HW1 2294   0.615   4.189   0.980
  465SOL    HW2 2295   0.543   4.054   0.924
  466SOL     OW 2296   4.090   5.289   4.225
  466SOL    HW1 2297   4.143   5.345   4.161
  466SOL    HW2 2298   4.110   5.192   4.209
  467SOL     OW 2299   6.391   0.163   2.531
  467SOL    HW1 2300   6.330   0.229   2.575
  467SOL    HW2 2301   6.483   0.172   2.569
  468SOL     OW 2302   2.655   5.911   6.530
  468SOL    HW1 2303   2.614   5.907   6.622
  468SOL    HW2 2304   2.664   5.818   6.494
  469SOL     OW 2305   2.850   4.742   4.695
  469SOL    HW1 2306   2.860   4.685   4.776
  469SOL    HW2 2307   2.809   4.688   4.621
  470SOL     OW 2308   2.328   4.684   2.591
  470SOL    HW1 2309   2.347   4.669   2.494
  470SOL    HW2 2310   2.328   4.782   2.610
  471SOL     OW 2311   1.559   2.289   4.235
  471SOL    HW1 2312   1.651   2.285   4.274
  471SOL    HW2 2313   1.526   2.384   4.238
  472SOL     OW 2314   4.966   3.442   6.552
  472SOL    HW1 2315   4.905   3.513   6.517
  472SOL    HW2 2316   4.990   3.379   6.479
  473SOL     OW 2317   6.020   3.039   2.159
  473SOL    HW1 2318   5.953   2.966   2.175
  473SOL    HW2 2319   6.110   3.009   2.189
  474SOL     OW 2320   4.704   5.728   4.356
  474SOL    HW1 2321   4.791   5.723   4.306
  474SOL    HW2 2322   4.722   5.729   4.454
  475SOL     OW 2323   5.473   1.904   0.566
  475SOL    HW1 2324   5.385   1.951   0.564
  475SOL    HW2 2325   5.495   1.878   0.660
  476SOL     OW 2326   1.149   3.827   6.985
  476SOL    HW1 2327   1.060   3.871   6.993
  476SOL    HW2 2328   1.182   3.801   0.056
  477SOL     OW 2329   1.698   4.864   3.738
  477SOL    HW1 2330   1.616   4.863   3.682
  477SOL    HW2 2331   1.709   4.954   3.780
  478SOL     OW 2332   5.239   6.098   2.563
  478SOL    HW1 2333   5.155   6.133   2.522
  478SOL    HW2 2334   5.287   6.043   2.495
  479SOL     OW 2335   3.859   4.026   3.155
  479SOL    HW1 2336   3.779   3.966   3.154
  479SOL    HW2 2337   3.860   4.082   3.073
  480SOL     OW 2338   1.008   1.056   2.672
  480SOL    HW1 2339   1.088   1.104   2.706
  480SOL    HW2 2340   1.031   1.009   2.587
  481SOL     OW 2341   0.076   0.266   0.742
  481SOL    HW1 2342   0.046   0.198   0.675
  481SOL    HW2 2343   0.176   0.263   0.749
  482SOL     OW 2344   4.148   4.821   2.305
  482SOL    HW1 2345   4.174   4.728   2.282
  482SOL    HW2 2346   4.058   4.821   2.348
  483SOL     OW 2347   5.937   2.244   4.096
  483SOL    HW1 2348   5.985   2.189   4.028
  483SOL    HW2 2349   5.842   2.259   4.068
  484SOL     OW 2350   2.473   4.581   3.725
  484SOL    HW1 2351   2.427   4.670   3.712
  484SOL    HW2 2352   2.439   4.517   3.656
  485SOL     OW 2353   5.674   3.127   1.589
  485SOL    HW1 2354   5.671   3.216   1.543
  485SOL    HW2 2355   5.651   3.055   1.524
  486SOL     OW 2356   5.785   6.276   5.731
  486SOL    HW1 2357   5.846   6.199   5.711
  486SOL    HW2 2358   5.778   6.335   5.651
  487SOL     OW 2359   0.150   0.033   6.237
  487SOL    HW1 2360   0.060   0.060   6.272
  487SOL    HW2 2361   0.148   0.034   6.137
  488SOL     OW 2362   2.318   5.400   3.444
  488SOL    HW1 2363   2.360   5.463   3.509
  488SOL    HW2 2364   2.302   5.447   3.357
  489SOL     OW 2365   1.998   5.623   5.885
  489SOL    HW1 2366   2.082   5.661   5.845
  489SOL    HW2 2367   2.017   5.589   5.977
  490SOL     OW 2368   0.697   4.069   4.595
  490SOL    HW1 2369   0.604   4.095   4.619
  490SOL    HW2 2370   0.713   4.084   4.498
  491SOL     OW 2371   7.010   2.802   0.402
  491SOL    HW1 2372   6.955   2.767   0.326
  491SOL    HW2 2373   0.081   2.824   0.370
  492SOL     OW 2374   1.332   3.171   5.434
  492SOL    HW1 2375   1.273   3.091   5.441
  492SOL    HW2 2376   1.397   3.171   5.510
  493SOL     OW 2377   1.735   4.996   4.659
  493SOL    HW1 2378   1.820   4.944   4.664
  493SOL    HW2 2379   1.748   5.085   4.701
  494SOL     OW 2380   2.618   6.479   4.048
  494SOL    HW1 2381   2.606   6.508   3.953
  494SOL    HW2 2382   2.529   6.466   4.091
  495SOL     OW 2383   3.884   4.177   6.080
  495SOL    HW1 2384   3.829   4.101   6.114
  495SOL    HW2 2385   3.885   4.176   5.980
  496SOL     OW 2386   4.975   1.670   3.657
  496SOL    HW1 2387   4.920   1.633   3.582
  496SOL    HW2 2388   5.038   1.600   3.690
  497SOL     OW 2389   5.049   1.305   0.109
  497SOL    HW1 2390   4.992   1.353   0.176
  497SOL    HW2 2391   5.131   1.359   0.091
  498SOL     OW 2392   0.042   0.168   1.239
  498SOL    HW1 2393   0.136   0.198   1.229
  498SOL    HW2 2394   0.012   0.121   1.155
  499SOL     OW 2395   2.574   5.848   0.297
  499SOL    HW1 2396   2.609   5.754   0.288
  499SOL    HW2 2397   2.488   5.848   0.347
  500SOL     OW 2398   5.538   1.883   6.625
  500SOL    HW1 2399   5.596   1.914   6.701
  500SOL    HW2 2400   5.445   1.870   6.657
  501SOL     OW 2401   1.161   0.921   4.845
  501SOL    HW1 2402   1.241   0.950   4.792
  501SOL    HW2 2403   1.181   0.833   4.890
  502SOL     OW 2404   2.503   4.380   0.112
  502SOL    HW1 2405   2.585   4.435   0.094
  502SOL    HW2 2406   2.425   4.440   0.127
  503SOL     OW 2407   3.850   5.764   0.926
  503SOL    HW1 2408   3.832   5.795   0.833
  503SOL    HW2 2409   3.895   5.675   0.923
  504SOL     OW 2410   6.537   5.755   1.550
  504SOL    HW1 2411   6.568   5.685   1.486
  504SOL    HW2 2412   6.458   5.722   1.601
  505SOL     OW 2413   5.180   5.761   5.472
  505SOL    HW1 2414   5.163   5.668   5.503
  505SOL    HW2 2415   5.233   5.758   5.387
  506SOL     OW 2416   3.407   4.917   3.170
  506SOL    HW1 2417   3.409   4.944   3.073
  506SOL    HW2 2418   3.313   4.911   3.201
  507SOL     OW 2419   3.203   0.967   1.694
  507SOL    HW1 2420   3.251   0.900   1.637
  507SOL    HW2 2421   3.212   1.058   1.655
  508SOL     OW 2422   0.444   4.610   3.217
  508SOL    HW1 2423   0.457   4.519   3.255
  508SOL    HW2 2424   0.402   4.669   3.286
  509SOL     OW 2425   4.274   6.841   6.389
  509SOL    HW1 2426   4.195   6.797   6.346
  509SOL    HW2 2427   4.349   6.847   6.323
  510SOL     OW 2428   6.385   3.929   0.248
  510SOL    HW1 2429   6.343   4.013   0.211
  510SOL    HW2 2430   6.440   3.953   0.329
  511SOL     OW 2431   0.556   1.773   0.331
  511SOL    HW1 2432   0.481   1.828   0.369
  511SOL    HW2 2433   0.542   1.677   0.353
  512SOL     OW 2434   0.541   2.510   3.737
  512SOL    HW1 2435   0.582   2.567   3.808
  512SOL    HW2 2436   0.541   2.415   3.766
  513SOL     OW 2437   5.129   0.515   3.305
  513SOL    HW1 2438   5.101   0.490   3.212
  513SOL    HW2 2439   5.159   0.611   3.306
  514SOL     OW 2440   5.406   0.937   5.145
  514SOL    HW1 2441   5.495   0.913   5.185
  514SOL    HW2 2442   5.334   0.883   5.189
  515SOL     OW 2443   3.685   0.210   6.377
  515SOL    HW1 2444   3.690   0.241   6.282
  515SOL    HW2 2445   3.777   0.204   6.416
  516SOL     OW 2446   2.031   6.074   2.162
  516SOL    HW1 2447   1.954   6.111   2.214
  516SOL    HW2 2448   2.085   6.013   2.220
  517SOL     OW 2449   3.127   5.657   1.506
  517SOL    HW1 2450   3.166   5.573   1.469
  517SOL    HW2 2451   3.083   5.638   1.594
  518SOL     OW 2452   1.658   4.334   4.467
  518SOL    HW1 2453   1.685   4.294   4.379
  518SOL    HW2 2454   1.561   4.317   4.483
  519SOL     OW 2455   0.075   0.162   2.149
  519SOL    HW1 2456   0.090   0.253   2.187
  519SOL    HW2 2457   0.145   0.099   2.182
  520SOL     OW 2458   2.229   4.152   0.666
  520SOL    HW1 2459   2.242   4.055   0.689
  520SOL    HW2 2460   2.161   4.192   0.727
  521SOL     OW 2461   6.580   6.215   4.673
  521SOL    HW1 2462   6.593   6.148   4.600
  521SOL    HW2 2463   6.488   6.206   4.710
  522SOL     OW 2464   3.716   4.279   0.912
  522SOL    HW1 2465   3.710   4.232   0.824
  522SOL    HW2 2466   3.645   4.246   0.974
  523SOL     OW 2467   0.830   0.120   6.902
  523SOL    HW1 2468   0.852   0.036   6.952
  523SOL    HW2 2469   0.750   0.104   6.843
  524SOL     OW 2470   6.688   1.896   0.534
  524SOL    HW1 2471   6.775   1.944   0.521
  524SOL    HW2 2472   6.627   1.953   0.590
  525SOL     OW 2473   0.747   3.171   3.679
  525SOL    HW1 2474   0.831   3.152   3.628
  525SOL    HW2 2475   0.749   3.265   3.712
  526SOL     OW 2476   3.882   0.293   3.729
  526SOL    HW1 2477   3.832   0.299   3.643
  526SOL    HW2 2478   3.817   0.288   3.805
  527SOL     OW 2479   0.511   1.250   0.907
  527SOL    HW1 2480   0.452   1.284   0.981
  527SOL    HW2 2481   0.596   1.304   0.906
  528SOL     OW 2482   0.019   2.748   4.581
  528SOL    HW1 2483   0.080   2.814   4.538
  528SOL    HW2 2484   6.945   2.765   4.551
  529SOL     OW 2485   1.970   0.046   6.903
  529SOL    HW1 2486   1.975   6.973   6.866
  529SOL    HW2 2487   2.032   0.054   6.980
  530SOL     OW 2488   3.542   4.940   1.131
  530SOL    HW1 2489   3.570   5.035   1.147
  530SOL    HW2 2490   3.551   4.888   1.216
  531SOL     OW 2491   1.413   0.008   0.582
  531SOL    HW1 2492   1.506   0.038   0.606
  531SOL    HW2 2493   1.405   0.003   0.483
  532SOL     OW 2494   1.629   2.224   5.935
  532SOL    HW1 2495   1.554   2.172   5.976
  532SOL    HW2 2496   1.591   2.292   5.872
  533SOL     OW 2497   4.077   0.681   3.882
  533SOL    HW1 2498   3.982   0.702   3.903
  533SOL    HW2 2499   4.138   0.731   3.943
  534SOL     OW 2500   1.635   3.988   1.812
  534SOL    HW1 2501   1.723   3.951   1.840
  534SOL    HW2 2502   1.569   3.913   1.801
  535SOL     OW 2503   4.910   3.236   4.268
  535SOL    HW1 2504   5.007   3.245   4.287
  535SOL    HW2 2505   4.896   3.183   4.185
  536SOL     OW 2506   6.240   6.914   1.898
  536SOL    HW1 2507   6.333   6.949   1.897
  536SOL    HW2 2508   6.197   6.929   1.810
  537SOL     OW 2509   3.253   1.792   3.178
  537SOL    HW1 2510   3.159   1.780   3.209
  537SOL    HW2 2511   3.267   1.739   3.094
  538SOL     OW 2512   3.348   4.878   5.272
  538SOL    HW1 2513   3.257   4.858   5.307
  538SOL    HW2 2514   3.400   4.793   5.261
  539SOL     OW 2515   1.024   0.618   6.869
  539SOL    HW1 2516   0.928   0.643   6.856
  539SOL    HW2 2517   1.036   0.520   6.853
  540SOL     OW 2518   1.526   0.418   4.884
  540SOL    HW1 2519   1.445   0.363   4.906
  540SOL    HW2 2520   1.573   0.377   4.806
  541SOL     OW 2521   4.878   5.933   4.026
  541SOL    HW1 2522   4.971   5.964   4.008
  541SOL    HW2 2523   4.814   6.009   4.014
  542SOL     OW 2524   3.826   6.945   5.126
  542SOL    HW1 2525   3.921   6.914   5.128
  542SOL    HW2 2526   3.820   0.007   5.069
  543SOL     OW 2527   6.433   1.999   3.624
  543SOL    HW1 2528   6.468   1.943   3.699
  543SOL    HW2 2529   6.505   2.016   3.557
  544SOL     OW 2530   1.061   3.320   1.553
  544SOL    HW1 2531   1.056   3.351   1.458
  544SOL    HW2 2532   1.143   3.356   1.596
  545SOL     OW 2533   6.347   6.934   1.085
  545SOL    HW1 2534   6.286   6.997   1.134
  545SOL    HW2 2535   6.293   6.879   1.021
  546SOL     OW 2536   6.967   4.489   2.425
  546SOL    HW1 2537   6.915   4.406   2.443
  546SOL    HW2 2538   0.030   4.489   2.480
  547SOL     OW 2539   5.351   0.371   6.343
  547SOL    HW1 2540   5.312   0.463   6.349
  547SOL    HW2 2541   5.331   0.332   6.253
  548SOL     OW 2542   4.185   2.275   6.931
  548SOL    HW1 2543   4.219   2.282   6.837
  548SOL    HW2 2544   4.208   2.359   6.981
  549SOL     OW 2545   5.429   1.320   1.878
  549SOL    HW1 2546   5.497   1.279   1.938
  549SOL    HW2 2547   5.378   1.390   1.929
  550SOL     OW 2548   0.277   6.017   3.233
  550SOL    HW1 2549   0.282   5.918   3.215
  550SOL    HW2 2550   0.244   6.032   3.326
  551SOL     OW 2551   6.186   0.680   0.515
  551SOL    HW1 2552   6.148   0.590   0.493
  551SOL    HW2 2553   6.115   0.736   0.559
  552SOL     OW 2554   0.448   6.483   5.349
  552SOL    HW1 2555   0.463   6.435   5.263
  552SOL    HW2 2556   0.351   6.480   5.372
  553SOL     OW 2557   3.273   1.525   0.163
  553SOL    HW1 2558   3.281   1.624   0.150
  553SOL    HW2 2559   3.255   1.506   0.259
  554SOL     OW 2560   6.383   6.588   1.172
  554SOL    HW1 2561   6.398   6.493   1.200
  554SOL    HW2 2562   6.295   6.595   1.125
  555SOL     OW 2563   1.785   4.059   5.550
  555SOL    HW1 2564   1.705   4.004   5.524
  555SOL    HW2 2565   1.831   4.092   5.467
  556SOL     OW 2566   5.907   0.163   3.822
  556SOL    HW1 2567   5.807   0.159   3.825
  556SOL    HW2 2568   5.937   0.258   3.831
  557SOL     OW 2569   6.421   4.483   6.799
  557SOL    HW1 2570   6.453   4.568   6.755
  557SOL    HW2 2571   6.375   4.426   6.731
  558SOL     OW 2572   3.260   3.974   2.334
  558SOL    HW1 2573   3.176   3.990   2.386
  558SOL    HW2 2574   3.339   3.991   2.393
  559SOL     OW 2575   6.309   6.826   5.397
  559SOL    HW1 2576   6.245   6.872   5.458
  559SOL    HW2 2577   6.319   6.879   5.312
  560SOL     OW 2578   6.650   2.922   4.204
  560SOL    HW1 2579   6.580   2.878   4.260
  560SOL    HW2 2580   6.636   3.021   4.204
  561SOL     OW 2581   0.636   2.921   0.362
  561SOL    HW1 2582   0.539   2.900   0.350
  561SOL    HW2 2583   0.650   3.020   0.362
  562SOL     OW 2584   4.109   6.945   5.021
  562SOL    HW1 2585   4.180   6.999   4.976
  562SOL    HW2 2586   4.050   6.904   4.952
  563SOL     OW 2587   1.521   0.426   3.783
  563SOL    HW1 2588   1.577   0.351   3.819
  563SOL    HW2 2589   1.445   0.443   3.846
  564SOL     OW 2590   6.280   2.014   6.397
  564SOL    HW1 2591   6.182   1.996   6.385
  564SOL    HW2 2592   6.295   2.064   6.482
  565SOL     OW 2593   3.510   3.434   3.711
  565SOL    HW1 2594   3.598   3.439   3.758
  565SOL    HW2 2595   3.443   3.491   3.759
  566SOL     OW 2596   3.069   0.814   3.918
  566SOL    HW1 2597   3.071   0.798   3.819
  566SOL    HW2 2598   3.029   0.904   3.936
  567SOL     OW 2599   2.562   2.756   5.560
  567SOL    HW1 2600   2.654   2.716   5.560
  567SOL    HW2 2601   2.535   2.778   5.467
  568SOL     OW 2602   0.810   6.436   7.009
  568SOL    HW1 2603   0.763   6.411   6.924
  568SOL    HW2 2604   0.782   6.372   0.061
  569SOL     OW 2605   6.158   3.760   0.217
  569SOL    HW1 2606   6.194   3.838   0.166
  569SOL    HW2 2607   6.167   3.778   0.315
  570SOL     OW 2608   2.631   0.358   6.194
  570SOL    HW1 2609   2.694   0.416   6.246
  570SOL    HW2 2610   2.667   0.265   6.189
  571SOL     OW 2611   1.979   4.360   1.237
  571SOL    HW1 2612   2.005   4.419   1.314
  571SOL    HW2 2613   1.922   4.410   1.173
  572SOL     OW 2614   2.815   0.220   4.443
  572SOL    HW1 2615   2.776   0.297   4.392
  572SOL    HW2 2616   2.743   0.155   4.467
  573SOL     OW 2617   0.201   1.054   5.238
  573SOL    HW1 2618   0.121   1.005   5.204
  573SOL    HW2 2619   0.174   1.143   5.275
  574SOL     OW 2620   2.251   1.739   5.456
  574SOL    HW1 2621   2.255   1.671   5.529
  574SOL    HW2 2622   2.340   1.785   5.447
  575SOL     OW 2623   4.030   3.617   6.960
  575SOL    HW1 2624   3.946   3.575   6.994
  575SOL    HW2 2625   4.051   3.698   7.015
  576SOL     OW 2626   2.060   2.661   2.758
  576SOL    HW1 2627   2.069   2.567   2.723
  576SOL    HW2 2628   2.128   2.719   2.714
  577SOL     OW 2629   0.529   1.064   1.515
  577SOL    HW1 2630   0.460   1.122   1.559
  577SOL    HW2 2631   0.485   1.008   1.445
  578SOL     OW 2632   3.182   6.685   6.371
  578SOL    HW1 2633   3.161   6.624   6.295
  578SOL    HW2 2634   3.244   6.757   6.340
  579SOL     OW 2635   2.006   3.724   1.751
  579SOL    HW1 2636   2.105   3.716   1.742
  579SOL    HW2 2637   1.961   3.656   1.693
  580SOL     OW 2638   4.890   5.563   4.818
  580SOL    HW1 2639   4.865   5.625   4.892
  580SOL    HW2 2640   4.950   5.611   4.754
  581SOL     OW 2641   2.073   2.818   4.920
  581SOL    HW1 2642   2.049   2.738   4.975
  581SOL    HW2 2643   2.146   2.794   4.856
  582SOL     OW 2644   4.911   5.203   4.277
  582SOL    HW1 2645   4.943   5.220   4.370
  582SOL    HW2 2646   4.819   5.240   4.266
  583SOL     OW 2647   3.876   6.006   5.623
  583SOL    HW1 2648   3.786   5.997   5.664
  583SOL    HW2 2649   3.945   5.971   5.686
  584SOL     OW 2650   4.615   0.903   5.414
  584SOL    HW1 2651   4.644   0.997   5.396
  584SOL    HW2 2652   4.516   0.901   5.429
  585SOL     OW 2653   3.259   0.498   1.791
  585SOL    HW1 2654   3.298   0.579   1.835
  585SOL    HW2 2655   3.302   0.416   1.828
  586SOL     OW 2656   3.780   0.916   0.950
  586SOL    HW1 2657   3.862   0.891   0.899
  586SOL    HW2 2658   3.699   0.885   0.901
  587SOL     OW 2659   5.324   2.185   1.647
  587SOL    HW1 2660   5.225   2.174   1.663
  587SOL    HW2 2661   5.374   2.121   1.706
  588SOL     OW 2662   1.475   4.971   3.272
  588SOL    HW1 2663   1.548   5.033   3.245
  588SOL    HW2 2664   1.389   4.998   3.227
  589SOL     OW 2665   3.182   5.462   0.676
  589SOL    HW1 2666   3.090   5.431   0.702
  589SOL    HW2 2667   3.207   5.541   0.731
  590SOL     OW 2668   3.717   2.083   0.676
  590SOL    HW1 2669   3.659   2.137   0.736
  590SOL    HW2 2670   3.734   1.994   0.718
  591SOL     OW 2671   3.220   5.625   3.973
  591SOL    HW1 2672   3.308   5.594   4.009
  591SOL    HW2 2673   3.201   5.718   4.005
  592SOL     OW 2674   3.480   1.941   4.591
  592SOL    HW1 2675   3.455   1.845   4.604
  592SOL    HW2 2676   3.431   1.997   4.657
  593SOL     OW 2677   2.644   1.945   6.974
  593SOL    HW1 2678   2.572   1.875   6.974
  593SOL    HW2 2679   2.602   2.036   6.974
  594SOL     OW 2680   4.834   1.155   2.426
  594SOL    HW1 2681   4.857   1.058   2.411
  594SOL    HW2 2682   4.895   1.212   2.372
  595SOL     OW 2683   5.687   5.490   2.634
  595SOL    HW1 2684   5.677   5.403   2.586
  595SOL    HW2 2685   5.627   5.558   2.593
  596SOL     OW 2686   5.980   4.633   4.333
  596SOL    HW1 2687   6.014   4.708   4.276
  596SOL    HW2 2688   6.057   4.584   4.375
  597SOL     OW 2689   2.856   0.974   6.799
  597SOL    HW1 2690   2.934   0.995   6.858
  597SOL    HW2 2691   2.795   0.909   6.845
  598SOL     OW 2692   3.365   4.112   4.202
  598SOL    HW1 2693   3.354   4.103   4.300
  598SOL    HW2 2694   3.276   4.129   4.159
  599SOL     OW 2695   1.027   4.973   1.366
  599SOL    HW1 2696   1.121   4.964   1.397
  599SOL    HW2 2697   0.984   4.883   1.364
  600SOL     OW 2698   6.391   3.553   5.207
  600SOL    HW1 2699   6.479   3.573   5.165
  600SOL    HW2 2700   6.355   3.635   5.252
  601SOL     OW 2701   1.151   6.190   5.820
  601SOL    HW1 2702   1.149   6.117   5.752
  601SOL    HW2 2703   1.067   6.244   5.813
  602SOL     OW 2704   2.219   0.341   3.333
  602SOL    HW1 2705   2.314   0.334   3.303
  602SOL    HW2 2706   2.160   0.294   3.269
  603SOL     OW 2707   1.543   1.271   4.624
  603SOL    HW1 2708   1.576   1.360   4.593
  603SOL    HW2 2709   1.466   1.243   4.567
  604SOL     OW 2710   6.152   2.362   1.375
  604SOL    HW1 2711   6.105   2.303   1.309
  604SOL    HW2 2712   6.127   2.334   1.468
  605SOL     OW 2713   6.716   6.253   1.496
  605SOL    HW1 2714   6.715   6.169   1.550
  605SOL    HW2 2715   6.650   6.318   1.535
  606SOL     OW 2716   3.883   0.092   4.465
  606SOL    HW1 2717   3.823   0.089   4.385
  606SOL    HW2 2718   3.914   7.020   4.486
  607SOL     OW 2719   1.716   3.512   5.776
  607SOL    HW1 2720   1.685   3.416   5.777
  607SOL    HW2 2721   1.799   3.520   5.831
  608SOL     OW 2722   3.311   0.913   5.948
  608SOL    HW1 2723   3.300   0.860   5.864
  608SOL    HW2 2724   3.306   1.011   5.926
  609SOL     OW 2725   3.072   2.782   1.788
  609SOL    HW1 2726   3.021   2.824   1.713
  609SOL    HW2 2727   3.046   2.686   1.796
  610SOL     OW 2728   4.316   3.343   1.387
  610SOL    HW1 2729   4.404   3.391   1.378
  610SOL    HW2 2730   4.254   3.396   1.444
  611SOL     OW 2731   3.106   0.818   3.359
  611SOL    HW1 2732   3.180   0.803   3.425
  611SOL    HW2 2733   3.138   0.794   3.267
  612SOL     OW 2734   4.141   5.033   4.535
  612SOL    HW1 2735   4.203   4.957   4.514
  612SOL    HW2 2736   4.047   5.007   4.509
  613SOL     OW 2737   4.002   4.675   5.250
  613SOL    HW1 2738   3.941   4.596   5.252
  613SOL    HW2 2739   3.949   4.758   5.234
  614SOL     OW 2740   2.876   5.796   6.016
  614SOL    HW1 2741   2.972   5.825   6.017
  614SOL    HW2 2742   2.835   5.816   6.105
  615SOL     OW 2743   1.068   5.240   2.566
  615SOL    HW1 2744   1.066   5.208   2.471
  615SOL    HW2 2745   1.036   5.335   2.570
  616SOL     OW 2746   6.200   3.130   3.685
  616SOL    HW1 2747   6.274   3.173   3.634
  616SOL    HW2 2748   6.113   3.175   3.663
  617SOL     OW 2749   3.194   6.225   5.938
  617SOL    HW1 2750   3.100   6.198   5.960
  617SOL    HW2 2751   3.250   6.223   6.021
  618SOL     OW 2752   1.582   1.229   2.415
  618SOL    HW1 2753   1.600   1.327   2.417
  618SOL    HW2 2754   1.662   1.180   2.452
  619SOL     OW 2755   0.259   1.458   6.740
  619SOL    HW1 2756   0.334   1.431   6.680
  619SOL    HW2 2757   0.292   1.523   6.809
  620SOL     OW 2758   4.336   3.344   1.116
  620SOL    HW1 2759   4.308   3.390   1.200
  620SOL    HW2 2760   4.321   3.405   1.038
  621SOL     OW 2761   0.618   4.931   1.127
  621SOL    HW1 2762   0.658   4.917   1.036
  621SOL    HW2 2763   0.683   4.979   1.185
  622SOL     OW 2764   0.783   0.606   6.483
  622SOL    HW1 2765   0.809   0.683   6.541
  622SOL    HW2 2766   0.684   0.607   6.470
  623SOL     OW 2767   0.549   4.779   5.921
  623SOL    HW1 2768   0.633   4.785   5.975
  623SOL    HW2 2769   0.499   4.696   5.946
  624SOL     OW 2770   0.874   2.077   1.699
  624SOL    HW1 2771   0.924   2.158   1.731
  624SOL    HW2 2772   0.788   2.070   1.749
  625SOL     OW 2773   1.520   1.180   1.732
  625SOL    HW1 2774   1.602   1.200   1.786
  625SOL    HW2 2775   1.546   1.132   1.648
  626SOL     OW 2776   3.446   0.097   4.057
  626SOL    HW1 2777   3.534   0.049   4.053
  626SOL    HW2 2778   3.372   0.030   4.062
  627SOL     OW 2779   5.201   0.692   0.146
  627SOL    HW1 2780   5.157   0.732   0.226
  627SOL    HW2 2781   5.298   0.712   0.147
  628SOL     OW 2782   5.254   4.033   3.635
  628SOL    HW1 2783   5.307   3.981   3.569
  628SOL    HW2 2784   5.175   4.074   3.590
  629SOL     OW 2785   1.767   6.481   0.352
  629SOL    HW1 2786   1.753   6.534   0.268
  629SOL    HW2 2787   1.735   6.534   0.430
  630SOL     OW 2788   3.261   1.711   1.545
  630SOL    HW1 2789   3.222   1.644   1.608
  630SOL    HW2 2790   3.254   1.802   1.586
  631SOL     OW 2791   2.218   6.471   4.716
  631SOL    HW1 2792   2.235   6.535   4.791
  631SOL    HW2 2793   2.121   6.470   4.694
  632SOL     OW 2794   2.071   0.808   1.149
  632SOL    HW1 2795   2.148   0.836   1.206
  632SOL    HW2 2796   2.021   0.735   1.196
  633SOL     OW 2797   2.128   6.572   5.772
  633SOL    HW1 2798   2.220   6.562   5.809
  633SOL    HW2 2799   2.066   6.508   5.818
  634SOL     OW 2800   3.154   6.170   0.827
  634SOL    HW1 2801   3.104   6.120   0.756
  634SOL    HW2 2802   3.117   6.146   0.917
  635SOL     OW 2803   2.826   0.779   2.627
  635SOL    HW1 2804   2.814   0.683   2.654
  635SOL    HW2 2805   2.909   0.788   2.573
  636SOL     OW 2806   5.000   5.275   0.272
  636SOL    HW1 2807   5.059   5.350   0.245
  636SOL    HW2 2808   4.904   5.302   0.263
  637SOL     OW 2809   5.526   4.738   1.007
  637SOL    HW1 2810   5.598   4.751   1.076
  637SOL    HW2 2811   5.447   4.795   1.030
  638SOL     OW 2812   5.423   1.250   2.486
  638SOL    HW1 2813   5.392   1.179   2.549
  638SOL    HW2 2814   5.515   1.229   2.455
  639SOL     OW 2815   4.546   4.601   2.680
  639SOL    HW1 2816   4.590   4.607   2.591
  639SOL    HW2 2817   4.544   4.692   2.722
  640SOL     OW 2818   2.670   4.233   5.931
  640SOL    HW1 2819   2.705   4.318   5.891
  640SOL    HW2 2820   2.591   4.202   5.878
  641SOL     OW 2821   0.009   5.655   5.386
  641SOL    HW1 2822   6.952   5.681   5.329
  641SOL    HW2 2823   0.051   5.572   5.349
  642SOL     OW 2824   1.624   4.456   6.100
  642SOL    HW1 2825   1.545   4.513   6.124
  642SOL    HW2 2826   1.706   4.513   6.093
  643SOL     OW 2827   5.655   6.076   4.754
  643SOL    HW1 2828   5.560   6.104   4.739
  643SOL    HW2 2829   5.662   5.977   4.743
  644SOL     OW 2830   2.401   6.035   2.111
  644SOL    HW1 2831   2.462   6.075   2.043
  644SOL    HW2 2832   2.368   5.946   2.078
  645SOL     OW 2833   6.135   2.889   3.788
  645SOL    HW1 2834   6.176   2.979   3.771
  645SOL    HW2 2835   6.048   2.901   3.837
  646SOL     OW 2836   1.202   1.740   4.778
  646SOL    HW1 2837   1.111   1.760   4.741
  646SOL    HW2 2838   1.272   1.779   4.717
  647SOL     OW 2839   5.014   3.251   0.122
  647SOL    HW1 2840   4.994   3.344   0.153
  647SOL    HW2 2841   5.045   3.253   0.027
  648SOL     OW 2842   5.185   2.221   3.176
  648SOL    HW1 2843   5.284   2.206   3.177
  648SOL    HW2 2844   5.153   2.241   3.269
  649SOL     OW 2845   4.317   4.586   2.340
  649SOL    HW1 2846   4.397   4.609   2.285
  649SOL    HW2 2847   4.246   4.546   2.280
  650SOL     OW 2848   4.476   3.699   1.097
  650SOL    HW1 2849   4.394   3.649   1.122
  650SOL    HW2 2850   4.546   3.635   1.065
  651SOL     OW 2851   1.240   5.367   6.053
  651SOL    HW1 2852   1.216   5.447   6.108
  651SOL    HW2 2853   1.329   5.332   6.083
  652SOL     OW 2854   4.475   1.474   2.634
  652SOL    HW1 2855   4.414   1.548   2.663
  652SOL    HW2 2856   4.565   1.512   2.613
  653SOL     OW 2857   3.966   4.973   3.616
  653SOL    HW1 2858   3.943   4.905   3.546
  653SOL    HW2 2859   3.971   5.063   3.573
  654SOL     OW 2860   6.544   5.423   0.349
  654SOL    HW1 2861   6.617   5.432   0.281
  654SOL    HW2 2862   6.582   5.383   0.432
  655SOL     OW 2863   0.063   0.947   0.030
  655SOL    HW1 2864   0.074   1.043   0.058
  655SOL    HW2 2865   0.146   0.896   0.054
  656SOL     OW 2866   2.785   6.300   1.868
  656SOL    HW1 2867   2.856   6.230   1.856
  656SOL    HW2 2868   2.824   6.377   1.918
  657SOL     OW 2869   4.041   1.136   6.811
  657SOL    HW1 2870   4.038   1.178   6.902
  657SOL    HW2 2871   3.953   1.149   6.765
  658SOL     OW 2872   3.375   5.048   5.936
  658SOL    HW1 2873   3.427   5.132   5.922
  658SOL    HW2 2874   3.411   4.976   5.876
  659SOL     OW 2875   2.871   0.378   6.787
  659SOL    HW1 2876   2.921   0.385   6.701
  659SOL    HW2 2877   2.900   0.295   6.836
  660SOL     OW 2878   3.859   5.580   3.173
  660SOL    HW1 2879   3.796   5.504   3.160
  660SOL    HW2 2880   3.867   5.600   3.270
  661SOL     OW 2881   5.538   5.652   2.977
  661SOL    HW1 2882   5.522   5.554   2.962
  661SOL    HW2 2883   5.622   5.680   2.930
  662SOL     OW 2884   3.708   1.387   0.542
  662SOL    HW1 2885   3.790   1.395   0.600
  662SOL    HW2 2886   3.691   1.291   0.522
  663SOL     OW 2887   2.124   4.947   4.931
  663SOL    HW1 2888   2.183   4.868   4.946
  663SOL    HW2 2889   2.056   4.953   5.004
  664SOL     OW 2890   5.962   1.230   6.517
  664SOL    HW1 2891   5.894   1.197   6.451
  664SOL    HW2 2892   5.967   1.330   6.512
  665SOL     OW 2893   1.693   4.726   2.218
  665SOL    HW1 2894   1.714   4.818   2.249
  665SOL    HW2 2895   1.779   4.678   2.196
  666SOL     OW 2896   4.180   1.239   1.244
  666SOL    HW1 2897   4.181   1.261   1.341
  666SOL    HW2 2898   4.165   1.140   1.233
  667SOL     OW 2899   0.890   6.399   2.441
  667SOL    HW1 2900   0.807   6.352   2.414
  667SOL    HW2 2901   0.867   6.479   2.497
  668SOL     OW 2902   5.310   3.682   0.472
  668SOL    HW1 2903   5.281   3.683   0.568
  668SOL    HW2 2904   5.239   3.722   0.415
  669SOL     OW 2905   5.125   1.457   2.469
  669SOL    HW1 2906   5.121   1.380   2.533
  669SOL    HW2 2907   5.170   1.534   2.512
  670SOL     OW 2908   3.267   2.109   3.226
  670SOL    HW1 2909   3.251   2.011   3.217
  670SOL    HW2 2910   3.269   2.133   3.323
  671SOL     OW 2911   3.042   0.014   1.477
  671SOL    HW1 2912   3.038   0.106   1.438
  671SOL    HW2 2913   2.956   6.988   1.461
  672SOL     OW 2914   1.659   6.596   2.251
  672SOL    HW1 2915   1.661   6.696   2.260
  672SOL    HW2 2916   1.721   6.556   2.319
  673SOL     OW 2917   5.674   6.513   0.490
  673SOL    HW1 2918   5.600   6.535   0.427
  673SOL    HW2 2919   5.731   6.440   0.451
  674SOL     OW 2920   6.141   1.080   3.993
  674SOL    HW1 2921   6.229   1.043   4.024
  674SOL    HW2 2922   6.067   1.031   4.038
  675SOL     OW 2923   0.318   3.231   3.053
  675SOL    HW1 2924   0.357   3.180   3.129
  675SOL    HW2 2925   0.237   3.184   3.018
  676SOL     OW 2926   2.407   6.606   5.888
  676SOL    HW1 2927   2.427   6.623   5.984
  676SOL    HW2 2928   2.492   6.592   5.838
  677SOL     OW 2929   5.460   1.425   1.468
  677SOL    HW1 2930   5.499   1.335   1.446
  677SOL    HW2 2931   5.509   1.495   1.416
  678SOL     OW 2932   1.234   4.940   4.164
  678SOL    HW1 2933   1.319   4.913   4.208
  678SOL    HW2 2934   1.240   5.035   4.133
  679SOL     OW 2935   4.801   2.016   5.289
  679SOL    HW1 2936   4.865   1.942   5.265
  679SOL    HW2 2937   4.798   2.083   5.214
  680SOL     OW 2938   5.822   6.305   4.142
  680SOL    HW1 2939   5.795   6.222   4.191
  680SOL    HW2 2940   5.884   6.359   4.199
  681SOL     OW 2941   4.687   5.037   2.368
  681SOL    HW1 2942   4.643   5.104   2.308
  681SOL    HW2 2943   4.688   4.948   2.324
  682SOL     OW 2944   0.486   0.963   3.184
  682SOL    HW1 2945   0.445   0.951   3.275
  682SOL    HW2 2946   0.581   0.991   3.193
  683SOL     OW 2947   3.576   3.902   1.497
  683SOL    HW1 2948   3.614   3.872   1.585
  683SOL    HW2 2949   3.484   3.939   1.511
  684SOL     OW 2950   6.124   1.201   6.191
  684SOL    HW1 2951   6.135   1.242   6.282
  684SOL    HW2 2952   6.139   1.103   6.197
  685SOL     OW 2953   3.213   0.816   3.104
  685SOL    HW1 2954   3.230   0.888   3.036
  685SOL    HW2 2955   3.262   0.732   3.076
  686SOL     OW 2956   4.649   0.273   4.662
  686SOL    HW1 2957   4.728   0.271   4.600
  686SOL    HW2 2958   4.593   0.354   4.642
  687SOL     OW 2959   0.736   1.924   3.750
  687SOL    HW1 2960   0.827   1.913   3.790
  687SOL    HW2 2961   0.735   2.007   3.693
  688SOL     OW 2962   6.512   1.215   6.802
  688SOL    HW1 2963   6.459   1.300   6.807
  688SOL    HW2 2964   6.593   1.230   6.745
  689SOL     OW 2965   1.705   5.889   5.544
  689SOL    HW1 2966   1.617   5.906   5.499
  689SOL    HW2 2967   1.738   5.799   5.517
  690SOL     OW 2968   5.446   3.376   2.484
  690SOL    HW1 2969   5.406   3.352   2.396
  690SOL    HW2 2970   5.409   3.316   2.555
  691SOL     OW 2971   5.539   1.669   1.078
  691SOL    HW1 2972   5.551   1.698   0.983
  691SOL    HW2 2973   5.467   1.600   1.082
  692SOL     OW 2974   2.014   0.211   4.525
  692SOL    HW1 2975   2.097   0.263   4.542
  692SOL    HW2 2976   1.954   0.218   4.606
  693SOL     OW 2977   5.645   6.078   3.581
  693SOL    HW1 2978   5.551   6.109   3.566
  693SOL    HW2 2979   5.650   5.979   3.569
  694SOL     OW 2980   4.668   6.325   5.220
  694SOL    HW1 2981   4.670   6.379   5.304
  694SOL    HW2 2982   4.717   6.375   5.148
  695SOL     OW 2983   4.113   0.087   3.754
  695SOL    HW1 2984   4.029   0.140   3.757
  695SOL    HW2 2985   4.162   0.107   3.669
  696SOL     OW 2986   5.544   4.112   3.199
  696SOL    HW1 2987   5.592   4.185   3.247
  696SOL    HW2 2988   5.481   4.151   3.132
  697SOL     OW 2989   1.381   6.544   1.921
  697SOL    HW1 2990   1.480   6.543   1.904
  697SOL    HW2 2991   1.360   6.609   1.994
  698SOL     OW 2992   5.580   6.792   0.163
  698SOL    HW1 2993   5.562   6.840   0.077
  698SOL    HW2 2994   5.647   6.843   0.216
  699SOL     OW 2995   2.997   2.693   1.441
  699SOL    HW1 2996   2.991   2.606   1.489
  699SOL    HW2 2997   3.093   2.713   1.420
  700SOL     OW 2998   3.653   0.295   4.249
  700SOL    HW1 2999   3.580   0.343   4.297
  700SOL    HW2 3000   3.654   0.199   4.277
  701SOL     OW 3001   4.772   5.179   1.593
  701SOL    HW1 3002   4.676   5.174   1.567
  701SOL    HW2 3003   4.828   5.193   1.511
  702SOL     OW 3004   3.400   1.155   4.327
  702SOL    HW1 3005   3.470   1.219   4.295
  702SOL    HW2 3006   3.364   1.103   4.250
  703SOL     OW 3007   3.409   1.953   6.761
  703SOL    HW1 3008   3.478   1.945   6.833
  703SOL    HW2 3009   3.349   2.031   6.782
  704SOL     OW 3010   1.878   2.590   5.344
  704SOL    HW1 3011   1.951   2.529   5.376
  704SOL    HW2 3012   1.804   2.536   5.305
  705SOL     OW 3013   0.134   6.629   5.206
  705SOL    HW1 3014   0.187   6.713   5.192
  705SOL    HW2 3015   0.055   6.649   5.265
  706SOL     OW 3016   4.458   1.301   5.280
  706SOL    HW1 3017   4.463   1.399   5.257
  706SOL    HW2 3018   4.410   1.291   5.367
  707SOL     OW 3019   3.225   5.260   4.347
  707SOL    HW1 3020   3.167   5.316   4.288
  707SOL    HW2 3021   3.275   5.319   4.410
  708SOL     OW 3022   4.556   6.138   3.696
  708SOL    HW1 3023   4.607   6.141   3.610
  708SOL    HW2 3024   4.484   6.068   3.690
  709SOL     OW 3025   2.544   0.119   1.015
  709SOL    HW1 3026   2.456   0.163   1.035
  709SOL    HW2 3027   2.528   0.034   0.964
  710SOL     OW 3028   4.539   2.789   1.680
  710SOL    HW1 3029   4.526   2.881   1.718
  710SOL    HW2 3030   4.562   2.726   1.753
  711SOL     OW 3031   0.029   2.553   6.385
  711SOL    HW1 3032   0.009   2.568   6.288
  711SOL    HW2 3033   0.026   2.640   6.433
  712SOL     OW 3034   5.229   4.110   0.719
  712SOL    HW1 3035   5.198   4.202   0.744
  712SOL    HW2 3036   5.329   4.109   0.716
  713SOL     OW 3037   3.825   3.086   4.972
  713SOL    HW1 3038   3.848   3.161   5.034
  713SOL    HW2 3039   3.876   3.004   4.998
  714SOL     OW 3040   5.132   5.785   2.796
  714SOL    HW1 3041   5.104   5.694   2.826
  714SOL    HW2 3042   5.230   5.785   2.777
  715SOL     OW 3043   6.671   5.095   5.650
  715SOL    HW1 3044   6.741   5.025   5.636
  715SOL    HW2 3045   6.657   5.109   5.748
  716SOL     OW 3046   1.212   2.044   3.038
  716SOL    HW1 3047   1.205   2.143   3.030
  716SOL    HW2 3048   1.306   2.019   3.063
  717SOL     OW 3049   5.328   4.647   4.347
  717SOL    HW1 3050   5.250   4.642   4.410
  717SOL    HW2 3051   5.381   4.562   4.355
  718SOL     OW 3052   5.455   2.065   5.143
  718SOL    HW1 3053   5.548   2.099   5.157
  718SOL    HW2 3054   5.456   1.998   5.068
  719SOL     OW 3055   5.191   6.833   3.921
  719SOL    HW1 3056   5.104   6.795   3.954
  719SOL    HW2 3057   5.186   6.848   3.823
  720SOL     OW 3058   2.561   1.451   0.812
  720SOL    HW1 3059   2.478   1.488   0.852
  720SOL    HW2 3060   2.626   1.525   0.795
  721SOL     OW 3061   0.219   1.762   2.929
  721SOL    HW1 3062   0.132   1.770   2.881
  721SOL    HW2 3063   0.203   1.730   3.023
  722SOL     OW 3064   5.155   6.562   0.666
  722SOL    HW1 3065   5.207   6.545   0.750
  722SOL    HW2 3066   5.184   6.649   0.627
  723SOL     OW 3067   2.467   5.703   4.013
  723SOL    HW1 3068   2.482   5.801   4.030
  723SOL    HW2 3069   2.490   5.651   4.095
  724SOL     OW 3070   1.241   1.490   4.025
  724SOL    HW1 3071   1.247   1.508   3.926
  724SOL    HW2 3072   1.256   1.575   4.075
  725SOL     OW 3073   1.174   3.934   2.925
  725SOL    HW1 3074   1.078   3.906   2.928
  725SOL    HW2 3075   1.199   3.973   3.014
  726SOL     OW 3076   1.575   4.013   1.039
  726SOL    HW1 3077   1.655   3.956   1.057
  726SOL    HW2 3078   1.548   4.003   0.943
  727SOL     OW 3079   3.801   5.716   5.061
  727SOL    HW1 3080   3.736   5.677   4.995
  727SOL    HW2 3081   3.871   5.767   5.011
  728SOL     OW 3082   6.490   3.430   3.758
  728SOL    HW1 3083   6.555   3.481   3.702
  728SOL    HW2 3084   6.431   3.375   3.700
  729SOL     OW 3085   0.294   4.191   0.882
  729SOL    HW1 3086   0.247   4.274   0.912
  729SOL    HW2 3087   0.392   4.199   0.902
  730SOL     OW 3088   4.344   0.650   3.382
  730SOL    HW1 3089   4.330   0.665   3.284
  730SOL    HW2 3090   4.259   0.673   3.431
  731SOL     OW 3091   4.447   4.996   5.558
  731SOL    HW1 3092   4.347   4.990   5.557
  731SOL    HW2 3093   4.479   5.011   5.651
  732SOL     OW 3094   4.034   1.565   5.280
  732SOL    HW1 3095   3.950   1.512   5.267
  732SOL    HW2 3096   4.023   1.626   5.359
  733SOL     OW 3097   5.769   5.659   2.825
  733SOL    HW1 3098   5.740   5.600   2.750
  733SOL    HW2 3099   5.809   5.743   2.788
  734SOL     OW 3100   6.477   6.380   2.175
  734SOL    HW1 3101   6.429   6.423   2.099
  734SOL    HW2 3102   6.411   6.351   2.245
  735SOL     OW 3103   4.562   0.296   2.267
  735SOL    HW1 3104   4.469   0.332   2.269
  735SOL    HW2 3105   4.581   0.257   2.177
  736SOL     OW 3106   1.871   1.241   3.862
  736SOL    HW1 3107   1.965   1.206   3.859
  736SOL    HW2 3108   1.841   1.249   3.957
  737SOL     OW 3109   4.219   0.607   5.801
  737SOL    HW1 3110   4.264   0.569   5.719
  737SOL    HW2 3111   4.220   0.707   5.796
  738SOL     OW 3112   1.680   4.685   0.308
  738SOL    HW1 3113   1.753   4.674   0.240
  738SOL    HW2 3114   1.706   4.642   0.394
  739SOL     OW 3115   3.183   0.001   4.080
  739SOL    HW1 3116   3.121   6.945   4.096
  739SOL    HW2 3117   3.175   0.067   4.154
  740SOL     OW 3118   4.893   3.297   2.646
  740SOL    HW1 3119   4.854   3.213   2.606
  740SOL    HW2 3120   4.951   3.342   2.578
  741SOL     OW 3121   2.286   0.978   3.148
  741SOL    HW1 3122   2.234   0.901   3.185
  741SOL    HW2 3123   2.252   1.000   3.057
  742SOL     OW 3124   2.302   0.064   2.042
  742SOL    HW1 3125   2.298   0.098   1.949
  742SOL    HW2 3126   2.374   7.015   2.049
  743SOL     OW 3127   0.653   6.713   3.158
  743SOL    HW1 3128   0.710   6.739   3.080
  743SOL    HW2 3129   0.580   6.652   3.126
  744SOL     OW 3130   5.103   1.841   0.325
  744SOL    HW1 3131   5.138   1.924   0.368
  744SOL    HW2 3132   5.024   1.863   0.269
  745SOL     OW 3133   2.296   0.023   4.594
  745SOL    HW1 3134   2.272   0.093   4.526
  745SOL    HW2 3135   2.269   0.054   4.685
  746SOL     OW 3136   6.954   4.794   5.921
  746SOL    HW1 3137   6.970   4.881   5.968
  746SOL    HW2 3138   0.021   4.751   5.900
  747SOL     OW 3139   5.084   5.510   2.858
  747SOL    HW1 3140   5.068   5.460   2.943
  747SOL    HW2 3141   5.004   5.499   2.798
  748SOL     OW 3142   5.142   5.444   1.759
  748SOL    HW1 3143   5.207   5.372   1.735
  748SOL    HW2 3144   5.070   5.449   1.690
  749SOL     OW 3145   4.897   3.587   3.941
  749SOL    HW1 3146   4.973   3.539   3.898
  749SOL    HW2 3147   4.884   3.553   4.034
  750SOL     OW 3148   2.430   2.073   2.476
  750SOL    HW1 3149   2.465   2.159   2.440
  750SOL    HW2 3150   2.337   2.087   2.510
  751SOL     OW 3151   3.791   0.531   0.636
  751SOL    HW1 3152   3.728   0.472   0.584
  751SOL    HW2 3153   3.805   0.491   0.727
  752SOL     OW 3154   3.537   2.506   5.620
  752SOL    HW1 3155   3.492   2.437   5.676
  752SOL    HW2 3156   3.570   2.464   5.535
  753SOL     OW 3157   3.776   4.155   4.754
  753SOL    HW1 3158   3.869   4.190   4.762
  753SOL    HW2 3159   3.779   4.060   4.723
  754SOL     OW 3160   5.766   0.752   0.468
  754SOL    HW1 3161   5.667   0.759   0.456
  754SOL    HW2 3162   5.812   0.783   0.384
  755SOL     OW 3163   4.123   4.247   5.329
  755SOL    HW1 3164   4.181   4.280   5.255
  755SOL    HW2 3165   4.038   4.210   5.292
  756SOL     OW 3166   2.243   5.535   6.322
  756SOL    HW1 3167   2.176   5.540   6.249
  756SOL    HW2 3168   2.307   5.461   6.303
  757SOL     OW 3169   2.856   6.231   2.220
  757SOL    HW1 3170   2.784   6.164   2.236
  757SOL    HW2 3171   2.942   6.183   2.201
  758SOL     OW 3172   4.441   0.893   4.201
  758SOL    HW1 3173   4.430   0.825   4.273
  758SOL    HW2 3174   4.535   0.926   4.198
  759SOL     OW 3175   0.707   2.953   3.851
  759SOL    HW1 3176   0.802   2.923   3.835
  759SOL    HW2 3177   0.683   3.025   3.786
  760SOL     OW 3178   6.021   5.480   2.895
  760SOL    HW1 3179   5.962   5.555   2.924
  760SOL    HW2 3180   6.116   5.501   2.918
  761SOL     OW 3181   3.754   3.967   6.243
  761SOL    HW1 3182   3.725   4.035   6.310
  761SOL    HW2 3183   3.726   3.876   6.273
  762SOL     OW 3184   3.215   5.617   3.673
  762SOL    HW1 3185   3.164   5.685   3.620
  762SOL    HW2 3186   3.186   5.621   3.769
  763SOL     OW 3187   5.482   0.754   0.459
  763SOL    HW1 3188   5.468   0.789   0.551
  763SOL    HW2 3189   5.423   0.803   0.395
  764SOL     OW 3190   5.709   0.054   5.959
  764SOL    HW1 3191   5.807   0.041   5.946
  764SOL    HW2 3192   5.660   0.028   5.876
  765SOL     OW 3193   6.788   6.988   0.711
  765SOL    HW1 3194   6.729   0.000   0.785
  765SOL    HW2 3195   6.740   6.995   0.624
  766SOL     OW 3196   2.401   2.252   4.996
  766SOL    HW1 3197   2.438   2.295   5.079
  766SOL    HW2 3198   2.308   2.284   4.981
  767SOL     OW 3199   6.356   5.503   4.647
  767SOL    HW1 3200   6.404   5.539   4.567
  767SOL    HW2 3201   6.420   5.490   4.721
  768SOL     OW 3202   2.070   5.201   2.732
  768SOL    HW1 3203   2.040   5.186   2.637
  768SOL    HW2 3204   2.131   5.128   2.759
  769SOL     OW 3205   2.550   1.859   4.973
  769SOL    HW1 3206   2.474   1.923   4.968
  769SOL    HW2 3207   2.514   1.765   4.970
  770SOL     OW 3208   1.536   4.816   6.053
  770SOL    HW1 3209   1.512   4.778   5.964
  770SOL    HW2 3210   1.505   4.753   6.125
  771SOL     OW 3211   1.364   5.251   2.592
  771SOL    HW1 3212   1.267   5.226   2.583
  771SOL    HW2 3213   1.402   5.207   2.673
  772SOL     OW 3214   5.629   4.411   0.670
  772SOL    HW1 3215   5.576   4.463   0.603
  772SOL    HW2 3216   5.603   4.440   0.762
  773SOL     OW 3217   1.151   3.848   3.741
  773SOL    HW1 3218   1.059   3.820   3.714
  773SOL    HW2 3219   1.148   3.943   3.774
  774SOL     OW 3220   2.548   0.292   3.285
  774SOL    HW1 3221   2.555   0.385   3.248
  774SOL    HW2 3222   2.633   0.268   3.332
  775SOL     OW 3223   1.234   3.991   2.314
  775SOL    HW1 3224   1.285   3.977   2.229
  775SOL    HW2 3225   1.143   3.949   2.305
  776SOL     OW 3226   2.622   5.364   6.436
  776SOL    HW1 3227   2.612   5.458   6.405
  776SOL    HW2 3228   2.644   5.306   6.357
  777SOL     OW 3229   2.323   3.964   6.804
  777SOL    HW1 3230   2.237   3.912   6.808
  777SOL    HW2 3231   2.400   3.900   6.810
  778SOL     OW 3232   2.819   6.324   0.024
  778SOL    HW1 3233   2.741   6.333   0.087
  778SOL    HW2 3234   2.845   6.415   7.012
  779SOL     OW 3235   6.975   2.372   3.316
  779SOL    HW1 3236   0.026   2.325   3.368
  779SOL    HW2 3237   7.006   2.465   3.294
  780SOL     OW 3238   0.356   2.271   4.048
  780SOL    HW1 3239   0.309   2.348   4.005
  780SOL    HW2 3240   0.435   2.244   3.992
  781SOL     OW 3241   0.469   4.525   0.178
  781SOL    HW1 3242   0.537   4.575   0.232
  781SOL    HW2 3243   0.449   4.438   0.222
  782SOL     OW 3244   1.744   3.646   4.869
  782SOL    HW1 3245   1.778   3.730   4.912
  782SOL    HW2 3246   1.755   3.653   4.770
  783SOL     OW 3247   6.789   4.816   6.831
  783SOL    HW1 3248   6.689   4.824   6.828
  783SOL    HW2 3249   6.819   4.804   6.925
  784SOL     OW 3250   2.412   5.961   0.958
  784SOL    HW1 3251   2.424   6.057   0.931
  784SOL    HW2 3252   2.358   5.956   1.042
  785SOL     OW 3253   1.320   0.346   4.168
  785SOL    HW1 3254   1.342   0.394   4.084
  785SOL    HW2 3255   1.363   0.256   4.167
  786SOL     OW 3256   6.020   1.421   4.150
  786SOL    HW1 3257   6.087   1.402   4.078
  786SOL    HW2 3258   5.964   1.500   4.123
  787SOL     OW 3259   2.063   0.042   0.734
  787SOL    HW1 3260   2.147   0.095   0.718
  787SOL    HW2 3261   2.015   0.080   0.814
  788SOL     OW 3262   1.963   2.357   1.267
  788SOL    HW1 3263   1.892   2.314   1.323
  788SOL    HW2 3264   1.947   2.456   1.264
  789SOL     OW 3265   4.465   4.784   2.467
  789SOL    HW1 3266   4.408   4.703   2.453
  789SOL    HW2 3267   4.539   4.785   2.399
  790SOL     OW 3268   0.910   2.082   2.533
  790SOL    HW1 3269   0.873   2.150   2.595
  790SOL    HW2 3270   1.000   2.053   2.565
  791SOL     OW 3271   3.017   5.792   4.251
  791SOL    HW1 3272   2.969   5.857   4.309
  791SOL    HW2 3273   3.091   5.749   4.302
  792SOL     OW 3274   1.449   0.681   6.997
  792SOL    HW1 3275   1.427   0.673   0.073
  792SOL    HW2 3276   1.548   0.691   6.986
  793SOL     OW 3277   2.913   6.125   4.144
  793SOL    HW1 3278   2.995   6.076   4.114
  793SOL    HW2 3279   2.883   6.186   4.071
  794SOL     OW 3280   3.950   3.038   2.487
  794SOL    HW1 3281   3.905   3.095   2.556
  794SOL    HW2 3282   3.882   2.980   2.442
  795SOL     OW 3283   3.643   0.405   6.157
  795SOL    HW1 3284   3.601   0.455   6.081
  795SOL    HW2 3285   3.587   0.416   6.239
  796SOL     OW 3286   0.889   2.802   0.730
  796SOL    HW1 3287   0.900   2.714   0.683
  796SOL    HW2 3288   0.812   2.852   0.690
  797SOL     OW 3289   4.538   7.019   0.498
  797SOL    HW1 3290   4.595   6.957   0.553
  797SOL    HW2 3291   4.442   6.998   0.513
  798SOL     OW 3292   4.496   6.396   0.959
  798SOL    HW1 3293   4.562   6.323   0.939
  798SOL    HW2 3294   4.497   6.415   1.057
  799SOL     OW 3295   2.285   2.016   5.459
  799SOL    HW1 3296   2.261   2.062   5.545
  799SOL    HW2 3297   2.357   1.949   5.476
  800SOL     OW 3298   6.234   3.164   2.664
  800SOL    HW1 3299   6.135   3.167   2.665
  800SOL    HW2 3300   6.271   3.233   2.725
  801SOL     OW 3301   2.311   5.786   6.125
  801SOL    HW1 3302   2.272   5.789   6.033
  801SOL    HW2 3303   2.237   5.791   6.192
  802SOL     OW 3304   5.280   2.465   6.795
  802SOL    HW1 3305   5.244   2.399   6.860
  802SOL    HW2 3306   5.265   2.558   6.829
  803SOL     OW 3307   2.479   1.368   4.728
  803SOL    HW1 3308   2.389   1.332   4.703
  803SOL    HW2 3309   2.468   1.442   4.795
  804SOL     OW 3310   5.324   0.464   3.055
  804SOL    HW1 3311   5.402   0.428   3.107
  804SOL    HW2 3312   5.316   0.562   3.071
  805SOL     OW 3313   3.529   1.262   3.804
  805SOL    HW1 3314   3.497   1.347   3.763
  805SOL    HW2 3315   3.544   1.276   3.902
  806SOL     OW 3316   2.401   6.187   5.349
  806SOL    HW1 3317   2.358   6.274   5.328
  806SOL    HW2 3318   2.421   6.182   5.447
  807SOL     OW 3319   1.532   6.136   5.996
  807SOL    HW1 3320   1.505   6.219   6.044
  807SOL    HW2 3321   1.450   6.086   5.967
  808SOL     OW 3322   5.021   2.753   6.007
  808SOL    HW1 3323   5.104   2.791   5.966
  808SOL    HW2 3324   4.982   2.684   5.946
  809SOL     OW 3325   2.157   4.927   0.241
  809SOL    HW1 3326   2.062   4.956   0.233
  809SOL    HW2 3327   2.205   4.987   0.306
  810SOL     OW 3328   3.392   3.014   6.924
  810SOL    HW1 3329   3.406   3.113   6.927
  810SOL    HW2 3330   3.295   2.994   6.933
  811SOL     OW 3331   6.110   4.955   4.698
  811SOL    HW1 3332   6.109   4.914   4.606
  811SOL    HW2 3333   6.135   5.051   4.691
  812SOL     OW 3334   0.513   3.168   2.046
  812SOL    HW1 3335   0.532   3.181   1.949
  812SOL    HW2 3336   0.522   3.071   2.069
  813SOL     OW 3337   1.423   1.783   4.958
  813SOL    HW1 3338   1.358   1.737   4.898
  813SOL    HW2 3339   1.461   1.863   4.910
  814SOL     OW 3340   0.944   5.404   2.836
  814SOL    HW1 3341   0.897   5.326   2.878
  814SOL    HW2 3342   0.879   5.455   2.779
  815SOL     OW 3343   4.636   1.656   4.840
  815SOL    HW1 3344   4.564   1.724   4.825
  815SOL    HW2 3345   4.597   1.564   4.832
  816SOL     OW 3346   6.235   5.070   6.618
  816SOL    HW1 3347   6.201   5.053   6.710
  816SOL    HW2 3348   6.160   5.104   6.561
  817SOL     OW 3349   0.579   4.405   6.855
  817SOL    HW1 3350   0.480   4.408   6.842
  817SOL    HW2 3351   0.600   4.366   6.945
  818SOL     OW 3352   6.718   2.080   5.067
  818SOL    HW1 3353   6.643   2.145   5.052
  818SOL    HW2 3354   6.775   2.076   4.986
  819SOL     OW 3355   4.852   3.004   1.732
  819SOL    HW1 3356   4.854   3.082   1.668
  819SOL    HW2 3357   4.807   3.032   1.817
  820SOL     OW 3358   2.674   1.560   5.166
  820SOL    HW1 3359   2.752   1.499   5.155
  820SOL    HW2 3360   2.620   1.530   5.245
  821SOL     OW 3361   4.990   3.257   6.350
  821SOL    HW1 3362   5.046   3.183   6.386
  821SOL    HW2 3363   5.020   3.280   6.258
  822SOL     OW 3364   0.433   5.110   3.445
  822SOL    HW1 3365   0.435   5.028   3.502
  822SOL    HW2 3366   0.344   5.119   3.402
  823SOL     OW 3367   1.153   3.267   4.627
  823SOL    HW1 3368   1.213   3.249   4.706
  823SOL    HW2 3369   1.181   3.353   4.585
  824SOL     OW 3370   4.814   0.737   6.555
  824SOL    HW1 3371   4.745   0.798   6.595
  824SOL    HW2 3372   4.826   0.760   6.458
  825SOL     OW 3373   5.952   5.812   0.905
  825SOL    HW1 3374   5.908   5.760   0.978
  825SOL    HW2 3375   6.026   5.758   0.865
  826SOL     OW 3376   3.881   2.491   6.878
  826SOL    HW1 3377   3.886   2.455   6.971
  826SOL    HW2 3378   3.903   2.589   6.879
  827SOL     OW 3379   4.305   4.040   5.663
  827SOL    HW1 3380   4.375   4.067   5.597
  827SOL    HW2 3381   4.251   3.964   5.626
  828SOL     OW 3382   0.036   6.279   6.086
  828SOL    HW1 3383   0.055   6.183   6.068
  828SOL    HW2 3384   0.003   6.290   6.180
  829SOL     OW 3385   3.176   3.585   2.608
  829SOL    HW1 3386   3.250   3.645   2.640
  829SOL    HW2 3387   3.179   3.578   2.509
  830SOL     OW 3388   6.834   4.561   0.455
  830SOL    HW1 3389   6.785   4.556   0.369
  830SOL    HW2 3390   6.799   4.638   0.509
  831SOL     OW 3391   4.705   0.084   1.467
  831SOL    HW1 3392   4.794   0.049   1.497
  831SOL    HW2 3393   4.718   0.165   1.411
  832SOL     OW 3394   2.729   1.445   4.776
  832SOL    HW1 3395   2.633   1.418   4.760
  832SOL    HW2 3396   2.767   1.387   4.849
  833SOL     OW 3397   3.557   2.495   0.149
  833SOL    HW1 3398   3.558   2.595   0.139
  833SOL    HW2 3399   3.568   2.452   0.059
  834SOL     OW 3400   5.979   3.062   0.674
  834SOL    HW1 3401   5.962   3.049   0.772
  834SOL    HW2 3402   6.028   2.983   0.638
  835SOL     OW 3403   0.172   6.999   4.009
  835SOL    HW1 3404   0.101   0.049   4.017
  835SOL    HW2 3405   0.153   6.925   4.073
  836SOL     OW 3406   4.875   0.885   4.959
  836SOL    HW1 3407   4.952   0.921   5.012
  836SOL    HW2 3408   4.819   0.826   5.018
  837SOL     OW 3409   1.355   0.742   0.533
  837SOL    HW1 3410   1.348   0.840   0.519
  837SOL    HW2 3411   1.385   0.724   0.627
  838SOL     OW 3412   1.124   5.516   3.500
  838SOL    HW1 3413   1.184   5.512   3.580
  838SOL    HW2 3414   1.030   5.501   3.528
  839SOL     OW 3415   1.490   1.745   0.323
  839SOL    HW1 3416   1.524   1.831   0.282
  839SOL    HW2 3417   1.420   1.706   0.264
  840SOL     OW 3418   5.032   4.958   6.954
  840SOL    HW1 3419   4.945   4.959   7.003
  840SOL    HW2 3420   5.038   4.875   6.898
  841SOL     OW 3421   2.991   4.824   0.485
  841SOL    HW1 3422   2.893   4.834   0.467
  841SOL    HW2 3423   3.017   4.729   0.472
  842SOL     OW 3424   3.993   5.543   0.433
  842SOL    HW1 3425   4.032   5.482   0.364
  842SOL    HW2 3426   4.010   5.505   0.524
  843SOL     OW 3427   0.905   0.799   2.202
  843SOL    HW1 3428   0.832   0.733   2.219
  843SOL    HW2 3429   0.873   0.868   2.137
  844SOL     OW 3430   6.739   0.762   1.348
  844SOL    HW1 3431   6.786   0.739   1.433
  844SOL    HW2 3432   6.730   0.862   1.340
  845SOL     OW 3433   3.403   1.117   2.327
  845SOL    HW1 3434   3.428   1.045   2.392
  845SOL    HW2 3435   3.485   1.166   2.298
  846SOL     OW 3436   3.005   1.647   0.972
  846SOL    HW1 3437   3.076   1.578   0.987
  846SOL    HW2 3438   3.040   1.719   0.912
  847SOL     OW 3439   2.587   3.786   1.671
  847SOL    HW1 3440   2.592   3.873   1.621
  847SOL    HW2 3441   2.667   3.778   1.730
  848SOL     OW 3442   0.077   5.948   0.287
  848SOL    HW1 3443   0.161   5.999   0.309
  848SOL    HW2 3444   0.098   5.850   0.280
  849SOL     OW 3445   6.192   3.693   6.536
  849SOL    HW1 3446   6.276   3.746   6.526
  849SOL    HW2 3447   6.203   3.605   6.490
  850SOL     OW 3448   1.194   0.454   4.871
  850SOL    HW1 3449   1.223   0.358   4.864
  850SOL    HW2 3450   1.218   0.488   4.962
  851SOL     OW 3451   5.995   3.716   6.166
  851SOL    HW1 3452   6.009   3.803   6.214
  851SOL    HW2 3453   5.952   3.651   6.227
  852SOL     OW 3454   0.306   3.744   2.154
  852SOL    HW1 3455   0.222   3.763   2.104
  852SOL    HW2 3456   0.375   3.708   2.091
  853SOL     OW 3457   2.791   2.544   0.122
  853SOL    HW1 3458   2.795   2.446   0.104
  853SOL    HW2 3459   2.783   2.594   0.035
  854SOL     OW 3460   5.801   5.869   6.318
  854SOL    HW1 3461   5.746   5.939   6.272
  854SOL    HW2 3462   5.864   5.828   6.252
  855SOL     OW 3463   5.312   1.465   0.425
  855SOL    HW1 3464   5.351   1.401   0.359
  855SOL    HW2 3465   5.373   1.543   0.436
  856SOL     OW 3466   1.910   5.151   1.671
  856SOL    HW1 3467   1.811   5.164   1.666
  856SOL    HW2 3468   1.954   5.217   1.611
  857SOL     OW 3469   6.843   5.465   5.243
  857SOL    HW1 3470   6.846   5.396   5.316
  857SOL    HW2 3471   6.750   5.470   5.206
  858SOL     OW 3472   4.630   3.246   7.020
  858SOL    HW1 3473   4.720   3.252   6.976
  858SOL    HW2 3474   4.635   3.287   0.090
  859SOL     OW 3475   4.758   6.556   5.394
  859SOL    HW1 3476   4.842   6.604   5.369
  859SOL    HW2 3477   4.679   6.610   5.367
  860SOL     OW 3478   5.016   3.185   6.070
  860SOL    HW1 3479   4.959   3.204   5.990
  860SOL    HW2 3480   4.982   3.102   6.115
  861SOL     OW 3481   2.078   5.734   1.827
  861SOL    HW1 3482   2.130   5.649   1.827
  861SOL    HW2 3483   2.025   5.742   1.743
  862SOL     OW 3484   0.504   3.796   3.903
  862SOL    HW1 3485   0.415   3.751   3.907
  862SOL    HW2 3486   0.503   3.877   3.961
  863SOL     OW 3487   6.438   0.632   0.693
  863SOL    HW1 3488   6.348   0.658   0.659
  863SOL    HW2 3489   6.453   0.674   0.783
  864SOL     OW 3490   5.579   6.458   4.258
  864SOL    HW1 3491   5.655   6.402   4.224
  864SOL    HW2 3492   5.500   6.446   4.199
  865SOL     OW 3493   1.585   6.062   5.047
  865SOL    HW1 3494   1.494   6.058   5.088
  865SOL    HW2 3495   1.628   5.972   5.051
  866SOL     OW 3496   3.650   6.684   1.878
  866SOL    HW1 3497   3.681   6.779   1.874
  866SOL    HW2 3498   3.550   6.680   1.872
  867SOL     OW 3499   5.265   2.460   6.050
  867SOL    HW1 3500   5.297   2.555   6.046
  867SOL    HW2 3501   5.279   2.424   6.142
  868SOL     OW 3502   0.075   1.870   2.501
  868SOL    HW1 3503   0.158   1.892   2.552
  868SOL    HW2 3504   0.005   1.938   2.522
  869SOL     OW 3505   0.002   3.982   3.706
  869SOL    HW1 3506   6.942   4.018   3.659
  869SOL    HW2 3507   0.025   4.041   3.784
  870SOL     OW 3508   3.629   5.401   2.018
  870SOL    HW1 3509   3.642   5.394   2.117
  870SOL    HW2 3510   3.605   5.496   1.995
  871SOL     OW 3511   4.624   1.552   3.256
  871SOL    HW1 3512   4.562   1.554   3.177
  871SOL    HW2 3513   4.572   1.532   3.339
  872SOL     OW 3514   0.279   2.406   4.943
  872SOL    HW1 3515   0.222   2.351   5.004
  872SOL    HW2 3516   0.220   2.453   4.877
  873SOL     OW 3517   4.486   6.816   6.235
  873SOL    HW1 3518   4.569   6.872   6.229
  873SOL    HW2 3519   4.448   6.804   6.143
  874SOL     OW 3520   4.683   3.954   1.207
  874SOL    HW1 3521   4.608   3.963   1.142
  874SOL    HW2 3522   4.653   3.985   1.298
  875SOL     OW 3523   5.070   5.425   1.235
  875SOL    HW1 3524   5.141   5.483   1.276
  875SOL    HW2 3525   5.026   5.475   1.161
  876SOL     OW 3526   0.157   6.733   1.270
  876SOL    HW1 3527   0.246   6.773   1.291
  876SOL    HW2 3528   0.160   6.694   1.178
  877SOL     OW 3529   2.085   2.563   6.420
  877SOL    HW1 3530   2.036   2.503   6.485
  877SOL    HW2 3531   2.018   2.616   6.368
  878SOL     OW 3532   4.468   6.302   4.172
  878SOL    HW1 3533   4.440   6.371   4.239
  878SOL    HW2 3534   4.485   6.346   4.084
  879SOL     OW 3535   5.792   0.469   0.681
  879SOL    HW1 3536   5.716   0.534   0.682
  879SOL    HW2 3537   5.816   0.446   0.586
  880SOL     OW 3538   2.925   3.479   2.595
  880SOL    HW1 3539   2.932   3.379   2.601
  880SOL    HW2 3540   3.013   3.520   2.620
  881SOL     OW 3541   4.046   1.824   0.496
  881SOL    HW1 3542   3.973   1.759   0.475
  881SOL    HW2 3543   4.056   1.833   0.595
  882SOL     OW 3544   1.236   3.510   4.493
  882SOL    HW1 3545   1.186   3.489   4.409
  882SOL    HW2 3546   1.218   3.604   4.520
  883SOL     OW 3547   2.630   0.384   2.506
  883SOL    HW1 3548   2.552   0.325   2.486
  883SOL    HW2 3549   2.685   0.343   2.579
  884SOL     OW 3550   4.817   3.501   5.660
  884SOL    HW1 3551   4.827   3.600   5.674
  884SOL    HW2 3552   4.797   3.483   5.564
  885SOL     OW 3553   3.785   2.653   6.178
  885SOL    HW1 3554   3.854   2.592   6.136
  885SOL    HW2 3555   3.765   2.621   6.270
  886SOL     OW 3556   3.563   6.897   6.656
  886SOL    HW1 3557   3.639   6.958   6.680
  886SOL    HW2 3558   3.525   6.858   6.740
  887SOL     OW 3559   4.694   1.574   4.290
  887SOL    HW1 3560   4.711   1.610   4.382
  887SOL    HW2 3561   4.600   1.544   4.282
  888SOL     OW 3562   6.736   6.970   2.998
  888SOL    HW1 3563   6.664   0.007   2.960
  888SOL    HW2 3564   6.702   6.877   3.010
  889SOL     OW 3565   0.551   3.354   6.695
  889SOL    HW1 3566   0.494   3.281   6.735
  889SOL    HW2 3567   0.646   3.342   6.723
  890SOL     OW 3568   2.699   5.103   4.132
  890SOL    HW1 3569   2.728   5.080   4.225
  890SOL    HW2 3570   2.601   5.088   4.124
  891SOL     OW 3571   5.296   5.595   1.359
  891SOL    HW1 3572   5.246   5.624   1.441
  891SOL    HW2 3573   5.308   5.674   1.298
  892SOL     OW 3574   2.725   4.614   0.402
  892SOL    HW1 3575   2.700   4.564   0.319
  892SOL    HW2 3576   2.738   4.549   0.477
  893SOL     OW 3577   2.299   6.314   2.486
  893SOL    HW1 3578   2.390   6.306   2.527
  893SOL    HW2 3579   2.307   6.319   2.387
  894SOL     OW 3580   1.048   3.787   0.885
  894SOL    HW1 3581   1.044   3.845   0.966
  894SOL    HW2 3582   1.108   3.709   0.903
  895SOL     OW 3583   0.556   5.663   3.991
  895SOL    HW1 3584   0.521   5.755   4.011
  895SOL    HW2 3585   0.527   5.635   3.900
  896SOL     OW 3586   6.940   6.697   5.379
  896SOL    HW1 3587   6.934   6.733   5.472
  896SOL    HW2 3588   6.870   6.627   5.365
  897SOL     OW 3589   5.224   0.962   6.915
  897SOL    HW1 3590   5.195   1.051   6.881
  897SOL    HW2 3591   5.299   0.927   6.859
  898SOL     OW 3592   3.985   6.065   3.053
  898SOL    HW1 3593   4.068   6.121   3.047
  898SOL    HW2 3594   3.971   6.039   3.149
  899SOL     OW 3595   0.002   4.754   0.336
  899SOL    HW1 3596   0.039   4.711   0.254
  899SOL    HW2 3597   7.002   4.683   0.404
  900SOL     OW 3598   5.145   5.187   0.636
  900SOL    HW1 3599   5.216   5.225   0.694
  900SOL    HW2 3600   5.180   5.176   0.543
  901SOL     OW 3601   1.524   0.911   2.462
  901SOL    HW1 3602   1.478   0.937   2.547
  901SOL    HW2 3603   1.499   0.975   2.389
  902SOL     OW 3604   6.356   3.802   2.111
  902SOL    HW1 3605   6.367   3.777   2.207
  902SOL    HW2 3606   6.440   3.843   2.077
  903SOL     OW 3607   0.139   2.627   0.627
  903SOL    HW1 3608   0.211   2.587   0.570
  903SOL    HW2 3609   0.079   2.684   0.571
  904SOL     OW 3610   2.660   1.661   2.505
  904SOL    HW1 3611   2.617   1.741   2.463
  904SOL    HW2 3612   2.589   1.595   2.532
  905SOL     OW 3613   6.231   2.877   6.667
  905SOL    HW1 3614   6.318   2.927   6.667
  905SOL    HW2 3615   6.156   2.940   6.688
  906SOL     OW 3616   6.195   3.769   6.841
  906SOL    HW1 3617   6.180   3.734   6.748
  906SOL    HW2 3618   6.171   3.698   6.907
  907SOL     OW 3619   5.137   3.914   7.012
  907SOL    HW1 3620   5.080   3.848   6.964
  907SOL    HW2 3621   5.085   3.957   0.065
  908SOL     OW 3622   1.931   4.157   2.735
  908SOL    HW1 3623   2.008   4.173   2.673
  908SOL    HW2 3624   1.862   4.228   2.721
  909SOL     OW 3625   5.371   5.142   6.578
  909SOL    HW1 3626   5.409   5.134   6.486
  909SOL    HW2 3627   5.338   5.234   6.593
  910SOL     OW 3628   2.269   3.477   1.069
  910SOL    HW1 3629   2.276   3.394   1.013
  910SOL    HW2 3630   2.205   3.461   1.144
  911SOL     OW 3631   1.147   5.069   6.374
  911SOL    HW1 3632   1.074   5.136   6.373
  911SOL    HW2 3633   1.235   5.115   6.389
  912SOL     OW 3634   4.918   2.200   2.629
  912SOL    HW1 3635   4.922   2.114   2.680
  912SOL    HW2 3636   4.837   2.252   2.658
  913SOL     OW 3637   4.804   6.837   3.219
  913SOL    HW1 3638   4.736   6.848   3.147
  913SOL    HW2 3639   4.882   6.898   3.201
  914SOL     OW 3640   3.159   6.586   0.120
  914SOL    HW1 3641   3.242   6.637   0.098
  914SOL    HW2 3642   3.166   6.549   0.213
  915SOL     OW 3643   5.962   5.473   0.655
  915SOL    HW1 3644   5.947   5.490   0.558
  915SOL    HW2 3645   6.027   5.541   0.691
  916SOL     OW 3646   0.854   2.262   2.338
  916SOL    HW1 3647   0.871   2.242   2.241
  916SOL    HW2 3648   0.907   2.200   2.395
  917SOL     OW 3649   6.534   6.787   0.936
  917SOL    HW1 3650   6.485   6.813   1.019
  917SOL    HW2 3651   6.606   6.722   0.960
  918SOL     OW 3652   2.112   5.411   0.317
  918SOL    HW1 3653   2.018   5.377   0.312
  918SOL    HW2 3654   2.112   5.509   0.295
  919SOL     OW 3655   5.682   2.414   4.971
  919SOL    HW1 3656   5.658   2.341   4.907
  919SOL    HW2 3657   5.613   2.486   4.968
  920SOL     OW 3658   2.832   5.032   2.222
  920SOL    HW1 3659   2.753   4.977   2.194
  920SOL    HW2 3660   2.813   5.073   2.311
  921SOL     OW 3661   4.639   5.030   5.228
  921SOL    HW1 3662   4.710   4.981   5.278
  921SOL    HW2 3663   4.682   5.103   5.173
  922SOL     OW 3664   3.319   2.956   3.663
  922SOL    HW1 3665   3.394   2.925   3.605
  922SOL    HW2 3666   3.335   3.051   3.690
  923SOL     OW 3667   2.124   3.604   5.261
  923SOL    HW1 3668   2.145   3.562   5.349
  923SOL    HW2 3669   2.139   3.537   5.188
  924SOL     OW 3670   0.116   3.853   2.946
  924SOL    HW1 3671   0.090   3.873   2.851
  924SOL    HW2 3672   0.190   3.786   2.947
  925SOL     OW 3673   6.672   1.931   0.234
  925SOL    HW1 3674   6.690   1.876   0.316
  925SOL    HW2 3675   6.758   1.969   0.199
  926SOL     OW 3676   1.168   1.647   1.982
  926SOL    HW1 3677   1.074   1.674   1.961
  926SOL    HW2 3678   1.195   1.685   2.070
  927SOL     OW 3679   5.816   3.707   3.552
  927SOL    HW1 3680   5.855   3.696   3.643
  927SOL    HW2 3681   5.729   3.658   3.547
  928SOL     OW 3682   2.785   4.639   6.431
  928SOL    HW1 3683   2.796   4.697   6.511
  928SOL    HW2 3684   2.809   4.690   6.349
  929SOL     OW 3685   6.760   1.231   5.318
  929SOL    HW1 3686   6.786   1.291   5.394
  929SOL    HW2 3687   6.661   1.233   5.306
  930SOL     OW 3688   5.792   4.939   6.079
  930SOL    HW1 3689   5.750   5.007   6.020
  930SOL    HW2 3690   5.761   4.952   6.173
  931SOL     OW 3691   6.643   2.005   3.435
  931SOL    HW1 3692   6.686   1.944   3.502
  931SOL    HW2 3693   6.713   2.053   3.383
  932SOL     OW 3694   3.929   0.570   3.347
  932SOL    HW1 3695   3.843   0.616   3.370
  932SOL    HW2 3696   3.999   0.593   3.415
  933SOL     OW 3697   1.043   5.493   1.255
  933SOL    HW1 3698   1.087   5.472   1.343
  933SOL    HW2 3699   0.948   5.462   1.258
  934SOL     OW 3700   1.338   3.946   0.292
  934SOL    HW1 3701   1.241   3.929   0.277
  934SOL    HW2 3702   1.371   4.010   0.223
  935SOL     OW 3703   5.927   3.193   4.267
  935SOL    HW1 3704   5.886   3.104   4.246
  935SOL    HW2 3705   5.872   3.240   4.336
  936SOL     OW 3706   1.603   6.965   5.931
  936SOL    HW1 3707   1.549   6.882   5.916
  936SOL    HW2 3708   1.609   7.016   5.846
  937SOL     OW 3709   4.360   1.622   5.963
  937SOL    HW1 3710   4.274   1.628   5.913
  937SOL    HW2 3711   4.394   1.715   5.981
  938SOL     OW 3712   5.497   5.783   4.048
  938SOL    HW1 3713   5.507   5.686   4.069
  938SOL    HW2 3714   5.449   5.828   4.124
  939SOL     OW 3715   0.007   6.606   5.812
  939SOL    HW1 3716   0.060   6.525   5.832
  939SOL    HW2 3717   0.009   6.668   5.890
  940SOL     OW 3718   2.050   4.711   0.382
  940SOL    HW1 3719   2.120   4.774   0.347
  940SOL    HW2 3720   2.012   4.658   0.307
  941SOL     OW 3721   3.579   0.410   6.996
  941SOL    HW1 3722   3.657   0.470   7.010
  941SOL    HW2 3723   3.610   0.324   6.956
  942SOL     OW 3724   7.007   5.434   0.480
  942SOL    HW1 3725   0.083   5.457   0.469
  942SOL    HW2 3726   6.959   5.510   0.524
  943SOL     OW 3727   3.320   5.598   2.216
  943SOL    HW1 3728   3.394   5.569   2.155
  943SOL    HW2 3729   3.349   5.587   2.311
  944SOL     OW 3730   6.486   6.884   4.150
  944SOL    HW1 3731   6.526   6.806   4.103
  944SOL    HW2 3732   6.528   6.969   4.116
  945SOL     OW 3733   0.820   5.685   0.191
  945SOL    HW1 3734   0.741   5.647   0.240
  945SOL    HW2 3735   0.863   5.755   0.248
  946SOL     OW 3736   4.848   2.983   3.827
  946SOL    HW1 3737   4.818   2.952   3.917
  946SOL    HW2 3738   4.838   2.909   3.761
  947SOL     OW 3739   3.917   4.007   4.183
  947SOL    HW1 3740   3.885   3.984   4.091
  947SOL    HW2 3741   3.856   4.075   4.224
  948SOL     OW 3742   4.332   0.740   2.576
  948SOL    HW1 3743   4.317   0.835   2.548
  948SOL    HW2 3744   4.272   0.680   2.522
  949SOL     OW 3745   2.554   6.695   6.147
  949SOL    HW1 3746   2.582   6.692   6.243
  949SOL    HW2 3747   2.612   6.760   6.097
  950SOL     OW 3748   6.845   0.320   1.820
  950SOL    HW1 3749   6.864   0.233   1.866
  950SOL    HW2 3750   6.882   0.317   1.727
  951SOL     OW 3751   2.216   6.165   3.422
  951SOL    HW1 3752   2.263   6.234   3.477
  951SOL    HW2 3753   2.119   6.188   3.415
  952SOL     OW 3754   2.741   1.409   2.426
  952SOL    HW1 3755   2.667   1.346   2.402
  952SOL    HW2 3756   2.709   1.503   2.416
  953SOL     OW 3757   6.564   4.440   5.776
  953SOL    HW1 3758   6.565   4.363   5.840
  953SOL    HW2 3759   6.480   4.493   5.790
  954SOL     OW 3760   4.346   5.968   2.746
  954SOL    HW1 3761   4.279   5.899   2.774
  954SOL    HW2 3762   4.425   5.922   2.706
  955SOL     OW 3763   1.611   4.973   6.626
  955SOL    HW1 3764   1.545   4.979   6.700
  955SOL    HW2 3765   1.565   4.945   6.542
  956SOL     OW 3766   5.249   0.688   1.372
  956SOL    HW1 3767   5.163   0.636   1.371
  956SOL    HW2 3768   5.240   0.769   1.315
  957SOL     OW 3769   5.614   1.023   3.628
  957SOL    HW1 3770   5.692   1.051   3.683
  957SOL    HW2 3771   5.530   1.041   3.678
  958SOL     OW 3772   5.268   6.995   1.909
  958SOL    HW1 3773   5.253   6.960   2.002
  958SOL    HW2 3774   5.183   0.015   1.875
  959SOL     OW 3775   4.216   6.898   4.194
  959SOL    HW1 3776   4.143   6.961   4.169
  959SOL    HW2 3777   4.191   6.848   4.277
  960SOL     OW 3778   1.697   0.066   6.637
  960SOL    HW1 3779   1.796   0.065   6.630
  960SOL    HW2 3780   1.663   6.992   6.644
  961SOL     OW 3781   3.469   6.897   2.956
  961SOL    HW1 3782   3.380   6.854   2.969
  961SOL    HW2 3783   3.511   6.862   2.872
  962SOL     OW 3784   6.317   0.713   5.062
  962SOL    HW1 3785   6.362   0.624   5.072
  962SOL    HW2 3786   6.318   0.761   5.149
  963SOL     OW 3787   5.432   3.463   1.132
  963SOL    HW1 3788   5.439   3.430   1.038
  963SOL    HW2 3789   5.459   3.390   1.195
  964SOL     OW 3790   4.545   4.784   5.418
  964SOL    HW1 3791   4.538   4.830   5.507
  964SOL    HW2 3792   4.491   4.833   5.351
  965SOL     OW 3793   5.679   2.465   3.447
  965SOL    HW1 3794   5.751   2.409   3.406
  965SOL    HW2 3795   5.654   2.426   3.536
  966SOL     OW 3796   4.506   1.432   4.797
  966SOL    HW1 3797   4.541   1.365   4.732
  966SOL    HW2 3798   4.474   1.385   4.879
  967SOL     OW 3799   4.636   3.658   6.187
  967SOL    HW1 3800   4.669   3.653   6.282
  967SOL    HW2 3801   4.680   3.586   6.133
  968SOL     OW 3802   3.615   0.385   1.547
  968SOL    HW1 3803   3.682   0.374   1.621
  968SOL    HW2 3804   3.543   0.448   1.576
  969SOL     OW 3805   3.151   3.847   6.749
  969SOL    HW1 3806   3.081   3.848   6.820
  969SOL    HW2 3807   3.140   3.764   6.693
  970SOL     OW 3808   5.547   6.796   6.260
  970SOL    HW1 3809   5.598   6.733   6.202
  970SOL    HW2 3810   5.610   6.855   6.310
  971SOL     OW 3811   5.308   3.724   3.135
  971SOL    HW1 3812   5.310   3.639   3.083
  971SOL    HW2 3813   5.217   3.738   3.173
  972SOL     OW 3814   0.026   3.014   0.561
  972SOL    HW1 3815   7.002   3.100   0.535
  972SOL    HW2 3816   7.005   2.939   0.510
  973SOL     OW 3817   0.077   3.121   6.407
  973SOL    HW1 3818   0.144   3.091   6.339
  973SOL    HW2 3819   0.121   3.184   6.472
  974SOL     OW 3820   6.913   5.092   2.919
  974SOL    HW1 3821   6.884   5.164   2.856
  974SOL    HW2 3822   7.007   5.111   2.950
  975SOL     OW 3823   2.931   0.773   2.035
  975SOL    HW1 3824   2.936   0.849   1.971
  975SOL    HW2 3825   2.855   0.787   2.098
  976SOL     OW 3826   0.038   3.129   3.046
  976SOL    HW1 3827   0.107   3.057   3.040
  976SOL    HW2 3828   6.969   3.091   3.025
  977SOL     OW 3829   6.650   0.768   2.308
  977SOL    HW1 3830   6.661   0.789   2.405
  977SOL    HW2 3831   6.683   0.675   2.290
  978SOL     OW 3832   5.350   3.358   1.852
  978SOL    HW1 3833   5.267   3.335   1.801
  978SOL    HW2 3834   5.427   3.305   1.818
  979SOL     OW 3835   0.602   4.012   0.001
  979SOL    HW1 3836   0.621   4.110   7.013
  979SOL    HW2 3837   0.507   3.999   0.028
  980SOL     OW 3838   3.478   1.490   4.497
  980SOL    HW1 3839   3.532   1.422   4.546
  980SOL    HW2 3840   3.384   1.490   4.532
  981SOL     OW 3841   0.092   6.968   5.374
  981SOL    HW1 3842   0.064   6.970   5.470
  981SOL    HW2 3843   0.031   0.005   5.320
  982SOL     OW 3844   6.275   1.162   5.627
  982SOL    HW1 3845   6.350   1.139   5.689
  982SOL    HW2 3846   6.224   1.240   5.664
  983SOL     OW 3847   0.409   4.757   4.219
  983SOL    HW1 3848   0.431   4.823   4.147
  983SOL    HW2 3849   0.342   4.796   4.282
  984SOL     OW 3850   0.351   3.378   3.617
  984SOL    HW1 3851   0.273   3.334   3.573
  984SOL    HW2 3852   0.326   3.405   3.710
  985SOL     OW 3853   6.487   4.640   5.430
  985SOL    HW1 3854   6.585   4.623   5.433
  985SOL    HW2 3855   6.467   4.727   5.475
  986SOL     OW 3856   5.136   5.191   1.406
  986SOL    HW1 3857   5.119   5.274   1.354
  986SOL    HW2 3858   5.211   5.207   1.471
  987SOL     OW 3859   4.733   4.285   4.384
  987SOL    HW1 3860   4.688   4.342   4.316
  987SOL    HW2 3861   4.772   4.204   4.340
  988SOL     OW 3862   2.688   4.377   1.663
  988SOL    HW1 3863   2.769   4.419   1.704
  988SOL    HW2 3864   2.696   4.277   1.669
  989SOL     OW 3865   1.340   1.603   0.529
  989SOL    HW1 3866   1.413   1.604   0.460
  989SOL    HW2 3867   1.252   1.613   0.484
  990SOL     OW 3868   3.789   0.055   4.025
  990SOL    HW1 3869   3.739   6.998   3.986
  990SOL    HW2 3870   3.802   0.125   3.955
  991SOL     OW 3871   6.793   5.194   3.443
  991SOL    HW1 3872   6.839   5.150   3.520
  991SOL    HW2 3873   6.746   5.276   3.475
  992SOL     OW 3874   0.051   2.338   0.365
  992SOL    HW1 3875   0.079   2.284   0.286
  992SOL    HW2 3876   0.109   2.315   0.444
  993SOL     OW 3877   1.425   5.114   6.759
  993SOL    HW1 3878   1.337   5.101   6.713
  993SOL    HW2 3879   1.444   5.212   6.767
  994SOL     OW 3880   3.522   6.392   6.985
  994SOL    HW1 3881   3.443   6.347   0.006
  994SOL    HW2 3882   3.573   6.326   6.929
  995SOL     OW 3883   6.156   4.296   6.092
  995SOL    HW1 3884   6.134   4.292   5.995
  995SOL    HW2 3885   6.083   4.344   6.141
  996SOL     OW 3886   3.488   5.774   4.760
  996SOL    HW1 3887   3.476   5.816   4.670
  996SOL    HW2 3888   3.585   5.762   4.778
  997SOL     OW 3889   1.601   6.335   2.968
  997SOL    HW1 3890   1.689   6.351   2.924
  997SOL    HW2 3891   1.615   6.319   3.066
  998SOL     OW 3892   5.549   0.687   6.185
  998SOL    HW1 3893   5.589   0.778   6.196
  998SOL    HW2 3894   5.452   0.690   6.208
  999SOL     OW 3895   4.767   4.036   2.572
  999SOL    HW1 3896   4.738   4.121   2.615
  999SOL    HW2 3897   4.755   4.043   2.473
 1000SOL     OW 3898   4.934   2.199   1.357
 1000SOL    HW1 3899   4.860   2.145   1.396
 1000SOL    HW2 3900   4.972   2.259   1.427
 1001SOL     OW 3901   2.976   6.894   2.336
 1001SOL    HW1 3902   2.943   6.965   2.397
 1001SOL    HW2 3903   2.935   6.905   2.245
 1002SOL     OW 3904   5.122   2.742   0.790
 1002SOL    HW1 3905   5.221   2.749   0.782
 1002SOL    HW2 3906   5.094   2.758   0.885
 1003SOL     OW 3907   0.817   0.537   3.270
 1003SOL    HW1 3908   0.820   0.630   3.305
 1003SOL    HW2 3909   0.908   0.508   3.242
 1004SOL     OW 3910   5.428   1.758   3.729
 1004SOL    HW1 3911   5.442   1.852   3.697
 1004SOL    HW2 3912   5.442   1.755   3.828
 1005SOL     OW 3913   1.277   4.684   2.093
 1005SOL    HW1 3914   1.238   4.690   2.185
 1005SOL    HW2 3915   1.362   4.631   2.097
 1006SOL     OW 3916   2.510   3.856   0.775
 1006SOL    HW1 3917   2.594   3.801   0.769
 1006SOL    HW2 3918   2.462   3.853   0.687
 1007SOL     OW 3919   4.624   0.896   6.661
 1007SOL    HW1 3920   4.589   0.936   6.745
 1007SOL    HW2 3921   4.553   0.900   6.590
 1008SOL     OW 3922   0.550   4.842   5.638
 1008SOL    HW1 3923   0.536   4.937   5.613
 1008SOL    HW2 3924   0.517   4.826   5.731
 1009SOL     OW 3925   0.349   5.435   5.968
 1009SOL    HW1 3926   0.310   5.386   5.891
 1009SOL    HW2 3927   0.278   5.491   6.012
 1010SOL     OW 3928   2.839   2.794   1.108
 1010SOL    HW1 3929   2.935   2.776   1.132
 1010SOL    HW2 3930   2.828   2.792   1.009
 1011SOL     OW 3931   6.996   5.331   2.238
 1011SOL    HW1 3932   0.032   5.334   2.156
 1011SOL    HW2 3933   6.954   5.421   2.253
 1012SOL     OW 3934   4.607   6.802   3.442
 1012SOL    HW1 3935   4.678   6.807   3.371
 1012SOL    HW2 3936   4.585   6.894   3.474
 1013SOL     OW 3937   0.206   6.465   6.313
 1013SOL    HW1 3938   0.255   6.410   6.246
 1013SOL    HW2 3939   0.265   6.539   6.345
 1014SOL     OW 3940   1.161   4.350   5.307
 1014SOL    HW1 3941   1.208   4.405   5.238
 1014SOL    HW2 3942   1.070   4.326   5.273
 1015SOL     OW 3943   3.050   6.341   6.748
 1015SOL    HW1 3944   3.071   6.394   6.666
 1015SOL    HW2 3945   3.048   6.401   6.827
 1016SOL     OW 3946   6.103   4.169   1.869
 1016SOL    HW1 3947   6.188   4.220   1.884
 1016SOL    HW2 3948   6.123   4.071   1.868
 1017SOL     OW 3949   2.147   1.640   2.051
 1017SOL    HW1 3950   2.172   1.585   1.971
 1017SOL    HW2 3951   2.085   1.713   2.023
 1018SOL     OW 3952   6.336   6.525   4.225
 1018SOL    HW1 3953   6.330   6.596   4.295
 1018SOL    HW2 3954   6.340   6.435   4.268
 1019SOL     OW 3955   6.234   4.408   0.932
 1019SOL    HW1 3956   6.146   4.362   0.938
 1019SOL    HW2 3957   6.230   4.495   0.981
 1020SOL     OW 3958   5.970   1.367   1.087
 1020SOL    HW1 3959   5.981   1.354   0.989
 1020SOL    HW2 3960   6.011   1.290   1.136
 1021SOL     OW 3961   0.554   6.807   0.867
 1021SOL    HW1 3962   0.592   6.779   0.779
 1021SOL    HW2 3963   0.576   6.739   0.937
 1022SOL     OW 3964   2.930   5.753   0.086
 1022SOL    HW1 3965   2.910   5.813   0.009
 1022SOL    HW2 3966   3.007   5.694   0.062
 1023SOL     OW 3967   0.775   1.018   3.173
 1023SOL    HW1 3968   0.797   0.967   3.089
 1023SOL    HW2 3969   0.790   1.116   3.157
 1024SOL     OW 3970   1.663   1.510   4.536
 1024SOL    HW1 3971   1.675   1.496   4.438
 1024SOL    HW2 3972   1.652   1.608   4.555
 1025SOL     OW 3973   4.532   3.913   0.080
 1025SOL    HW1 3974   4.437   3.885   0.093
 1025SOL    HW2 3975   4.546   4.004   0.120
 1026SOL     OW 3976   3.198   2.311   1.456
 1026SOL    HW1 3977   3.263   2.236   1.444
 1026SOL    HW2 3978   3.244   2.390   1.496
 1027SOL     OW 3979   0.812   6.767   0.986
 1027SOL    HW1 3980   0.813   6.778   0.886
 1027SOL    HW2 3981   0.794   6.671   1.008
 1028SOL     OW 3982   1.634   6.290   1.912
 1028SOL    HW1 3983   1.679   6.231   1.845
 1028SOL    HW2 3984   1.543   6.254   1.932
 1029SOL     OW 3985   0.596   1.027   5.933
 1029SOL    HW1 3986   0.678   0.996   5.982
 1029SOL    HW2 3987   0.619   1.106   5.877
 1030SOL     OW 3988   3.160   3.152   1.453
 1030SOL    HW1 3989   3.230   3.115   1.514
 1030SOL    HW2 3990   3.201   3.220   1.392
 1031SOL     OW 3991   4.007   3.056   0.916
 1031SOL    HW1 3992   3.934   3.021   0.975
 1031SOL    HW2 3993   3.967   3.093   0.833
 1032SOL     OW 3994   2.349   1.808   6.375
 1032SOL    HW1 3995   2.264   1.780   6.419
 1032SOL    HW2 3996   2.425   1.800   6.440
 1033SOL     OW 3997   0.611   6.479   1.882
 1033SOL    HW1 3998   0.613   6.400   1.943
 1033SOL    HW2 3999   0.578   6.559   1.932
 1034SOL     OW 4000   3.108   0.514   4.395
 1034SOL    HW1 4001   3.189   0.464   4.428
 1034SOL    HW2 4002   3.122   0.540   4.299
 1035SOL     OW 4003   1.740   1.726   6.478
 1035SOL    HW1 4004   1.767   1.720   6.574
 1035SOL    HW2 4005   1.723   1.635   6.442
 1036SOL     OW 4006   5.172   1.531   1.087
 1036SOL    HW1 4007   5.206   1.603   1.148
 1036SOL    HW2 4008   5.100   1.568   1.028
 1037SOL     OW 4009   1.387   2.985   1.852
 1037SOL    HW1 4010   1.362   3.000   1.948
 1037SOL    HW2 4011   1.368   3.067   1.799
 1038SOL     OW 4012   2.735   6.107   6.872
 1038SOL    HW1 4013   2.777   6.169   6.939
 1038SOL    HW2 4014   2.796   6.030   6.854
 1039SOL     OW 4015   3.477   2.872   2.923
 1039SOL    HW1 4016   3.514   2.783   2.952
 1039SOL    HW2 4017   3.442   2.921   3.003
 1040SOL     OW 4018   3.749   1.762   3.178
 1040SOL    HW1 4019   3.702   1.707   3.109
 1040SOL    HW2 4020   3.699   1.848   3.191
 1041SOL     OW 4021   6.695   5.715   6.189
 1041SOL    HW1 4022   6.607   5.763   6.179
 1041SOL    HW2 4023   6.684   5.639   6.253
 1042SOL     OW 4024   5.195   4.725   2.821
 1042SOL    HW1 4025   5.255   4.788   2.772
 1042SOL    HW2 4026   5.144   4.670   2.755
 1043SOL     OW 4027   3.048   1.953   3.594
 1043SOL    HW1 4028   3.059   1.855   3.579
 1043SOL    HW2 4029   3.015   1.968   3.688
 1044SOL     OW 4030   5.325   4.932   1.521
 1044SOL    HW1 4031   5.321   4.901   1.426
 1044SOL    HW2 4032   5.391   4.876   1.572
 1045SOL     OW 4033   2.171   0.538   2.527
 1045SOL    HW1 4034   2.108   0.605   2.567
 1045SOL    HW2 4035   2.193   0.566   2.433
 1046SOL     OW 4036   3.189   1.464   1.003
 1046SOL    HW1 4037   3.196   1.385   0.942
 1046SOL    HW2 4038   3.241   1.446   1.086
 1047SOL     OW 4039   3.904   6.195   3.973
 1047SOL    HW1 4040   4.002   6.196   3.991
 1047SOL    HW2 4041   3.874   6.102   3.955
 1048SOL     OW 4042   1.487   6.190   2.538
 1048SOL    HW1 4043   1.459   6.272   2.588
 1048SOL    HW2 4044   1.562   6.145   2.587
 1049SOL     OW 4045   4.004   5.879   4.955
 1049SOL    HW1 4046   4.018   5.939   5.033
 1049SOL    HW2 4047   4.090   5.870   4.904
 1050SOL     OW 4048   3.323   5.427   3.014
 1050SOL    HW1 4049   3.392   5.493   3.043
 1050SOL    HW2 4050   3.272   5.394   3.094
 1051SOL     OW 4051   0.981   0.508   6.311
 1051SOL    HW1 4052   0.910   0.555   6.363
 1051SOL    HW2 4053   0.943   0.474   6.225
 1052SOL     OW 4054   3.170   1.141   0.347
 1052SOL    HW1 4055   3.151   1.217   0.409
 1052SOL    HW2 4056   3.263   1.150   0.311
 1053SOL     OW 4057   5.273   2.679   3.462
 1053SOL    HW1 4058   5.296   2.584   3.439
 1053SOL    HW2 4059   5.191   2.680   3.519
 1054SOL     OW 4060   3.411   4.790   6.325
 1054SOL    HW1 4061   3.508   4.813   6.336
 1054SOL    HW2 4062   3.403   4.705   6.274
 1055SOL     OW 4063   5.229   5.887   6.436
 1055SOL    HW1 4064   5.170   5.841   6.502
 1055SOL    HW2 4065   5.305   5.930   6.484
 1056SOL     OW 4066   2.972   3.804   6.970
 1056SOL    HW1 4067   2.915   3.722   6.962
 1056SOL    HW2 4068   2.915   3.886   6.959
 1057SOL     OW 4069   2.876   2.031   0.915
 1057SOL    HW1 4070   2.842   1.956   0.971
 1057SOL    HW2 4071   2.965   2.007   0.877
 1058SOL     OW 4072   2.913   2.130   2.623
 1058SOL    HW1 4073   3.002   2.090   2.647
 1058SOL    HW2 4074   2.852   2.058   2.590
 1059SOL     OW 4075   2.494   6.898   2.085
 1059SOL    HW1 4076   2.451   6.827   2.141
 1059SOL    HW2 4077   2.515   6.862   1.994
 1060SOL     OW 4078   6.120   6.598   5.244
 1060SOL    HW1 4079   6.075   6.645   5.320
 1060SOL    HW2 4080   6.057   6.530   5.206
 1061SOL     OW 4081   0.111   3.877   6.398
 1061SOL    HW1 4082   0.036   3.823   6.358
 1061SOL    HW2 4083   0.077   3.925   6.479
 1062SOL     OW 4084   3.799   6.708   4.680
 1062SOL    HW1 4085   3.792   6.630   4.741
 1062SOL    HW2 4086   3.712   6.758   4.679
 1063SOL     OW 4087   3.299   6.993   5.463
 1063SOL    HW1 4088   3.336   6.978   5.555
 1063SOL    HW2 4089   3.199   7.003   5.470
 1064SOL     OW 4090   1.694   3.657   0.521
 1064SOL    HW1 4091   1.634   3.681   0.445
 1064SOL    HW2 4092   1.771   3.721   0.525
 1065SOL     OW 4093   4.718   0.881   4.541
 1065SOL    HW1 4094   4.703   0.928   4.454
 1065SOL    HW2 4095   4.692   0.785   4.531
 1066SOL     OW 4096   5.427   6.730   1.998
 1066SOL    HW1 4097   5.484   6.798   2.045
 1066SOL    HW2 4098   5.354   6.699   2.059
 1067SOL     OW 4099   2.729   2.016   0.230
 1067SOL    HW1 4100   2.700   2.008   0.135
 1067SOL    HW2 4101   2.685   1.944   0.284
 1068SOL     OW 4102   6.783   3.414   1.693
 1068SOL    HW1 4103   6.737   3.503   1.688
 1068SOL    HW2 4104   6.871   3.425   1.738
 1069SOL     OW 4105   6.566   3.586   1.904
 1069SOL    HW1 4106   6.638   3.655   1.919
 1069SOL    HW2 4107   6.579   3.511   1.968
 1070SOL     OW 4108   1.188   6.693   2.108
 1070SOL    HW1 4109   1.244   6.637   2.169
 1070SOL    HW2 4110   1.229   6.784   2.099
 1071SOL     OW 4111   0.166   3.347   5.513
 1071SOL    HW1 4112   0.236   3.390   5.456
 1071SOL    HW2 4113   0.209   3.303   5.592
 1072SOL     OW 4114   1.916   1.490   2.110
 1072SOL    HW1 4115   1.857   1.481   2.191
 1072SOL    HW2 4116   1.995   1.547   2.133
 1073SOL     OW 4117   4.465   2.387   3.469
 1073SOL    HW1 4118   4.375   2.343   3.474
 1073SOL    HW2 4119   4.481   2.419   3.376
 1074SOL     OW 4120   2.764   4.670   1.678
 1074SOL    HW1 4121   2.800   4.623   1.759
 1074SOL    HW2 4122   2.814   4.756   1.664
 1075SOL     OW 4123   5.994   4.160   5.469
 1075SOL    HW1 4124   6.017   4.156   5.372
 1075SOL    HW2 4125   6.048   4.092   5.519
 1076SOL     OW 4126   1.966   4.440   5.108
 1076SOL    HW1 4127   1.965   4.537   5.085
 1076SOL    HW2 4128   2.060   4.405   5.100
 1077SOL     OW 4129   0.242   6.986   7.010
 1077SOL    HW1 4130   0.286   6.913   0.041
 1077SOL    HW2 4131   0.312   0.018   6.960
 1078SOL     OW 4132   6.308   6.930   4.356
 1078SOL    HW1 4133   6.214   6.928   4.323
 1078SOL    HW2 4134   6.371   6.916   4.279
 1079SOL     OW 4135   0.736   0.089   1.856
 1079SOL    HW1 4136   0.755   0.062   1.950
 1079SOL    HW2 4137   0.800   0.043   1.794
 1080SOL     OW 4138   3.095   5.963   6.178
 1080SOL    HW1 4139   3.104   5.872   6.218
 1080SOL    HW2 4140   3.185   5.993   6.145
 1081SOL     OW 4141   6.608   5.734   4.401
 1081SOL    HW1 4142   6.607   5.634   4.400
 1081SOL    HW2 4143   6.649   5.767   4.316
 1082SOL     OW 4144   4.716   6.364   6.474
 1082SOL    HW1 4145   4.810   6.389   6.450
 1082SOL    HW2 4146   4.658   6.445   6.467
 1083SOL     OW 4147   5.206   4.161   1.578
 1083SOL    HW1 4148   5.109   4.169   1.553
 1083SOL    HW2 4149   5.240   4.070   1.554
 1084SOL     OW 4150   6.422   0.463   5.067
 1084SOL    HW1 4151   6.483   0.487   5.143
 1084SOL    HW2 4152   6.467   0.484   4.980
 1085SOL     OW 4153   1.265   3.835   4.278
 1085SOL    HW1 4154   1.296   3.899   4.207
 1085SOL    HW2 4155   1.322   3.846   4.360
 1086SOL     OW 4156   5.999   5.330   0.875
 1086SOL    HW1 4157   5.971   5.391   0.801
 1086SOL    HW2 4158   6.012   5.383   0.959
 1087SOL     OW 4159   3.597   0.529   5.472
 1087SOL    HW1 4160   3.652   0.530   5.556
 1087SOL    HW2 4161   3.590   0.435   5.438
 1088SOL     OW 4162   6.658   4.938   3.336
 1088SOL    HW1 4163   6.724   4.897   3.273
 1088SOL    HW2 4164   6.698   5.019   3.378
 1089SOL     OW 4165   6.637   4.564   4.581
 1089SOL    HW1 4166   6.712   4.628   4.597
 1089SOL    HW2 4167   6.602   4.575   4.488
 1090SOL     OW 4168   5.296   2.134   5.366
 1090SOL    HW1 4169   5.351   2.091   5.294
 1090SOL    HW2 4170   5.221   2.072   5.392
 1091SOL     OW 4171   2.353   2.422   2.947
 1091SOL    HW1 4172   2.327   2.424   3.044
 1091SOL    HW2 4173   2.377   2.514   2.917
 1092SOL     OW 4174   0.466   5.606   1.171
 1092SOL    HW1 4175   0.499   5.520   1.209
 1092SOL    HW2 4176   0.379   5.590   1.123
 1093SOL     OW 4177   1.900   0.198   2.530
 1093SOL    HW1 4178   1.912   0.268   2.601
 1093SOL    HW2 4179   1.841   0.233   2.458
 1094SOL     OW 4180   0.902   0.245   3.092
 1094SOL    HW1 4181   0.834   0.225   3.162
 1094SOL    HW2 4182   0.974   0.303   3.130
 1095SOL     OW 4183   5.166   3.255   0.507
 1095SOL    HW1 4184   5.259   3.285   0.489
 1095SOL    HW2 4185   5.165   3.156   0.520
 1096SOL     OW 4186   2.629   6.076   1.254
 1096SOL    HW1 4187   2.629   5.989   1.303
 1096SOL    HW2 4188   2.547   6.128   1.278
 1097SOL     OW 4189   3.373   5.449   4.492
 1097SOL    HW1 4190   3.330   5.407   4.571
 1097SOL    HW2 4191   3.470   5.465   4.511
 1098SOL     OW 4192   6.039   4.784   0.848
 1098SOL    HW1 4193   6.125   4.760   0.892
 1098SOL    HW2 4194   6.014   4.712   0.783
 1099SOL     OW 4195   4.363   6.683   5.671
 1099SOL    HW1 4196   4.279   6.737   5.676
 1099SOL    HW2 4197   4.348   6.603   5.614
 1100SOL     OW 4198   3.265   1.813   4.307
 1100SOL    HW1 4199   3.266   1.736   4.371
 1100SOL    HW2 4200   3.327   1.884   4.340
 1101SOL     OW 4201   6.353   2.840   6.339
 1101SOL    HW1 4202   6.419   2.910   6.313
 1101SOL    HW2 4203   6.330   2.849   6.436
 1102SOL     OW 4204   2.610   1.380   3.464
 1102SOL    HW1 4205   2.653   1.407   3.550
 1102SOL    HW2 4206   2.516   1.350   3.481
 1103SOL     OW 4207   2.745   6.630   0.348
 1103SOL    HW1 4208   2.820   6.696   0.345
 1103SOL    HW2 4209   2.672   6.659   0.286
 1104SOL     OW 4210   0.755   2.967   4.135
 1104SOL    HW1 4211   0.737   2.976   4.037
 1104SOL    HW2 4212   0.829   3.028   4.161
 1105SOL     OW 4213   5.352   1.130   5.545
 1105SOL    HW1 4214   5.268   1.076   5.545
 1105SOL    HW2 4215   5.335   1.217   5.591
 1106SOL     OW 4216   0.022   1.678   0.703
 1106SOL    HW1 4217   0.075   1.594   0.693
 1106SOL    HW2 4218   0.024   1.730   0.617
 1107SOL     OW 4219   1.101   1.072   6.680
 1107SOL    HW1 4220   1.006   1.096   6.703
 1107SOL    HW2 4221   1.118   0.976   6.703
 1108SOL     OW 4222   2.683   6.640   3.415
 1108SOL    HW1 4223   2.741   6.576   3.365
 1108SOL    HW2 4224   2.735   6.680   3.490
 1109SOL     OW 4225   4.424   2.127   4.602
 1109SOL    HW1 4226   4.346   2.067   4.622
 1109SOL    HW2 4227   4.400   2.221   4.626
 1110SOL     OW 4228   2.787   0.843   2.254
 1110SOL    HW1 4229   2.709   0.888   2.297
 1110SOL    HW2 4230   2.805   0.756   2.301
 1111SOL     OW 4231   5.821   4.144   6.638
 1111SOL    HW1 4232   5.722   4.130   6.631
 1111SOL    HW2 4233   5.839   4.227   6.691
 1112SOL     OW 4234   5.237   0.313   2.383
 1112SOL    HW1 4235   5.314   0.345   2.327
 1112SOL    HW2 4236   5.271   0.279   2.470
 1113SOL     OW 4237   5.442   4.463   2.739
 1113SOL    HW1 4238   5.446   4.554   2.699
 1113SOL    HW2 4239   5.525   4.412   2.716
 1114SOL     OW 4240   3.815   3.829   5.292
 1114SOL    HW1 4241   3.850   3.827   5.385
 1114SOL    HW2 4242   3.891   3.844   5.228
 1115SOL     OW 4243   3.004   4.539   5.683
 1115SOL    HW1 4244   3.092   4.503   5.714
 1115SOL    HW2 4245   2.989   4.514   5.588
 1116SOL     OW 4246   4.379   6.760   6.642
 1116SOL    HW1 4247   4.307   6.790   6.580
 1116SOL    HW2 4248   4.361   6.667   6.673
 1117SOL     OW 4249   1.554   2.461   1.478
 1117SOL    HW1 4250   1.459   2.428   1.483
 1117SOL    HW2 4251   1.568   2.506   1.390
 1118SOL     OW 4252   3.780   4.662   0.655
 1118SOL    HW1 4253   3.825   4.741   0.614
 1118SOL    HW2 4254   3.773   4.675   0.754
 1119SOL     OW 4255   2.833   4.999   4.387
 1119SOL    HW1 4256   2.811   4.923   4.449
 1119SOL    HW2 4257   2.794   5.084   4.423
 1120SOL     OW 4258   6.607   4.118   0.800
 1120SOL    HW1 4259   6.545   4.040   0.795
 1120SOL    HW2 4260   6.682   4.098   0.863
 1121SOL     OW 4261   6.636   4.554   4.048
 1121SOL    HW1 4262   6.603   4.545   3.954
 1121SOL    HW2 4263   6.672   4.465   4.079
 1122SOL     OW 4264   5.706   2.850   1.774
 1122SOL    HW1 4265   5.728   2.772   1.716
 1122SOL    HW2 4266   5.617   2.887   1.749
 1123SOL     OW 4267   4.031   1.432   2.895
 1123SOL    HW1 4268   4.119   1.391   2.873
 1123SOL    HW2 4269   3.957   1.368   2.873
 1124SOL     OW 4270   2.392   2.622   4.278
 1124SOL    HW1 4271   2.331   2.700   4.288
 1124SOL    HW2 4272   2.429   2.620   4.185
 1125SOL     OW 4273   2.261   4.068   3.756
 1125SOL    HW1 4274   2.267   4.075   3.855
 1125SOL    HW2 4275   2.212   3.985   3.730
 1126SOL     OW 4276   3.673   5.098   4.928
 1126SOL    HW1 4277   3.594   5.109   4.988
 1126SOL    HW2 4278   3.682   5.178   4.869
 1127SOL     OW 4279   6.040   0.207   2.453
 1127SOL    HW1 4280   6.123   0.261   2.463
 1127SOL    HW2 4281   5.993   0.201   2.541
 1128SOL     OW 4282   5.148   1.519   4.103
 1128SOL    HW1 4283   5.155   1.578   4.184
 1128SOL    HW2 4284   5.233   1.526   4.050
 1129SOL     OW 4285   1.678   0.898   0.664
 1129SOL    HW1 4286   1.695   0.871   0.569
 1129SOL    HW2 4287   1.665   0.816   0.720
 1130SOL     OW 4288   1.838   4.593   1.899
 1130SOL    HW1 4289   1.900   4.592   1.820
 1130SOL    HW2 4290   1.746   4.615   1.868
 1131SOL     OW 4291   0.824   5.335   4.500
 1131SOL    HW1 4292   0.813   5.354   4.402
 1131SOL    HW2 4293   0.907   5.280   4.513
 1132SOL     OW 4294   2.078   1.333   2.546
 1132SOL    HW1 4295   2.046   1.238   2.543
 1132SOL    HW2 4296   2.165   1.339   2.496
 1133SOL     OW 4297   0.705   0.094   5.560
 1133SOL    HW1 4298   0.665   0.113   5.470
 1133SOL    HW2 4299   0.718   0.180   5.609
 1134SOL     OW 4300   3.424   0.110   1.609
 1134SOL    HW1 4301   3.505   0.051   1.603
 1134SOL    HW2 4302   3.425   0.175   1.533
 1135SOL     OW 4303   1.870   5.590   3.181
 1135SOL    HW1 4304   1.892   5.493   3.190
 1135SOL    HW2 4305   1.833   5.625   3.268
 1136SOL     OW 4306   1.540   5.758   1.722
 1136SOL    HW1 4307   1.587   5.675   1.752
 1136SOL    HW2 4308   1.565   5.779   1.628
 1137SOL     OW 4309   0.908   5.314   5.389
 1137SOL    HW1 4310   0.832   5.374   5.414
 1137SOL    HW2 4311   0.979   5.319   5.458
 1138SOL     OW 4312   1.771   3.331   4.733
 1138SOL    HW1 4313   1.772   3.395   4.657
 1138SOL    HW2 4314   1.698   3.264   4.719
 1139SOL     OW 4315   3.025   5.515   4.781
 1139SOL    HW1 4316   3.019   5.489   4.685
 1139SOL    HW2 4317   3.080   5.598   4.791
 1140SOL     OW 4318   1.517   1.557   0.866
 1140SOL    HW1 4319   1.421   1.569   0.840
 1140SOL    HW2 4320   1.563   1.501   0.798
 1141SOL     OW 4321   6.979   4.579   6.129
 1141SOL    HW1 4322   6.945   4.615   6.042
 1141SOL    HW2 4323   0.019   4.647   6.172
 1142SOL     OW 4324   2.280   6.268   2.210
 1142SOL    HW1 4325   2.326   6.181   2.193
 1142SOL    HW2 4326   2.181   6.251   2.220
 1143SOL     OW 4327   1.102   4.016   1.772
 1143SOL    HW1 4328   1.143   3.961   1.699
 1143SOL    HW2 4329   1.078   3.957   1.849
 1144SOL     OW 4330   5.674   4.491   1.289
 1144SOL    HW1 4331   5.737   4.492   1.367
 1144SOL    HW2 4332   5.726   4.487   1.204
 1145SOL     OW 4333   6.018   0.804   1.151
 1145SOL    HW1 4334   6.059   0.895   1.151
 1145SOL    HW2 4335   6.044   0.756   1.067
 1146SOL     OW 4336   0.589   1.239   1.292
 1146SOL    HW1 4337   0.669   1.206   1.242
 1146SOL    HW2 4338   0.578   1.185   1.376
 1147SOL     OW 4339   2.709   6.556   1.485
 1147SOL    HW1 4340   2.769   6.608   1.546
 1147SOL    HW2 4341   2.695   6.464   1.523
 1148SOL     OW 4342   4.581   5.384   3.174
 1148SOL    HW1 4343   4.630   5.332   3.105
 1148SOL    HW2 4344   4.645   5.417   3.243
 1149SOL     OW 4345   4.402   3.080   1.435
 1149SOL    HW1 4346   4.370   3.168   1.400
 1149SOL    HW2 4347   4.364   3.006   1.380
 1150SOL     OW 4348   1.810   4.298   0.153
 1150SOL    HW1 4349   1.908   4.317   0.152
 1150SOL    HW2 4350   1.777   4.288   0.059
 1151SOL     OW 4351   6.029   5.642   3.921
 1151SOL    HW1 4352   6.002   5.549   3.894
 1151SOL    HW2 4353   5.948   5.694   3.947
 1152SOL     OW 4354   4.199   6.215   6.603
 1152SOL    HW1 4355   4.101   6.196   6.599
 1152SOL    HW2 4356   4.242   6.152   6.668
 1153SOL     OW 4357   5.927   0.157   1.443
 1153SOL    HW1 4358   5.897   0.234   1.386
 1153SOL    HW2 4359   5.940   0.077   1.385
 1154SOL     OW 4360   2.059   2.768   1.108
 1154SOL    HW1 4361   1.991   2.838   1.087
 1154SOL    HW2 4362   2.126   2.761   1.034
 1155SOL     OW 4363   2.874   6.865   4.328
 1155SOL    HW1 4364   2.895   6.803   4.252
 1155SOL    HW2 4365   2.954   6.871   4.389
 1156SOL     OW 4366   2.740   1.824   3.833
 1156SOL    HW1 4367   2.690   1.911   3.833
 1156SOL    HW2 4368   2.720   1.774   3.917
 1157SOL     OW 4369   3.769   0.513   6.625
 1157SOL    HW1 4370   3.678   0.484   6.594
 1157SOL    HW2 4371   3.812   0.438   6.675
 1158SOL     OW 4372   5.764   5.014   3.281
 1158SOL    HW1 4373   5.846   4.983   3.232
 1158SOL    HW2 4374   5.695   4.941   3.280
 1159SOL     OW 4375   6.306   5.640   1.293
 1159SOL    HW1 4376   6.361   5.583   1.232
 1159SOL    HW2 4377   6.290   5.729   1.251
 1160SOL     OW 4378   5.275   1.569   0.712
 1160SOL    HW1 4379   5.269   1.505   0.635
 1160SOL    HW2 4380   5.249   1.660   0.682
 1161SOL     OW 4381   0.656   5.272   0.887
 1161SOL    HW1 4382   0.562   5.253   0.916
 1161SOL    HW2 4383   0.702   5.185   0.867
 1162SOL     OW 4384   2.617   2.218   4.632
 1162SOL    HW1 4385   2.617   2.280   4.553
 1162SOL    HW2 4386   2.560   2.139   4.611
 1163SOL     OW 4387   5.578   3.294   2.061
 1163SOL    HW1 4388   5.591   3.262   1.967
 1163SOL    HW2 4389   5.513   3.234   2.108
 1164SOL     OW 4390   4.561   1.887   5.402
 1164SOL    HW1 4391   4.514   1.908   5.317
 1164SOL    HW2 4392   4.657   1.913   5.396
 1165SOL     OW 4393   4.037   6.391   3.632
 1165SOL    HW1 4394   4.068   6.358   3.543
 1165SOL    HW2 4395   4.077   6.480   3.650
 1166SOL     OW 4396   2.791   4.690   6.761
 1166SOL    HW1 4397   2.854   4.765   6.779
 1166SOL    HW2 4398   2.702   4.711   6.801
 1167SOL     OW 4399   5.741   4.821   2.568
 1167SOL    HW1 4400   5.805   4.771   2.626
 1167SOL    HW2 4401   5.647   4.804   2.598
 1168SOL     OW 4402   6.374   1.049   3.708
 1168SOL    HW1 4403   6.331   1.096   3.632
 1168SOL    HW2 4404   6.349   0.952   3.705
 1169SOL     OW 4405   5.625   1.227   5.584
 1169SOL    HW1 4406   5.549   1.164   5.569
 1169SOL    HW2 4407   5.710   1.185   5.551
 1170SOL     OW 4408   4.984   6.544   4.449
 1170SOL    HW1 4409   4.937   6.529   4.362
 1170SOL    HW2 4410   5.082   6.529   4.436
 1171SOL     OW 4411   0.754   6.949   1.516
 1171SOL    HW1 4412   0.692   6.953   1.438
 1171SOL    HW2 4413   0.785   6.855   1.530
 1172SOL     OW 4414   6.882   3.367   6.449
 1172SOL    HW1 4415   6.863   3.314   6.366
 1172SOL    HW2 4416   6.978   3.356   6.475
 1173SOL     OW 4417   3.621   1.759   0.558
 1173SOL    HW1 4418   3.645   1.827   0.489
 1173SOL    HW2 4419   3.677   1.774   0.640
 1174SOL     OW 4420   2.549   3.406   0.836
 1174SOL    HW1 4421   2.504   3.338   0.779
 1174SOL    HW2 4422   2.551   3.373   0.931
 1175SOL     OW 4423   3.004   3.118   4.023
 1175SOL    HW1 4424   2.964   3.172   3.949
 1175SOL    HW2 4425   3.073   3.056   3.986
 1176SOL     OW 4426   5.567   3.735   6.252
 1176SOL    HW1 4427   5.511   3.815   6.232
 1176SOL    HW2 4428   5.662   3.763   6.264
 1177SOL     OW 4429   6.866   2.069   4.831
 1177SOL    HW1 4430   6.840   1.998   4.765
 1177SOL    HW2 4431   6.951   2.042   4.877
 1178SOL     OW 4432   3.326   5.530   0.470
 1178SOL    HW1 4433   3.275   5.493   0.548
 1178SOL    HW2 4434   3.294   5.488   0.385
 1179SOL     OW 4435   1.899   5.707   0.335
 1179SOL    HW1 4436   1.830   5.645   0.297
 1179SOL    HW2 4437   1.859   5.798   0.346
 1180SOL     OW 4438   3.208   5.786   0.531
 1180SOL    HW1 4439   3.263   5.715   0.488
 1180SOL    HW2 4440   3.117   5.789   0.488
 1181SOL     OW 4441   0.666   5.953   0.757
 1181SOL    HW1 4442   0.746   5.908   0.798
 1181SOL    HW2 4443   0.666   5.937   0.658
 1182SOL     OW 4444   4.557   4.812   2.916
 1182SOL    HW1 4445   4.623   4.805   2.991
 1182SOL    HW2 4446   4.465   4.810   2.953
 1183SOL     OW 4447   2.206   3.279   5.733
 1183SOL    HW1 4448   2.236   3.216   5.662
 1183SOL    HW2 4449   2.122   3.325   5.703
 1184SOL     OW 4450   0.788   0.141   5.890
 1184SOL    HW1 4451   0.812   0.172   5.982
 1184SOL    HW2 4452   0.770   0.042   5.891
 1185SOL     OW 4453   0.056   1.317   6.632
 1185SOL    HW1 4454   0.007   1.383   6.576
 1185SOL    HW2 4455   0.130   1.364   6.682
 1186SOL     OW 4456   5.602   6.350   5.175
 1186SOL    HW1 4457   5.524   6.288   5.185
 1186SOL    HW2 4458   5.569   6.445   5.176
 1187SOL     OW 4459   5.647   0.427   6.237
 1187SOL    HW1 4460   5.578   0.499   6.224
 1187SOL    HW2 4461   5.608   0.339   6.209
 1188SOL     OW 4462   2.657   6.541   5.784
 1188SOL    HW1 4463   2.696   6.481   5.854
 1188SOL    HW2 4464   2.716   6.621   5.772
 1189SOL     OW 4465   5.911   3.177   3.407
 1189SOL    HW1 4466   5.879   3.083   3.414
 1189SOL    HW2 4467   5.838   3.235   3.370
 1190SOL     OW 4468   1.879   6.204   2.584
 1190SOL    HW1 4469   1.807   6.205   2.653
 1190SOL    HW2 4470   1.885   6.113   2.543
 1191SOL     OW 4471   4.392   5.539   2.413
 1191SOL    HW1 4472   4.417   5.571   2.322
 1191SOL    HW2 4473   4.474   5.509   2.461
 1192SOL     OW 4474   5.396   6.406   3.696
 1192SOL    HW1 4475   5.331   6.422   3.770
 1192SOL    HW2 4476   5.368   6.326   3.644
 1193SOL     OW 4477   6.119   5.418   4.081
 1193SOL    HW1 4478   6.042   5.383   4.028
 1193SOL    HW2 4479   6.192   5.447   4.019
 1194SOL     OW 4480   4.231   0.953   1.337
 1194SOL    HW1 4481   4.292   0.889   1.290
 1194SOL    HW2 4482   4.152   0.904   1.372
 1195SOL     OW 4483   5.570   2.107   3.047
 1195SOL    HW1 4484   5.656   2.158   3.042
 1195SOL    HW2 4485   5.554   2.078   3.141
 1196SOL     OW 4486   6.078   6.752   4.842
 1196SOL    HW1 4487   6.007   6.682   4.851
 1196SOL    HW2 4488   6.102   6.786   4.932
 1197SOL     OW 4489   2.588   6.344   0.169
 1197SOL    HW1 4490   2.517   6.411   0.144
 1197SOL    HW2 4491   2.645   6.382   0.242
 1198SOL     OW 4492   1.461   2.624   0.427
 1198SOL    HW1 4493   1.557   2.646   0.438
 1198SOL    HW2 4494   1.418   2.614   0.517
 1199SOL     OW 4495   5.050   4.154   2.328
 1199SOL    HW1 4496   5.071   4.088   2.399
 1199SOL    HW2 4497   5.134   4.200   2.299
 1200SOL     OW 4498   3.264   3.849   1.876
 1200SOL    HW1 4499   3.254   3.798   1.790
 1200SOL    HW2 4500   3.178   3.897   1.896
 1201SOL     OW 4501   1.412   1.808   4.622
 1201SOL    HW1 4502   1.490   1.747   4.608
 1201SOL    HW2 4503   1.440   1.887   4.676
 1202SOL     OW 4504   0.304   5.479   6.587
 1202SOL    HW1 4505   0.259   5.515   6.668
 1202SOL    HW2 4506   0.384   5.426   6.614
 1203SOL     OW 4507   4.476   5.860   5.916
 1203SOL    HW1 4508   4.483   5.795   5.841
 1203SOL    HW2 4509   4.381   5.862   5.950
 1204SOL     OW 4510   1.863   0.109   2.122
 1204SOL    HW1 4511   1.862   0.176   2.196
 1204SOL    HW2 4512   1.927   0.138   2.051
 1205SOL     OW 4513   5.068   4.396   1.917
 1205SOL    HW1 4514   5.152   4.414   1.866
 1205SOL    HW2 4515   5.080   4.312   1.971
 1206SOL     OW 4516   3.125   3.677   5.597
 1206SOL    HW1 4517   3.127   3.663   5.498
 1206SOL    HW2 4518   3.159   3.596   5.644
 1207SOL     OW 4519   2.006   6.438   1.619
 1207SOL    HW1 4520   1.913   6.469   1.637
 1207SOL    HW2 4521   2.040   6.387   1.697
 1208SOL     OW 4522   3.383   3.945   6.275
 1208SOL    HW1 4523   3.321   3.971   6.201
 1208SOL    HW2 4524   3.471   3.917   6.238
 1209SOL     OW 4525   4.043   6.613   5.468
 1209SOL    HW1 4526   4.035   6.569   5.557
 1209SOL    HW2 4527   4.047   6.712   5.480
 1210SOL     OW 4528   3.323   1.160   3.399
 1210SOL    HW1 4529   3.402   1.214   3.430
 1210SOL    HW2 4530   3.296   1.191   3.308
 1211SOL     OW 4531   1.072   3.876   0.275
 1211SOL    HW1 4532   1.007   3.932   0.222
 1211SOL    HW2 4533   1.028   3.848   0.361
 1212SOL     OW 4534   1.053   6.327   0.045
 1212SOL    HW1 4535   0.969   6.374   0.018
 1212SOL    HW2 4536   1.082   6.265   6.992
 1213SOL     OW 4537   5.275   3.044   0.709
 1213SOL    HW1 4538   5.372   3.059   0.725
 1213SOL    HW2 4539   5.263   2.998   0.621
 1214SOL     OW 4540   0.188   2.511   1.695
 1214SOL    HW1 4541   0.251   2.502   1.618
 1214SOL    HW2 4542   0.179   2.422   1.741
 1215SOL     OW 4543   1.220   5.272   4.711
 1215SOL    HW1 4544   1.130   5.228   4.713
 1215SOL    HW2 4545   1.281   5.219   4.652
 1216SOL     OW 4546   4.211   6.825   6.870
 1216SOL    HW1 4547   4.263   6.812   6.785
 1216SOL    HW2 4548   4.235   6.753   6.935
 1217SOL     OW 4549   2.724   4.523   0.082
 1217SOL    HW1 4550   2.759   4.617   0.083
 1217SOL    HW2 4551   2.795   4.462   0.046
 1218SOL     OW 4552   1.764   4.491   3.817
 1218SOL    HW1 4553   1.801   4.544   3.741
 1218SOL    HW2 4554   1.673   4.526   3.841
 1219SOL     OW 4555   4.369   6.238   2.797
 1219SOL    HW1 4556   4.358   6.141   2.778
 1219SOL    HW2 4557   4.467   6.261   2.799
 1220SOL     OW 4558   1.408   4.556   2.668
 1220SOL    HW1 4559   1.450   4.607   2.594
 1220SOL    HW2 4560   1.322   4.515   2.637
 1221SOL     OW 4561   5.786   3.877   6.318
 1221SOL    HW1 4562   5.793   3.965   6.271
 1221SOL    HW2 4563   5.831   3.883   6.407
 1222SOL     OW 4564   6.950   6.443   6.886
 1222SOL    HW1 4565   7.010   6.458   6.808
 1222SOL    HW2 4566   6.954   6.346   6.912
 1223SOL     OW 4567   3.446   6.227   0.349
 1223SOL    HW1 4568   3.502   6.201   0.271
 1223SOL    HW2 4569   3.416   6.146   0.398
 1224SOL     OW 4570   2.845   0.568   2.349
 1224SOL    HW1 4571   2.750   0.563   2.379
 1224SOL    HW2 4572   2.850   0.546   2.251
 1225SOL     OW 4573   2.500   4.128   6.965
 1225SOL    HW1 4574   2.420   4.110   6.908
 1225SOL    HW2 4575   2.490   4.217   7.009
 1226SOL     OW 4576   2.047   4.347   0.750
 1226SOL    HW1 4577   1.970   4.296   0.789
 1226SOL    HW2 4578   2.017   4.391   0.665
 1227SOL     OW 4579   0.123   3.397   6.493
 1227SOL    HW1 4580   0.199   3.438   6.442
 1227SOL    HW2 4581   0.134   3.417   6.591
 1228SOL     OW 4582   4.030   1.504   5.840
 1228SOL    HW1 4583   3.961   1.449   5.792
 1228SOL    HW2 4584   4.061   1.455   5.921
 1229SOL     OW 4585   3.745   4.391   6.197
 1229SOL    HW1 4586   3.809   4.328   6.153
 1229SOL    HW2 4587   3.656   4.348   6.205
 1230SOL     OW 4588   4.368   6.345   3.423
 1230SOL    HW1 4589   4.445   6.390   3.470
 1230SOL    HW2 4590   4.390   6.336   3.326
 1231SOL     OW 4591   1.788   4.245   4.248
 1231SOL    HW1 4592   1.749   4.155   4.231
 1231SOL    HW2 4593   1.859   4.264   4.180
 1232SOL     OW 4594   2.126   2.025   4.309
 1232SOL    HW1 4595   2.117   2.038   4.211
 1232SOL    HW2 4596   2.171   2.105   4.349
 1233SOL     OW 4597   0.793   3.392   4.302
 1233SOL    HW1 4598   0.768   3.485   4.277
 1233SOL    HW2 4599   0.859   3.357   4.236
 1234SOL     OW 4600   6.219   4.450   4.366
 1234SOL    HW1 4601   6.275   4.460   4.284
 1234SOL    HW2 4602   6.273   4.474   4.447
 1235SOL     OW 4603   6.386   6.040   4.121
 1235SOL    HW1 4604   6.373   5.943   4.100
 1235SOL    HW2 4605   6.419   6.049   4.215
 1236SOL     OW 4606   5.158   0.415   0.240
 1236SOL    HW1 4607   5.179   0.507   0.208
 1236SOL    HW2 4608   5.139   0.356   0.162
 1237SOL     OW 4609   3.142   4.591   0.079
 1237SOL    HW1 4610   3.057   4.540   0.067
 1237SOL    HW2 4611   3.211   4.556   0.017
 1238SOL     OW 4612   1.813   1.629   1.351
 1238SOL    HW1 4613   1.747   1.701   1.327
 1238SOL    HW2 4614   1.819   1.563   1.277
 1239SOL     OW 4615   0.129   6.492   6.685
 1239SOL    HW1 4616   0.174   6.403   6.673
 1239SOL    HW2 4617   0.199   6.564   6.693
 1240SOL     OW 4618   4.837   6.101   1.603
 1240SOL    HW1 4619   4.889   6.127   1.685
 1240SOL    HW2 4620   4.780   6.178   1.574
 1241SOL     OW 4621   6.377   3.229   3.521
 1241SOL    HW1 4622   6.348   3.287   3.446
 1241SOL    HW2 4623   6.455   3.173   3.492
 1242SOL     OW 4624   2.139   3.847   0.177
 1242SOL    HW1 4625   2.145   3.787   0.098
 1242SOL    HW2 4626   2.194   3.810   0.252
 1243SOL     OW 4627   2.798   5.320   5.357
 1243SOL    HW1 4628   2.775   5.413   5.329
 1243SOL    HW2 4629   2.888   5.320   5.401
 1244SOL     OW 4630   0.665   0.753   3.406
 1244SOL    HW1 4631   0.611   0.752   3.490
 1244SOL    HW2 4632   0.610   0.718   3.330
 1245SOL     OW 4633   2.958   3.246   6.640
 1245SOL    HW1 4634   2.985   3.151   6.624
 1245SOL    HW2 4635   2.933   3.258   6.736
 1246SOL     OW 4636   1.219   6.351   2.345
 1246SOL    HW1 4637   1.153   6.407   2.395
 1246SOL    HW2 4638   1.226   6.261   2.387
 1247SOL     OW 4639   1.817   6.553   6.202
 1247SOL    HW1 4640   1.821   6.652   6.216
 1247SOL    HW2 4641   1.908   6.515   6.211
 1248SOL     OW 4642   1.745   5.665   3.405
 1248SOL    HW1 4643   1.655   5.623   3.410
 1248SOL    HW2 4644   1.793   5.653   3.492
 1249SOL     OW 4645   6.289   3.338   3.117
 1249SOL    HW1 4646   6.293   3.415   3.181
 1249SOL    HW2 4647   6.222   3.272   3.148
 1250SOL     OW 4648   0.909   5.097   4.786
 1250SOL    HW1 4649   0.888   5.044   4.704
 1250SOL    HW2 4650   0.887   5.043   4.867
 1251SOL     OW 4651   3.620   0.322   5.258
 1251SOL    HW1 4652   3.694   0.282   5.205
 1251SOL    HW2 4653   3.538   0.331   5.202
 1252SOL     OW 4654   3.702   3.486   6.315
 1252SOL    HW1 4655   3.697   3.586   6.319
 1252SOL    HW2 4656   3.654   3.454   6.233
 1253SOL     OW 4657   3.962   5.921   2.782
 1253SOL    HW1 4658   3.984   5.987   2.854
 1253SOL    HW2 4659   4.030   5.848   2.782
 1254SOL     OW 4660   6.929   1.764   2.834
 1254SOL    HW1 4661   6.914   1.679   2.885
 1254SOL    HW2 4662   6.891   1.754   2.742
 1255SOL     OW 4663   6.189   6.717   6.844
 1255SOL    HW1 4664   6.267   6.774   6.870
 1255SOL    HW2 4665   6.218   6.651   6.774
 1256SOL     OW 4666   4.668   1.324   3.600
 1256SOL    HW1 4667   4.683   1.325   3.699
 1256SOL    HW2 4668   4.705   1.240   3.562
 1257SOL     OW 4669   5.915   1.692   4.082
 1257SOL    HW1 4670   5.999   1.745   4.071
 1257SOL    HW2 4671   5.842   1.733   4.027
 1258SOL     OW 4672   6.837   6.499   3.414
 1258SOL    HW1 4673   6.867   6.478   3.321
 1258SOL    HW2 4674   6.915   6.499   3.476
 1259SOL     OW 4675   4.316   2.339   5.303
 1259SOL    HW1 4676   4.313   2.369   5.398
 1259SOL    HW2 4677   4.277   2.411   5.245
 1260SOL     OW 4678   1.181   0.751   6.383
 1260SOL    HW1 4679   1.172   0.660   6.343
 1260SOL    HW2 4680   1.139   0.818   6.322
 1261SOL     OW 4681   6.537   4.353   0.982
 1261SOL    HW1 4682   6.579   4.328   0.894
 1261SOL    HW2 4683   6.438   4.353   0.972
 1262SOL     OW 4684   5.487   6.143   2.019
 1262SOL    HW1 4685   5.575   6.108   2.051
 1262SOL    HW2 4686   5.414   6.103   2.073
 1263SOL     OW 4687   1.000   2.101   3.300
 1263SOL    HW1 4688   1.060   2.152   3.238
 1263SOL    HW2 4689   0.942   2.165   3.351
 1264SOL     OW 4690   0.996   2.464   5.312
 1264SOL    HW1 4691   1.048   2.520   5.248
 1264SOL    HW2 4692   1.054   2.391   5.348
 1265SOL     OW 4693   5.907   6.403   5.086
 1265SOL    HW1 4694   5.819   6.419   5.131
 1265SOL    HW2 4695   5.914   6.307   5.059
 1266SOL     OW 4696   1.949   1.263   4.825
 1266SOL    HW1 4697   1.938   1.347   4.771
 1266SOL    HW2 4698   1.908   1.275   4.915
 1267SOL     OW 4699   3.455   0.529   3.241
 1267SOL    HW1 4700   3.480   0.548   3.335
 1267SOL    HW2 4701   3.534   0.488   3.194
 1268SOL     OW 4702   4.338   2.849   5.768
 1268SOL    HW1 4703   4.397   2.769   5.756
 1268SOL    HW2 4704   4.373   2.925   5.713
 1269SOL     OW 4705   6.250   2.118   4.156
 1269SOL    HW1 4706   6.217   2.152   4.244
 1269SOL    HW2 4707   6.257   2.194   4.091
 1270SOL     OW 4708   6.494   5.718   2.635
 1270SOL    HW1 4709   6.568   5.726   2.569
 1270SOL    HW2 4710   6.516   5.772   2.716
 1271SOL     OW 4711   1.833   1.448   1.159
 1271SOL    HW1 4712   1.914   1.498   1.126
 1271SOL    HW2 4713   1.818   1.369   1.101
 1272SOL     OW 4714   6.141   3.683   5.911
 1272SOL    HW1 4715   6.096   3.682   6.000
 1272SOL    HW2 4716   6.097   3.751   5.852
 1273SOL     OW 4717   1.028   4.635   4.853
 1273SOL    HW1 4718   1.001   4.571   4.925
 1273SOL    HW2 4719   0.983   4.610   4.768
 1274SOL     OW 4720   6.971   5.413   3.042
 1274SOL    HW1 4721   6.898   5.481   3.032
 1274SOL    HW2 4722   6.991   5.372   2.953
 1275SOL     OW 4723   2.024   1.214   3.061
 1275SOL    HW1 4724   1.945   1.194   3.119
 1275SOL    HW2 4725   2.099   1.250   3.117
 1276SOL     OW 4726   5.465   5.130   4.355
 1276SOL    HW1 4727   5.508   5.134   4.445
 1276SOL    HW2 4728   5.397   5.056   4.353
 1277SOL     OW 4729   1.165   6.228   0.430
 1277SOL    HW1 4730   1.167   6.215   0.529
 1277SOL    HW2 4731   1.258   6.239   0.395
 1278SOL     OW 4732   1.003   6.041   2.711
 1278SOL    HW1 4733   0.975   6.115   2.772
 1278SOL    HW2 4734   0.981   6.065   2.616
 1279SOL     OW 4735   2.757   2.715   1.688
 1279SOL    HW1 4736   2.809   2.637   1.722
 1279SOL    HW2 4737   2.687   2.683   1.624
 1280SOL     OW 4738   2.161   2.191   3.874
 1280SOL    HW1 4739   2.253   2.163   3.849
 1280SOL    HW2 4740   2.112   2.221   3.792
 1281SOL     OW 4741   4.854   6.537   5.001
 1281SOL    HW1 4742   4.868   6.486   4.916
 1281SOL    HW2 4743   4.804   6.622   4.981
 1282SOL     OW 4744   6.871   2.736   1.107
 1282SOL    HW1 4745   6.963   2.705   1.084
 1282SOL    HW2 4746   6.854   2.723   1.205
 1283SOL     OW 4747   0.351   3.053   4.944
 1283SOL    HW1 4748   0.256   3.021   4.955
 1283SOL    HW2 4749   0.362   3.140   4.992
 1284SOL     OW 4750   4.157   2.206   1.521
 1284SOL    HW1 4751   4.065   2.199   1.559
 1284SOL    HW2 4752   4.217   2.139   1.565
 1285SOL     OW 4753   4.370   0.986   5.388
 1285SOL    HW1 4754   4.362   1.069   5.442
 1285SOL    HW2 4755   4.341   1.004   5.294
 1286SOL     OW 4756   5.457   2.626   1.473
 1286SOL    HW1 4757   5.515   2.546   1.488
 1286SOL    HW2 4758   5.399   2.610   1.393
 1287SOL     OW 4759   6.543   4.908   4.741
 1287SOL    HW1 4760   6.561   4.886   4.646
 1287SOL    HW2 4761   6.446   4.890   4.762
 1288SOL     OW 4762   4.521   4.403   7.014
 1288SOL    HW1 4763   4.431   4.392   6.970
 1288SOL    HW2 4764   4.585   4.443   6.948
 1289SOL     OW 4765   6.880   0.219   1.543
 1289SOL    HW1 4766   6.838   0.234   1.454
 1289SOL    HW2 4767   6.967   0.171   1.532
 1290SOL     OW 4768   1.617   6.735   5.602
 1290SOL    HW1 4769   1.676   6.812   5.628
 1290SOL    HW2 4770   1.534   6.770   5.559
 1291SOL     OW 4771   6.241   4.566   3.214
 1291SOL    HW1 4772   6.146   4.583   3.185
 1291SOL    HW2 4773   6.287   4.511   3.144
 1292SOL     OW 4774   0.930   6.693   1.705
 1292SOL    HW1 4775   0.878   6.651   1.778
 1292SOL    HW2 4776   1.024   6.659   1.707
 1293SOL     OW 4777   4.333   1.232   0.088
 1293SOL    HW1 4778   4.382   1.241   0.174
 1293SOL    HW2 4779   4.236   1.218   0.106
 1294SOL     OW 4780   1.870   4.257   4.911
 1294SOL    HW1 4781   1.927   4.175   4.917
 1294SOL    HW2 4782   1.891   4.318   4.987
 1295SOL     OW 4783   5.956   4.420   0.777
 1295SOL    HW1 4784   6.046   4.412   0.734
 1295SOL    HW2 4785   5.907   4.498   0.737
 1296SOL     OW 4786   5.531   0.069   5.743
 1296SOL    HW1 4787   5.453   0.062   5.805
 1296SOL    HW2 4788   5.508   0.130   5.668
 1297SOL     OW 4789   0.555   0.250   1.991
 1297SOL    HW1 4790   0.534   0.174   2.052
 1297SOL    HW2 4791   0.618   0.218   1.920
 1298SOL     OW 4792   4.948   6.827   2.479
 1298SOL    HW1 4793   4.868   6.768   2.484
 1298SOL    HW2 4794   4.982   6.845   2.571
 1299SOL     OW 4795   0.633   3.769   4.688
 1299SOL    HW1 4796   0.589   3.844   4.736
 1299SOL    HW2 4797   0.715   3.740   4.738
 1300SOL     OW 4798   1.269   4.720   1.750
 1300SOL    HW1 4799   1.172   4.712   1.771
 1300SOL    HW2 4800   1.320   4.743   1.833
 1301SOL     OW 4801   0.708   0.391   0.471
 1301SOL    HW1 4802   0.650   0.440   0.406
 1301SOL    HW2 4803   0.785   0.349   0.422
 1302SOL     OW 4804   5.928   0.076   4.837
 1302SOL    HW1 4805   5.900   0.146   4.773
 1302SOL    HW2 4806   5.998   0.018   4.795
 1303SOL     OW 4807   3.828   6.296   1.941
 1303SOL    HW1 4808   3.880   6.213   1.961
 1303SOL    HW2 4809   3.864   6.338   1.858
 1304SOL     OW 4810   0.596   1.089   0.665
 1304SOL    HW1 4811   0.557   1.181   0.673
 1304SOL    HW2 4812   0.631   1.060   0.754
 1305SOL     OW 4813   4.722   3.208   6.364
 1305SOL    HW1 4814   4.706   3.172   6.273
 1305SOL    HW2 4815   4.820   3.223   6.378
 1306SOL     OW 4816   2.868   5.491   4.265
 1306SOL    HW1 4817   2.956   5.484   4.217
 1306SOL    HW2 4818   2.801   5.432   4.219
 1307SOL     OW 4819   2.874   2.109   3.457
 1307SOL    HW1 4820   2.927   2.061   3.527
 1307SOL    HW2 4821   2.845   2.044   3.387
 1308SOL     OW 4822   0.707   4.427   6.141
 1308SOL    HW1 4823   0.742   4.428   6.047
 1308SOL    HW2 4824   0.651   4.346   6.155
 1309SOL     OW 4825   5.806   4.545   6.541
 1309SOL    HW1 4826   5.765   4.465   6.498
 1309SOL    HW2 4827   5.738   4.590   6.599
 1310SOL     OW 4828   1.511   3.942   3.348
 1310SOL    HW1 4829   1.463   4.000   3.415
 1310SOL    HW2 4830   1.609   3.944   3.367
 1311SOL     OW 4831   6.136   5.625   0.800
 1311SOL    HW1 4832   6.132   5.554   0.870
 1311SOL    HW2 4833   6.231   5.641   0.773
 1312SOL     OW 4834   2.421   1.074   6.113
 1312SOL    HW1 4835   2.503   1.092   6.059
 1312SOL    HW2 4836   2.410   0.976   6.125
 1313SOL     OW 4837   6.632   6.239   2.429
 1313SOL    HW1 4838   6.598   6.333   2.439
 1313SOL    HW2 4839   6.731   6.241   2.415
 1314SOL     OW 4840   2.506   1.590   4.957
 1314SOL    HW1 4841   2.414   1.580   4.996
 1314SOL    HW2 4842   2.574   1.565   5.025
 1315SOL     OW 4843   6.029   1.590   3.408
 1315SOL    HW1 4844   6.085   1.669   3.384
 1315SOL    HW2 4845   5.999   1.598   3.503
 1316SOL     OW 4846   4.642   0.267   6.177
 1316SOL    HW1 4847   4.578   0.232   6.109
 1316SOL    HW2 4848   4.618   0.230   6.267
 1317SOL     OW 4849   3.295   3.677   6.154
 1317SOL    HW1 4850   3.234   3.717   6.085
 1317SOL    HW2 4851   3.240   3.646   6.232
 1318SOL     OW 4852   2.039   2.282   6.094
 1318SOL    HW1 4853   2.002   2.226   6.020
 1318SOL    HW2 4854   2.018   2.379   6.076
 1319SOL     OW 4855   6.910   6.869   0.926
 1319SOL    HW1 4856   6.876   6.885   0.834
 1319SOL    HW2 4857   6.959   6.951   0.958
 1320SOL     OW 4858   3.257   3.360   5.927
 1320SOL    HW1 4859   3.205   3.283   5.890
 1320SOL    HW2 4860   3.301   3.332   6.012
 1321SOL     OW 4861   6.221   2.787   0.482
 1321SOL    HW1 4862   6.141   2.728   0.496
 1321SOL    HW2 4863   6.276   2.789   0.565
 1322SOL     OW 4864   3.354   1.931   0.585
 1322SOL    HW1 4865   3.386   1.856   0.644
 1322SOL    HW2 4866   3.308   2.000   0.641
 1323SOL     OW 4867   3.420   0.069   0.592
 1323SOL    HW1 4868   3.437   7.007   0.538
 1323SOL    HW2 4869   3.484   0.073   0.668
 1324SOL     OW 4870   1.561   3.578   0.204
 1324SOL    HW1 4871   1.514   3.492   0.183
 1324SOL    HW2 4872   1.503   3.634   0.264
 1325SOL     OW 4873   3.087   5.684   5.631
 1325SOL    HW1 4874   3.066   5.664   5.536
 1325SOL    HW2 4875   3.023   5.635   5.690
 1326SOL     OW 4876   4.849   2.817   3.596
 1326SOL    HW1 4877   4.767   2.764   3.575
 1326SOL    HW2 4878   4.875   2.872   3.517
 1327SOL     OW 4879   5.586   5.669   2.009
 1327SOL    HW1 4880   5.514   5.602   2.024
 1327SOL    HW2 4881   5.655   5.662   2.081
 1328SOL     OW 4882   2.098   3.093   4.925
 1328SOL    HW1 4883   2.066   3.000   4.944
 1328SOL    HW2 4884   2.155   3.125   5.000
 1329SOL     OW 4885   1.344   3.089   3.746
 1329SOL    HW1 4886   1.272   3.158   3.743
 1329SOL    HW2 4887   1.318   3.011   3.690
 1330SOL     OW 4888   6.538   2.886   1.745
 1330SOL    HW1 4889   6.444   2.865   1.772
 1330SOL    HW2 4890   6.598   2.810   1.769
 1331SOL     OW 4891   4.676   1.913   3.474
 1331SOL    HW1 4892   4.599   1.976   3.479
 1331SOL    HW2 4893   4.759   1.962   3.449
 1332SOL     OW 4894   1.612   6.360   0.042
 1332SOL    HW1 4895   1.530   6.415   0.063
 1332SOL    HW2 4896   1.694   6.413   0.067
 1333SOL     OW 4897   3.916   3.904   3.622
 1333SOL    HW1 4898   3.868   3.824   3.585
 1333SOL    HW2 4899   3.980   3.938   3.554
 1334SOL     OW 4900   6.873   3.638   2.013
 1334SOL    HW1 4901   6.860   3.539   2.008
 1334SOL    HW2 4902   6.816   3.675   2.087
 1335SOL     OW 4903   1.209   3.502   2.460
 1335SOL    HW1 4904   1.139   3.520   2.391
 1335SOL    HW2 4905   1.289   3.559   2.442
 1336SOL     OW 4906   2.681   0.638   5.281
 1336SOL    HW1 4907   2.747   0.605   5.214
 1336SOL    HW2 4908   2.719   0.716   5.330
 1337SOL     OW 4909   6.596   1.120   3.517
 1337SOL    HW1 4910   6.586   1.190   3.447
 1337SOL    HW2 4911   6.547   1.148   3.600
 1338SOL     OW 4912   6.517   3.943   5.228
 1338SOL    HW1 4913   6.595   3.983   5.276
 1338SOL    HW2 4914   6.549   3.888   5.151
 1339SOL     OW 4915   0.099   0.189   6.939
 1339SOL    HW1 4916   0.143   0.114   6.989
 1339SOL    HW2 4917   0.074   0.261   7.004
 1340SOL     OW 4918   4.111   2.812   1.737
 1340SOL    HW1 4919   4.031   2.771   1.693
 1340SOL    HW2 4920   4.123   2.906   1.703
 1341SOL     OW 4921   5.171   6.256   0.305
 1341SOL    HW1 4922   5.114   6.306   0.370
 1341SOL    HW2 4923   5.147   6.159   0.308
 1342SOL     OW 4924   2.838   6.792   1.585
 1342SOL    HW1 4925   2.833   6.786   1.485
 1342SOL    HW2 4926   2.930   6.766   1.614
 1343SOL     OW 4927   5.834   5.903   2.976
 1343SOL    HW1 4928   5.863   5.978   2.917
 1343SOL    HW2 4929   5.870   5.817   2.940
 1344SOL     OW 4930   0.634   0.465   4.960
 1344SOL    HW1 4931   0.732   0.443   4.963
 1344SOL    HW2 4932   0.618   0.536   4.891
 1345SOL     OW 4933   0.348   6.294   0.183
 1345SOL    HW1 4934   0.266   6.349   0.172
 1345SOL    HW2 4935   0.361   6.272   0.280
 1346SOL     OW 4936   2.974   5.537   5.087
 1346SOL    HW1 4937   2.913   5.458   5.092
 1346SOL    HW2 4938   2.997   5.555   4.991
 1347SOL     OW 4939   1.283   6.984   6.089
 1347SOL    HW1 4940   1.236   6.914   6.036
 1347SOL    HW2 4941   1.257   0.054   6.056
 1348SOL     OW 4942   0.937   6.300   5.664
 1348SOL    HW1 4943   0.874   6.229   5.635
 1348SOL    HW2 4944   0.978   6.344   5.584
 1349SOL     OW 4945   4.856   3.203   3.985
 1349SOL    HW1 4946   4.762   3.230   4.007
 1349SOL    HW2 4947   4.855   3.130   3.917
 1350SOL     OW 4948   4.249   3.973   0.060
 1350SOL    HW1 4949   4.196   3.904   0.108
 1350SOL    HW2 4950   4.237   4.062   0.105
 1351SOL     OW 4951   6.817   2.650   5.520
 1351SOL    HW1 4952   6.766   2.588   5.460
 1351SOL    HW2 4953   6.909   2.614   5.536
 1352SOL     OW 4954   6.775   0.544   1.993
 1352SOL    HW1 4955   6.776   0.453   1.951
 1352SOL    HW2 4956   6.742   0.537   2.087
 1353SOL     OW 4957   0.514   1.040   0.405
 1353SOL    HW1 4958   0.551   1.048   0.498
 1353SOL    HW2 4959   0.575   0.982   0.350
 1354SOL     OW 4960   5.305   4.909   2.657
 1354SOL    HW1 4961   5.327   5.006   2.647
 1354SOL    HW2 4962   5.217   4.890   2.615
 1355SOL     OW 4963   5.845   3.457   6.233
 1355SOL    HW1 4964   5.925   3.409   6.196
 1355SOL    HW2 4965   5.783   3.481   6.159
 1356SOL     OW 4966   3.026   3.443   0.615
 1356SOL    HW1 4967   2.994   3.469   0.706
 1356SOL    HW2 4968   3.065   3.351   0.617
 1357SOL     OW 4969   0.363   3.737   4.977
 1357SOL    HW1 4970   0.276   3.688   4.974
 1357SOL    HW2 4971   0.429   3.685   5.031
 1358SOL     OW 4972   1.553   6.390   6.601
 1358SOL    HW1 4973   1.619   6.442   6.655
 1358SOL    HW2 4974   1.601   6.343   6.527
 1359SOL     OW 4975   0.124   4.522   1.973
 1359SOL    HW1 4976   0.096   4.550   1.881
 1359SOL    HW2 4977   0.058   4.556   2.040
 1360SOL     OW 4978   2.515   2.501   0.456
 1360SOL    HW1 4979   2.615   2.504   0.449
 1360SOL    HW2 4980   2.476   2.553   0.379
 1361SOL     OW 4981   0.182   5.130   5.100
 1361SOL    HW1 4982   0.087   5.158   5.112
 1361SOL    HW2 4983   0.238   5.174   5.170
 1362SOL     OW 4984   3.137   3.090   2.960
 1362SOL    HW1 4985   3.221   3.120   2.916
 1362SOL    HW2 4986   3.102   3.009   2.913
 1363SOL     OW 4987   1.215   6.010   4.014
 1363SOL    HW1 4988   1.172   5.993   4.103
 1363SOL    HW2 4989   1.313   6.025   4.027
 1364SOL     OW 4990   4.110   3.952   0.875
 1364SOL    HW1 4991   4.197   3.905   0.860
 1364SOL    HW2 4992   4.109   3.990   0.968
 1365SOL     OW 4993   0.511   3.185   6.902
 1365SOL    HW1 4994   0.432   3.145   6.947
 1365SOL    HW2 4995   0.591   3.126   6.914
 1366SOL     OW 4996   3.364   0.155   5.204
 1366SOL    HW1 4997   3.448   0.169   5.152
 1366SOL    HW2 4998   3.383   0.169   5.301
 1367SOL     OW 4999   2.127   1.050   2.885
 1367SOL    HW1 5000   2.082   0.961   2.893
 1367SOL    HW2 5001   2.087   1.113   2.951
 1368SOL     OW 5002   5.433   6.523   3.364
 1368SOL    HW1 5003   5.480   6.529   3.451
 1368SOL    HW2 5004   5.374   6.603   3.351
 1369SOL     OW 5005   1.450   1.152   3.201
 1369SOL    HW1 5006   1.410   1.090   3.133
 1369SOL    HW2 5007   1.456   1.244   3.162
 1370SOL     OW 5008   2.498   0.768   1.457
 1370SOL    HW1 5009   2.523   0.680   1.497
 1370SOL    HW2 5010   2.579   0.811   1.418
 1371SOL     OW 5011   3.947   0.667   6.487
 1371SOL    HW1 5012   3.890   0.674   6.406
 1371SOL    HW2 5013   3.922   0.585   6.538
 1372SOL     OW 5014   3.163   1.962   2.047
 1372SOL    HW1 5015   3.161   2.034   1.978
 1372SOL    HW2 5016   3.217   1.992   2.126
 1373SOL     OW 5017   1.365   6.173   0.984
 1373SOL    HW1 5018   1.336   6.077   0.981
 1373SOL    HW2 5019   1.397   6.201   0.894
 1374SOL     OW 5020   5.118   2.899   0.071
 1374SOL    HW1 5021   5.062   2.945   0.140
 1374SOL    HW2 5022   5.127   2.957   7.011
 1375SOL     OW 5023   0.358   4.056   5.227
 1375SOL    HW1 5024   0.371   4.089   5.320
 1375SOL    HW2 5025   0.448   4.043   5.184
 1376SOL     OW 5026   4.744   1.640   2.581
 1376SOL    HW1 5027   4.699   1.638   2.492
 1376SOL    HW2 5028   4.821   1.705   2.578
 1377SOL     OW 5029   0.541   5.764   4.764
 1377SOL    HW1 5030   0.572   5.796   4.675
 1377SOL    HW2 5031   0.469   5.696   4.752
 1378SOL     OW 5032   2.032   1.965   6.734
 1378SOL    HW1 5033   2.079   1.896   6.678
 1378SOL    HW2 5034   2.068   2.056   6.712
 1379SOL     OW 5035   3.698   6.115   1.159
 1379SOL    HW1 5036   3.625   6.057   1.196
 1379SOL    HW2 5037   3.665   6.210   1.153
 1380SOL     OW 5038   6.563   6.647   2.744
 1380SOL    HW1 5039   6.479   6.596   2.762
 1380SOL    HW2 5040   6.553   6.697   2.658
 1381SOL     OW 5041   6.160   0.494   1.576
 1381SOL    HW1 5042   6.166   0.566   1.507
 1381SOL    HW2 5043   6.064   0.473   1.593
 1382SOL     OW 5044   0.114   4.848   6.229
 1382SOL    HW1 5045   0.104   4.901   6.145
 1382SOL    HW2 5046   0.086   4.904   6.307
 1383SOL     OW 5047   2.299   7.007   0.402
 1383SOL    HW1 5048   2.315   0.021   0.494
 1383SOL    HW2 5049   2.262   6.914   0.408
 1384SOL     OW 5050   2.565   1.957   2.103
 1384SOL    HW1 5051   2.613   2.033   2.059
 1384SOL    HW2 5052   2.528   1.895   2.033
 1385SOL     OW 5053   5.397   2.685   2.914
 1385SOL    HW1 5054   5.400   2.603   2.856
 1385SOL    HW2 5055   5.309   2.730   2.902
 1386SOL     OW 5056   2.374   2.652   3.982
 1386SOL    HW1 5057   2.361   2.747   4.009
 1386SOL    HW2 5058   2.424   2.649   3.895
 1387SOL     OW 5059   2.214   0.347   4.655
 1387SOL    HW1 5060   2.291   0.398   4.694
 1387SOL    HW2 5061   2.207   0.258   4.699
 1388SOL     OW 5062   5.903   1.147   5.040
 1388SOL    HW1 5063   5.885   1.245   5.028
 1388SOL    HW2 5064   5.982   1.121   4.986
 1389SOL     OW 5065   6.367   1.037   4.144
 1389SOL    HW1 5066   6.401   0.980   4.219
 1389SOL    HW2 5067   6.359   1.132   4.175
 1390SOL     OW 5068   4.582   2.457   2.068
 1390SOL    HW1 5069   4.548   2.449   2.162
 1390SOL    HW2 5070   4.670   2.410   2.061
 1391SOL     OW 5071   5.602   1.601   4.703
 1391SOL    HW1 5072   5.659   1.683   4.708
 1391SOL    HW2 5073   5.650   1.525   4.747
 1392SOL     OW 5074   4.694   6.033   5.927
 1392SOL    HW1 5075   4.610   5.982   5.945
 1392SOL    HW2 5076   4.765   5.970   5.896
 1393SOL     OW 5077   4.975   0.441   6.870
 1393SOL    HW1 5078   5.011   0.527   6.907
 1393SOL    HW2 5079   5.005   0.431   6.775
 1394SOL     OW 5080   4.231   0.441   3.848
 1394SOL    HW1 5081   4.283   0.447   3.762
 1394SOL    HW2 5082   4.175   0.523   3.859
 1395SOL     OW 5083   1.320   5.624   2.114
 1395SOL    HW1 5084   1.362   5.542   2.073
 1395SOL    HW2 5085   1.306   5.693   2.043
 1396SOL     OW 5086   1.710   1.165   3.667
 1396SOL    HW1 5087   1.775   1.210   3.729
 1396SOL    HW2 5088   1.624   1.150   3.715
 1397SOL     OW 5089   0.536   5.436   4.900
 1397SOL    HW1 5090   0.461   5.485   4.856
 1397SOL    HW2 5091   0.620   5.449   4.847
 1398SOL     OW 5092   1.942   6.626   6.900
 1398SOL    HW1 5093   1.996   6.691   6.847
 1398SOL    HW2 5094   1.994   6.541   6.911
 1399SOL     OW 5095   3.917   0.334   0.382
 1399SOL    HW1 5096   3.932   0.407   0.449
 1399SOL    HW2 5097   3.844   0.360   0.319
 1400SOL     OW 5098   0.364   0.985   5.040
 1400SOL    HW1 5099   0.366   0.886   5.025
 1400SOL    HW2 5100   0.317   1.006   5.125
 1401SOL     OW 5101   5.487   0.385   2.789
 1401SOL    HW1 5102   5.551   0.444   2.741
 1401SOL    HW2 5103   5.414   0.440   2.829
 1402SOL     OW 5104   6.958   4.711   2.733
 1402SOL    HW1 5105   6.972   4.619   2.769
 1402SOL    HW2 5106   0.026   4.753   2.713
 1403SOL     OW 5107   3.041   3.014   6.379
 1403SOL    HW1 5108   3.087   2.933   6.343
 1403SOL    HW2 5109   3.059   3.021   6.477
 1404SOL     OW 5110   4.188   6.040   0.534
 1404SOL    HW1 5111   4.180   6.075   0.441
 1404SOL    HW2 5112   4.151   6.107   0.598
 1405SOL     OW 5113   0.866   3.873   0.707
 1405SOL    HW1 5114   0.796   3.926   0.754
 1405SOL    HW2 5115   0.921   3.823   0.774
 1406SOL     OW 5116   1.684   3.376   0.402
 1406SOL    HW1 5117   1.653   3.451   0.343
 1406SOL    HW2 5118   1.700   3.410   0.494
 1407SOL     OW 5119   0.482   3.010   1.402
 1407SOL    HW1 5120   0.512   3.102   1.428
 1407SOL    HW2 5121   0.391   2.992   1.439
 1408SOL     OW 5122   5.622   6.645   1.122
 1408SOL    HW1 5123   5.681   6.721   1.148
 1408SOL    HW2 5124   5.678   6.572   1.082
 1409SOL     OW 5125   6.282   1.304   6.000
 1409SOL    HW1 5126   6.218   1.269   6.069
 1409SOL    HW2 5127   6.315   1.394   6.028
 1410SOL     OW 5128   3.371   0.167   6.652
 1410SOL    HW1 5129   3.303   0.130   6.715
 1410SOL    HW2 5130   3.400   0.257   6.683
 1411SOL     OW 5131   3.456   4.642   6.916
 1411SOL    HW1 5132   3.387   4.685   6.857
 1411SOL    HW2 5133   3.410   4.589   6.987
 1412SOL     OW 5134   2.556   2.125   0.538
 1412SOL    HW1 5135   2.605   2.130   0.625
 1412SOL    HW2 5136   2.597   2.188   0.472
 1413SOL     OW 5137   2.127   2.048   5.230
 1413SOL    HW1 5138   2.191   2.020   5.302
 1413SOL    HW2 5139   2.120   2.148   5.229
 1414SOL     OW 5140   0.520   4.651   2.472
 1414SOL    HW1 5141   0.525   4.554   2.497
 1414SOL    HW2 5142   0.581   4.668   2.395
 1415SOL     OW 5143   2.927   1.641   4.896
 1415SOL    HW1 5144   2.895   1.731   4.925
 1415SOL    HW2 5145   2.851   1.577   4.896
 1416SOL     OW 5146   4.609   0.384   4.935
 1416SOL    HW1 5147   4.547   0.319   4.978
 1416SOL    HW2 5148   4.665   0.337   4.867
 1417SOL     OW 5149   3.612   3.618   4.785
 1417SOL    HW1 5150   3.578   3.550   4.850
 1417SOL    HW2 5151   3.686   3.670   4.828
 1418SOL     OW 5152   3.579   3.790   6.106
 1418SOL    HW1 5153   3.664   3.741   6.090
 1418SOL    HW2 5154   3.501   3.730   6.087
 1419SOL     OW 5155   1.769   5.983   1.827
 1419SOL    HW1 5156   1.750   5.893   1.865
 1419SOL    HW2 5157   1.864   6.008   1.846
 1420SOL     OW 5158   2.729   6.486   2.222
 1420SOL    HW1 5159   2.805   6.541   2.258
 1420SOL    HW2 5160   2.762   6.395   2.198
 1421SOL     OW 5161   1.249   4.907   6.163
 1421SOL    HW1 5162   1.184   4.928   6.237
 1421SOL    HW2 5163   1.239   4.975   6.090
 1422SOL     OW 5164   1.480   2.911   6.527
 1422SOL    HW1 5165   1.508   2.959   6.444
 1422SOL    HW2 5166   1.561   2.881   6.577
 1423SOL     OW 5167   4.163   0.796   5.256
 1423SOL    HW1 5168   4.132   0.866   5.192
 1423SOL    HW2 5169   4.261   0.780   5.244
 1424SOL     OW 5170   6.588   3.235   1.203
 1424SOL    HW1 5171   6.589   3.156   1.264
 1424SOL    HW2 5172   6.565   3.206   1.110
 1425SOL     OW 5173   5.323   0.053   3.846
 1425SOL    HW1 5174   5.335   6.995   3.907
 1425SOL    HW2 5175   5.242   0.105   3.874
 1426SOL     OW 5176   4.063   0.849   6.820
 1426SOL    HW1 5177   4.131   0.807   6.760
 1426SOL    HW2 5178   4.073   0.948   6.818
 1427SOL     OW 5179   1.917   0.345   3.935
 1427SOL    HW1 5180   1.831   0.294   3.936
 1427SOL    HW2 5181   1.978   0.309   4.006
 1428SOL     OW 5182   1.462   3.387   4.171
 1428SOL    HW1 5183   1.394   3.456   4.147
 1428SOL    HW2 5184   1.496   3.405   4.264
 1429SOL     OW 5185   6.386   0.583   2.191
 1429SOL    HW1 5186   6.415   0.488   2.205
 1429SOL    HW2 5187   6.448   0.645   2.240
 1430SOL     OW 5188   2.085   3.643   4.642
 1430SOL    HW1 5189   2.093   3.607   4.549
 1430SOL    HW2 5190   2.051   3.737   4.639
 1431SOL     OW 5191   2.914   1.410   0.152
 1431SOL    HW1 5192   2.984   1.427   0.082
 1431SOL    HW2 5193   2.855   1.335   0.122
 1432SOL     OW 5194   3.745   0.117   2.100
 1432SOL    HW1 5195   3.750   0.036   2.158
 1432SOL    HW2 5196   3.715   0.195   2.154
 1433SOL     OW 5197   2.910   1.252   4.164
 1433SOL    HW1 5198   2.880   1.313   4.091
 1433SOL    HW2 5199   2.901   1.157   4.133
 1434SOL     OW 5200   5.394   4.044   0.438
 1434SOL    HW1 5201   5.424   4.106   0.511
 1434SOL    HW2 5202   5.451   3.962   0.439
 1435SOL     OW 5203   1.415   0.061   3.815
 1435SOL    HW1 5204   1.504   0.045   3.856
 1435SOL    HW2 5205   1.346   0.071   3.887
 1436SOL     OW 5206   5.443   1.324   0.688
 1436SOL    HW1 5207   5.412   1.314   0.782
 1436SOL    HW2 5208   5.522   1.385   0.685
 1437SOL     OW 5209   3.905   1.015   0.654
 1437SOL    HW1 5210   3.913   0.926   0.699
 1437SOL    HW2 5211   3.955   1.084   0.707
 1438SOL     OW 5212   2.390   0.575   2.677
 1438SOL    HW1 5213   2.351   0.521   2.603
 1438SOL    HW2 5214   2.405   0.669   2.645
 1439SOL     OW 5215   6.815   5.088   0.144
 1439SOL    HW1 5216   6.899   5.073   0.093
 1439SOL    HW2 5217   6.788   5.184   0.136
 1440SOL     OW 5218   3.586   2.871   2.662
 1440SOL    HW1 5219   3.546   2.869   2.754
 1440SOL    HW2 5220   3.512   2.880   2.594
 1441SOL     OW 5221   6.510   2.270   5.023
 1441SOL    HW1 5222   6.455   2.224   4.953
 1441SOL    HW2 5223   6.473   2.248   5.113
 1442SOL     OW 5224   5.163   0.038   0.203
 1442SOL    HW1 5225   5.125   0.096   0.131
 1442SOL    HW2 5226   5.134   6.964   0.188
 1443SOL     OW 5227   1.623   2.833   3.558
 1443SOL    HW1 5228   1.524   2.850   3.554
 1443SOL    HW2 5229   1.640   2.736   3.575
 1444SOL     OW 5230   5.047   0.363   5.189
 1444SOL    HW1 5231   5.039   0.418   5.106
 1444SOL    HW2 5232   4.959   0.361   5.236
 1445SOL     OW 5233   6.357   2.263   0.180
 1445SOL    HW1 5234   6.344   2.164   0.185
 1445SOL    HW2 5235   6.417   2.293   0.254
 1446SOL     OW 5236   3.674   6.708   1.090
 1446SOL    HW1 5237   3.697   6.718   0.993
 1446SOL    HW2 5238   3.730   6.637   1.131
 1447SOL     OW 5239   5.788   1.447   5.041
 1447SOL    HW1 5240   5.812   1.530   4.991
 1447SOL    HW2 5241   5.774   1.469   5.138
 1448SOL     OW 5242   5.069   0.723   6.680
 1448SOL    HW1 5243   4.976   0.725   6.644
 1448SOL    HW2 5244   5.066   0.713   6.780
 1449SOL     OW 5245   4.935   5.929   0.891
 1449SOL    HW1 5246   4.844   5.893   0.912
 1449SOL    HW2 5247   4.996   5.853   0.867
 1450SOL     OW 5248   5.812   2.219   3.509
 1450SOL    HW1 5249   5.800   2.171   3.422
 1450SOL    HW2 5250   5.739   2.192   3.572
 1451SOL     OW 5251   2.071   6.694   1.960
 1451SOL    HW1 5252   2.099   6.719   2.053
 1451SOL    HW2 5253   2.089   6.770   1.898
 1452SOL     OW 5254   4.237   0.419   5.118
 1452SOL    HW1 5255   4.177   0.412   5.198
 1452SOL    HW2 5256   4.306   0.489   5.133
 1453SOL     OW 5257   4.509   4.551   4.383
 1453SOL    HW1 5258   4.455   4.585   4.306
 1453SOL    HW2 5259   4.513   4.451   4.379
 1454SOL     OW 5260   4.752   4.778   0.913
 1454SOL    HW1 5261   4.780   4.695   0.865
 1454SOL    HW2 5262   4.772   4.857   0.856
 1455SOL     OW 5263   2.418   2.168   1.721
 1455SOL    HW1 5264   2.499   2.214   1.684
 1455SOL    HW2 5265   2.437   2.070   1.730
 1456SOL     OW 5266   6.054   5.572   4.372
 1456SOL    HW1 5267   6.122   5.517   4.324
 1456SOL    HW2 5268   6.008   5.516   4.441
 1457SOL     OW 5269   1.917   6.980   3.656
 1457SOL    HW1 5270   1.953   6.926   3.732
 1457SOL    HW2 5271   1.924   6.928   3.571
 1458SOL     OW 5272   0.111   5.911   6.993
 1458SOL    HW1 5273   0.210   5.901   6.985
 1458SOL    HW2 5274   0.072   5.832   0.019
 1459SOL     OW 5275   2.390   0.038   0.661
 1459SOL    HW1 5276   2.424   0.126   0.696
 1459SOL    HW2 5277   2.408   6.987   0.729
 1460SOL     OW 5278   1.015   6.962   7.015
 1460SOL    HW1 5279   0.998   6.868   6.984
 1460SOL    HW2 5280   1.072   7.009   6.947
 1461SOL     OW 5281   4.612   5.404   2.527
 1461SOL    HW1 5282   4.661   5.324   2.562
 1461SOL    HW2 5283   4.587   5.388   2.431
 1462SOL     OW 5284   5.110   0.382   5.472
 1462SOL    HW1 5285   5.198   0.430   5.474
 1462SOL    HW2 5286   5.086   0.359   5.378
 1463SOL     OW 5287   0.489   1.263   5.432
 1463SOL    HW1 5288   0.575   1.219   5.405
 1463SOL    HW2 5289   0.427   1.266   5.354
 1464SOL     OW 5290   0.151   0.823   1.755
 1464SOL    HW1 5291   0.085   0.752   1.732
 1464SOL    HW2 5292   0.169   0.879   1.675
 1465SOL     OW 5293   0.796   0.228   4.509
 1465SOL    HW1 5294   0.742   0.190   4.434
 1465SOL    HW2 5295   0.778   0.326   4.517
 1466SOL     OW 5296   5.364   5.009   4.757
 1466SOL    HW1 5297   5.362   4.951   4.676
 1466SOL    HW2 5298   5.300   5.085   4.744
 1467SOL     OW 5299   5.754   3.601   3.223
 1467SOL    HW1 5300   5.663   3.571   3.195
 1467SOL    HW2 5301   5.747   3.683   3.280
 1468SOL     OW 5302   5.746   6.884   2.562
 1468SOL    HW1 5303   5.814   6.820   2.597
 1468SOL    HW2 5304   5.719   6.857   2.470
 1469SOL     OW 5305   0.386   0.728   2.342
 1469SOL    HW1 5306   0.403   0.816   2.296
 1469SOL    HW2 5307   0.397   0.739   2.440
 1470SOL     OW 5308   6.750   1.094   3.176
 1470SOL    HW1 5309   6.823   1.142   3.225
 1470SOL    HW2 5310   6.775   1.085   3.080
 1471SOL     OW 5311   6.220   0.612   1.085
 1471SOL    HW1 5312   6.275   0.685   1.043
 1471SOL    HW2 5313   6.267   0.525   1.076
 1472SOL     OW 5314   4.359   5.705   5.198
 1472SOL    HW1 5315   4.323   5.653   5.120
 1472SOL    HW2 5316   4.437   5.759   5.169
 1473SOL     OW 5317   5.682   3.877   3.293
 1473SOL    HW1 5318   5.678   3.891   3.392
 1473SOL    HW2 5319   5.654   3.960   3.246
 1474SOL     OW 5320   4.632   4.861   4.201
 1474SOL    HW1 5321   4.685   4.778   4.184
 1474SOL    HW2 5322   4.627   4.916   4.118
 1475SOL     OW 5323   6.315   0.945   3.391
 1475SOL    HW1 5324   6.339   0.887   3.468
 1475SOL    HW2 5325   6.218   0.931   3.368
 1476SOL     OW 5326   6.453   2.417   1.436
 1476SOL    HW1 5327   6.362   2.393   1.401
 1476SOL    HW2 5328   6.455   2.406   1.536
 1477SOL     OW 5329   2.720   5.919   3.582
 1477SOL    HW1 5330   2.629   5.956   3.563
 1477SOL    HW2 5331   2.746   5.856   3.509
 1478SOL     OW 5332   0.256   4.564   1.541
 1478SOL    HW1 5333   0.297   4.522   1.460
 1478SOL    HW2 5334   0.315   4.549   1.620
 1479SOL     OW 5335   0.785   5.027   0.773
 1479SOL    HW1 5336   0.760   5.004   0.679
 1479SOL    HW2 5337   0.775   4.947   0.831
 1480SOL     OW 5338   3.161   0.885   0.492
 1480SOL    HW1 5339   3.150   0.973   0.445
 1480SOL    HW2 5340   3.172   0.812   0.425
 1481SOL     OW 5341   6.927   2.639   6.136
 1481SOL    HW1 5342   6.908   2.541   6.122
 1481SOL    HW2 5343   6.938   2.684   6.047
 1482SOL     OW 5344   5.338   1.117   6.543
 1482SOL    HW1 5345   5.265   1.159   6.597
 1482SOL    HW2 5346   5.423   1.167   6.558
 1483SOL     OW 5347   6.178   2.649   6.254
 1483SOL    HW1 5348   6.214   2.739   6.277
 1483SOL    HW2 5349   6.155   2.600   6.338
 1484SOL     OW 5350   6.999   0.049   2.876
 1484SOL    HW1 5351   6.946   0.133   2.875
 1484SOL    HW2 5352   6.957   7.005   2.939
 1485SOL     OW 5353   5.738   2.553   3.980
 1485SOL    HW1 5354   5.745   2.620   4.054
 1485SOL    HW2 5355   5.726   2.462   4.018
 1486SOL     OW 5356   5.503   2.636   1.816
 1486SOL    HW1 5357   5.435   2.580   1.768
 1486SOL    HW2 5358   5.468   2.729   1.827
 1487SOL     OW 5359   6.429   1.104   5.849
 1487SOL    HW1 5360   6.389   1.017   5.878
 1487SOL    HW2 5361   6.386   1.179   5.899
 1488SOL     OW 5362   4.902   1.870   3.035
 1488SOL    HW1 5363   4.811   1.874   3.076
 1488SOL    HW2 5364   4.920   1.777   3.003
 1489SOL     OW 5365   3.987   5.399   4.894
 1489SOL    HW1 5366   3.963   5.315   4.844
 1489SOL    HW2 5367   4.084   5.419   4.881
 1490SOL     OW 5368   2.577   2.485   1.084
 1490SOL    HW1 5369   2.523   2.523   1.160
 1490SOL    HW2 5370   2.582   2.386   1.093
 1491SOL     OW 5371   6.744   2.186   5.431
 1491SOL    HW1 5372   6.792   2.198   5.517
 1491SOL    HW2 5373   6.792   2.117   5.376
 1492SOL     OW 5374   5.981   2.937   1.794
 1492SOL    HW1 5375   6.039   3.018   1.790
 1492SOL    HW2 5376   5.892   2.957   1.753
 1493SOL     OW 5377   5.941   1.632   4.873
 1493SOL    HW1 5378   5.922   1.720   4.915
 1493SOL    HW2 5379   5.920   1.637   4.775
 1494SOL     OW 5380   5.806   2.079   4.567
 1494SOL    HW1 5381   5.868   2.138   4.515
 1494SOL    HW2 5382   5.739   2.039   4.504
 1495SOL     OW 5383   0.935   2.752   3.049
 1495SOL    HW1 5384   0.898   2.844   3.063
 1495SOL    HW2 5385   0.997   2.753   2.970
 1496SOL     OW 5386   1.093   0.391   3.240
 1496SOL    HW1 5387   1.095   0.379   3.339
 1496SOL    HW2 5388   1.130   0.480   3.216
 1497SOL     OW 5389   5.045   4.524   5.822
 1497SOL    HW1 5390   5.068   4.458   5.894
 1497SOL    HW2 5391   5.077   4.490   5.734
 1498SOL     OW 5392   2.174   5.702   0.240
 1498SOL    HW1 5393   2.176   5.669   0.146
 1498SOL    HW2 5394   2.081   5.729   0.264
 1499SOL     OW 5395   0.631   4.564   4.772
 1499SOL    HW1 5396   0.694   4.494   4.738
 1499SOL    HW2 5397   0.676   4.653   4.772
 1500SOL     OW 5398   4.529   6.664   5.351
 1500SOL    HW1 5399   4.477   6.710   5.279
 1500SOL    HW2 5400   4.471   6.596   5.396
 1501SOL     OW 5401   4.362   0.423   6.961
 1501SOL    HW1 5402   4.434   0.442   0.007
 1501SOL    HW2 5403   4.384   0.469   6.875
 1502SOL     OW 5404   0.285   6.252   6.685
 1502SOL    HW1 5405   0.203   6.195   6.672
 1502SOL    HW2 5406   0.328   6.229   6.772
 1503SOL     OW 5407   3.428   4.136   5.218
 1503SOL    HW1 5408   3.340   4.118   5.174
 1503SOL    HW2 5409   3.483   4.052   5.217
 1504SOL     OW 5410   2.729   6.468   4.312
 1504SOL    HW1 5411   2.704   6.543   4.373
 1504SOL    HW2 5412   2.701   6.490   4.219
 1505SOL     OW 5413   5.157   5.656   2.342
 1505SOL    HW1 5414   5.083   5.618   2.397
 1505SOL    HW2 5415   5.127   5.666   2.248
 1506SOL     OW 5416   1.120   6.653   2.914
 1506SOL    HW1 5417   1.126   6.557   2.941
 1506SOL    HW2 5418   1.170   6.666   2.828
 1507SOL     OW 5419   2.914   2.058   6.553
 1507SOL    HW1 5420   2.980   2.121   6.512
 1507SOL    HW2 5421   2.963   1.977   6.587
 1508SOL     OW 5422   4.231   0.391   0.602
 1508SOL    HW1 5423   4.283   0.400   0.517
 1508SOL    HW2 5424   4.149   0.448   0.597
 1509SOL     OW 5425   5.270   1.465   0.081
 1509SOL    HW1 5426   5.301   1.551   0.122
 1509SOL    HW2 5427   5.335   1.435   0.012
 1510SOL     OW 5428   0.405   2.015   3.343
 1510SOL    HW1 5429   0.486   2.071   3.356
 1510SOL    HW2 5430   0.386   1.963   3.427
 1511SOL     OW 5431   1.912   2.641   0.646
 1511SOL    HW1 5432   1.865   2.562   0.684
 1511SOL    HW2 5433   1.947   2.617   0.555
 1512SOL     OW 5434   6.081   0.933   2.412
 1512SOL    HW1 5435   6.040   0.998   2.476
 1512SOL    HW2 5436   6.008   0.885   2.362
 1513SOL     OW 5437   3.616   0.966   2.442
 1513SOL    HW1 5438   3.599   0.898   2.372
 1513SOL    HW2 5439   3.715   0.981   2.451
 1514SOL     OW 5440   4.967   1.254   6.470
 1514SOL    HW1 5441   4.906   1.258   6.391
 1514SOL    HW2 5442   4.952   1.169   6.520
 1515SOL     OW 5443   6.341   5.535   5.040
 1515SOL    HW1 5444   6.431   5.578   5.032
 1515SOL    HW2 5445   6.275   5.587   4.986
 1516SOL     OW 5446   0.220   0.845   0.973
 1516SOL    HW1 5447   0.172   0.831   0.886
 1516SOL    HW2 5448   0.176   0.918   1.024
 1517SOL     OW 5449   3.538   4.871   3.702
 1517SOL    HW1 5450   3.577   4.836   3.616
 1517SOL    HW2 5451   3.455   4.922   3.681
 1518SOL     OW 5452   0.757   4.802   0.915
 1518SOL    HW1 5453   0.688   4.730   0.922
 1518SOL    HW2 5454   0.845   4.761   0.893
 1519SOL     OW 5455   7.015   4.137   1.565
 1519SOL    HW1 5456   7.019   4.156   1.663
 1519SOL    HW2 5457   6.936   4.185   1.525
 1520SOL     OW 5458   1.717   2.601   2.503
 1520SOL    HW1 5459   1.802   2.619   2.454
 1520SOL    HW2 5460   1.737   2.579   2.598
 1521SOL     OW 5461   2.758   4.261   5.295
 1521SOL    HW1 5462   2.772   4.344   5.241
 1521SOL    HW2 5463   2.830   4.194   5.272
 1522SOL     OW 5464   1.260   2.604   6.202
 1522SOL    HW1 5465   1.238   2.534   6.134
 1522SOL    HW2 5466   1.224   2.578   6.291
 1523SOL     OW 5467   6.834   1.298   0.685
 1523SOL    HW1 5468   6.770   1.257   0.620
 1523SOL    HW2 5469   6.852   1.234   0.759
 1524SOL     OW 5470   6.067   0.846   3.338
 1524SOL    HW1 5471   6.044   0.755   3.302
 1524SOL    HW2 5472   5.991   0.879   3.394
 1525SOL     OW 5473   4.867   1.542   5.876
 1525SOL    HW1 5474   4.784   1.548   5.820
 1525SOL    HW2 5475   4.842   1.509   5.967
 1526SOL     OW 5476   6.887   1.727   6.853
 1526SOL    HW1 5477   6.960   1.682   6.905
 1526SOL    HW2 5478   6.804   1.672   6.858
 1527SOL     OW 5479   2.666   1.661   5.613
 1527SOL    HW1 5480   2.715   1.582   5.577
 1527SOL    HW2 5481   2.625   1.636   5.701
 1528SOL     OW 5482   4.920   5.693   4.173
 1528SOL    HW1 5483   4.917   5.785   4.132
 1528SOL    HW2 5484   4.914   5.625   4.100
 1529SOL     OW 5485   3.131   0.831   5.136
 1529SOL    HW1 5486   3.206   0.854   5.074
 1529SOL    HW2 5487   3.101   0.914   5.184
 1530SOL     OW 5488   3.253   0.029   2.334
 1530SOL    HW1 5489   3.176   6.990   2.313
 1530SOL    HW2 5490   3.336   6.994   2.341
 1531SOL     OW 5491   5.934   0.320   6.212
 1531SOL    HW1 5492   5.876   0.391   6.174
 1531SOL    HW2 5493   5.880   0.259   6.271
 1532SOL     OW 5494   3.354   2.607   5.298
 1532SOL    HW1 5495   3.284   2.544   5.261
 1532SOL    HW2 5496   3.440   2.557   5.309
 1533SOL     OW 5497   5.526   2.765   6.869
 1533SOL    HW1 5498   5.607   2.738   6.817
 1533SOL    HW2 5499   5.468   2.823   6.812
 1534SOL     OW 5500   6.750   7.019   1.787
 1534SOL    HW1 5501   6.714   0.053   1.711
 1534SOL    HW2 5502   6.840   0.034   1.813
 1535SOL     OW 5503   4.701   4.655   3.982
 1535SOL    HW1 5504   4.619   4.612   4.021
 1535SOL    HW2 5505   4.675   4.706   3.900
 1536SOL     OW 5506   3.000   5.266   3.477
 1536SOL    HW1 5507   2.980   5.231   3.568
 1536SOL    HW2 5508   3.094   5.243   3.453
 1537SOL     OW 5509   2.278   5.758   4.334
 1537SOL    HW1 5510   2.341   5.756   4.411
 1537SOL    HW2 5511   2.261   5.665   4.302
 1538SOL     OW 5512   3.181   4.758   6.499
 1538SOL    HW1 5513   3.251   4.758   6.428
 1538SOL    HW2 5514   3.126   4.842   6.492
 1539SOL     OW 5515   3.796   5.356   1.636
 1539SOL    HW1 5516   3.703   5.391   1.628
 1539SOL    HW2 5517   3.848   5.415   1.698
 1540SOL     OW 5518   6.150   0.405   5.750
 1540SOL    HW1 5519   6.201   0.335   5.700
 1540SOL    HW2 5520   6.187   0.496   5.728
 1541SOL     OW 5521   4.629   1.734   0.812
 1541SOL    HW1 5522   4.714   1.713   0.764
 1541SOL    HW2 5523   4.551   1.703   0.758
 1542SOL     OW 5524   1.215   6.541   0.900
 1542SOL    HW1 5525   1.211   6.641   0.901
 1542SOL    HW2 5526   1.275   6.511   0.826
 1543SOL     OW 5527   3.529   4.142   3.677
 1543SOL    HW1 5528   3.624   4.135   3.706
 1543SOL    HW2 5529   3.469   4.106   3.748
 1544SOL     OW 5530   3.719   3.815   2.716
 1544SOL    HW1 5531   3.691   3.789   2.808
 1544SOL    HW2 5532   3.725   3.915   2.710
 1545SOL     OW 5533   6.586   0.150   4.130
 1545SOL    HW1 5534   6.656   0.110   4.069
 1545SOL    HW2 5535   6.623   0.155   4.223
 1546SOL     OW 5536   6.580   6.833   6.273
 1546SOL    HW1 5537   6.675   6.856   6.293
 1546SOL    HW2 5538   6.529   6.916   6.251
 1547SOL     OW 5539   3.523   6.085   6.950
 1547SOL    HW1 5540   3.426   6.078   6.976
 1547SOL    HW2 5541   3.580   6.088   0.011
 1548SOL     OW 5542   5.930   4.156   4.205
 1548SOL    HW1 5543   5.935   4.255   4.193
 1548SOL    HW2 5544   5.837   4.125   4.183
 1549SOL     OW 5545   6.328   2.269   0.558
 1549SOL    HW1 5546   6.379   2.325   0.493
 1549SOL    HW2 5547   6.306   2.181   0.516
 1550SOL     OW 5548   2.449   5.710   2.512
 1550SOL    HW1 5549   2.411   5.646   2.579
 1550SOL    HW2 5550   2.429   5.678   2.419
 1551SOL     OW 5551   0.710   3.709   1.120
 1551SOL    HW1 5552   0.615   3.729   1.144
 1551SOL    HW2 5553   0.713   3.642   1.047
 1552SOL     OW 5554   0.798   6.676   1.475
 1552SOL    HW1 5555   0.869   6.674   1.405
 1552SOL    HW2 5556   0.840   6.676   1.566
 1553SOL     OW 5557   5.699   1.647   6.147
 1553SOL    HW1 5558   5.792   1.623   6.178
 1553SOL    HW2 5559   5.659   1.714   6.210
 1554SOL     OW 5560   2.378   1.994   1.279
 1554SOL    HW1 5561   2.353   2.060   1.351
 1554SOL    HW2 5562   2.458   1.942   1.308
 1555SOL     OW 5563   3.650   0.755   6.699
 1555SOL    HW1 5564   3.712   0.678   6.680
 1555SOL    HW2 5565   3.565   0.743   6.648
 1556SOL     OW 5566   4.197   2.022   6.746
 1556SOL    HW1 5567   4.100   2.004   6.762
 1556SOL    HW2 5568   4.241   1.939   6.712
 1557SOL     OW 5569   1.726   3.449   0.675
 1557SOL    HW1 5570   1.716   3.544   0.643
 1557SOL    HW2 5571   1.658   3.431   0.746
 1558SOL     OW 5572   5.131   2.976   6.357
 1558SOL    HW1 5573   5.097   2.943   6.445
 1558SOL    HW2 5574   5.062   2.958   6.286
 1559SOL     OW 5575   3.505   5.831   3.016
 1559SOL    HW1 5576   3.575   5.853   2.948
 1559SOL    HW2 5577   3.519   5.739   3.051
 1560SOL     OW 5578   3.785   2.421   1.288
 1560SOL    HW1 5579   3.752   2.373   1.369
 1560SOL    HW2 5580   3.786   2.358   1.210
 1561SOL     OW 5581   6.125   6.544   1.116
 1561SOL    HW1 5582   6.082   6.561   1.028
 1561SOL    HW2 5583   6.133   6.445   1.131
 1562SOL     OW 5584   3.315   0.620   2.561
 1562SOL    HW1 5585   3.242   0.593   2.498
 1562SOL    HW2 5586   3.295   0.585   2.652
 1563SOL     OW 5587   2.374   2.021   3.839
 1563SOL    HW1 5588   2.402   1.972   3.921
 1563SOL    HW2 5589   2.437   1.999   3.764
 1564SOL     OW 5590   0.549   0.943   2.909
 1564SOL    HW1 5591   0.530   0.946   3.006
 1564SOL    HW2 5592   0.558   0.847   2.880
 1565SOL     OW 5593   4.041   1.445   4.661
 1565SOL    HW1 5594   4.084   1.356   4.647
 1565SOL    HW2 5595   3.997   1.475   4.577
 1566SOL     OW 5596   5.940   4.226   3.799
 1566SOL    HW1 5597   5.920   4.304   3.859
 1566SOL    HW2 5598   5.941   4.257   3.704
 1567SOL     OW 5599   5.271   0.436   4.997
 1567SOL    HW1 5600   5.218   0.403   5.076
 1567SOL    HW2 5601   5.227   0.518   4.960
 1568SOL     OW 5602   2.983   4.810   1.425
 1568SOL    HW1 5603   2.980   4.732   1.487
 1568SOL    HW2 5604   2.891   4.842   1.405
 1569SOL     OW 5605   3.068   0.923   2.775
 1569SOL    HW1 5606   3.018   0.999   2.815
 1569SOL    HW2 5607   3.056   0.924   2.675
 1570SOL     OW 5608   2.530   5.999   6.205
 1570SOL    HW1 5609   2.626   5.972   6.210
 1570SOL    HW2 5610   2.477   5.925   6.165
 1571SOL     OW 5611   6.980   3.717   4.055
 1571SOL    HW1 5612   6.922   3.668   4.120
 1571SOL    HW2 5613   6.944   3.705   3.962
 1572SOL     OW 5614   2.987   5.588   2.726
 1572SOL    HW1 5615   3.072   5.563   2.680
 1572SOL    HW2 5616   2.911   5.582   2.661
 1573SOL     OW 5617   5.138   5.883   0.192
 1573SOL    HW1 5618   5.226   5.879   0.239
 1573SOL    HW2 5619   5.150   5.853   0.097
 1574SOL     OW 5620   0.822   4.501   2.973
 1574SOL    HW1 5621   0.742   4.498   3.033
 1574SOL    HW2 5622   0.904   4.514   3.028
 1575SOL     OW 5623   6.895   2.783   0.053
 1575SOL    HW1 5624   6.918   2.726   6.995
 1575SOL    HW2 5625   6.866   2.725   0.129
 1576SOL     OW 5626   1.974   6.089   1.470
 1576SOL    HW1 5627   2.042   6.087   1.544
 1576SOL    HW2 5628   1.888   6.125   1.506
 1577SOL     OW 5629   4.038   5.675   4.342
 1577SOL    HW1 5630   3.973   5.617   4.293
 1577SOL    HW2 5631   4.128   5.668   4.300
 1578SOL     OW 5632   5.035   1.247   1.953
 1578SOL    HW1 5633   5.087   1.191   1.888
 1578SOL    HW2 5634   5.098   1.312   1.997
 1579SOL     OW 5635   1.524   2.564   2.095
 1579SOL    HW1 5636   1.624   2.563   2.099
 1579SOL    HW2 5637   1.493   2.650   2.055
 1580SOL     OW 5638   2.960   3.795   2.770
 1580SOL    HW1 5639   2.887   3.726   2.774
 1580SOL    HW2 5640   3.004   3.803   2.859
 1581SOL     OW 5641   6.249   4.462   5.392
 1581SOL    HW1 5642   6.300   4.548   5.387
 1581SOL    HW2 5643   6.194   4.450   5.309
 1582SOL     OW 5644   4.568   5.814   5.076
 1582SOL    HW1 5645   4.654   5.771   5.101
 1582SOL    HW2 5646   4.584   5.910   5.053
 1583SOL     OW 5647   1.226   5.541   5.188
 1583SOL    HW1 5648   1.326   5.536   5.184
 1583SOL    HW2 5649   1.187   5.481   5.118
 1584SOL     OW 5650   6.827   3.872   0.339
 1584SOL    HW1 5651   6.746   3.857   0.395
 1584SOL    HW2 5652   6.832   3.968   0.312
 1585SOL     OW 5653   4.190   6.698   3.621
 1585SOL    HW1 5654   4.180   6.738   3.712
 1585SOL    HW2 5655   4.139   6.753   3.555
 1586SOL     OW 5656   3.636   6.160   3.248
 1586SOL    HW1 5657   3.675   6.192   3.161
 1586SOL    HW2 5658   3.694   6.191   3.323
 1587SOL     OW 5659   2.552   6.359   6.466
 1587SOL    HW1 5660   2.613   6.356   6.545
 1587SOL    HW2 5661   2.457   6.366   6.497
 1588SOL     OW 5662   6.580   1.752   3.833
 1588SOL    HW1 5663   6.495   1.758   3.886
 1588SOL    HW2 5664   6.652   1.715   3.891
 1589SOL     OW 5665   6.461   4.235   3.951
 1589SOL    HW1 5666   6.361   4.241   3.945
 1589SOL    HW2 5667   6.487   4.194   4.038
 1590SOL     OW 5668   6.752   1.830   3.610
 1590SOL    HW1 5669   6.800   1.750   3.575
 1590SOL    HW2 5670   6.690   1.802   3.684
 1591SOL     OW 5671   1.576   6.451   1.254
 1591SOL    HW1 5672   1.654   6.491   1.205
 1591SOL    HW2 5673   1.494   6.458   1.196
 1592SOL     OW 5674   0.269   3.564   6.336
 1592SOL    HW1 5675   0.250   3.653   6.378
 1592SOL    HW2 5676   0.360   3.565   6.297
 1593SOL     OW 5677   3.794   6.748   6.893
 1593SOL    HW1 5678   3.773   6.810   6.968
 1593SOL    HW2 5679   3.709   6.717   6.850
 1594SOL     OW 5680   5.859   0.937   2.596
 1594SOL    HW1 5681   5.824   0.945   2.690
 1594SOL    HW2 5682   5.816   0.858   2.551
 1595SOL     OW 5683   0.553   3.445   0.010
 1595SOL    HW1 5684   0.598   3.528   6.997
 1595SOL    HW2 5685   0.543   3.380   6.955
 1596SOL     OW 5686   4.793   4.835   3.085
 1596SOL    HW1 5687   4.787   4.891   3.167
 1596SOL    HW2 5688   4.888   4.833   3.053
 1597SOL     OW 5689   3.961   5.992   6.923
 1597SOL    HW1 5690   3.979   5.926   6.996
 1597SOL    HW2 5691   3.881   5.963   6.870
 1598SOL     OW 5692   0.997   4.712   6.304
 1598SOL    HW1 5693   1.040   4.654   6.235
 1598SOL    HW2 5694   0.949   4.656   6.371
 1599SOL     OW 5695   4.346   5.142   3.010
 1599SOL    HW1 5696   4.412   5.214   2.991
 1599SOL    HW2 5697   4.290   5.125   2.928
 1600SOL     OW 5698   4.052   0.484   2.003
 1600SOL    HW1 5699   4.012   0.498   2.093
 1600SOL    HW2 5700   3.999   0.416   1.953
 1601SOL     OW 5701   6.384   0.882   4.829
 1601SOL    HW1 5702   6.368   0.829   4.912
 1601SOL    HW2 5703   6.451   0.954   4.847
 1602SOL     OW 5704   4.136   5.998   4.151
 1602SOL    HW1 5705   4.101   6.000   4.245
 1602SOL    HW2 5706   4.149   6.092   4.119
 1603SOL     OW 5707   2.931   4.794   2.993
 1603SOL    HW1 5708   2.853   4.761   2.940
 1603SOL    HW2 5709   2.926   4.759   3.086
 1604SOL     OW 5710   4.419   5.118   2.555
 1604SOL    HW1 5711   4.388   5.210   2.533
 1604SOL    HW2 5712   4.513   5.121   2.589
 1605SOL     OW 5713   4.852   5.006   0.781
 1605SOL    HW1 5714   4.896   4.968   0.699
 1605SOL    HW2 5715   4.922   5.048   0.840
 1606SOL     OW 5716   3.060   6.218   4.395
 1606SOL    HW1 5717   3.155   6.196   4.419
 1606SOL    HW2 5718   3.002   6.138   4.412
 1607SOL     OW 5719   4.506   5.170   3.484
 1607SOL    HW1 5720   4.561   5.253   3.492
 1607SOL    HW2 5721   4.430   5.187   3.420
 1608SOL     OW 5722   5.213   1.967   3.483
 1608SOL    HW1 5723   5.222   1.878   3.438
 1608SOL    HW2 5724   5.241   1.959   3.579
 1609SOL     OW 5725   2.579   6.773   1.250
 1609SOL    HW1 5726   2.525   6.727   1.320
 1609SOL    HW2 5727   2.667   6.800   1.289
 1610SOL     OW 5728   5.411   0.150   1.173
 1610SOL    HW1 5729   5.392   0.158   1.075
 1610SOL    HW2 5730   5.372   0.065   1.208
 1611SOL     OW 5731   1.433   4.571   0.189
 1611SOL    HW1 5732   1.415   4.642   0.122
 1611SOL    HW2 5733   1.519   4.591   0.237
 1612SOL     OW 5734   4.760   0.431   2.450
 1612SOL    HW1 5735   4.702   0.392   2.378
 1612SOL    HW2 5736   4.852   0.447   2.414
 1613SOL     OW 5737   6.555   5.317   2.367
 1613SOL    HW1 5738   6.521   5.410   2.353
 1613SOL    HW2 5739   6.481   5.261   2.405
 1614SOL     OW 5740   6.338   1.558   6.059
 1614SOL    HW1 5741   6.282   1.607   6.126
 1614SOL    HW2 5742   6.434   1.579   6.074
 1615SOL     OW 5743   0.302   4.009   6.254
 1615SOL    HW1 5744   0.267   4.102   6.240
 1615SOL    HW2 5745   0.229   3.952   6.292
 1616SOL     OW 5746   0.875   0.394   3.686
 1616SOL    HW1 5747   0.782   0.428   3.699
 1616SOL    HW2 5748   0.880   0.298   3.715
 1617SOL     OW 5749   6.012   6.268   3.419
 1617SOL    HW1 5750   6.028   6.181   3.373
 1617SOL    HW2 5751   6.039   6.343   3.358
 1618SOL     OW 5752   3.433   5.499   3.424
 1618SOL    HW1 5753   3.348   5.522   3.377
 1618SOL    HW2 5754   3.482   5.583   3.447
 1619SOL     OW 5755   0.865   4.155   0.245
 1619SOL    HW1 5756   0.939   4.182   0.306
 1619SOL    HW2 5757   0.864   4.215   0.165
 1620SOL     OW 5758   3.517   5.751   4.372
 1620SOL    HW1 5759   3.599   5.787   4.327
 1620SOL    HW2 5760   3.543   5.695   4.450
 1621SOL     OW 5761   4.980   5.761   0.672
 1621SOL    HW1 5762   4.987   5.669   0.711
 1621SOL    HW2 5763   4.888   5.774   0.633
 1622SOL     OW 5764   6.719   4.348   4.729
 1622SOL    HW1 5765   6.818   4.361   4.737
 1622SOL    HW2 5766   6.683   4.410   4.659
 1623SOL     OW 5767   0.180   1.546   3.212
 1623SOL    HW1 5768   0.121   1.615   3.255
 1623SOL    HW2 5769   0.276   1.572   3.225
 1624SOL     OW 5770   3.869   3.135   0.663
 1624SOL    HW1 5771   3.771   3.147   0.679
 1624SOL    HW2 5772   3.889   3.141   0.565
 1625SOL     OW 5773   0.631   6.888   1.241
 1625SOL    HW1 5774   0.697   6.902   1.167
 1625SOL    HW2 5775   0.580   6.803   1.224
 1626SOL     OW 5776   2.595   1.917   1.674
 1626SOL    HW1 5777   2.611   1.842   1.610
 1626SOL    HW2 5778   2.681   1.940   1.721
 1627SOL     OW 5779   3.634   2.078   5.771
 1627SOL    HW1 5780   3.567   2.103   5.700
 1627SOL    HW2 5781   3.589   2.080   5.860
 1628SOL     OW 5782   5.450   6.660   1.318
 1628SOL    HW1 5783   5.497   6.652   1.405
 1628SOL    HW2 5784   5.512   6.633   1.244
 1629SOL     OW 5785   1.715   0.127   3.613
 1629SOL    HW1 5786   1.791   0.069   3.643
 1629SOL    HW2 5787   1.639   0.070   3.582
 1630SOL     OW 5788   0.666   3.641   6.279
 1630SOL    HW1 5789   0.711   3.569   6.332
 1630SOL    HW2 5790   0.594   3.601   6.223
 1631SOL     OW 5791   6.520   3.607   0.260
 1631SOL    HW1 5792   6.510   3.511   0.232
 1631SOL    HW2 5793   6.475   3.666   0.193
 1632SOL     OW 5794   6.708   5.781   2.481
 1632SOL    HW1 5795   6.696   5.771   2.382
 1632SOL    HW2 5796   6.751   5.869   2.501
 1633SOL     OW 5797   5.629   3.740   5.093
 1633SOL    HW1 5798   5.561   3.802   5.130
 1633SOL    HW2 5799   5.689   3.707   5.166
 1634SOL     OW 5800   6.578   1.749   5.376
 1634SOL    HW1 5801   6.518   1.670   5.386
 1634SOL    HW2 5802   6.571   1.786   5.283
 1635SOL     OW 5803   3.384   6.209   3.321
 1635SOL    HW1 5804   3.472   6.218   3.275
 1635SOL    HW2 5805   3.337   6.128   3.287
 1636SOL     OW 5806   6.415   6.319   1.295
 1636SOL    HW1 5807   6.334   6.276   1.254
 1636SOL    HW2 5808   6.448   6.262   1.370
 1637SOL     OW 5809   1.068   0.875   3.034
 1637SOL    HW1 5810   0.997   0.940   3.006
 1637SOL    HW2 5811   1.028   0.783   3.040
 1638SOL     OW 5812   5.889   2.794   2.007
 1638SOL    HW1 5813   5.922   2.862   1.942
 1638SOL    HW2 5814   5.839   2.722   1.959
 1639SOL     OW 5815   5.183   2.695   2.189
 1639SOL    HW1 5816   5.211   2.784   2.225
 1639SOL    HW2 5817   5.181   2.628   2.263
 1640SOL     OW 5818   6.046   0.124   6.584
 1640SOL    HW1 5819   5.950   0.111   6.610
 1640SOL    HW2 5820   6.058   0.216   6.547
 1641SOL     OW 5821   6.167   2.236   2.934
 1641SOL    HW1 5822   6.082   2.288   2.941
 1641SOL    HW2 5823   6.194   2.204   3.025
 1642SOL     OW 5824   6.899   3.032   6.615
 1642SOL    HW1 5825   6.812   3.034   6.566
 1642SOL    HW2 5826   6.968   3.079   6.561
 1643SOL     OW 5827   2.295   5.749   3.649
 1643SOL    HW1 5828   2.376   5.714   3.602
 1643SOL    HW2 5829   2.321   5.825   3.708
 1644SOL     OW 5830   6.199   2.391   1.854
 1644SOL    HW1 5831   6.131   2.459   1.881
 1644SOL    HW2 5832   6.154   2.315   1.807
 1645SOL     OW 5833   2.433   0.303   5.759
 1645SOL    HW1 5834   2.425   0.387   5.707
 1645SOL    HW2 5835   2.528   0.289   5.788
 1646SOL     OW 5836   1.338   4.774   0.466
 1646SOL    HW1 5837   1.312   4.863   0.504
 1646SOL    HW2 5838   1.413   4.736   0.520
 1647SOL     OW 5839   5.221   3.040   4.280
 1647SOL    HW1 5840   5.206   2.960   4.338
 1647SOL    HW2 5841   5.178   3.026   4.191
 1648SOL     OW 5842   5.525   6.284   1.388
 1648SOL    HW1 5843   5.555   6.203   1.336
 1648SOL    HW2 5844   5.429   6.302   1.369
 1649SOL     OW 5845   3.762   1.405   3.084
 1649SOL    HW1 5846   3.821   1.424   3.006
 1649SOL    HW2 5847   3.813   1.351   3.152
 1650SOL     OW 5848   3.065   4.240   6.117
 1650SOL    HW1 5849   3.066   4.330   6.074
 1650SOL    HW2 5850   2.970   4.210   6.129
 1651SOL     OW 5851   1.032   2.680   4.041
 1651SOL    HW1 5852   1.034   2.745   3.964
 1651SOL    HW2 5853   0.941   2.682   4.083
 1652SOL     OW 5854   0.568   3.264   1.519
 1652SOL    HW1 5855   0.515   3.340   1.557
 1652SOL    HW2 5856   0.648   3.300   1.472
 1653SOL     OW 5857   0.224   5.048   2.575
 1653SOL    HW1 5858   0.184   5.140   2.573
 1653SOL    HW2 5859   0.188   4.994   2.500
 1654SOL     OW 5860   0.310   3.138   2.305
 1654SOL    HW1 5861   0.330   3.098   2.215
 1654SOL    HW2 5862   0.336   3.073   2.376
 1655SOL     OW 5863   0.014   0.369   4.973
 1655SOL    HW1 5864   6.988   0.389   5.060
 1655SOL    HW2 5865   0.073   0.289   4.984
 1656SOL     OW 5866   1.958   4.318   3.123
 1656SOL    HW1 5867   1.945   4.221   3.139
 1656SOL    HW2 5868   1.915   4.370   3.197
 1657SOL     OW 5869   0.245   6.782   5.741
 1657SOL    HW1 5870   0.195   6.699   5.763
 1657SOL    HW2 5871   0.318   6.796   5.808
 1658SOL     OW 5872   5.557   6.456   6.235
 1658SOL    HW1 5873   5.616   6.422   6.162
 1658SOL    HW2 5874   5.480   6.505   6.196
 1659SOL     OW 5875   4.137   6.679   6.213
 1659SOL    HW1 5876   4.082   6.666   6.296
 1659SOL    HW2 5877   4.220   6.622   6.219
 1660SOL     OW 5878   2.276   0.969   1.870
 1660SOL    HW1 5879   2.342   0.914   1.921
 1660SOL    HW2 5880   2.324   1.026   1.803
 1661SOL     OW 5881   4.981   4.251   2.790
 1661SOL    HW1 5882   4.897   4.252   2.736
 1661SOL    HW2 5883   4.959   4.262   2.887
 1662SOL     OW 5884   0.447   1.978   3.906
 1662SOL    HW1 5885   0.349   1.959   3.898
 1662SOL    HW2 5886   0.498   1.894   3.889
 1663SOL     OW 5887   5.407   4.762   0.687
 1663SOL    HW1 5888   5.368   4.833   0.746
 1663SOL    HW2 5889   5.506   4.775   0.681
 1664SOL     OW 5890   0.901   0.190   6.358
 1664SOL    HW1 5891   0.857   0.228   6.439
 1664SOL    HW2 5892   0.978   0.133   6.386
 1665SOL     OW 5893   3.009   4.205   0.077
 1665SOL    HW1 5894   3.105   4.186   0.097
 1665SOL    HW2 5895   2.964   4.239   0.159
 1666SOL     OW 5896   5.075   6.680   5.934
 1666SOL    HW1 5897   4.985   6.685   5.891
 1666SOL    HW2 5898   5.075   6.736   6.017
 1667SOL     OW 5899   0.094   6.551   1.038
 1667SOL    HW1 5900   0.008   6.586   1.002
 1667SOL    HW2 5901   0.087   6.453   1.053
 1668SOL     OW 5902   5.936   3.938   2.347
 1668SOL    HW1 5903   5.914   4.014   2.286
 1668SOL    HW2 5904   5.876   3.941   2.427
 1669SOL     OW 5905   6.811   3.644   5.386
 1669SOL    HW1 5906   6.889   3.591   5.421
 1669SOL    HW2 5907   6.741   3.650   5.457
 1670SOL     OW 5908   2.509   4.632   5.917
 1670SOL    HW1 5909   2.484   4.672   6.005
 1670SOL    HW2 5910   2.426   4.610   5.865
 1671SOL     OW 5911   6.111   2.349   1.030
 1671SOL    HW1 5912   6.132   2.446   1.041
 1671SOL    HW2 5913   6.155   2.297   1.103
 1672SOL     OW 5914   0.586   2.690   0.846
 1672SOL    HW1 5915   0.491   2.684   0.816
 1672SOL    HW2 5916   0.630   2.767   0.801
 1673SOL     OW 5917   1.833   0.221   4.316
 1673SOL    HW1 5918   1.889   0.246   4.395
 1673SOL    HW2 5919   1.748   0.274   4.317
 1674SOL     OW 5920   4.868   2.006   2.794
 1674SOL    HW1 5921   4.783   2.050   2.824
 1674SOL    HW2 5922   4.906   1.953   2.869
 1675SOL     OW 5923   5.087   0.371   1.652
 1675SOL    HW1 5924   4.992   0.399   1.638
 1675SOL    HW2 5925   5.115   0.309   1.578
 1676SOL     OW 5926   1.006   2.408   2.737
 1676SOL    HW1 5927   0.916   2.366   2.731
 1676SOL    HW2 5928   1.034   2.439   2.646
 1677SOL     OW 5929   3.520   2.881   3.498
 1677SOL    HW1 5930   3.451   2.923   3.438
 1677SOL    HW2 5931   3.609   2.883   3.453
 1678SOL     OW 5932   1.405   0.303   0.812
 1678SOL    HW1 5933   1.480   0.329   0.751
 1678SOL    HW2 5934   1.334   0.257   0.759
 1679SOL     OW 5935   0.223   2.066   6.661
 1679SOL    HW1 5936   0.314   2.023   6.655
 1679SOL    HW2 5937   0.231   2.164   6.643
 1680SOL     OW 5938   5.568   2.714   3.361
 1680SOL    HW1 5939   5.475   2.706   3.397
 1680SOL    HW2 5940   5.620   2.631   3.382
 1681SOL     OW 5941   2.696   6.483   4.631
 1681SOL    HW1 5942   2.682   6.505   4.728
 1681SOL    HW2 5943   2.652   6.554   4.575
 1682SOL     OW 5944   3.676   0.304   3.934
 1682SOL    HW1 5945   3.669   0.316   4.033
 1682SOL    HW2 5946   3.598   0.348   3.890
 1683SOL     OW 5947   6.242   3.945   3.306
 1683SOL    HW1 5948   6.318   3.881   3.303
 1683SOL    HW2 5949   6.156   3.895   3.317
 1684SOL     OW 5950   2.362   5.150   1.979
 1684SOL    HW1 5951   2.436   5.199   1.932
 1684SOL    HW2 5952   2.358   5.056   1.946
 1685SOL     OW 5953   0.056   0.984   5.710
 1685SOL    HW1 5954   0.022   0.956   5.620
 1685SOL    HW2 5955   0.134   0.926   5.735
 1686SOL     OW 5956   4.731   5.174   2.591
 1686SOL    HW1 5957   4.692   5.141   2.677
 1686SOL    HW2 5958   4.727   5.102   2.522
 1687SOL     OW 5959   5.039   4.605   1.288
 1687SOL    HW1 5960   5.044   4.514   1.248
 1687SOL    HW2 5961   4.949   4.618   1.330
 1688SOL     OW 5962   1.081   0.915   2.411
 1688SOL    HW1 5963   0.983   0.916   2.395
 1688SOL    HW2 5964   1.128   0.882   2.329
 1689SOL     OW 5965   4.194   0.511   1.609
 1689SOL    HW1 5966   4.287   0.478   1.593
 1689SOL    HW2 5967   4.144   0.515   1.522
 1690SOL     OW 5968   0.191   5.340   3.482
 1690SOL    HW1 5969   0.270   5.389   3.446
 1690SOL    HW2 5970   0.133   5.310   3.406
 1691SOL     OW 5971   4.242   2.749   5.384
 1691SOL    HW1 5972   4.167   2.770   5.446
 1691SOL    HW2 5973   4.214   2.679   5.319
 1692SOL     OW 5974   4.853   4.695   1.599
 1692SOL    HW1 5975   4.817   4.779   1.639
 1692SOL    HW2 5976   4.949   4.686   1.621
 1693SOL     OW 5977   5.849   6.820   5.874
 1693SOL    HW1 5978   5.930   6.878   5.863
 1693SOL    HW2 5979   5.875   6.724   5.861
 1694SOL     OW 5980   4.621   1.764   6.313
 1694SOL    HW1 5981   4.642   1.789   6.218
 1694SOL    HW2 5982   4.637   1.842   6.373
 1695SOL     OW 5983   3.359   0.483   6.727
 1695SOL    HW1 5984   3.442   0.478   6.783
 1695SOL    HW2 5985   3.385   0.490   6.630
 1696SOL     OW 5986   5.039   6.128   0.675
 1696SOL    HW1 5987   5.025   6.153   0.771
 1696SOL    HW2 5988   5.052   6.211   0.620
 1697SOL     OW 5989   5.016   3.000   1.996
 1697SOL    HW1 5990   5.032   2.918   1.941
 1697SOL    HW2 5991   4.917   3.015   2.005
 1698SOL     OW 5992   4.355   0.812   1.662
 1698SOL    HW1 5993   4.270   0.842   1.618
 1698SOL    HW2 5994   4.351   0.833   1.760
 1699SOL     OW 5995   2.165   0.093   0.178
 1699SOL    HW1 5996   2.222   0.034   0.121
 1699SOL    HW2 5997   2.188   0.078   0.274
 1700SOL     OW 5998   5.169   2.648   2.713
 1700SOL    HW1 5999   5.187   2.552   2.691
 1700SOL    HW2 6000   5.244   2.704   2.678
 1701SOL     OW 6001   6.961   6.211   5.337
 1701SOL    HW1 6002   6.908   6.162   5.406
 1701SOL    HW2 6003   7.008   6.288   5.379
 1702SOL     OW 6004   2.531   2.213   6.943
 1702SOL    HW1 6005   2.615   2.268   6.939
 1702SOL    HW2 6006   2.452   2.273   6.954
 1703SOL     OW 6007   1.365   1.758   1.816
 1703SOL    HW1 6008   1.379   1.660   1.825
 1703SOL    HW2 6009   1.271   1.781   1.841
 1704SOL     OW 6010   3.530   2.213   0.862
 1704SOL    HW1 6011   3.472   2.294   0.847
 1704SOL    HW2 6012   3.501   2.166   0.945
 1705SOL     OW 6013   4.373   2.730   0.735
 1705SOL    HW1 6014   4.366   2.652   0.672
 1705SOL    HW2 6015   4.363   2.698   0.829
 1706SOL     OW 6016   5.754   2.598   6.309
 1706SOL    HW1 6017   5.715   2.554   6.228
 1706SOL    HW2 6018   5.840   2.554   6.333
 1707SOL     OW 6019   4.486   1.775   2.112
 1707SOL    HW1 6020   4.552   1.730   2.052
 1707SOL    HW2 6021   4.434   1.707   2.163
 1708SOL     OW 6022   3.157   4.871   2.348
 1708SOL    HW1 6023   3.107   4.833   2.270
 1708SOL    HW2 6024   3.249   4.832   2.352
 1709SOL     OW 6025   4.961   5.506   0.795
 1709SOL    HW1 6026   4.884   5.442   0.795
 1709SOL    HW2 6027   4.984   5.531   0.889
 1710SOL     OW 6028   4.841   4.657   2.819
 1710SOL    HW1 6029   4.753   4.641   2.773
 1710SOL    HW2 6030   4.860   4.755   2.821
 1711SOL     OW 6031   3.842   4.497   6.876
 1711SOL    HW1 6032   3.791   4.562   6.932
 1711SOL    HW2 6033   3.780   4.427   6.840
 1712SOL     OW 6034   0.919   1.741   1.921
 1712SOL    HW1 6035   0.824   1.730   1.891
 1712SOL    HW2 6036   0.971   1.787   1.849
 1713SOL     OW 6037   3.606   1.191   2.956
 1713SOL    HW1 6038   3.647   1.259   3.017
 1713SOL    HW2 6039   3.529   1.147   3.003
 1714SOL     OW 6040   3.038   3.666   0.496
 1714SOL    HW1 6041   3.103   3.656   0.421
 1714SOL    HW2 6042   3.020   3.576   0.536
 1715SOL     OW 6043   2.406   6.455   2.062
 1715SOL    HW1 6044   2.398   6.538   2.117
 1715SOL    HW2 6045   2.374   6.377   2.115
 1716SOL     OW 6046   4.274   1.185   3.304
 1716SOL    HW1 6047   4.367   1.148   3.305
 1716SOL    HW2 6048   4.275   1.276   3.261
 1717SOL     OW 6049   2.951   6.299   4.903
 1717SOL    HW1 6050   2.936   6.201   4.896
 1717SOL    HW2 6051   2.949   6.339   4.811
 1718SOL     OW 6052   1.568   2.833   1.408
 1718SOL    HW1 6053   1.597   2.859   1.316
 1718SOL    HW2 6054   1.614   2.748   1.435
 1719SOL     OW 6055   0.777   5.537   2.681
 1719SOL    HW1 6056   0.848   5.513   2.615
 1719SOL    HW2 6057   0.787   5.633   2.708
 1720SOL     OW 6058   0.654   3.442   5.305
 1720SOL    HW1 6059   0.625   3.347   5.322
 1720SOL    HW2 6060   0.745   3.456   5.342
 1721SOL     OW 6061   1.863   2.943   0.336
 1721SOL    HW1 6062   1.785   2.885   0.356
 1721SOL    HW2 6063   1.855   3.029   0.387
 1722SOL     OW 6064   2.745   2.397   4.179
 1722SOL    HW1 6065   2.834   2.364   4.211
 1722SOL    HW2 6066   2.682   2.401   4.256
 1723SOL     OW 6067   5.780   4.521   1.030
 1723SOL    HW1 6068   5.861   4.466   1.012
 1723SOL    HW2 6069   5.700   4.478   0.988
 1724SOL     OW 6070   5.663   2.630   0.976
 1724SOL    HW1 6071   5.762   2.624   0.992
 1724SOL    HW2 6072   5.646   2.628   0.878
 1725SOL     OW 6073   1.538   6.370   5.821
 1725SOL    HW1 6074   1.563   6.431   5.896
 1725SOL    HW2 6075   1.526   6.277   5.856
 1726SOL     OW 6076   5.348   4.200   3.051
 1726SOL    HW1 6077   5.303   4.131   2.994
 1726SOL    HW2 6078   5.348   4.287   3.002
 1727SOL     OW 6079   3.371   4.020   3.201
 1727SOL    HW1 6080   3.383   4.085   3.276
 1727SOL    HW2 6081   3.362   3.928   3.238
 1728SOL     OW 6082   5.369   2.761   4.099
 1728SOL    HW1 6083   5.423   2.836   4.137
 1728SOL    HW2 6084   5.315   2.717   4.171
 1729SOL     OW 6085   1.281   3.047   3.141
 1729SOL    HW1 6086   1.352   2.986   3.107
 1729SOL    HW2 6087   1.276   3.128   3.082
 1730SOL     OW 6088   1.863   5.553   4.219
 1730SOL    HW1 6089   1.818   5.465   4.208
 1730SOL    HW2 6090   1.883   5.569   4.315
 1731SOL     OW 6091   5.929   5.163   3.734
 1731SOL    HW1 6092   5.885   5.206   3.813
 1731SOL    HW2 6093   5.865   5.163   3.657
 1732SOL     OW 6094   2.492   3.406   5.572
 1732SOL    HW1 6095   2.504   3.312   5.541
 1732SOL    HW2 6096   2.403   3.441   5.543
 1733SOL     OW 6097   1.930   3.180   5.875
 1733SOL    HW1 6098   1.993   3.166   5.799
 1733SOL    HW2 6099   1.942   3.272   5.912
 1734SOL     OW 6100   6.624   3.138   0.944
 1734SOL    HW1 6101   6.575   3.149   0.858
 1734SOL    HW2 6102   6.715   3.101   0.926
 1735SOL     OW 6103   3.713   5.230   6.673
 1735SOL    HW1 6104   3.740   5.308   6.618
 1735SOL    HW2 6105   3.638   5.181   6.627
 1736SOL     OW 6106   4.880   2.234   7.014
 1736SOL    HW1 6107   4.799   2.199   6.968
 1736SOL    HW2 6108   4.862   2.246   0.090
 1737SOL     OW 6109   3.831   1.313   5.740
 1737SOL    HW1 6110   3.762   1.321   5.668
 1737SOL    HW2 6111   3.877   1.225   5.733
 1738SOL     OW 6112   1.861   2.995   3.741
 1738SOL    HW1 6113   1.867   2.948   3.654
 1738SOL    HW2 6114   1.769   3.033   3.752
 1739SOL     OW 6115   5.499   0.351   3.217
 1739SOL    HW1 6116   5.555   0.400   3.283
 1739SOL    HW2 6117   5.502   0.253   3.238
 1740SOL     OW 6118   6.068   3.208   4.744
 1740SOL    HW1 6119   6.003   3.132   4.744
 1740SOL    HW2 6120   6.070   3.251   4.834
 1741SOL     OW 6121   0.067   1.943   4.965
 1741SOL    HW1 6122   0.056   1.898   5.054
 1741SOL    HW2 6123   0.125   1.886   4.907
 1742SOL     OW 6124   6.301   6.572   6.645
 1742SOL    HW1 6125   6.347   6.486   6.667
 1742SOL    HW2 6126   6.362   6.629   6.589
 1743SOL     OW 6127   1.331   1.766   2.167
 1743SOL    HW1 6128   1.316   1.864   2.176
 1743SOL    HW2 6129   1.421   1.742   2.201
 1744SOL     OW 6130   3.539   1.886   5.335
 1744SOL    HW1 6131   3.496   1.956   5.278
 1744SOL    HW2 6132   3.620   1.850   5.289
 1745SOL     OW 6133   6.034   6.689   1.353
 1745SOL    HW1 6134   5.978   6.614   1.388
 1745SOL    HW2 6135   6.072   6.665   1.264
 1746SOL     OW 6136   2.660   4.550   3.089
 1746SOL    HW1 6137   2.661   4.616   3.014
 1746SOL    HW2 6138   2.578   4.493   3.082
 1747SOL     OW 6139   4.186   0.165   2.908
 1747SOL    HW1 6140   4.184   0.076   2.862
 1747SOL    HW2 6141   4.150   0.155   3.001
 1748SOL     OW 6142   0.149   2.625   4.800
 1748SOL    HW1 6143   0.140   2.667   4.891
 1748SOL    HW2 6144   0.105   2.684   4.732
 1749SOL     OW 6145   0.424   5.259   1.608
 1749SOL    HW1 6146   0.507   5.292   1.653
 1749SOL    HW2 6147   0.419   5.159   1.617
 1750SOL     OW 6148   3.305   0.361   6.987
 1750SOL    HW1 6149   3.399   0.394   6.994
 1750SOL    HW2 6150   3.242   0.436   7.005
 1751SOL     OW 6151   6.036   2.815   4.915
 1751SOL    HW1 6152   6.120   2.783   4.870
 1751SOL    HW2 6153   5.987   2.737   4.953
 1752SOL     OW 6154   6.941   1.165   2.278
 1752SOL    HW1 6155   6.943   1.071   2.244
 1752SOL    HW2 6156   6.863   1.177   2.339
 1753SOL     OW 6157   5.949   1.731   1.380
 1753SOL    HW1 6158   6.001   1.759   1.461
 1753SOL    HW2 6159   5.879   1.799   1.360
 1754SOL     OW 6160   2.974   5.535   3.454
 1754SOL    HW1 6161   2.942   5.585   3.535
 1754SOL    HW2 6162   2.983   5.438   3.476
 1755SOL     OW 6163   6.405   6.577   5.175
 1755SOL    HW1 6164   6.460   6.647   5.130
 1755SOL    HW2 6165   6.308   6.593   5.155
 1756SOL     OW 6166   4.728   5.759   0.565
 1756SOL    HW1 6167   4.630   5.742   0.565
 1756SOL    HW2 6168   4.756   5.791   0.474
 1757SOL     OW 6169   2.674   4.766   5.181
 1757SOL    HW1 6170   2.758   4.743   5.132
 1757SOL    HW2 6171   2.660   4.702   5.256
 1758SOL     OW 6172   1.408   5.830   3.773
 1758SOL    HW1 6173   1.316   5.844   3.737
 1758SOL    HW2 6174   1.422   5.887   3.854
 1759SOL     OW 6175   0.981   6.040   0.123
 1759SOL    HW1 6176   0.894   6.002   0.092
 1759SOL    HW2 6177   1.005   6.119   0.066
 1760SOL     OW 6178   6.796   1.390   4.613
 1760SOL    HW1 6179   6.846   1.358   4.693
 1760SOL    HW2 6180   6.852   1.454   4.562
 1761SOL     OW 6181   5.589   1.144   2.797
 1761SOL    HW1 6182   5.512   1.079   2.801
 1761SOL    HW2 6183   5.588   1.190   2.708
 1762SOL     OW 6184   0.754   1.413   5.615
 1762SOL    HW1 6185   0.783   1.487   5.676
 1762SOL    HW2 6186   0.737   1.449   5.524
 1763SOL     OW 6187   1.469   4.487   3.753
 1763SOL    HW1 6188   1.504   4.501   3.660
 1763SOL    HW2 6189   1.491   4.567   3.809
 1764SOL     OW 6190   1.494   5.949   3.303
 1764SOL    HW1 6191   1.492   6.009   3.223
 1764SOL    HW2 6192   1.415   5.888   3.301
 1765SOL     OW 6193   5.668   3.823   2.121
 1765SOL    HW1 6194   5.630   3.739   2.159
 1765SOL    HW2 6195   5.768   3.818   2.122
 1766SOL     OW 6196   4.374   4.696   3.790
 1766SOL    HW1 6197   4.341   4.660   3.703
 1766SOL    HW2 6198   4.329   4.784   3.808
 1767SOL     OW 6199   0.510   5.123   2.245
 1767SOL    HW1 6200   0.479   5.214   2.273
 1767SOL    HW2 6201   0.514   5.063   2.326
 1768SOL     OW 6202   5.534   4.739   2.078
 1768SOL    HW1 6203   5.512   4.643   2.098
 1768SOL    HW2 6204   5.580   4.744   1.989
 1769SOL     OW 6205   5.652   0.224   0.824
 1769SOL    HW1 6206   5.682   0.310   0.783
 1769SOL    HW2 6207   5.552   0.222   0.827
 1770SOL     OW 6208   1.745   5.093   0.433
 1770SOL    HW1 6209   1.787   5.033   0.501
 1770SOL    HW2 6210   1.816   5.142   0.383
 1771SOL     OW 6211   2.086   2.979   6.008
 1771SOL    HW1 6212   2.108   3.053   6.071
 1771SOL    HW2 6213   2.005   3.003   5.954
 1772SOL     OW 6214   2.123   4.089   2.476
 1772SOL    HW1 6215   2.129   3.991   2.494
 1772SOL    HW2 6216   2.156   4.108   2.383
 1773SOL     OW 6217   2.177   6.128   6.252
 1773SOL    HW1 6218   2.217   6.141   6.162
 1773SOL    HW2 6219   2.246   6.093   6.315
 1774SOL     OW 6220   5.526   5.759   0.907
 1774SOL    HW1 6221   5.556   5.848   0.939
 1774SOL    HW2 6222   5.466   5.770   0.827
 1775SOL     OW 6223   1.975   5.335   0.962
 1775SOL    HW1 6224   2.049   5.314   1.026
 1775SOL    HW2 6225   1.889   5.297   0.997
 1776SOL     OW 6226   4.593   2.837   5.961
 1776SOL    HW1 6227   4.662   2.890   5.912
 1776SOL    HW2 6228   4.588   2.868   6.056
 1777SOL     OW 6229   4.341   6.253   0.417
 1777SOL    HW1 6230   4.398   6.174   0.395
 1777SOL    HW2 6231   4.370   6.291   0.505
 1778SOL     OW 6232   6.322   0.148   4.507
 1778SOL    HW1 6233   6.322   0.060   4.459
 1778SOL    HW2 6234   6.238   0.198   4.483
 1779SOL     OW 6235   5.648   0.293   4.067
 1779SOL    HW1 6236   5.731   0.337   4.103
 1779SOL    HW2 6237   5.579   0.288   4.140
 1780SOL     OW 6238   2.327   5.453   5.533
 1780SOL    HW1 6239   2.400   5.385   5.528
 1780SOL    HW2 6240   2.352   5.524   5.600
 1781SOL     OW 6241   4.417   0.492   5.620
 1781SOL    HW1 6242   4.489   0.560   5.611
 1781SOL    HW2 6243   4.371   0.480   5.532
 1782SOL     OW 6244   5.915   1.800   2.396
 1782SOL    HW1 6245   5.931   1.827   2.301
 1782SOL    HW2 6246   5.899   1.882   2.452
 1783SOL     OW 6247   1.719   3.971   7.005
 1783SOL    HW1 6248   1.706   3.919   6.920
 1783SOL    HW2 6249   1.701   4.068   6.988
 1784SOL     OW 6250   2.870   0.120   1.939
 1784SOL    HW1 6251   2.965   0.107   1.965
 1784SOL    HW2 6252   2.828   0.189   1.998
 1785SOL     OW 6253   1.385   6.553   4.881
 1785SOL    HW1 6254   1.388   6.481   4.950
 1785SOL    HW2 6255   1.309   6.615   4.900
 1786SOL     OW 6256   0.990   6.615   1.284
 1786SOL    HW1 6257   0.990   6.715   1.279
 1786SOL    HW2 6258   1.084   6.583   1.295
 1787SOL     OW 6259   2.031   3.081   5.488
 1787SOL    HW1 6260   2.115   3.059   5.537
 1787SOL    HW2 6261   1.971   3.001   5.487
 1788SOL     OW 6262   4.670   3.389   0.662
 1788SOL    HW1 6263   4.679   3.340   0.575
 1788SOL    HW2 6264   4.611   3.337   0.724
 1789SOL     OW 6265   6.504   3.404   2.441
 1789SOL    HW1 6266   6.600   3.423   2.419
 1789SOL    HW2 6267   6.477   3.317   2.399
 1790SOL     OW 6268   1.478   2.057   4.828
 1790SOL    HW1 6269   1.411   2.117   4.872
 1790SOL    HW2 6270   1.547   2.029   4.896
 1791SOL     OW 6271   4.849   0.606   4.024
 1791SOL    HW1 6272   4.921   0.670   4.050
 1791SOL    HW2 6273   4.789   0.648   3.957
 1792SOL     OW 6274   0.546   2.123   6.794
 1792SOL    HW1 6275   0.469   2.170   6.752
 1792SOL    HW2 6276   0.574   2.045   6.738
 1793SOL     OW 6277   6.617   0.884   5.562
 1793SOL    HW1 6278   6.679   0.817   5.603
 1793SOL    HW2 6279   6.597   0.858   5.468
 1794SOL     OW 6280   0.314   0.827   6.442
 1794SOL    HW1 6281   0.374   0.801   6.517
 1794SOL    HW2 6282   0.233   0.873   6.478
 1795SOL     OW 6283   5.225   4.641   1.081
 1795SOL    HW1 6284   5.301   4.619   1.143
 1795SOL    HW2 6285   5.144   4.663   1.134
 1796SOL     OW 6286   0.003   0.027   0.523
 1796SOL    HW1 6287   0.030   6.960   0.563
 1796SOL    HW2 6288   0.044   0.035   0.432
 1797SOL     OW 6289   2.696   5.410   5.658
 1797SOL    HW1 6290   2.734   5.371   5.742
 1797SOL    HW2 6291   2.767   5.413   5.587
 1798SOL     OW 6292   2.176   3.920   5.342
 1798SOL    HW1 6293   2.151   3.831   5.304
 1798SOL    HW2 6294   2.265   3.948   5.306
 1799SOL     OW 6295   3.253   1.217   1.585
 1799SOL    HW1 6296   3.318   1.278   1.631
 1799SOL    HW2 6297   3.270   1.219   1.487
 1800SOL     OW 6298   6.167   3.016   5.420
 1800SOL    HW1 6299   6.147   3.045   5.514
 1800SOL    HW2 6300   6.204   2.924   5.421
 1801SOL     OW 6301   0.537   0.609   3.229
 1801SOL    HW1 6302   0.619   0.554   3.216
 1801SOL    HW2 6303   0.459   0.549   3.245
 1802SOL     OW 6304   6.539   5.160   4.146
 1802SOL    HW1 6305   6.444   5.166   4.176
 1802SOL    HW2 6306   6.554   5.073   4.098
 1803SOL     OW 6307   0.340   0.396   3.380
 1803SOL    HW1 6308   0.387   0.311   3.401
 1803SOL    HW2 6309   0.279   0.382   3.302
 1804SOL     OW 6310   1.875   2.814   6.387
 1804SOL    HW1 6311   1.839   2.753   6.316
 1804SOL    HW2 6312   1.907   2.899   6.344
 1805SOL     OW 6313   6.526   4.625   0.903
 1805SOL    HW1 6314   6.601   4.650   0.841
 1805SOL    HW2 6315   6.529   4.527   0.922
 1806SOL     OW 6316   6.995   1.116   0.844
 1806SOL    HW1 6317   7.001   1.194   0.907
 1806SOL    HW2 6318   0.063   1.102   0.800
 1807SOL     OW 6319   6.464   2.720   2.817
 1807SOL    HW1 6320   6.407   2.796   2.787
 1807SOL    HW2 6321   6.408   2.638   2.828
 1808SOL     OW 6322   5.521   1.478   6.333
 1808SOL    HW1 6323   5.523   1.543   6.409
 1808SOL    HW2 6324   5.576   1.513   6.258
 1809SOL     OW 6325   5.014   0.130   5.572
 1809SOL    HW1 6326   5.050   0.221   5.552
 1809SOL    HW2 6327   5.005   0.118   5.671
 1810SOL     OW 6328   1.305   0.493   3.941
 1810SOL    HW1 6329   1.323   0.588   3.969
 1810SOL    HW2 6330   1.220   0.490   3.888
 1811SOL     OW 6331   3.598   5.942   1.737
 1811SOL    HW1 6332   3.674   5.889   1.699
 1811SOL    HW2 6333   3.573   6.015   1.672
 1812SOL     OW 6334   4.600   5.873   6.585
 1812SOL    HW1 6335   4.547   5.801   6.541
 1812SOL    HW2 6336   4.601   5.954   6.526
 1813SOL     OW 6337   4.846   3.803   2.192
 1813SOL    HW1 6338   4.841   3.739   2.116
 1813SOL    HW2 6339   4.876   3.756   2.275
 1814SOL     OW 6340   6.526   6.030   0.201
 1814SOL    HW1 6341   6.518   5.932   0.218
 1814SOL    HW2 6342   6.610   6.065   0.243
 1815SOL     OW 6343   5.739   6.230   1.545
 1815SOL    HW1 6344   5.649   6.245   1.504
 1815SOL    HW2 6345   5.730   6.167   1.622
 1816SOL     OW 6346   4.229   4.823   5.388
 1816SOL    HW1 6347   4.156   4.875   5.432
 1816SOL    HW2 6348   4.293   4.886   5.344
 1817SOL     OW 6349   0.291   2.585   3.545
 1817SOL    HW1 6350   0.321   2.676   3.575
 1817SOL    HW2 6351   0.369   2.536   3.506
 1818SOL     OW 6352   2.656   1.217   0.726
 1818SOL    HW1 6353   2.625   1.310   0.742
 1818SOL    HW2 6354   2.669   1.203   0.628
 1819SOL     OW 6355   1.623   4.060   2.606
 1819SOL    HW1 6356   1.566   3.997   2.658
 1819SOL    HW2 6357   1.716   4.025   2.602
 1820SOL     OW 6358   3.278   0.129   4.746
 1820SOL    HW1 6359   3.253   0.152   4.840
 1820SOL    HW2 6360   3.221   0.054   4.713
 1821SOL     OW 6361   3.557   1.870   2.733
 1821SOL    HW1 6362   3.614   1.952   2.721
 1821SOL    HW2 6363   3.463   1.897   2.750
 1822SOL     OW 6364   0.620   3.793   2.962
 1822SOL    HW1 6365   0.627   3.758   3.056
 1822SOL    HW2 6366   0.525   3.791   2.932
 1823SOL     OW 6367   4.282   6.605   2.823
 1823SOL    HW1 6368   4.278   6.631   2.920
 1823SOL    HW2 6369   4.270   6.506   2.815
 1824SOL     OW 6370   4.405   3.086   1.699
 1824SOL    HW1 6371   4.486   3.068   1.754
 1824SOL    HW2 6372   4.433   3.104   1.604
 1825SOL     OW 6373   0.933   3.068   5.760
 1825SOL    HW1 6374   0.967   3.106   5.674
 1825SOL    HW2 6375   0.898   3.142   5.818
 1826SOL     OW 6376   3.461   2.317   1.194
 1826SOL    HW1 6377   3.532   2.250   1.173
 1826SOL    HW2 6378   3.382   2.271   1.234
 1827SOL     OW 6379   5.755   5.027   0.881
 1827SOL    HW1 6380   5.719   5.057   0.969
 1827SOL    HW2 6381   5.741   5.099   0.813
 1828SOL     OW 6382   1.382   4.018   5.020
 1828SOL    HW1 6383   1.478   4.010   5.048
 1828SOL    HW2 6384   1.328   4.048   5.098
 1829SOL     OW 6385   3.872   6.609   2.096
 1829SOL    HW1 6386   3.922   6.583   2.013
 1829SOL    HW2 6387   3.781   6.641   2.070
 1830SOL     OW 6388   4.693   1.126   6.321
 1830SOL    HW1 6389   4.687   1.205   6.382
 1830SOL    HW2 6390   4.674   1.155   6.227
 1831SOL     OW 6391   3.279   4.547   0.675
 1831SOL    HW1 6392   3.289   4.641   0.706
 1831SOL    HW2 6393   3.359   4.521   0.621
 1832SOL     OW 6394   2.536   3.177   6.656
 1832SOL    HW1 6395   2.606   3.248   6.661
 1832SOL    HW2 6396   2.487   3.173   6.743
 1833SOL     OW 6397   5.656   1.244   0.133
 1833SOL    HW1 6398   5.724   1.204   0.072
 1833SOL    HW2 6399   5.702   1.302   0.200
 1834SOL     OW 6400   0.903   3.462   6.007
 1834SOL    HW1 6401   0.896   3.417   6.096
 1834SOL    HW2 6402   0.867   3.555   6.014
 1835SOL     OW 6403   6.942   6.036   1.195
 1835SOL    HW1 6404   6.866   6.096   1.221
 1835SOL    HW2 6405   6.950   5.962   1.263
 1836SOL     OW 6406   5.149   1.918   2.443
 1836SOL    HW1 6407   5.120   1.919   2.347
 1836SOL    HW2 6408   5.228   1.979   2.455
 1837SOL     OW 6409   2.961   2.083   0.035
 1837SOL    HW1 6410   3.010   1.999   0.010
 1837SOL    HW2 6411   2.948   2.085   0.134
 1838SOL     OW 6412   4.721   1.152   1.404
 1838SOL    HW1 6413   4.805   1.152   1.350
 1838SOL    HW2 6414   4.642   1.157   1.344
 1839SOL     OW 6415   6.092   0.396   0.341
 1839SOL    HW1 6416   6.121   0.319   0.398
 1839SOL    HW2 6417   6.141   0.393   0.254
 1840SOL     OW 6418   4.324   6.219   4.486
 1840SOL    HW1 6419   4.272   6.180   4.410
 1840SOL    HW2 6420   4.405   6.163   4.502
 1841SOL     OW 6421   1.116   0.870   1.993
 1841SOL    HW1 6422   1.137   0.959   2.034
 1841SOL    HW2 6423   1.019   0.865   1.971
 1842SOL     OW 6424   0.677   5.010   1.574
 1842SOL    HW1 6425   0.671   5.057   1.486
 1842SOL    HW2 6426   0.663   5.075   1.648
 1843SOL     OW 6427   2.736   0.795   6.976
 1843SOL    HW1 6428   2.639   0.810   6.994
 1843SOL    HW2 6429   2.762   0.702   7.003
 1844SOL     OW 6430   5.544   2.684   6.494
 1844SOL    HW1 6431   5.630   2.654   6.453
 1844SOL    HW2 6432   5.552   2.780   6.520
 1845SOL     OW 6433   0.715   2.241   3.363
 1845SOL    HW1 6434   0.740   2.321   3.417
 1845SOL    HW2 6435   0.662   2.269   3.283
 1846SOL     OW 6436   2.588   1.661   1.522
 1846SOL    HW1 6437   2.506   1.617   1.486
 1846SOL    HW2 6438   2.608   1.623   1.613
 1847SOL     OW 6439   2.004   5.530   6.148
 1847SOL    HW1 6440   1.958   5.609   6.187
 1847SOL    HW2 6441   1.970   5.447   6.191
 1848SOL     OW 6442   3.670   6.742   3.376
 1848SOL    HW1 6443   3.732   6.764   3.452
 1848SOL    HW2 6444   3.723   6.731   3.292
 1849SOL     OW 6445   4.812   2.753   2.232
 1849SOL    HW1 6446   4.866   2.815   2.289
 1849SOL    HW2 6447   4.730   2.802   2.200
 1850SOL     OW 6448   4.160   2.285   0.642
 1850SOL    HW1 6449   4.117   2.231   0.569
 1850SOL    HW2 6450   4.090   2.334   0.693
 1851SOL     OW 6451   6.842   4.793   4.359
 1851SOL    HW1 6452   6.890   4.873   4.323
 1851SOL    HW2 6453   6.890   4.757   4.438
 1852SOL     OW 6454   0.841   0.389   2.844
 1852SOL    HW1 6455   0.888   0.477   2.845
 1852SOL    HW2 6456   0.853   0.345   2.933
 1853SOL     OW 6457   0.711   2.415   5.734
 1853SOL    HW1 6458   0.633   2.478   5.742
 1853SOL    HW2 6459   0.745   2.393   5.825
 1854SOL     OW 6460   0.504   6.963   3.361
 1854SOL    HW1 6461   0.454   0.020   3.321
 1854SOL    HW2 6462   0.599   6.989   3.376
 1855SOL     OW 6463   5.799   2.705   4.738
 1855SOL    HW1 6464   5.885   2.755   4.728
 1855SOL    HW2 6465   5.733   2.762   4.786
 1856SOL     OW 6466   4.346   3.587   0.166
 1856SOL    HW1 6467   4.274   3.518   0.158
 1856SOL    HW2 6468   4.338   3.634   0.254
 1857SOL     OW 6469   3.795   1.138   6.675
 1857SOL    HW1 6470   3.835   1.083   6.602
 1857SOL    HW2 6471   3.753   1.220   6.635
 1858SOL     OW 6472   4.987   2.055   4.332
 1858SOL    HW1 6473   5.015   2.076   4.425
 1858SOL    HW2 6474   5.008   2.132   4.271
 1859SOL     OW 6475   6.894   0.616   4.167
 1859SOL    HW1 6476   6.982   0.572   4.148
 1859SOL    HW2 6477   6.833   0.550   4.210
 1860SOL     OW 6478   2.611   1.051   6.431
 1860SOL    HW1 6479   2.611   1.012   6.339
 1860SOL    HW2 6480   2.554   0.994   6.491
 1861SOL     OW 6481   6.157   6.573   4.621
 1861SOL    HW1 6482   6.109   6.649   4.665
 1861SOL    HW2 6483   6.101   6.491   4.625
 1862SOL     OW 6484   3.279   5.608   5.768
 1862SOL    HW1 6485   3.370   5.631   5.734
 1862SOL    HW2 6486   3.209   5.657   5.716
 1863SOL     OW 6487   6.636   1.738   0.868
 1863SOL    HW1 6488   6.642   1.825   0.819
 1863SOL    HW2 6489   6.691   1.670   0.821
 1864SOL     OW 6490   3.256   5.692   1.840
 1864SOL    HW1 6491   3.171   5.660   1.799
 1864SOL    HW2 6492   3.315   5.731   1.769
 1865SOL     OW 6493   6.300   2.791   5.916
 1865SOL    HW1 6494   6.338   2.734   5.988
 1865SOL    HW2 6495   6.258   2.734   5.846
 1866SOL     OW 6496   0.877   5.690   3.566
 1866SOL    HW1 6497   0.935   5.677   3.485
 1866SOL    HW2 6498   0.814   5.765   3.550
 1867SOL     OW 6499   0.569   2.330   1.603
 1867SOL    HW1 6500   0.544   2.354   1.697
 1867SOL    HW2 6501   0.502   2.369   1.540
 1868SOL     OW 6502   5.936   3.549   6.692
 1868SOL    HW1 6503   6.022   3.591   6.665
 1868SOL    HW2 6504   5.876   3.539   6.612
 1869SOL     OW 6505   5.103   0.940   5.108
 1869SOL    HW1 6506   5.144   0.894   5.186
 1869SOL    HW2 6507   5.170   1.004   5.068
 1870SOL     OW 6508   6.471   0.148   5.865
 1870SOL    HW1 6509   6.553   0.185   5.820
 1870SOL    HW2 6510   6.468   0.180   5.960
 1871SOL     OW 6511   0.700   6.255   6.808
 1871SOL    HW1 6512   0.779   6.236   6.750
 1871SOL    HW2 6513   0.621   6.203   6.775
 1872SOL     OW 6514   2.705   3.128   1.457
 1872SOL    HW1 6515   2.785   3.069   1.466
 1872SOL    HW2 6516   2.669   3.150   1.548
 1873SOL     OW 6517   6.351   1.550   1.299
 1873SOL    HW1 6518   6.262   1.595   1.286
 1873SOL    HW2 6519   6.402   1.596   1.372
 1874SOL     OW 6520   1.044   5.630   0.014
 1874SOL    HW1 6521   1.111   5.688   0.060
 1874SOL    HW2 6522   0.957   5.635   0.063
 1875SOL     OW 6523   0.419   5.957   2.126
 1875SOL    HW1 6524   0.499   6.016   2.131
 1875SOL    HW2 6525   0.406   5.910   2.213
 1876SOL     OW 6526   0.236   4.767   0.526
 1876SOL    HW1 6527   0.223   4.715   0.441
 1876SOL    HW2 6528   0.148   4.775   0.573
 1877SOL     OW 6529   1.325   2.033   2.256
 1877SOL    HW1 6530   1.294   2.123   2.285
 1877SOL    HW2 6531   1.349   2.035   2.159
 1878SOL     OW 6532   5.730   3.950   4.173
 1878SOL    HW1 6533   5.701   3.972   4.267
 1878SOL    HW2 6534   5.657   3.972   4.109
 1879SOL     OW 6535   4.381   6.414   4.684
 1879SOL    HW1 6536   4.342   6.333   4.640
 1879SOL    HW2 6537   4.456   6.449   4.628
 1880SOL     OW 6538   0.397   1.342   4.464
 1880SOL    HW1 6539   0.370   1.412   4.398
 1880SOL    HW2 6540   0.488   1.308   4.441
 1881SOL     OW 6541   2.153   1.097   3.775
 1881SOL    HW1 6542   2.241   1.129   3.739
 1881SOL    HW2 6543   2.164   1.070   3.871
 1882SOL     OW 6544   2.377   5.331   0.308
 1882SOL    HW1 6545   2.379   5.246   0.360
 1882SOL    HW2 6546   2.282   5.362   0.298
 1883SOL     OW 6547   2.633   2.399   3.030
 1883SOL    HW1 6548   2.713   2.364   2.981
 1883SOL    HW2 6549   2.663   2.454   3.107
 1884SOL     OW 6550   4.522   1.179   0.704
 1884SOL    HW1 6551   4.579   1.178   0.787
 1884SOL    HW2 6552   4.553   1.252   0.644
 1885SOL     OW 6553   0.251   1.512   0.660
 1885SOL    HW1 6554   0.262   1.417   0.629
 1885SOL    HW2 6555   0.341   1.556   0.666
 1886SOL     OW 6556   3.322   2.775   5.899
 1886SOL    HW1 6557   3.252   2.808   5.963
 1886SOL    HW2 6558   3.281   2.710   5.835
 1887SOL     OW 6559   0.821   6.364   4.969
 1887SOL    HW1 6560   0.910   6.400   4.940
 1887SOL    HW2 6561   0.828   6.331   5.063
 1888SOL     OW 6562   1.803   2.002   5.344
 1888SOL    HW1 6563   1.876   2.028   5.408
 1888SOL    HW2 6564   1.731   2.071   5.346
 1889SOL     OW 6565   2.677   3.218   0.178
 1889SOL    HW1 6566   2.629   3.203   0.264
 1889SOL    HW2 6567   2.654   3.145   0.114
 1890SOL     OW 6568   6.260   6.076   6.768
 1890SOL    HW1 6569   6.162   6.059   6.757
 1890SOL    HW2 6570   6.291   6.141   6.698
 1891SOL     OW 6571   5.553   3.729   6.827
 1891SOL    HW1 6572   5.640   3.742   6.779
 1891SOL    HW2 6573   5.511   3.817   6.846
 1892SOL     OW 6574   4.199   0.088   2.274
 1892SOL    HW1 6575   4.239   0.092   2.183
 1892SOL    HW2 6576   4.101   0.107   2.269
 1893SOL     OW 6577   2.900   0.992   5.600
 1893SOL    HW1 6578   2.973   0.938   5.559
 1893SOL    HW2 6579   2.935   1.083   5.623
 1894SOL     OW 6580   4.944   3.967   1.297
 1894SOL    HW1 6581   4.848   3.958   1.271
 1894SOL    HW2 6582   4.961   4.061   1.328
 1895SOL     OW 6583   4.098   6.267   3.378
 1895SOL    HW1 6584   4.195   6.286   3.398
 1895SOL    HW2 6585   4.085   6.169   3.368
 1896SOL     OW 6586   6.246   1.893   5.916
 1896SOL    HW1 6587   6.334   1.850   5.898
 1896SOL    HW2 6588   6.181   1.824   5.948
 1897SOL     OW 6589   5.948   4.936   3.496
 1897SOL    HW1 6590   5.880   4.999   3.460
 1897SOL    HW2 6591   5.937   4.846   3.454
 1898SOL     OW 6592   5.656   6.518   6.868
 1898SOL    HW1 6593   5.673   6.452   6.795
 1898SOL    HW2 6594   5.726   6.590   6.864
 1899SOL     OW 6595   1.640   2.257   3.254
 1899SOL    HW1 6596   1.620   2.348   3.290
 1899SOL    HW2 6597   1.720   2.261   3.194
 1900SOL     OW 6598   2.962   6.434   2.033
 1900SOL    HW1 6599   2.940   6.373   2.109
 1900SOL    HW2 6600   3.050   6.406   1.993
 1901SOL     OW 6601   1.206   0.873   6.147
 1901SOL    HW1 6602   1.198   0.962   6.192
 1901SOL    HW2 6603   1.159   0.875   6.059
 1902SOL     OW 6604   1.359   2.603   5.381
 1902SOL    HW1 6605   1.327   2.557   5.298
 1902SOL    HW2 6606   1.401   2.690   5.356
 1903SOL     OW 6607   0.112   4.577   3.887
 1903SOL    HW1 6608   0.210   4.582   3.868
 1903SOL    HW2 6609   0.065   4.649   3.836
 1904SOL     OW 6610   0.740   0.212   4.211
 1904SOL    HW1 6611   0.750   0.113   4.219
 1904SOL    HW2 6612   0.647   0.234   4.184
 1905SOL     OW 6613   6.434   2.837   4.322
 1905SOL    HW1 6614   6.416   2.880   4.411
 1905SOL    HW2 6615   6.347   2.812   4.279
 1906SOL     OW 6616   2.866   6.122   6.514
 1906SOL    HW1 6617   2.784   6.155   6.562
 1906SOL    HW2 6618   2.900   6.040   6.560
 1907SOL     OW 6619   4.833   6.423   3.809
 1907SOL    HW1 6620   4.835   6.358   3.734
 1907SOL    HW2 6621   4.741   6.461   3.818
 1908SOL     OW 6622   4.480   6.682   0.354
 1908SOL    HW1 6623   4.521   6.750   0.294
 1908SOL    HW2 6624   4.547   6.650   0.420
 1909SOL     OW 6625   4.284   5.112   4.138
 1909SOL    HW1 6626   4.260   5.016   4.123
 1909SOL    HW2 6627   4.359   5.117   4.203
 1910SOL     OW 6628   5.158   3.658   4.982
 1910SOL    HW1 6629   5.066   3.692   5.003
 1910SOL    HW2 6630   5.152   3.586   4.914
 1911SOL     OW 6631   0.293   3.723   5.876
 1911SOL    HW1 6632   0.321   3.691   5.785
 1911SOL    HW2 6633   0.253   3.814   5.869
 1912SOL     OW 6634   2.606   5.491   3.158
 1912SOL    HW1 6635   2.508   5.471   3.163
 1912SOL    HW2 6636   2.623   5.561   3.088
 1913SOL     OW 6637   1.626   4.684   5.234
 1913SOL    HW1 6638   1.699   4.664   5.168
 1913SOL    HW2 6639   1.632   4.780   5.261
 1914SOL     OW 6640   4.624   1.183   5.770
 1914SOL    HW1 6641   4.530   1.215   5.761
 1914SOL    HW2 6642   4.669   1.187   5.681
 1915SOL     OW 6643   3.068   0.622   5.294
 1915SOL    HW1 6644   3.104   0.705   5.251
 1915SOL    HW2 6645   3.119   0.543   5.262
 1916SOL     OW 6646   4.269   6.186   2.339
 1916SOL    HW1 6647   4.259   6.283   2.363
 1916SOL    HW2 6648   4.234   6.130   2.415
 1917SOL     OW 6649   3.235   3.411   4.434
 1917SOL    HW1 6650   3.240   3.496   4.487
 1917SOL    HW2 6651   3.153   3.413   4.377
 1918SOL     OW 6652   6.616   6.380   5.168
 1918SOL    HW1 6653   6.661   6.422   5.089
 1918SOL    HW2 6654   6.534   6.432   5.190
 1919SOL     OW 6655   6.511   0.081   1.918
 1919SOL    HW1 6656   6.606   0.072   1.888
 1919SOL    HW2 6657   6.458   0.129   1.848
 1920SOL     OW 6658   6.349   6.269   4.488
 1920SOL    HW1 6659   6.288   6.191   4.476
 1920SOL    HW2 6660   6.348   6.298   4.583
 1921SOL     OW 6661   1.222   7.011   6.797
 1921SOL    HW1 6662   1.265   6.926   6.827
 1921SOL    HW2 6663   1.291   0.053   6.761
 1922SOL     OW 6664   3.647   4.000   1.155
 1922SOL    HW1 6665   3.643   3.913   1.107
 1922SOL    HW2 6666   3.555   4.029   1.180
 1923SOL     OW 6667   2.124   2.729   0.268
 1923SOL    HW1 6668   2.068   2.806   0.298
 1923SOL    HW2 6669   2.077   2.681   0.193
 1924SOL     OW 6670   0.621   4.188   1.674
 1924SOL    HW1 6671   0.603   4.285   1.657
 1924SOL    HW2 6672   0.535   4.142   1.695
 1925SOL     OW 6673   3.774   4.131   0.674
 1925SOL    HW1 6674   3.781   4.165   0.580
 1925SOL    HW2 6675   3.846   4.064   0.691
 1926SOL     OW 6676   0.697   0.288   3.278
 1926SOL    HW1 6677   0.630   0.273   3.350
 1926SOL    HW2 6678   0.723   0.384   3.276
 1927SOL     OW 6679   4.318   3.818   0.731
 1927SOL    HW1 6680   4.375   3.899   0.739
 1927SOL    HW2 6681   4.373   3.736   0.746
 1928SOL     OW 6682   0.141   5.439   5.223
 1928SOL    HW1 6683   0.200   5.483   5.156
 1928SOL    HW2 6684   0.077   5.378   5.177
 1929SOL     OW 6685   1.672   6.032   2.695
 1929SOL    HW1 6686   1.732   6.065   2.767
 1929SOL    HW2 6687   1.643   5.939   2.716
 1930SOL     OW 6688   6.794   5.115   6.857
 1930SOL    HW1 6689   6.799   5.015   6.861
 1930SOL    HW2 6690   6.836   5.147   6.772
 1931SOL     OW 6691   0.647   1.773   5.293
 1931SOL    HW1 6692   0.690   1.854   5.254
 1931SOL    HW2 6693   0.633   1.786   5.391
 1932SOL     OW 6694   5.917   2.938   2.922
 1932SOL    HW1 6695   5.829   2.985   2.920
 1932SOL    HW2 6696   5.940   2.913   3.016
 1933SOL     OW 6697   2.131   4.734   0.762
 1933SOL    HW1 6698   2.069   4.691   0.697
 1933SOL    HW2 6699   2.108   4.831   0.771
 1934SOL     OW 6700   6.890   6.035   4.414
 1934SOL    HW1 6701   6.923   6.072   4.501
 1934SOL    HW2 6702   6.961   6.047   4.344
 1935SOL     OW 6703   2.286   0.732   3.449
 1935SOL    HW1 6704   2.325   0.680   3.525
 1935SOL    HW2 6705   2.235   0.670   3.389
 1936SOL     OW 6706   6.849   6.068   5.548
 1936SOL    HW1 6707   6.845   6.121   5.632
 1936SOL    HW2 6708   6.821   5.974   5.567
 1937SOL     OW 6709   4.583   0.654   2.987
 1937SOL    HW1 6710   4.513   0.718   2.958
 1937SOL    HW2 6711   4.542   0.583   3.044
 1938SOL     OW 6712   5.078   0.609   4.375
 1938SOL    HW1 6713   5.129   0.691   4.349
 1938SOL    HW2 6714   5.118   0.569   4.458
 1939SOL     OW 6715   2.745   0.462   3.576
 1939SOL    HW1 6716   2.654   0.459   3.617
 1939SOL    HW2 6717   2.814   0.456   3.648
 1940SOL     OW 6718   6.605   5.224   6.470
 1940SOL    HW1 6719   6.540   5.153   6.443
 1940SOL    HW2 6720   6.582   5.257   6.562
 1941SOL     OW 6721   5.730   4.782   2.994
 1941SOL    HW1 6722   5.817   4.749   3.031
 1941SOL    HW2 6723   5.746   4.867   2.943
 1942SOL     OW 6724   6.415   4.404   3.080
 1942SOL    HW1 6725   6.439   4.371   3.171
 1942SOL    HW2 6726   6.495   4.446   3.037
 1943SOL     OW 6727   2.788   5.965   1.796
 1943SOL    HW1 6728   2.875   6.015   1.792
 1943SOL    HW2 6729   2.781   5.919   1.885
 1944SOL     OW 6730   6.932   6.649   2.186
 1944SOL    HW1 6731   6.974   6.598   2.111
 1944SOL    HW2 6732   6.943   6.747   2.169
 1945SOL     OW 6733   3.102   4.817   3.709
 1945SOL    HW1 6734   3.023   4.810   3.770
 1945SOL    HW2 6735   3.186   4.816   3.762
 1946SOL     OW 6736   1.888   0.109   0.207
 1946SOL    HW1 6737   1.968   0.139   0.154
 1946SOL    HW2 6738   1.918   0.074   0.295
 1947SOL     OW 6739   5.550   6.840   3.886
 1947SOL    HW1 6740   5.634   6.803   3.928
 1947SOL    HW2 6741   5.470   6.804   3.935
 1948SOL     OW 6742   0.111   3.707   5.276
 1948SOL    HW1 6743   0.073   3.797   5.297
 1948SOL    HW2 6744   0.101   3.648   5.356
 1949SOL     OW 6745   5.361   4.103   6.385
 1949SOL    HW1 6746   5.330   4.197   6.401
 1949SOL    HW2 6747   5.283   4.045   6.363
 1950SOL     OW 6748   2.917   5.057   1.055
 1950SOL    HW1 6749   2.822   5.028   1.069
 1950SOL    HW2 6750   2.957   5.080   1.144
 1951SOL     OW 6751   6.943   3.143   0.092
 1951SOL    HW1 6752   6.959   3.241   0.101
 1951SOL    HW2 6753   6.859   3.118   0.139
 1952SOL     OW 6754   3.267   2.851   5.017
 1952SOL    HW1 6755   3.321   2.772   4.988
 1952SOL    HW2 6756   3.329   2.927   5.039
 1953SOL     OW 6757   0.216   3.185   5.230
 1953SOL    HW1 6758   0.170   3.258   5.280
 1953SOL    HW2 6759   0.301   3.219   5.191
 1954SOL     OW 6760   2.631   2.465   3.676
 1954SOL    HW1 6761   2.571   2.436   3.602
 1954SOL    HW2 6762   2.589   2.442   3.764
 1955SOL     OW 6763   6.359   5.404   1.771
 1955SOL    HW1 6764   6.436   5.467   1.784
 1955SOL    HW2 6765   6.287   5.426   1.836
 1956SOL     OW 6766   5.471   6.364   2.429
 1956SOL    HW1 6767   5.454   6.445   2.372
 1956SOL    HW2 6768   5.441   6.382   2.522
 1957SOL     OW 6769   0.973   6.687   5.813
 1957SOL    HW1 6770   1.036   6.653   5.743
 1957SOL    HW2 6771   0.879   6.675   5.781
 1958SOL     OW 6772   4.387   3.064   6.000
 1958SOL    HW1 6773   4.300   3.064   6.049
 1958SOL    HW2 6774   4.386   2.994   5.929
 1959SOL     OW 6775   2.284   2.052   0.180
 1959SOL    HW1 6776   2.310   2.145   0.208
 1959SOL    HW2 6777   2.188   2.051   0.154
 1960SOL     OW 6778   5.242   6.745   2.430
 1960SOL    HW1 6779   5.172   6.812   2.406
 1960SOL    HW2 6780   5.327   6.793   2.454
 1961SOL     OW 6781   5.617   5.238   5.099
 1961SOL    HW1 6782   5.600   5.166   5.165
 1961SOL    HW2 6783   5.670   5.311   5.142
 1962SOL     OW 6784   6.706   6.865   3.397
 1962SOL    HW1 6785   6.628   6.919   3.430
 1962SOL    HW2 6786   6.741   6.809   3.471
 1963SOL     OW 6787   2.475   0.101   3.102
 1963SOL    HW1 6788   2.509   0.158   3.177
 1963SOL    HW2 6789   2.522   0.126   3.017
 1964SOL     OW 6790   5.877   4.147   2.201
 1964SOL    HW1 6791   5.959   4.197   2.174
 1964SOL    HW2 6792   5.800   4.177   2.146
 1965SOL     OW 6793   2.208   5.122   3.693
 1965SOL    HW1 6794   2.182   5.039   3.741
 1965SOL    HW2 6795   2.126   5.169   3.659
 1966SOL     OW 6796   6.383   6.438   6.271
 1966SOL    HW1 6797   6.379   6.368   6.200
 1966SOL    HW2 6798   6.295   6.486   6.276
 1967SOL     OW 6799   4.880   3.687   4.390
 1967SOL    HW1 6800   4.949   3.758   4.410
 1967SOL    HW2 6801   4.798   3.705   4.443
 1968SOL     OW 6802   3.809   5.397   5.594
 1968SOL    HW1 6803   3.863   5.379   5.677
 1968SOL    HW2 6804   3.856   5.358   5.515
 1969SOL     OW 6805   6.668   2.014   1.801
 1969SOL    HW1 6806   6.618   1.930   1.821
 1969SOL    HW2 6807   6.620   2.092   1.841
 1970SOL     OW 6808   1.958   6.212   3.319
 1970SOL    HW1 6809   1.891   6.139   3.304
 1970SOL    HW2 6810   1.916   6.300   3.300
 1971SOL     OW 6811   0.163   0.555   5.953
 1971SOL    HW1 6812   0.182   0.457   5.964
 1971SOL    HW2 6813   0.196   0.585   5.864
 1972SOL     OW 6814   1.472   5.396   3.978
 1972SOL    HW1 6815   1.458   5.413   4.075
 1972SOL    HW2 6816   1.542   5.458   3.943
 1973SOL     OW 6817   2.652   2.578   6.882
 1973SOL    HW1 6818   2.552   2.580   6.878
 1973SOL    HW2 6819   2.688   2.543   6.796
 1974SOL     OW 6820   5.708   0.051   4.477
 1974SOL    HW1 6821   5.694   6.996   4.541
 1974SOL    HW2 6822   5.631   0.055   4.413
 1975SOL     OW 6823   3.000   0.781   3.658
 1975SOL    HW1 6824   2.988   0.683   3.643
 1975SOL    HW2 6825   2.913   0.828   3.642
 1976SOL     OW 6826   7.013   4.371   0.043
 1976SOL    HW1 6827   6.914   4.356   0.042
 1976SOL    HW2 6828   0.036   4.299   0.097
 1977SOL     OW 6829   2.634   2.484   5.010
 1977SOL    HW1 6830   2.592   2.556   4.954
 1977SOL    HW2 6831   2.627   2.509   5.107
 1978SOL     OW 6832   6.824   1.618   4.989
 1978SOL    HW1 6833   6.742   1.580   5.032
 1978SOL    HW2 6834   6.874   1.545   4.943
 1979SOL     OW 6835   5.711   4.339   2.775
 1979SOL    HW1 6836   5.674   4.256   2.817
 1979SOL    HW2 6837   5.708   4.331   2.676
 1980SOL     OW 6838   3.820   0.662   1.137
 1980SOL    HW1 6839   3.756   0.732   1.102
 1980SOL    HW2 6840   3.772   0.605   1.204
 1981SOL     OW 6841   4.860   3.282   1.817
 1981SOL    HW1 6842   4.828   3.203   1.870
 1981SOL    HW2 6843   4.828   3.273   1.722
 1982SOL     OW 6844   5.914   0.117   5.378
 1982SOL    HW1 6845   5.867   0.153   5.459
 1982SOL    HW2 6846   5.848   0.073   5.317
 1983SOL     OW 6847   0.768   4.273   2.318
 1983SOL    HW1 6848   0.767   4.205   2.245
 1983SOL    HW2 6849   0.795   4.362   2.281
 1984SOL     OW 6850   4.606   1.185   6.057
 1984SOL    HW1 6851   4.628   1.184   5.959
 1984SOL    HW2 6852   4.572   1.276   6.082
 1985SOL     OW 6853   1.492   0.200   1.054
 1985SOL    HW1 6854   1.491   0.269   1.127
 1985SOL    HW2 6855   1.455   0.241   0.970
 1986SOL     OW 6856   0.678   2.204   6.312
 1986SOL    HW1 6857   0.623   2.120   6.309
 1986SOL    HW2 6858   0.660   2.252   6.398
 1987SOL     OW 6859   2.656   3.904   0.044
 1987SOL    HW1 6860   2.611   3.956   6.992
 1987SOL    HW2 6861   2.719   3.964   0.095
 1988SOL     OW 6862   4.599   3.359   0.236
 1988SOL    HW1 6863   4.610   3.453   0.270
 1988SOL    HW2 6864   4.631   3.295   0.306
 1989SOL     OW 6865   2.651   0.422   4.340
 1989SOL    HW1 6866   2.698   0.489   4.283
 1989SOL    HW2 6867   2.558   0.454   4.358
 1990SOL     OW 6868   2.353   1.465   2.878
 1990SOL    HW1 6869   2.390   1.490   2.968
 1990SOL    HW2 6870   2.372   1.368   2.861
 1991SOL     OW 6871   4.248   5.180   3.875
 1991SOL    HW1 6872   4.265   5.168   3.972
 1991SOL    HW2 6873   4.158   5.221   3.861
 1992SOL     OW 6874   2.326   6.492   5.331
 1992SOL    HW1 6875   2.283   6.580   5.349
 1992SOL    HW2 6876   2.377   6.462   5.412
 1993SOL     OW 6877   2.996   3.229   4.247
 1993SOL    HW1 6878   2.979   3.168   4.169
 1993SOL    HW2 6879   3.031   3.176   4.324
 1994SOL     OW 6880   6.054   2.560   1.999
 1994SOL    HW1 6881   5.997   2.633   2.036
 1994SOL    HW2 6882   6.046   2.479   2.056
 1995SOL     OW 6883   4.856   2.423   1.208
 1995SOL    HW1 6884   4.869   2.342   1.264
 1995SOL    HW2 6885   4.759   2.434   1.187
 1996SOL     OW 6886   2.665   3.964   6.030
 1996SOL    HW1 6887   2.720   3.945   6.111
 1996SOL    HW2 6888   2.678   4.060   6.003
 1997SOL     OW 6889   5.109   0.179   3.951
 1997SOL    HW1 6890   5.095   0.270   3.911
 1997SOL    HW2 6891   5.133   0.189   4.048
 1998SOL     OW 6892   2.786   5.018   4.760
 1998SOL    HW1 6893   2.830   4.964   4.831
 1998SOL    HW2 6894   2.706   4.969   4.726
 1999SOL     OW 6895   1.686   0.989   2.168
 1999SOL    HW1 6896   1.682   1.029   2.076
 1999SOL    HW2 6897   1.616   1.032   2.226
 2000SOL     OW 6898   4.056   1.677   4.439
 2000SOL    HW1 6899   3.977   1.633   4.399
 2000SOL    HW2 6900   4.027   1.744   4.508
 2001SOL     OW 6901   2.210   3.352   0.701
 2001SOL    HW1 6902   2.275   3.401   0.644
 2001SOL    HW2 6903   2.159   3.287   0.645
 2002SOL     OW 6904   2.056   5.207   4.785
 2002SOL    HW1 6905   2.004   5.275   4.835
 2002SOL    HW2 6906   2.093   5.139   4.849
 2003SOL     OW 6907   5.990   4.622   3.137
 2003SOL    HW1 6908   5.958   4.569   3.059
 2003SOL    HW2 6909   6.020   4.713   3.106
 2004SOL     OW 6910   3.339   0.435   6.019
 2004SOL    HW1 6911   3.395   0.513   5.992
 2004SOL    HW2 6912   3.273   0.463   6.088
 2005SOL     OW 6913   2.925   6.719   5.456
 2005SOL    HW1 6914   2.985   6.728   5.535
 2005SOL    HW2 6915   2.862   6.642   5.470
 2006SOL     OW 6916   4.110   5.710   3.441
 2006SOL    HW1 6917   4.028   5.767   3.440
 2006SOL    HW2 6918   4.086   5.616   3.416
 2007SOL     OW 6919   6.369   5.225   0.234
 2007SOL    HW1 6920   6.437   5.291   0.266
 2007SOL    HW2 6921   6.414   5.147   0.192
 2008SOL     OW 6922   6.569   6.313   4.322
 2008SOL    HW1 6923   6.597   6.408   4.312
 2008SOL    HW2 6924   6.492   6.308   4.386
 2009SOL     OW 6925   0.238   0.569   0.938
 2009SOL    HW1 6926   0.162   0.527   0.988
 2009SOL    HW2 6927   0.215   0.665   0.919
 2010SOL     OW 6928   1.028   6.861   0.687
 2010SOL    HW1 6929   1.059   6.841   0.780
 2010SOL    HW2 6930   1.034   6.959   0.670
 2011SOL     OW 6931   6.874   2.780   4.911
 2011SOL    HW1 6932   6.812   2.779   4.989
 2011SOL    HW2 6933   6.926   2.865   4.910
 2012SOL     OW 6934   0.453   3.781   1.119
 2012SOL    HW1 6935   0.390   3.817   1.187
 2012SOL    HW2 6936   0.405   3.714   1.062
 2013SOL     OW 6937   4.585   1.191   2.322
 2013SOL    HW1 6938   4.677   1.185   2.360
 2013SOL    HW2 6939   4.589   1.233   2.231
 2014SOL     OW 6940   2.619   5.315   3.467
 2014SOL    HW1 6941   2.670   5.229   3.458
 2014SOL    HW2 6942   2.588   5.346   3.377
 2015SOL     OW 6943   3.160   6.863   6.690
 2015SOL    HW1 6944   3.144   6.942   6.631
 2015SOL    HW2 6945   3.080   6.802   6.686
 2016SOL     OW 6946   6.429   4.840   3.480
 2016SOL    HW1 6947   6.343   4.879   3.446
 2016SOL    HW2 6948   6.504   4.871   3.423
 2017SOL     OW 6949   2.565   5.627   1.690
 2017SOL    HW1 6950   2.558   5.689   1.768
 2017SOL    HW2 6951   2.651   5.644   1.643
 2018SOL     OW 6952   0.471   4.962   6.213
 2018SOL    HW1 6953   0.448   4.867   6.237
 2018SOL    HW2 6954   0.547   4.961   6.148
 2019SOL     OW 6955   5.700   1.805   3.205
 2019SOL    HW1 6956   5.678   1.812   3.108
 2019SOL    HW2 6957   5.792   1.765   3.216
 2020SOL     OW 6958   2.147   5.445   2.948
 2020SOL    HW1 6959   2.124   5.465   2.853
 2020SOL    HW2 6960   2.153   5.346   2.961
 2021SOL     OW 6961   1.428   0.176   1.519
 2021SOL    HW1 6962   1.390   0.130   1.439
 2021SOL    HW2 6963   1.354   0.204   1.580
 2022SOL     OW 6964   2.561   4.577   1.184
 2022SOL    HW1 6965   2.592   4.532   1.269
 2022SOL    HW2 6966   2.468   4.547   1.164
 2023SOL     OW 6967   6.649   1.509   6.108
 2023SOL    HW1 6968   6.734   1.465   6.137
 2023SOL    HW2 6969   6.670   1.598   6.069
 2024SOL     OW 6970   6.078   0.573   3.203
 2024SOL    HW1 6971   6.114   0.592   3.112
 2024SOL    HW2 6972   5.978   0.573   3.200
 2025SOL     OW 6973   6.615   0.767   0.303
 2025SOL    HW1 6974   6.652   0.823   0.229
 2025SOL    HW2 6975   6.654   0.796   0.390
 2026SOL     OW 6976   1.472   1.811   5.224
 2026SOL    HW1 6977   1.475   1.783   5.128
 2026SOL    HW2 6978   1.382   1.849   5.245
 2027SOL     OW 6979   0.401   1.474   2.419
 2027SOL    HW1 6980   0.359   1.542   2.359
 2027SOL    HW2 6981   0.458   1.520   2.487
 2028SOL     OW 6982   3.987   3.782   6.266
 2028SOL    HW1 6983   3.921   3.733   6.209
 2028SOL    HW2 6984   3.997   3.876   6.234
 2029SOL     OW 6985   1.366   0.466   0.458
 2029SOL    HW1 6986   1.350   0.562   0.483
 2029SOL    HW2 6987   1.443   0.460   0.395
 2030SOL     OW 6988   1.297   1.401   2.878
 2030SOL    HW1 6989   1.357   1.394   2.958
 2030SOL    HW2 6990   1.282   1.498   2.856
 2031SOL     OW 6991   4.924   0.035   2.820
 2031SOL    HW1 6992   4.926   6.955   2.818
 2031SOL    HW2 6993   4.876   0.069   2.739
 2032SOL     OW 6994   5.243   6.711   1.720
 2032SOL    HW1 6995   5.290   6.623   1.713
 2032SOL    HW2 6996   5.153   6.696   1.761
 2033SOL     OW 6997   0.166   4.888   6.645
 2033SOL    HW1 6998   0.263   4.866   6.629
 2033SOL    HW2 6999   0.117   4.805   6.670
 2034SOL     OW 7000   2.726   6.802   3.059
 2034SOL    HW1 7001   2.754   6.861   2.983
 2034SOL    HW2 7002   2.687   6.858   3.132
 2035SOL     OW 7003   1.046   3.110   1.743
 2035SOL    HW1 7004   1.060   3.125   1.840
 2035SOL    HW2 7005   1.072   3.192   1.692
 2036SOL     OW 7006   1.214   4.429   0.316
 2036SOL    HW1 7007   1.193   4.452   0.411
 2036SOL    HW2 7008   1.303   4.468   0.291
 2037SOL     OW 7009   6.931   0.996   6.222
 2037SOL    HW1 7010   6.972   0.990   6.314
 2037SOL    HW2 7011   6.985   0.942   6.158
 2038SOL     OW 7012   0.980   0.123   4.685
 2038SOL    HW1 7013   0.890   0.142   4.647
 2038SOL    HW2 7014   1.000   0.025   4.675
 2039SOL     OW 7015   0.996   5.343   2.057
 2039SOL    HW1 7016   0.943   5.259   2.064
 2039SOL    HW2 7017   1.001   5.372   1.961
 2040SOL     OW 7018   3.665   3.671   4.526
 2040SOL    HW1 7019   3.630   3.652   4.617
 2040SOL    HW2 7020   3.624   3.609   4.460
 2041SOL     OW 7021   6.212   4.016   6.495
 2041SOL    HW1 7022   6.302   3.975   6.514
 2041SOL    HW2 7023   6.200   4.098   6.551
 2042SOL     OW 7024   3.915   5.522   0.092
 2042SOL    HW1 7025   3.836   5.552   0.146
 2042SOL    HW2 7026   3.980   5.475   0.151
 2043SOL     OW 7027   4.588   4.438   2.465
 2043SOL    HW1 7028   4.489   4.435   2.467
 2043SOL    HW2 7029   4.621   4.404   2.377
 2044SOL     OW 7030   6.229   1.130   1.974
 2044SOL    HW1 7031   6.324   1.133   1.943
 2044SOL    HW2 7032   6.224   1.083   2.062
 2045SOL     OW 7033   1.943   5.222   6.151
 2045SOL    HW1 7034   1.946   5.215   6.051
 2045SOL    HW2 7035   1.989   5.143   6.192
 2046SOL     OW 7036   6.043   0.719   4.998
 2046SOL    HW1 7037   6.012   0.676   5.083
 2046SOL    HW2 7038   6.141   0.736   5.004
 2047SOL     OW 7039   5.889   3.076   7.013
 2047SOL    HW1 7040   5.865   3.170   0.014
 2047SOL    HW2 7041   5.982   3.056   0.023
 2048SOL     OW 7042   4.164   6.838   5.735
 2048SOL    HW1 7043   4.175   6.928   5.693
 2048SOL    HW2 7044   4.156   6.849   5.834
 2049SOL     OW 7045   4.697   6.406   0.610
 2049SOL    HW1 7046   4.668   6.411   0.514
 2049SOL    HW2 7047   4.732   6.315   0.629
 2050SOL     OW 7048   5.352   1.843   3.992
 2050SOL    HW1 7049   5.276   1.877   4.047
 2050SOL    HW2 7050   5.422   1.803   4.051
 2051SOL     OW 7051   1.911   5.257   0.719
 2051SOL    HW1 7052   1.839   5.311   0.675
 2051SOL    HW2 7053   1.916   5.280   0.816
 2052SOL     OW 7054   1.183   3.082   0.859
 2052SOL    HW1 7055   1.195   3.007   0.925
 2052SOL    HW2 7056   1.255   3.150   0.873
 2053SOL     OW 7057   5.035   0.552   0.628
 2053SOL    HW1 7058   5.058   0.631   0.572
 2053SOL    HW2 7059   5.100   0.478   0.611
 2054SOL     OW 7060   6.569   3.290   1.579
 2054SOL    HW1 7061   6.529   3.332   1.498
 2054SOL    HW2 7062   6.655   3.335   1.602
 2055SOL     OW 7063   6.707   2.314   4.010
 2055SOL    HW1 7064   6.653   2.344   3.931
 2055SOL    HW2 7065   6.647   2.305   4.089
 2056SOL     OW 7066   1.227   0.736   2.585
 2056SOL    HW1 7067   1.306   0.737   2.523
 2056SOL    HW2 7068   1.176   0.821   2.576
 2057SOL     OW 7069   6.636   2.612   4.009
 2057SOL    HW1 7070   6.617   2.626   4.107
 2057SOL    HW2 7071   6.664   2.518   3.994
 2058SOL     OW 7072   6.758   2.352   1.680
 2058SOL    HW1 7073   6.813   2.435   1.686
 2058SOL    HW2 7074   6.777   2.305   1.594
 2059SOL     OW 7075   1.623   1.479   6.393
 2059SOL    HW1 7076   1.670   1.392   6.375
 2059SOL    HW2 7077   1.633   1.502   6.490
 2060SOL     OW 7078   0.294   5.339   2.194
 2060SOL    HW1 7079   0.240   5.375   2.270
 2060SOL    HW2 7080   0.250   5.258   2.157
 2061SOL     OW 7081   6.682   1.333   1.890
 2061SOL    HW1 7082   6.751   1.406   1.894
 2061SOL    HW2 7083   6.718   1.257   1.836
 2062SOL     OW 7084   4.647   0.582   3.406
 2062SOL    HW1 7085   4.579   0.624   3.467
 2062SOL    HW2 7086   4.600   0.534   3.332
 2063SOL     OW 7087   2.429   1.893   0.513
 2063SOL    HW1 7088   2.476   1.854   0.435
 2063SOL    HW2 7089   2.462   1.986   0.530
 2064SOL     OW 7090   0.759   2.332   0.108
 2064SOL    HW1 7091   0.712   2.420   0.110
 2064SOL    HW2 7092   0.805   2.317   0.196
 2065SOL     OW 7093   6.381   2.813   2.111
 2065SOL    HW1 7094   6.354   2.844   2.019
 2065SOL    HW2 7095   6.479   2.797   2.113
 2066SOL     OW 7096   2.332   6.249   3.768
 2066SOL    HW1 7097   2.378   6.312   3.705
 2066SOL    HW2 7098   2.260   6.299   3.817
 2067SOL     OW 7099   0.050   0.079   0.979
 2067SOL    HW1 7100   0.132   0.023   0.969
 2067SOL    HW2 7101   0.050   0.151   0.909
 2068SOL     OW 7102   2.065   1.632   5.159
 2068SOL    HW1 7103   2.130   1.624   5.084
 2068SOL    HW2 7104   2.108   1.682   5.235
 2069SOL     OW 7105   0.192   1.857   1.801
 2069SOL    HW1 7106   0.143   1.944   1.795
 2069SOL    HW2 7107   0.270   1.866   1.862
 2070SOL     OW 7108   0.570   1.095   2.660
 2070SOL    HW1 7109   0.527   1.055   2.741
 2070SOL    HW2 7110   0.610   1.184   2.684
 2071SOL     OW 7111   1.325   6.071   4.361
 2071SOL    HW1 7112   1.323   5.984   4.410
 2071SOL    HW2 7113   1.236   6.087   4.319
 2072SOL     OW 7114   5.030   5.092   2.115
 2072SOL    HW1 7115   5.123   5.091   2.076
 2072SOL    HW2 7116   4.975   5.021   2.071
 2073SOL     OW 7117   3.014   7.002   5.498
 2073SOL    HW1 7118   2.998   7.015   5.400
 2073SOL    HW2 7119   2.932   0.008   5.549
 2074SOL     OW 7120   6.008   2.101   1.419
 2074SOL    HW1 7121   6.035   2.108   1.322
 2074SOL    HW2 7122   5.921   2.147   1.432
 2075SOL     OW 7123   4.765   3.453   6.057
 2075SOL    HW1 7124   4.751   3.376   5.995
 2075SOL    HW2 7125   4.860   3.486   6.049
 2076SOL     OW 7126   4.760   0.335   1.336
 2076SOL    HW1 7127   4.726   0.376   1.251
 2076SOL    HW2 7128   4.859   0.321   1.329
 2077SOL     OW 7129   5.655   1.679   3.542
 2077SOL    HW1 7130   5.605   1.651   3.624
 2077SOL    HW2 7131   5.593   1.725   3.479
 2078SOL     OW 7132   4.232   5.670   5.655
 2078SOL    HW1 7133   4.200   5.603   5.722
 2078SOL    HW2 7134   4.249   5.625   5.567
 2079SOL     OW 7135   5.586   1.563   3.860
 2079SOL    HW1 7136   5.507   1.507   3.884
 2079SOL    HW2 7137   5.665   1.505   3.843
 2080SOL     OW 7138   3.034   2.116   4.926
 2080SOL    HW1 7139   3.087   2.159   4.999
 2080SOL    HW2 7140   2.953   2.172   4.905
 2081SOL     OW 7141   0.493   6.325   5.129
 2081SOL    HW1 7142   0.403   6.296   5.095
 2081SOL    HW2 7143   0.532   6.392   5.066
 2082SOL     OW 7144   5.022   0.318   1.293
 2082SOL    HW1 7145   5.030   0.227   1.252
 2082SOL    HW2 7146   5.106   0.370   1.276
 2083SOL     OW 7147   3.669   5.380   5.278
 2083SOL    HW1 7148   3.650   5.452   5.345
 2083SOL    HW2 7149   3.643   5.411   5.187
 2084SOL     OW 7150   0.331   3.049   3.270
 2084SOL    HW1 7151   0.255   3.024   3.330
 2084SOL    HW2 7152   0.343   2.980   3.200
 2085SOL     OW 7153   5.344   6.502   6.614
 2085SOL    HW1 7154   5.344   6.486   6.713
 2085SOL    HW2 7155   5.407   6.577   6.592
 2086SOL     OW 7156   2.625   5.052   1.116
 2086SOL    HW1 7157   2.592   5.133   1.067
 2086SOL    HW2 7158   2.583   4.971   1.077
 2087SOL     OW 7159   5.588   6.557   3.587
 2087SOL    HW1 7160   5.651   6.495   3.540
 2087SOL    HW2 7161   5.516   6.504   3.630
 2088SOL     OW 7162   3.135   6.719   0.591
 2088SOL    HW1 7163   3.218   6.662   0.590
 2088SOL    HW2 7164   3.057   6.663   0.564
 2089SOL     OW 7165   2.951   0.046   6.601
 2089SOL    HW1 7166   2.952   0.129   6.545
 2089SOL    HW2 7167   2.867   7.016   6.585
 2090SOL     OW 7168   2.943   3.526   4.001
 2090SOL    HW1 7169   2.859   3.488   3.964
 2090SOL    HW2 7170   3.020   3.468   3.974
 2091SOL     OW 7171   1.896   4.963   0.621
 2091SOL    HW1 7172   1.873   4.910   0.703
 2091SOL    HW2 7173   1.940   5.049   0.649
 2092SOL     OW 7174   6.258   6.488   0.830
 2092SOL    HW1 7175   6.334   6.438   0.872
 2092SOL    HW2 7176   6.179   6.428   0.822
 2093SOL     OW 7177   1.275   1.914   1.532
 2093SOL    HW1 7178   1.253   1.849   1.459
 2093SOL    HW2 7179   1.366   1.896   1.567
 2094SOL     OW 7180   6.143   0.545   2.508
 2094SOL    HW1 7181   6.226   0.501   2.474
 2094SOL    HW2 7182   6.164   0.638   2.537
 2095SOL     OW 7183   6.891   5.098   4.710
 2095SOL    HW1 7184   6.988   5.101   4.733
 2095SOL    HW2 7185   6.854   5.008   4.734
 2096SOL     OW 7186   5.013   3.899   3.112
 2096SOL    HW1 7187   4.950   3.913   3.036
 2096SOL    HW2 7188   5.012   3.803   3.139
 2097SOL     OW 7189   0.027   2.984   6.877
 2097SOL    HW1 7190   6.986   2.984   6.799
 2097SOL    HW2 7191   7.011   3.045   6.948
 2098SOL     OW 7192   4.593   0.640   4.404
 2098SOL    HW1 7193   4.605   0.578   4.481
 2098SOL    HW2 7194   4.605   0.589   4.318
 2099SOL     OW 7195   2.917   1.593   4.227
 2099SOL    HW1 7196   2.856   1.547   4.292
 2099SOL    HW2 7197   2.911   1.549   4.138
 2100SOL     OW 7198   3.699   3.858   6.894
 2100SOL    HW1 7199   3.693   3.944   6.844
 2100SOL    HW2 7200   3.795   3.827   6.896
 2101SOL     OW 7201   0.187   0.678   3.306
 2101SOL    HW1 7202   0.120   0.637   3.369
 2101SOL    HW2 7203   0.218   0.608   3.242
 2102SOL     OW 7204   0.144   4.913   2.300
 2102SOL    HW1 7205   0.154   4.983   2.229
 2102SOL    HW2 7206   0.047   4.903   2.324
 2103SOL     OW 7207   3.026   3.509   6.818
 2103SOL    HW1 7208   3.005   3.541   6.726
 2103SOL    HW2 7209   2.960   3.439   6.845
 2104SOL     OW 7210   1.266   3.775   4.974
 2104SOL    HW1 7211   1.308   3.859   5.009
 2104SOL    HW2 7212   1.167   3.779   4.988
 2105SOL     OW 7213   6.009   5.556   1.651
 2105SOL    HW1 7214   5.957   5.642   1.659
 2105SOL    HW2 7215   6.079   5.566   1.581
 2106SOL     OW 7216   5.262   5.855   6.973
 2106SOL    HW1 7217   5.265   5.756   6.962
 2106SOL    HW2 7218   5.349   5.886   7.012
 2107SOL     OW 7219   3.655   4.155   6.448
 2107SOL    HW1 7220   3.585   4.221   6.420
 2107SOL    HW2 7221   3.612   4.081   6.501
 2108SOL     OW 7222   5.218   4.730   5.861
 2108SOL    HW1 7223   5.295   4.680   5.822
 2108SOL    HW2 7224   5.138   4.670   5.864
 2109SOL     OW 7225   5.630   0.142   2.949
 2109SOL    HW1 7226   5.570   0.218   2.921
 2109SOL    HW2 7227   5.596   0.102   3.034
 2110SOL     OW 7228   2.747   4.969   5.772
 2110SOL    HW1 7229   2.789   5.042   5.717
 2110SOL    HW2 7230   2.817   4.903   5.798
 2111SOL     OW 7231   1.405   2.835   6.910
 2111SOL    HW1 7232   1.358   2.892   6.843
 2111SOL    HW2 7233   1.422   2.888   6.993
 2112SOL     OW 7234   5.118   3.406   1.037
 2112SOL    HW1 7235   5.068   3.474   1.091
 2112SOL    HW2 7236   5.145   3.329   1.096
 2113SOL     OW 7237   6.933   1.330   3.317
 2113SOL    HW1 7238   6.902   1.249   3.367
 2113SOL    HW2 7239   6.887   1.411   3.354
 2114SOL     OW 7240   1.682   4.247   6.956
 2114SOL    HW1 7241   1.589   4.283   6.966
 2114SOL    HW2 7242   1.709   4.252   6.860
 2115SOL     OW 7243   2.558   4.897   2.365
 2115SOL    HW1 7244   2.554   4.797   2.352
 2115SOL    HW2 7245   2.637   4.919   2.422
 2116SOL     OW 7246   6.973   4.188   3.386
 2116SOL    HW1 7247   0.019   4.114   3.399
 2116SOL    HW2 7248   7.016   4.263   3.337
 2117SOL     OW 7249   6.546   4.831   1.098
 2117SOL    HW1 7250   6.566   4.762   1.028
 2117SOL    HW2 7251   6.591   4.806   1.184
 2118SOL     OW 7252   6.712   4.045   2.331
 2118SOL    HW1 7253   6.718   4.111   2.406
 2118SOL    HW2 7254   6.789   4.057   2.269
 2119SOL     OW 7255   3.068   6.095   1.082
 2119SOL    HW1 7256   3.085   6.006   1.125
 2119SOL    HW2 7257   3.001   6.146   1.136
 2120SOL     OW 7258   0.035   5.358   1.972
 2120SOL    HW1 7259   0.034   5.447   1.927
 2120SOL    HW2 7260   6.962   5.323   1.978
 2121SOL     OW 7261   0.716   4.862   4.834
 2121SOL    HW1 7262   0.626   4.865   4.877
 2121SOL    HW2 7263   0.786   4.855   4.906
 2122SOL     OW 7264   4.491   4.423   5.366
 2122SOL    HW1 7265   4.563   4.454   5.305
 2122SOL    HW2 7266   4.405   4.416   5.316
 2123SOL     OW 7267   5.748   4.318   3.236
 2123SOL    HW1 7268   5.811   4.251   3.195
 2123SOL    HW2 7269   5.731   4.392   3.171
 2124SOL     OW 7270   2.307   1.582   0.884
 2124SOL    HW1 7271   2.285   1.571   0.981
 2124SOL    HW2 7272   2.246   1.650   0.843
 2125SOL     OW 7273   3.045   6.651   1.210
 2125SOL    HW1 7274   3.078   6.617   1.121
 2125SOL    HW2 7275   3.124   6.676   1.266
 2126SOL     OW 7276   2.602   1.135   1.893
 2126SOL    HW1 7277   2.612   1.043   1.854
 2126SOL    HW2 7278   2.668   1.148   1.966
 2127SOL     OW 7279   5.398   3.193   5.093
 2127SOL    HW1 7280   5.485   3.243   5.092
 2127SOL    HW2 7281   5.340   3.228   5.019
 2128SOL     OW 7282   0.411   4.990   4.041
 2128SOL    HW1 7283   0.324   5.027   4.075
 2128SOL    HW2 7284   0.452   5.055   3.977
 2129SOL     OW 7285   4.110   1.762   5.862
 2129SOL    HW1 7286   4.060   1.677   5.846
 2129SOL    HW2 7287   4.058   1.820   5.925
 2130SOL     OW 7288   4.150   6.208   3.806
 2130SOL    HW1 7289   4.205   6.251   3.878
 2130SOL    HW2 7290   4.101   6.278   3.755
 2131SOL     OW 7291   5.714   2.120   6.973
 2131SOL    HW1 7292   5.726   2.200   0.011
 2131SOL    HW2 7293   5.619   2.114   6.945
 2132SOL     OW 7294   2.494   2.721   0.646
 2132SOL    HW1 7295   2.484   2.630   0.606
 2132SOL    HW2 7296   2.529   2.713   0.739
 2133SOL     OW 7297   3.056   3.524   5.868
 2133SOL    HW1 7298   3.019   3.466   5.795
 2133SOL    HW2 7299   3.135   3.479   5.910
 2134SOL     OW 7300   1.062   0.324   0.954
 2134SOL    HW1 7301   1.086   0.351   1.048
 2134SOL    HW2 7302   1.136   0.270   0.915
 2135SOL     OW 7303   6.938   4.292   4.177
 2135SOL    HW1 7304   6.967   4.197   4.164
 2135SOL    HW2 7305   6.860   4.311   4.117
 2136SOL     OW 7306   1.648   5.116   1.650
 2136SOL    HW1 7307   1.563   5.165   1.632
 2136SOL    HW2 7308   1.647   5.080   1.743
 2137SOL     OW 7309   1.707   5.716   4.058
 2137SOL    HW1 7310   1.759   5.647   4.109
 2137SOL    HW2 7311   1.667   5.782   4.121
 2138SOL     OW 7312   5.168   1.834   1.668
 2138SOL    HW1 7313   5.072   1.863   1.670
 2138SOL    HW2 7314   5.227   1.913   1.685
 2139SOL     OW 7315   2.726   0.905   5.390
 2139SOL    HW1 7316   2.770   0.967   5.453
 2139SOL    HW2 7317   2.710   0.951   5.303
 2140SOL     OW 7318   2.146   1.091   4.847
 2140SOL    HW1 7319   2.112   1.050   4.932
 2140SOL    HW2 7320   2.092   1.173   4.826
 2141SOL     OW 7321   6.591   3.884   2.710
 2141SOL    HW1 7322   6.527   3.834   2.652
 2141SOL    HW2 7323   6.577   3.859   2.806
 2142SOL     OW 7324   1.260   2.309   2.790
 2142SOL    HW1 7325   1.169   2.346   2.771
 2142SOL    HW2 7326   1.311   2.302   2.704
 2143SOL     OW 7327   0.992   4.599   0.232
 2143SOL    HW1 7328   1.082   4.582   0.272
 2143SOL    HW2 7329   0.981   4.697   0.215
 2144SOL     OW 7330   5.825   4.829   3.717
 2144SOL    HW1 7331   5.881   4.859   3.640
 2144SOL    HW2 7332   5.758   4.761   3.686
 2145SOL     OW 7333   4.202   0.218   3.553
 2145SOL    HW1 7334   4.139   0.245   3.480
 2145SOL    HW2 7335   4.234   0.299   3.601
 2146SOL     OW 7336   2.072   2.823   6.951
 2146SOL    HW1 7337   2.162   2.831   6.909
 2146SOL    HW2 7338   2.054   2.903   7.009
 2147SOL     OW 7339   6.003   0.344   4.501
 2147SOL    HW1 7340   6.002   0.256   4.455
 2147SOL    HW2 7341   6.010   0.418   4.434
 2148SOL     OW 7342   0.518   3.245   6.389
 2148SOL    HW1 7343   0.514   3.293   6.477
 2148SOL    HW2 7344   0.463   3.294   6.322
 2149SOL     OW 7345   0.718   0.420   7.018
 2149SOL    HW1 7346   0.760   0.337   0.032
 2149SOL    HW2 7347   0.709   0.487   0.072
 2150SOL     OW 7348   2.548   2.551   1.531
 2150SOL    HW1 7349   2.517   2.457   1.513
 2150SOL    HW2 7350   2.645   2.558   1.507
 2151SOL     OW 7351   1.391   5.564   0.275
 2151SOL    HW1 7352   1.347   5.476   0.259
 2151SOL    HW2 7353   1.369   5.596   0.367
 2152SOL     OW 7354   5.076   5.510   4.476
 2152SOL    HW1 7355   5.016   5.437   4.508
 2152SOL    HW2 7356   5.127   5.477   4.396
 2153SOL     OW 7357   4.883   1.582   3.399
 2153SOL    HW1 7358   4.933   1.496   3.397
 2153SOL    HW2 7359   4.797   1.571   3.350
 2154SOL     OW 7360   3.270   0.124   3.486
 2154SOL    HW1 7361   3.358   0.132   3.533
 2154SOL    HW2 7362   3.286   0.107   3.389
 2155SOL     OW 7363   4.502   0.133   0.974
 2155SOL    HW1 7364   4.594   0.112   0.941
 2155SOL    HW2 7365   4.446   0.168   0.899
 2156SOL     OW 7366   5.228   1.566   5.018
 2156SOL    HW1 7367   5.257   1.661   5.030
 2156SOL    HW2 7368   5.268   1.530   4.934
 2157SOL     OW 7369   3.517   5.878   3.973
 2157SOL    HW1 7370   3.504   5.976   3.958
 2157SOL    HW2 7371   3.466   5.850   4.055
 2158SOL     OW 7372   3.736   0.729   0.446
 2158SOL    HW1 7373   3.725   0.668   0.524
 2158SOL    HW2 7374   3.821   0.707   0.399
 2159SOL     OW 7375   0.379   1.130   5.669
 2159SOL    HW1 7376   0.448   1.184   5.622
 2159SOL    HW2 7377   0.382   1.150   5.767
 2160SOL     OW 7378   5.811   6.910   0.309
 2160SOL    HW1 7379   5.844   6.836   0.367
 2160SOL    HW2 7380   5.872   6.989   0.316
 2161SOL     OW 7381   1.629   2.545   1.790
 2161SOL    HW1 7382   1.662   2.464   1.839
 2161SOL    HW2 7383   1.610   2.520   1.695
 2162SOL     OW 7384   0.999   6.990   1.831
 2162SOL    HW1 7385   0.966   6.918   1.893
 2162SOL    HW2 7386   1.046   6.948   1.753
 2163SOL     OW 7387   1.879   3.104   2.609
 2163SOL    HW1 7388   1.978   3.092   2.597
 2163SOL    HW2 7389   1.843   3.029   2.665
 2164SOL     OW 7390   1.883   2.874   2.758
 2164SOL    HW1 7391   1.911   2.884   2.854
 2164SOL    HW2 7392   1.919   2.788   2.722
 2165SOL     OW 7393   6.818   1.585   3.982
 2165SOL    HW1 7394   6.781   1.534   3.905
 2165SOL    HW2 7395   6.881   1.526   4.034
 2166SOL     OW 7396   6.992   4.409   2.797
 2166SOL    HW1 7397   0.012   4.334   2.746
 2166SOL    HW2 7398   6.976   4.381   2.891
 2167SOL     OW 7399   2.447   2.077   3.385
 2167SOL    HW1 7400   2.367   2.028   3.349
 2167SOL    HW2 7401   2.486   2.134   3.313
 2168SOL     OW 7402   1.449   2.028   3.377
 2168SOL    HW1 7403   1.503   2.018   3.460
 2168SOL    HW2 7404   1.501   2.083   3.311
 2169SOL     OW 7405   0.384   0.088   1.522
 2169SOL    HW1 7406   0.449   0.043   1.584
 2169SOL    HW2 7407   0.404   0.186   1.519
 2170SOL     OW 7408   0.927   3.893   5.212
 2170SOL    HW1 7409   0.934   3.989   5.238
 2170SOL    HW2 7410   0.952   3.883   5.116
 2171SOL     OW 7411   0.218   5.430   1.707
 2171SOL    HW1 7412   0.278   5.357   1.676
 2171SOL    HW2 7413   0.122   5.403   1.694
 2172SOL     OW 7414   1.305   1.285   5.079
 2172SOL    HW1 7415   1.350   1.299   4.991
 2172SOL    HW2 7416   1.373   1.287   5.152
 2173SOL     OW 7417   6.313   0.772   5.339
 2173SOL    HW1 7418   6.214   0.773   5.352
 2173SOL    HW2 7419   6.350   0.683   5.369
 2174SOL     OW 7420   6.181   0.210   6.126
 2174SOL    HW1 7421   6.174   0.115   6.097
 2174SOL    HW2 7422   6.096   0.239   6.169
 2175SOL     OW 7423   2.568   3.850   5.314
 2175SOL    HW1 7424   2.528   3.810   5.397
 2175SOL    HW2 7425   2.496   3.868   5.248
 2176SOL     OW 7426   5.736   2.569   1.949
 2176SOL    HW1 7427   5.650   2.608   1.916
 2176SOL    HW2 7428   5.717   2.488   2.004
 2177SOL     OW 7429   0.470   0.221   4.259
 2177SOL    HW1 7430   0.396   0.288   4.250
 2177SOL    HW2 7431   0.473   0.188   4.354
 2178SOL     OW 7432   0.477   1.792   2.761
 2178SOL    HW1 7433   0.548   1.855   2.794
 2178SOL    HW2 7434   0.438   1.743   2.839
 2179SOL     OW 7435   1.244   4.142   6.057
 2179SOL    HW1 7436   1.193   4.226   6.039
 2179SOL    HW2 7437   1.277   4.142   6.151
 2180SOL     OW 7438   0.718   6.191   2.626
 2180SOL    HW1 7439   0.765   6.258   2.683
 2180SOL    HW2 7440   0.637   6.158   2.674
 2181SOL     OW 7441   3.415   5.002   4.594
 2181SOL    HW1 7442   3.353   5.020   4.670
 2181SOL    HW2 7443   3.368   4.945   4.525
 2182SOL     OW 7444   7.006   6.184   2.909
 2182SOL    HW1 7445   0.079   6.148   2.911
 2182SOL    HW2 7446   6.956   6.149   2.988
 2183SOL     OW 7447   3.379   2.894   6.270
 2183SOL    HW1 7448   3.476   2.894   6.245
 2183SOL    HW2 7449   3.328   2.951   6.207
 2184SOL     OW 7450   6.659   1.554   6.864
 2184SOL    HW1 7451   6.640   1.641   6.908
 2184SOL    HW2 7452   6.658   1.480   6.932
 2185SOL     OW 7453   1.026   6.957   6.598
 2185SOL    HW1 7454   1.077   6.929   6.517
 2185SOL    HW2 7455   1.091   6.983   6.670
 2186SOL     OW 7456   0.312   5.056   5.963
 2186SOL    HW1 7457   0.394   5.031   6.015
 2186SOL    HW2 7458   0.338   5.082   5.871
 2187SOL     OW 7459   0.491   5.764   2.349
 2187SOL    HW1 7460   0.544   5.729   2.271
 2187SOL    HW2 7461   0.536   5.846   2.384
 2188SOL     OW 7462   2.304   0.372   0.718
 2188SOL    HW1 7463   2.379   0.437   0.725
 2188SOL    HW2 7464   2.282   0.336   0.809
 2189SOL     OW 7465   2.064   1.652   1.528
 2189SOL    HW1 7466   2.063   1.569   1.584
 2189SOL    HW2 7467   2.012   1.636   1.445
 2190SOL     OW 7468   6.544   3.982   2.056
 2190SOL    HW1 7469   6.612   3.944   1.992
 2190SOL    HW2 7470   6.567   4.078   2.075
 2191SOL     OW 7471   2.931   6.831   0.241
 2191SOL    HW1 7472   3.027   6.804   0.243
 2191SOL    HW2 7473   2.914   6.890   0.162
 2192SOL     OW 7474   4.789   1.742   1.328
 2192SOL    HW1 7475   4.836   1.684   1.394
 2192SOL    HW2 7476   4.803   1.704   1.236
 2193SOL     OW 7477   1.973   6.759   6.011
 2193SOL    HW1 7478   1.883   6.800   5.997
 2193SOL    HW2 7479   2.018   6.745   5.923
 2194SOL     OW 7480   1.127   3.496   5.568
 2194SOL    HW1 7481   1.117   3.468   5.664
 2194SOL    HW2 7482   1.116   3.595   5.561
 2195SOL     OW 7483   0.351   3.487   5.329
 2195SOL    HW1 7484   0.357   3.580   5.293
 2195SOL    HW2 7485   0.429   3.469   5.390
 2196SOL     OW 7486   2.938   0.329   6.518
 2196SOL    HW1 7487   3.035   0.341   6.495
 2196SOL    HW2 7488   2.882   0.374   6.449
 2197SOL     OW 7489   3.546   5.377   5.714
 2197SOL    HW1 7490   3.528   5.475   5.702
 2197SOL    HW2 7491   3.593   5.341   5.634
 2198SOL     OW 7492   0.576   0.314   6.776
 2198SOL    HW1 7493   0.628   0.353   6.852
 2198SOL    HW2 7494   0.634   0.312   6.694
 2199SOL     OW 7495   3.757   6.463   4.864
 2199SOL    HW1 7496   3.812   6.380   4.866
 2199SOL    HW2 7497   3.660   6.440   4.872
 2200SOL     OW 7498   2.780   1.817   4.116
 2200SOL    HW1 7499   2.825   1.750   4.176
 2200SOL    HW2 7500   2.840   1.896   4.103
 2201SOL     OW 7501   6.442   4.095   4.418
 2201SOL    HW1 7502   6.357   4.051   4.447
 2201SOL    HW2 7503   6.493   4.126   4.498
 2202SOL     OW 7504   3.548   6.338   1.915
 2202SOL    HW1 7505   3.645   6.344   1.937
 2202SOL    HW2 7506   3.537   6.325   1.817
 2203SOL     OW 7507   2.175   3.737   1.016
 2203SOL    HW1 7508   2.125   3.748   1.102
 2203SOL    HW2 7509   2.214   3.645   1.011
 2204SOL     OW 7510   5.550   3.675   1.301
 2204SOL    HW1 7511   5.489   3.598   1.282
 2204SOL    HW2 7512   5.638   3.658   1.256
 2205SOL     OW 7513   0.768   5.151   0.378
 2205SOL    HW1 7514   0.828   5.072   0.390
 2205SOL    HW2 7515   0.799   5.205   0.300
 2206SOL     OW 7516   3.257   2.042   5.821
 2206SOL    HW1 7517   3.334   2.063   5.882
 2206SOL    HW2 7518   3.176   2.091   5.853
 2207SOL     OW 7519   4.376   6.165   1.182
 2207SOL    HW1 7520   4.400   6.074   1.216
 2207SOL    HW2 7521   4.391   6.168   1.083
 2208SOL     OW 7522   6.680   6.049   3.444
 2208SOL    HW1 7523   6.664   6.116   3.517
 2208SOL    HW2 7524   6.778   6.048   3.421
 2209SOL     OW 7525   2.877   5.870   4.021
 2209SOL    HW1 7526   2.926   5.820   4.093
 2209SOL    HW2 7527   2.829   5.948   4.060
 2210SOL     OW 7528   4.768   0.074   0.916
 2210SOL    HW1 7529   4.801   0.040   1.004
 2210SOL    HW2 7530   4.789   0.007   0.845
 2211SOL     OW 7531   0.180   1.780   1.131
 2211SOL    HW1 7532   0.188   1.851   1.201
 2211SOL    HW2 7533   0.232   1.699   1.159
 2212SOL     OW 7534   2.880   5.893   6.863
 2212SOL    HW1 7535   2.807   5.831   6.836
 2212SOL    HW2 7536   2.956   5.886   6.798
 2213SOL     OW 7537   3.478   1.673   4.738
 2213SOL    HW1 7538   3.571   1.639   4.748
 2213SOL    HW2 7539   3.414   1.596   4.730
 2214SOL     OW 7540   4.487   3.936   6.843
 2214SOL    HW1 7541   4.538   3.934   6.929
 2214SOL    HW2 7542   4.503   3.851   6.793
 2215SOL     OW 7543   4.133   0.049   6.955
 2215SOL    HW1 7544   4.173   6.980   6.938
 2215SOL    HW2 7545   4.122   0.063   0.033
 2216SOL     OW 7546   0.225   0.091   6.510
 2216SOL    HW1 7547   0.308   0.147   6.506
 2216SOL    HW2 7548   0.204   0.057   6.418
 2217SOL     OW 7549   3.964   0.546   3.675
 2217SOL    HW1 7550   3.922   0.458   3.694
 2217SOL    HW2 7551   4.013   0.578   3.756
 2218SOL     OW 7552   0.712   6.167   5.570
 2218SOL    HW1 7553   0.677   6.162   5.477
 2218SOL    HW2 7554   0.666   6.098   5.626
 2219SOL     OW 7555   6.050   1.074   0.817
 2219SOL    HW1 7556   6.073   1.157   0.766
 2219SOL    HW2 7557   6.099   1.073   0.904
 2220SOL     OW 7558   0.367   5.802   5.120
 2220SOL    HW1 7559   0.398   5.707   5.118
 2220SOL    HW2 7560   0.432   5.860   5.071
 2221SOL     OW 7561   6.447   1.390   3.825
 2221SOL    HW1 7562   6.391   1.407   3.744
 2221SOL    HW2 7563   6.539   1.363   3.798
 2222SOL     OW 7564   5.145   6.709   2.111
 2222SOL    HW1 7565   5.185   6.800   2.124
 2222SOL    HW2 7566   5.118   6.699   2.015
 2223SOL     OW 7567   0.382   6.127   5.453
 2223SOL    HW1 7568   0.356   6.223   5.437
 2223SOL    HW2 7569   0.336   6.069   5.387
 2224SOL     OW 7570   5.637   4.061   0.881
 2224SOL    HW1 7571   5.654   3.991   0.811
 2224SOL    HW2 7572   5.724   4.089   0.922
 2225SOL     OW 7573   0.032   6.876   2.671
 2225SOL    HW1 7574   7.012   6.797   2.717
 2225SOL    HW2 7575   0.024   6.956   2.729
 2226SOL     OW 7576   2.279   5.350   0.822
 2226SOL    HW1 7577   2.217   5.357   0.743
 2226SOL    HW2 7578   2.238   5.396   0.901
 2227SOL     OW 7579   3.704   2.078   1.743
 2227SOL    HW1 7580   3.634   2.009   1.758
 2227SOL    HW2 7581   3.687   2.156   1.803
 2228SOL     OW 7582   5.535   4.915   6.687
 2228SOL    HW1 7583   5.621   4.957   6.717
 2228SOL    HW2 7584   5.463   4.984   6.684
 2229SOL     OW 7585   3.374   3.200   3.791
 2229SOL    HW1 7586   3.364   3.230   3.886
 2229SOL    HW2 7587   3.428   3.268   3.740
 2230SOL     OW 7588   5.323   0.271   0.799
 2230SOL    HW1 7589   5.301   0.336   0.726
 2230SOL    HW2 7590   5.346   0.182   0.758
 2231SOL     OW 7591   1.412   0.140   6.703
 2231SOL    HW1 7592   1.396   0.221   6.647
 2231SOL    HW2 7593   1.493   0.092   6.668
 2232SOL     OW 7594   0.724   0.742   5.228
 2232SOL    HW1 7595   0.762   0.755   5.320
 2232SOL    HW2 7596   0.796   0.749   5.160
 2233SOL     OW 7597   2.959   3.955   0.960
 2233SOL    HW1 7598   3.041   4.001   0.995
 2233SOL    HW2 7599   2.986   3.885   0.894
 2234SOL     OW 7600   5.199   1.617   1.490
 2234SOL    HW1 7601   5.273   1.647   1.431
 2234SOL    HW2 7602   5.171   1.692   1.549
 2235SOL     OW 7603   1.262   1.691   3.551
 2235SOL    HW1 7604   1.212   1.621   3.501
 2235SOL    HW2 7605   1.251   1.779   3.505
 2236SOL     OW 7606   1.744   4.321   5.225
 2236SOL    HW1 7607   1.803   4.381   5.172
 2236SOL    HW2 7608   1.799   4.252   5.272
 2237SOL     OW 7609   6.813   5.427   6.043
 2237SOL    HW1 7610   6.724   5.462   6.072
 2237SOL    HW2 7611   6.880   5.501   6.047
 2238SOL     OW 7612   5.459   4.456   2.132
 2238SOL    HW1 7613   5.520   4.380   2.111
 2238SOL    HW2 7614   5.471   4.482   2.228
 2239SOL     OW 7615   4.080   6.726   3.211
 2239SOL    HW1 7616   3.980   6.732   3.221
 2239SOL    HW2 7617   4.123   6.743   3.300
 2240SOL     OW 7618   4.892   4.940   3.482
 2240SOL    HW1 7619   4.857   4.882   3.555
 2240SOL    HW2 7620   4.818   4.961   3.417
 2241SOL     OW 7621   0.480   0.736   1.621
 2241SOL    HW1 7622   0.514   0.786   1.701
 2241SOL    HW2 7623   0.503   0.787   1.538
 2242SOL     OW 7624   4.846   3.223   3.281
 2242SOL    HW1 7625   4.843   3.173   3.194
 2242SOL    HW2 7626   4.881   3.163   3.353
 2243SOL     OW 7627   1.471   6.258   0.757
 2243SOL    HW1 7628   1.484   6.204   0.674
 2243SOL    HW2 7629   1.556   6.306   0.779
 2244SOL     OW 7630   2.855   0.618   0.629
 2244SOL    HW1 7631   2.810   0.597   0.716
 2244SOL    HW2 7632   2.785   0.636   0.559
 2245SOL     OW 7633   0.598   0.009   6.778
 2245SOL    HW1 7634   0.511   0.057   6.790
 2245SOL    HW2 7635   0.605   6.955   6.844
 2246SOL     OW 7636   2.540   0.603   5.002
 2246SOL    HW1 7637   2.521   0.693   4.963
 2246SOL    HW2 7638   2.639   0.588   5.007
 2247SOL     OW 7639   3.106   4.024   2.734
 2247SOL    HW1 7640   3.043   3.947   2.734
 2247SOL    HW2 7641   3.126   4.052   2.828
 2248SOL     OW 7642   4.898   4.215   4.997
 2248SOL    HW1 7643   4.935   4.126   5.025
 2248SOL    HW2 7644   4.839   4.251   5.069
 2249SOL     OW 7645   2.006   6.223   3.057
 2249SOL    HW1 7646   2.014   6.204   3.155
 2249SOL    HW2 7647   2.096   6.216   3.015
 2250SOL     OW 7648   4.374   5.117   6.228
 2250SOL    HW1 7649   4.472   5.097   6.236
 2250SOL    HW2 7650   4.332   5.113   6.319
 2251SOL     OW 7651   5.395   6.488   5.982
 2251SOL    HW1 7652   5.408   6.585   5.959
 2251SOL    HW2 7653   5.304   6.476   6.022
 2252SOL     OW 7654   4.477   1.521   3.048
 2252SOL    HW1 7655   4.429   1.584   2.987
 2252SOL    HW2 7656   4.495   1.436   2.999
 2253SOL     OW 7657   0.399   3.564   0.945
 2253SOL    HW1 7658   0.378   3.562   0.848
 2253SOL    HW2 7659   0.451   3.483   0.970
 2254SOL     OW 7660   3.557   3.479   2.717
 2254SOL    HW1 7661   3.493   3.475   2.640
 2254SOL    HW2 7662   3.617   3.558   2.706
 2255SOL     OW 7663   3.603   3.736   6.398
 2255SOL    HW1 7664   3.539   3.746   6.322
 2255SOL    HW2 7665   3.577   3.798   6.472
 2256SOL     OW 7666   4.659   7.002   2.167
 2256SOL    HW1 7667   4.754   6.971   2.172
 2256SOL    HW2 7668   4.620   7.006   2.259
 2257SOL     OW 7669   0.624   0.962   4.856
 2257SOL    HW1 7670   0.540   0.982   4.907
 2257SOL    HW2 7671   0.694   1.029   4.880
 2258SOL     OW 7672   3.032   5.857   3.802
 2258SOL    HW1 7673   3.108   5.908   3.841
 2258SOL    HW2 7674   2.954   5.859   3.865
 2259SOL     OW 7675   5.968   2.145   4.368
 2259SOL    HW1 7676   5.950   2.152   4.269
 2259SOL    HW2 7677   6.012   2.230   4.399
 2260SOL     OW 7678   1.339   3.636   1.450
 2260SOL    HW1 7679   1.272   3.683   1.506
 2260SOL    HW2 7680   1.431   3.663   1.479
 2261SOL     OW 7681   5.539   4.074   6.638
 2261SOL    HW1 7682   5.480   4.080   6.558
 2261SOL    HW2 7683   5.532   3.983   6.679
 2262SOL     OW 7684   6.655   0.224   4.419
 2262SOL    HW1 7685   6.664   0.162   4.497
 2262SOL    HW2 7686   6.559   0.236   4.397
 2263SOL     OW 7687   1.415   4.718   6.677
 2263SOL    HW1 7688   1.349   4.773   6.626
 2263SOL    HW2 7689   1.436   4.764   6.764
 2264SOL     OW 7690   2.357   0.013   5.708
 2264SOL    HW1 7691   2.305   0.008   5.623
 2264SOL    HW2 7692   2.358   0.108   5.740
 2265SOL     OW 7693   0.858   6.267   4.503
 2265SOL    HW1 7694   0.778   6.276   4.444
 2265SOL    HW2 7695   0.856   6.338   4.573
 2266SOL     OW 7696   4.345   1.789   6.713
 2266SOL    HW1 7697   4.444   1.799   6.706
 2266SOL    HW2 7698   4.314   1.718   6.651
 2267SOL     OW 7699   4.753   2.727   4.345
 2267SOL    HW1 7700   4.839   2.721   4.294
 2267SOL    HW2 7701   4.767   2.692   4.437
 2268SOL     OW 7702   0.329   5.252   5.713
 2268SOL    HW1 7703   0.356   5.200   5.632
 2268SOL    HW2 7704   0.242   5.298   5.695
 2269SOL     OW 7705   2.126   2.345   4.993
 2269SOL    HW1 7706   2.137   2.319   5.089
 2269SOL    HW2 7707   2.059   2.418   4.986
 2270SOL     OW 7708   4.722   1.814   6.057
 2270SOL    HW1 7709   4.673   1.764   5.985
 2270SOL    HW2 7710   4.808   1.848   6.019
 2271SOL     OW 7711   5.355   4.970   5.882
 2271SOL    HW1 7712   5.330   4.875   5.896
 2271SOL    HW2 7713   5.291   5.013   5.818
 2272SOL     OW 7714   5.703   1.237   5.871
 2272SOL    HW1 7715   5.656   1.321   5.897
 2272SOL    HW2 7716   5.675   1.211   5.778
 2273SOL     OW 7717   1.302   2.802   2.302
 2273SOL    HW1 7718   1.271   2.791   2.396
 2273SOL    HW2 7719   1.253   2.738   2.243
 2274SOL     OW 7720   0.458   1.435   6.513
 2274SOL    HW1 7721   0.538   1.414   6.569
 2274SOL    HW2 7722   0.446   1.363   6.444
 2275SOL     OW 7723   5.822   4.948   2.331
 2275SOL    HW1 7724   5.808   4.873   2.395
 2275SOL    HW2 7725   5.861   5.027   2.380
 2276SOL     OW 7726   1.269   2.097   1.159
 2276SOL    HW1 7727   1.188   2.139   1.199
 2276SOL    HW2 7728   1.244   2.014   1.109
 2277SOL     OW 7729   3.574   3.246   3.511
 2277SOL    HW1 7730   3.632   3.297   3.447
 2277SOL    HW2 7731   3.531   3.310   3.575
 2278SOL     OW 7732   0.571   2.234   3.841
 2278SOL    HW1 7733   0.660   2.250   3.884
 2278SOL    HW2 7734   0.544   2.138   3.855
 2279SOL     OW 7735   0.662   6.126   5.187
 2279SOL    HW1 7736   0.599   6.204   5.185
 2279SOL    HW2 7737   0.630   6.055   5.124
 2280SOL     OW 7738   4.741   1.622   5.074
 2280SOL    HW1 7739   4.689   1.642   4.991
 2280SOL    HW2 7740   4.817   1.560   5.053
 2281SOL     OW 7741   5.394   0.207   2.600
 2281SOL    HW1 7742   5.445   0.258   2.669
 2281SOL    HW2 7743   5.455   0.140   2.556
 2282SOL     OW 7744   4.140   5.907   5.758
 2282SOL    HW1 7745   4.210   5.977   5.741
 2282SOL    HW2 7746   4.152   5.832   5.693
 2283SOL     OW 7747   0.598   0.357   3.768
 2283SOL    HW1 7748   0.595   0.421   3.845
 2283SOL    HW2 7749   0.628   0.267   3.801
 2284SOL     OW 7750   1.473   3.234   6.672
 2284SOL    HW1 7751   1.567   3.267   6.683
 2284SOL    HW2 7752   1.418   3.267   6.749
 2285SOL     OW 7753   1.284   4.123   6.322
 2285SOL    HW1 7754   1.223   4.118   6.401
 2285SOL    HW2 7755   1.365   4.067   6.339
 2286SOL     OW 7756   4.580   6.066   4.109
 2286SOL    HW1 7757   4.628   6.099   4.028
 2286SOL    HW2 7758   4.533   6.143   4.154
 2287SOL     OW 7759   1.863   0.938   3.384
 2287SOL    HW1 7760   1.766   0.949   3.405
 2287SOL    HW2 7761   1.879   0.847   3.345
 2288SOL     OW 7762   0.253   6.494   2.993
 2288SOL    HW1 7763   0.250   6.447   3.081
 2288SOL    HW2 7764   0.281   6.589   3.007
 2289SOL     OW 7765   0.935   5.793   1.755
 2289SOL    HW1 7766   0.896   5.866   1.811
 2289SOL    HW2 7767   1.013   5.828   1.704
 2290SOL     OW 7768   0.626   5.326   0.577
 2290SOL    HW1 7769   0.639   5.290   0.669
 2290SOL    HW2 7770   0.684   5.275   0.513
 2291SOL     OW 7771   2.778   1.751   6.326
 2291SOL    HW1 7772   2.739   1.800   6.248
 2291SOL    HW2 7773   2.724   1.771   6.408
 2292SOL     OW 7774   1.374   0.972   4.680
 2292SOL    HW1 7775   1.378   1.041   4.608
 2292SOL    HW2 7776   1.377   0.881   4.639
 2293SOL     OW 7777   5.606   4.980   2.167
 2293SOL    HW1 7778   5.571   4.893   2.131
 2293SOL    HW2 7779   5.684   4.963   2.227
 2294SOL     OW 7780   4.196   6.436   6.870
 2294SOL    HW1 7781   4.214   6.356   6.927
 2294SOL    HW2 7782   4.108   6.426   6.824
 2295SOL     OW 7783   0.372   2.350   1.219
 2295SOL    HW1 7784   0.395   2.254   1.204
 2295SOL    HW2 7785   0.449   2.397   1.264
 2296SOL     OW 7786   3.400   6.713   0.035
 2296SOL    HW1 7787   3.411   6.803   7.014
 2296SOL    HW2 7788   3.424   6.642   6.989
 2297SOL     OW 7789   4.418   5.434   5.766
 2297SOL    HW1 7790   4.442   5.531   5.770
 2297SOL    HW2 7791   4.420   5.396   5.859
 2298SOL     OW 7792   3.983   3.140   0.406
 2298SOL    HW1 7793   3.935   3.208   0.350
 2298SOL    HW2 7794   4.064   3.108   0.356
 2299SOL     OW 7795   4.864   5.852   0.356
 2299SOL    HW1 7796   4.858   5.809   0.266
 2299SOL    HW2 7797   4.959   5.875   0.376
 2300SOL     OW 7798   1.787   5.268   1.335
 2300SOL    HW1 7799   1.767   5.172   1.351
 2300SOL    HW2 7800   1.764   5.321   1.416
 2301SOL     OW 7801   4.081   3.335   2.743
 2301SOL    HW1 7802   3.998   3.292   2.705
 2301SOL    HW2 7803   4.135   3.372   2.668
 2302SOL     OW 7804   3.234   5.518   2.635
 2302SOL    HW1 7805   3.256   5.564   2.720
 2302SOL    HW2 7806   3.308   5.531   2.569
 2303SOL     OW 7807   1.446   2.436   4.626
 2303SOL    HW1 7808   1.348   2.454   4.639
 2303SOL    HW2 7809   1.458   2.342   4.596
 2304SOL     OW 7810   2.237   0.933   4.005
 2304SOL    HW1 7811   2.142   0.922   4.031
 2304SOL    HW2 7812   2.285   0.846   4.014
 2305SOL     OW 7813   3.294   5.328   1.931
 2305SOL    HW1 7814   3.341   5.317   2.019
 2305SOL    HW2 7815   3.348   5.286   1.858
 2306SOL     OW 7816   1.346   4.070   1.209
 2306SOL    HW1 7817   1.288   3.991   1.190
 2306SOL    HW2 7818   1.419   4.076   1.141
 2307SOL     OW 7819   0.432   2.427   2.831
 2307SOL    HW1 7820   0.495   2.404   2.758
 2307SOL    HW2 7821   0.414   2.346   2.887
 2308SOL     OW 7822   0.156   0.019   0.261
 2308SOL    HW1 7823   0.219   7.004   0.192
 2308SOL    HW2 7824   0.158   0.119   0.261
 2309SOL     OW 7825   3.353   5.361   6.449
 2309SOL    HW1 7826   3.292   5.282   6.440
 2309SOL    HW2 7827   3.438   5.332   6.494
 2310SOL     OW 7828   5.552   0.900   1.977
 2310SOL    HW1 7829   5.620   0.859   1.917
 2310SOL    HW2 7830   5.470   0.921   1.924
 2311SOL     OW 7831   2.948   0.315   3.138
 2311SOL    HW1 7832   3.046   0.311   3.156
 2311SOL    HW2 7833   2.924   0.407   3.104
 2312SOL     OW 7834   4.091   0.888   3.188
 2312SOL    HW1 7835   4.127   0.807   3.143
 2312SOL    HW2 7836   4.137   0.901   3.276
 2313SOL     OW 7837   5.172   3.898   2.024
 2313SOL    HW1 7838   5.233   3.864   1.952
 2313SOL    HW2 7839   5.088   3.844   2.025
 2314SOL     OW 7840   6.368   0.252   3.103
 2314SOL    HW1 7841   6.435   0.202   3.158
 2314SOL    HW2 7842   6.283   0.261   3.154
 2315SOL     OW 7843   4.278   4.714   5.969
 2315SOL    HW1 7844   4.377   4.724   5.982
 2315SOL    HW2 7845   4.257   4.620   5.942
 2316SOL     OW 7846   2.952   1.077   5.977
 2316SOL    HW1 7847   2.982   1.136   5.902
 2316SOL    HW2 7848   2.887   1.126   6.035
 2317SOL     OW 7849   6.000   6.017   3.601
 2317SOL    HW1 7850   5.977   6.014   3.504
 2317SOL    HW2 7851   5.933   6.071   3.650
 2318SOL     OW 7852   1.972   4.637   4.847
 2318SOL    HW1 7853   2.061   4.645   4.802
 2318SOL    HW2 7854   1.900   4.629   4.777
 2319SOL     OW 7855   2.451   5.006   4.413
 2319SOL    HW1 7856   2.470   5.042   4.322
 2319SOL    HW2 7857   2.512   5.050   4.479
 2320SOL     OW 7858   1.292   3.278   4.883
 2320SOL    HW1 7859   1.275   3.377   4.875
 2320SOL    HW2 7860   1.386   3.263   4.915
 2321SOL     OW 7861   2.757   4.950   6.353
 2321SOL    HW1 7862   2.766   4.890   6.273
 2321SOL    HW2 7863   2.738   5.043   6.323
 2322SOL     OW 7864   1.862   3.489   2.452
 2322SOL    HW1 7865   1.952   3.516   2.488
 2322SOL    HW2 7866   1.802   3.568   2.449
 2323SOL     OW 7867   2.170   5.010   1.595
 2323SOL    HW1 7868   2.122   5.023   1.682
 2323SOL    HW2 7869   2.267   5.028   1.607
 2324SOL     OW 7870   0.649   5.214   1.758
 2324SOL    HW1 7871   0.648   5.306   1.797
 2324SOL    HW2 7872   0.710   5.155   1.811
 2325SOL     OW 7873   6.793   5.244   1.887
 2325SOL    HW1 7874   6.825   5.153   1.915
 2325SOL    HW2 7875   6.742   5.286   1.962
 2326SOL     OW 7876   1.124   0.450   6.522
 2326SOL    HW1 7877   1.065   0.468   6.443
 2326SOL    HW2 7878   1.075   0.392   6.587
 2327SOL     OW 7879   6.476   0.337   2.286
 2327SOL    HW1 7880   6.443   0.305   2.375
 2327SOL    HW2 7881   6.454   0.269   2.216
 2328SOL     OW 7882   1.590   2.184   2.178
 2328SOL    HW1 7883   1.675   2.164   2.130
 2328SOL    HW2 7884   1.601   2.161   2.275
 2329SOL     OW 7885   0.983   5.147   3.606
 2329SOL    HW1 7886   0.954   5.236   3.642
 2329SOL    HW2 7887   1.082   5.147   3.595
 2330SOL     OW 7888   6.684   3.112   0.205
 2330SOL    HW1 7889   6.652   3.207   0.198
 2330SOL    HW2 7890   6.625   3.062   0.269
 2331SOL     OW 7891   3.623   5.871   0.341
 2331SOL    HW1 7892   3.591   5.808   0.270
 2331SOL    HW2 7893   3.707   5.836   0.382
 2332SOL     OW 7894   5.239   6.952   6.476
 2332SOL    HW1 7895   5.229   6.853   6.486
 2332SOL    HW2 7896   5.323   6.972   6.425
 2333SOL     OW 7897   0.089   5.270   2.838
 2333SOL    HW1 7898   0.162   5.339   2.835
 2333SOL    HW2 7899   0.049   5.260   2.747
 2334SOL     OW 7900   2.738   0.887   5.842
 2334SOL    HW1 7901   2.776   0.795   5.853
 2334SOL    HW2 7902   2.787   0.934   5.769
 2335SOL     OW 7903   6.328   1.723   3.612
 2335SOL    HW1 7904   6.297   1.756   3.702
 2335SOL    HW2 7905   6.283   1.775   3.540
 2336SOL     OW 7906   2.132   1.925   3.169
 2336SOL    HW1 7907   2.159   1.897   3.077
 2336SOL    HW2 7908   2.198   1.892   3.236
 2337SOL     OW 7909   4.073   2.067   1.277
 2337SOL    HW1 7910   4.127   1.984   1.263
 2337SOL    HW2 7911   4.106   2.114   1.360
 2338SOL     OW 7912   0.587   3.537   4.012
 2338SOL    HW1 7913   0.522   3.537   4.088
 2338SOL    HW2 7914   0.578   3.623   3.961
 2339SOL     OW 7915   2.967   3.220   2.569
 2339SOL    HW1 7916   2.990   3.130   2.608
 2339SOL    HW2 7917   2.988   3.221   2.472
 2340SOL     OW 7918   0.971   4.827   6.612
 2340SOL    HW1 7919   0.939   4.738   6.645
 2340SOL    HW2 7920   0.902   4.868   6.552
 2341SOL     OW 7921   2.393   4.451   3.107
 2341SOL    HW1 7922   2.370   4.409   3.020
 2341SOL    HW2 7923   2.367   4.390   3.182
 2342SOL     OW 7924   3.128   6.710   4.234
 2342SOL    HW1 7925   3.082   6.622   4.221
 2342SOL    HW2 7926   3.153   6.749   4.145
 2343SOL     OW 7927   2.034   6.557   2.838
 2343SOL    HW1 7928   2.050   6.504   2.754
 2343SOL    HW2 7929   2.114   6.549   2.898
 2344SOL     OW 7930   6.255   4.678   0.976
 2344SOL    HW1 7931   6.345   4.673   0.933
 2344SOL    HW2 7932   6.258   4.743   1.053
 2345SOL     OW 7933   2.945   5.587   4.510
 2345SOL    HW1 7934   2.906   5.561   4.422
 2345SOL    HW2 7935   3.007   5.665   4.496
 2346SOL     OW 7936   4.138   3.574   6.144
 2346SOL    HW1 7937   4.114   3.642   6.213
 2346SOL    HW2 7938   4.223   3.602   6.098
 2347SOL     OW 7939   1.056   1.867   1.703
 2347SOL    HW1 7940   0.996   1.946   1.689
 2347SOL    HW2 7941   1.134   1.873   1.641
 2348SOL     OW 7942   1.439   6.076   3.032
 2348SOL    HW1 7943   1.361   6.101   2.975
 2348SOL    HW2 7944   1.510   6.146   3.023
 2349SOL     OW 7945   0.849   3.909   6.256
 2349SOL    HW1 7946   0.753   3.937   6.255
 2349SOL    HW2 7947   0.865   3.848   6.334
 2350SOL     OW 7948   6.095   4.257   5.795
 2350SOL    HW1 7949   6.162   4.188   5.769
 2350SOL    HW2 7950   6.071   4.312   5.715
 2351SOL     OW 7951   2.608   4.748   2.885
 2351SOL    HW1 7952   2.564   4.680   2.827
 2351SOL    HW2 7953   2.544   4.823   2.904
 2352SOL     OW 7954   0.150   2.991   3.459
 2352SOL    HW1 7955   0.140   2.921   3.530
 2352SOL    HW2 7956   0.128   3.080   3.498
 2353SOL     OW 7957   4.202   5.391   5.597
 2353SOL    HW1 7958   4.219   5.441   5.512
 2353SOL    HW2 7959   4.284   5.394   5.655
 2354SOL     OW 7960   2.905   2.173   4.584
 2354SOL    HW1 7961   2.824   2.117   4.603
 2354SOL    HW2 7962   2.898   2.259   4.636
 2355SOL     OW 7963   2.330   6.010   4.618
 2355SOL    HW1 7964   2.417   5.962   4.625
 2355SOL    HW2 7965   2.339   6.101   4.660
 2356SOL     OW 7966   0.732   2.852   6.736
 2356SOL    HW1 7967   0.816   2.821   6.782
 2356SOL    HW2 7968   0.689   2.924   6.790
 2357SOL     OW 7969   3.136   1.150   2.369
 2357SOL    HW1 7970   3.234   1.164   2.355
 2357SOL    HW2 7971   3.093   1.234   2.402
 2358SOL     OW 7972   3.072   4.494   6.031
 2358SOL    HW1 7973   2.982   4.522   5.996
 2358SOL    HW2 7974   3.126   4.574   6.054
 2359SOL     OW 7975   1.327   0.106   5.368
 2359SOL    HW1 7976   1.235   0.146   5.362
 2359SOL    HW2 7977   1.381   0.136   5.291
 2360SOL     OW 7978   6.224   3.789   0.967
 2360SOL    HW1 7979   6.281   3.814   1.046
 2360SOL    HW2 7980   6.208   3.690   0.967
 2361SOL     OW 7981   3.037   1.273   5.823
 2361SOL    HW1 7982   2.986   1.343   5.873
 2361SOL    HW2 7983   3.014   1.278   5.726
 2362SOL     OW 7984   3.246   4.946   3.485
 2362SOL    HW1 7985   3.317   5.003   3.527
 2362SOL    HW2 7986   3.210   4.882   3.553
 2363SOL     OW 7987   3.950   1.677   3.332
 2363SOL    HW1 7988   3.955   1.578   3.346
 2363SOL    HW2 7989   3.887   1.697   3.256
 2364SOL     OW 7990   1.213   2.420   1.453
 2364SOL    HW1 7991   1.263   2.391   1.534
 2364SOL    HW2 7992   1.141   2.485   1.479
 2365SOL     OW 7993   5.957   2.453   6.967
 2365SOL    HW1 7994   5.895   2.455   0.025
 2365SOL    HW2 7995   6.016   2.533   6.969
 2366SOL     OW 7996   3.741   5.445   0.655
 2366SOL    HW1 7997   3.832   5.475   0.627
 2366SOL    HW2 7998   3.746   5.405   0.747
 2367SOL     OW 7999   2.129   3.172   0.508
 2367SOL    HW1 8000   2.040   3.144   0.544
 2367SOL    HW2 8001   2.117   3.212   0.417
 2368SOL     OW 8002   5.898   6.898   3.893
 2368SOL    HW1 8003   5.890   6.872   3.796
 2368SOL    HW2 8004   5.909   6.997   3.900
 2369SOL     OW 8005   2.089   6.880   3.854
 2369SOL    HW1 8006   2.135   6.837   3.932
 2369SOL    HW2 8007   2.140   6.963   3.828
 2370SOL     OW 8008   5.849   2.940   6.385
 2370SOL    HW1 8009   5.769   2.996   6.365
 2370SOL    HW2 8010   5.844   2.908   6.480
 2371SOL     OW 8011   2.162   0.270   1.440
 2371SOL    HW1 8012   2.105   0.199   1.480
 2371SOL    HW2 8013   2.200   0.327   1.512
 2372SOL     OW 8014   0.060   2.510   2.304
 2372SOL    HW1 8015   6.983   2.496   2.289
 2372SOL    HW2 8016   0.095   2.575   2.237
 2373SOL     OW 8017   2.051   3.627   5.707
 2373SOL    HW1 8018   1.984   3.555   5.688
 2373SOL    HW2 8019   2.014   3.715   5.678
 2374SOL     OW 8020   6.545   1.837   5.140
 2374SOL    HW1 8021   6.506   1.775   5.072
 2374SOL    HW2 8022   6.611   1.898   5.096
 2375SOL     OW 8023   3.506   5.640   5.618
 2375SOL    HW1 8024   3.474   5.596   5.534
 2375SOL    HW2 8025   3.598   5.678   5.602
 2376SOL     OW 8026   6.177   3.505   3.643
 2376SOL    HW1 8027   6.171   3.523   3.741
 2376SOL    HW2 8028   6.115   3.431   3.619
 2377SOL     OW 8029   3.197   3.654   4.122
 2377SOL    HW1 8030   3.161   3.561   4.124
 2377SOL    HW2 8031   3.122   3.719   4.132
 2378SOL     OW 8032   4.983   1.959   0.093
 2378SOL    HW1 8033   5.042   1.969   0.013
 2378SOL    HW2 8034   4.906   2.022   0.085
 2379SOL     OW 8035   6.384   1.086   0.656
 2379SOL    HW1 8036   6.447   1.140   0.600
 2379SOL    HW2 8037   6.427   1.064   0.743
 2380SOL     OW 8038   6.587   2.679   0.720
 2380SOL    HW1 8039   6.642   2.754   0.684
 2380SOL    HW2 8040   6.619   2.654   0.811
 2381SOL     OW 8041   1.865   5.461   2.894
 2381SOL    HW1 8042   1.850   5.521   2.973
 2381SOL    HW2 8043   1.955   5.419   2.901
 2382SOL     OW 8044   2.001   3.490   4.851
 2382SOL    HW1 8045   2.049   3.543   4.781
 2382SOL    HW2 8046   1.906   3.521   4.857
 2383SOL     OW 8047   6.839   6.607   0.945
 2383SOL    HW1 8048   6.850   6.704   0.963
 2383SOL    HW2 8049   6.800   6.594   0.853
 2384SOL     OW 8050   4.877   1.918   2.005
 2384SOL    HW1 8051   4.917   2.001   2.044
 2384SOL    HW2 8052   4.777   1.928   2.001
 2385SOL     OW 8053   6.988   0.761   6.873
 2385SOL    HW1 8054   6.938   0.703   6.937
 2385SOL    HW2 8055   7.019   0.843   6.921
 2386SOL     OW 8056   5.106   6.029   5.458
 2386SOL    HW1 8057   5.131   5.932   5.455
 2386SOL    HW2 8058   5.167   6.077   5.521
 2387SOL     OW 8059   1.699   1.029   4.025
 2387SOL    HW1 8060   1.644   1.090   3.968
 2387SOL    HW2 8061   1.690   0.935   3.994
 2388SOL     OW 8062   6.639   3.124   3.771
 2388SOL    HW1 8063   6.603   3.038   3.810
 2388SOL    HW2 8064   6.603   3.201   3.823
 2389SOL     OW 8065   4.446   4.533   3.452
 2389SOL    HW1 8066   4.511   4.458   3.467
 2389SOL    HW2 8067   4.412   4.528   3.358
 2390SOL     OW 8068   4.110   3.647   2.575
 2390SOL    HW1 8069   4.072   3.634   2.666
 2390SOL    HW2 8070   4.162   3.565   2.549
 2391SOL     OW 8071   4.671   4.838   6.303
 2391SOL    HW1 8072   4.609   4.790   6.365
 2391SOL    HW2 8073   4.730   4.771   6.257
 2392SOL     OW 8074   2.668   6.899   6.539
 2392SOL    HW1 8075   2.670   6.860   6.631
 2392SOL    HW2 8076   2.612   6.981   6.538
 2393SOL     OW 8077   4.377   4.548   6.295
 2393SOL    HW1 8078   4.433   4.563   6.377
 2393SOL    HW2 8079   4.316   4.626   6.280
 2394SOL     OW 8080   0.138   4.502   4.894
 2394SOL    HW1 8081   0.197   4.425   4.918
 2394SOL    HW2 8082   0.071   4.472   4.826
 2395SOL     OW 8083   4.576   6.406   6.089
 2395SOL    HW1 8084   4.670   6.392   6.119
 2395SOL    HW2 8085   4.533   6.318   6.068
 2396SOL     OW 8086   4.091   5.117   0.895
 2396SOL    HW1 8087   4.119   5.213   0.899
 2396SOL    HW2 8088   4.147   5.063   0.957
 2397SOL     OW 8089   0.553   4.246   4.239
 2397SOL    HW1 8090   0.606   4.315   4.289
 2397SOL    HW2 8091   0.603   4.159   4.241
 2398SOL     OW 8092   5.251   4.612   6.151
 2398SOL    HW1 8093   5.237   4.585   6.056
 2398SOL    HW2 8094   5.349   4.614   6.171
 2399SOL     OW 8095   4.664   1.434   1.513
 2399SOL    HW1 8096   4.686   1.337   1.501
 2399SOL    HW2 8097   4.748   1.487   1.520
 2400SOL     OW 8098   2.562   4.668   0.711
 2400SOL    HW1 8099   2.555   4.584   0.658
 2400SOL    HW2 8100   2.657   4.684   0.737
 2401SOL     OW 8101   6.133   6.051   6.162
 2401SOL    HW1 8102   6.110   5.991   6.085
 2401SOL    HW2 8103   6.119   6.002   6.248
 2402SOL     OW 8104   0.789   6.699   4.119
 2402SOL    HW1 8105   0.795   6.651   4.206
 2402SOL    HW2 8106   0.862   6.667   4.058
 2403SOL     OW 8107   1.247   2.534   5.128
 2403SOL    HW1 8108   1.215   2.459   5.070
 2403SOL    HW2 8109   1.302   2.598   5.074
 2404SOL     OW 8110   2.145   0.583   0.980
 2404SOL    HW1 8111   2.110   0.667   1.022
 2404SOL    HW2 8112   2.244   0.577   0.994
 2405SOL     OW 8113   3.361   3.976   2.670
 2405SOL    HW1 8114   3.360   3.882   2.706
 2405SOL    HW2 8115   3.269   4.015   2.679
 2406SOL     OW 8116   4.235   1.835   0.731
 2406SOL    HW1 8117   4.285   1.916   0.761
 2406SOL    HW2 8118   4.299   1.758   0.722
 2407SOL     OW 8119   5.026   1.402   3.720
 2407SOL    HW1 8120   5.104   1.454   3.755
 2407SOL    HW2 8121   5.043   1.304   3.731
 2408SOL     OW 8122   4.593   4.532   2.111
 2408SOL    HW1 8123   4.689   4.516   2.088
 2408SOL    HW2 8124   4.539   4.451   2.085
 2409SOL     OW 8125   2.084   3.470   1.271
 2409SOL    HW1 8126   2.084   3.570   1.265
 2409SOL    HW2 8127   2.057   3.443   1.363
 2410SOL     OW 8128   3.145   3.462   3.647
 2410SOL    HW1 8129   3.215   3.479   3.717
 2410SOL    HW2 8130   3.184   3.406   3.574
 2411SOL     OW 8131   5.422   6.577   4.761
 2411SOL    HW1 8132   5.375   6.595   4.675
 2411SOL    HW2 8133   5.442   6.479   4.768
 2412SOL     OW 8134   5.051   3.874   1.026
 2412SOL    HW1 8135   5.115   3.799   1.043
 2412SOL    HW2 8136   4.990   3.884   1.104
 2413SOL     OW 8137   5.022   0.380   1.927
 2413SOL    HW1 8138   5.026   0.374   1.828
 2413SOL    HW2 8139   5.103   0.428   1.962
 2414SOL     OW 8140   5.075   3.343   3.949
 2414SOL    HW1 8141   5.000   3.282   3.973
 2414SOL    HW2 8142   5.093   3.405   4.026
 2415SOL     OW 8143   5.467   0.930   2.984
 2415SOL    HW1 8144   5.381   0.945   2.936
 2415SOL    HW2 8145   5.471   0.990   3.064
 2416SOL     OW 8146   5.046   1.650   6.183
 2416SOL    HW1 8147   4.982   1.705   6.130
 2416SOL    HW2 8148   5.122   1.706   6.213
 2417SOL     OW 8149   2.988   3.199   4.854
 2417SOL    HW1 8150   2.955   3.263   4.785
 2417SOL    HW2 8151   3.079   3.166   4.829
 2418SOL     OW 8152   3.395   3.510   3.351
 2418SOL    HW1 8153   3.348   3.458   3.421
 2418SOL    HW2 8154   3.383   3.608   3.368
 2419SOL     OW 8155   0.370   0.146   3.197
 2419SOL    HW1 8156   0.272   0.151   3.180
 2419SOL    HW2 8157   0.419   0.153   3.110
 2420SOL     OW 8158   2.774   0.138   1.648
 2420SOL    HW1 8159   2.836   0.205   1.606
 2420SOL    HW2 8160   2.811   0.110   1.737
 2421SOL     OW 8161   1.942   2.246   4.814
 2421SOL    HW1 8162   1.965   2.179   4.885
 2421SOL    HW2 8163   1.862   2.299   4.843
 2422SOL     OW 8164   4.920   2.097   1.090
 2422SOL    HW1 8165   4.846   2.037   1.062
 2422SOL    HW2 8166   4.911   2.119   1.187
 2423SOL     OW 8167   2.423   5.649   2.245
 2423SOL    HW1 8168   2.418   5.552   2.224
 2423SOL    HW2 8169   2.509   5.687   2.209
 2424SOL     OW 8170   5.983   1.134   0.418
 2424SOL    HW1 8171   5.995   1.132   0.319
 2424SOL    HW2 8172   6.068   1.164   0.461
 2425SOL     OW 8173   6.386   6.791   3.831
 2425SOL    HW1 8174   6.370   6.717   3.896
 2425SOL    HW2 8175   6.313   6.790   3.762
 2426SOL     OW 8176   2.218   4.502   4.254
 2426SOL    HW1 8177   2.267   4.534   4.335
 2426SOL    HW2 8178   2.279   4.502   4.175
 2427SOL     OW 8179   6.331   6.529   5.437
 2427SOL    HW1 8180   6.352   6.576   5.351
 2427SOL    HW2 8181   6.408   6.539   5.500
 2428SOL     OW 8182   0.487   0.842   1.056
 2428SOL    HW1 8183   0.531   0.924   1.021
 2428SOL    HW2 8184   0.389   0.845   1.035
 2429SOL     OW 8185   4.677   5.955   2.011
 2429SOL    HW1 8186   4.614   5.942   1.935
 2429SOL    HW2 8187   4.652   6.038   2.062
 2430SOL     OW 8188   6.193   0.665   2.944
 2430SOL    HW1 8189   6.269   0.730   2.939
 2430SOL    HW2 8190   6.122   0.693   2.880
 2431SOL     OW 8191   4.096   0.898   2.036
 2431SOL    HW1 8192   4.126   0.825   1.975
 2431SOL    HW2 8193   4.128   0.986   1.999
 2432SOL     OW 8194   3.633   6.377   2.398
 2432SOL    HW1 8195   3.624   6.474   2.377
 2432SOL    HW2 8196   3.723   6.345   2.370
 2433SOL     OW 8197   4.135   0.330   6.891
 2433SOL    HW1 8198   4.112   0.238   6.923
 2433SOL    HW2 8199   4.219   0.361   6.936
 2434SOL     OW 8200   3.911   1.934   6.040
 2434SOL    HW1 8201   3.831   1.991   6.058
 2434SOL    HW2 8202   3.883   1.840   6.024
 2435SOL     OW 8203   5.883   5.652   5.225
 2435SOL    HW1 8204   5.802   5.691   5.182
 2435SOL    HW2 8205   5.960   5.715   5.214
 2436SOL     OW 8206   3.062   5.587   0.276
 2436SOL    HW1 8207   3.002   5.511   0.253
 2436SOL    HW2 8208   3.017   5.647   0.342
 2437SOL     OW 8209   6.694   6.631   5.818
 2437SOL    HW1 8210   6.750   6.580   5.883
 2437SOL    HW2 8211   6.598   6.630   5.849
 2438SOL     OW 8212   2.659   2.525   0.780
 2438SOL    HW1 8213   2.621   2.517   0.872
 2438SOL    HW2 8214   2.707   2.440   0.757
 2439SOL     OW 8215   6.087   4.412   5.164
 2439SOL    HW1 8216   5.994   4.449   5.159
 2439SOL    HW2 8217   6.083   4.313   5.179
 2440SOL     OW 8218   5.847   5.072   6.509
 2440SOL    HW1 8219   5.824   5.077   6.607
 2440SOL    HW2 8220   5.763   5.064   6.456
 2441SOL     OW 8221   5.861   2.543   1.276
 2441SOL    HW1 8222   5.874   2.519   1.180
 2441SOL    HW2 8223   5.950   2.564   1.318
 2442SOL     OW 8224   6.995   3.945   4.688
 2442SOL    HW1 8225   6.913   4.001   4.672
 2442SOL    HW2 8226   6.968   3.850   4.702
 2443SOL     OW 8227   2.985   4.838   5.823
 2443SOL    HW1 8228   3.020   4.838   5.917
 2443SOL    HW2 8229   2.990   4.745   5.786
 2444SOL     OW 8230   2.647   3.844   5.784
 2444SOL    HW1 8231   2.667   3.878   5.876
 2444SOL    HW2 8232   2.730   3.803   5.745
 2445SOL     OW 8233   0.776   0.969   0.851
 2445SOL    HW1 8234   0.762   0.870   0.840
 2445SOL    HW2 8235   0.867   0.993   0.818
 2446SOL     OW 8236   6.502   4.039   6.090
 2446SOL    HW1 8237   6.479   3.963   6.029
 2446SOL    HW2 8238   6.541   4.114   6.038
 2447SOL     OW 8239   0.480   1.919   6.555
 2447SOL    HW1 8240   0.459   1.937   6.459
 2447SOL    HW2 8241   0.401   1.877   6.599
 2448SOL     OW 8242   1.081   0.018   4.321
 2448SOL    HW1 8243   1.148   0.093   4.327
 2448SOL    HW2 8244   1.041   0.017   4.230
 2449SOL     OW 8245   0.151   2.929   5.608
 2449SOL    HW1 8246   0.080   2.973   5.662
 2449SOL    HW2 8247   0.238   2.932   5.658
 2450SOL     OW 8248   2.033   3.255   2.966
 2450SOL    HW1 8249   1.940   3.245   2.932
 2450SOL    HW2 8250   2.035   3.323   3.039
 2451SOL     OW 8251   2.799   6.301   3.950
 2451SOL    HW1 8252   2.756   6.249   3.876
 2451SOL    HW2 8253   2.730   6.323   4.020
 2452SOL     OW 8254   1.278   2.294   4.198
 2452SOL    HW1 8255   1.294   2.393   4.195
 2452SOL    HW2 8256   1.363   2.246   4.217
 2453SOL     OW 8257   0.157   3.847   1.369
 2453SOL    HW1 8258   0.164   3.924   1.304
 2453SOL    HW2 8259   0.229   3.855   1.438
 2454SOL     OW 8260   2.278   0.888   2.314
 2454SOL    HW1 8261   2.215   0.869   2.238
 2454SOL    HW2 8262   2.278   0.986   2.333
 2455SOL     OW 8263   5.597   5.122   0.460
 2455SOL    HW1 8264   5.513   5.069   0.454
 2455SOL    HW2 8265   5.664   5.086   0.395
 2456SOL     OW 8266   3.620   6.389   1.192
 2456SOL    HW1 8267   3.543   6.445   1.162
 2456SOL    HW2 8268   3.700   6.447   1.207
 2457SOL     OW 8269   5.903   6.417   1.441
 2457SOL    HW1 8270   5.856   6.369   1.515
 2457SOL    HW2 8271   5.913   6.357   1.362
 2458SOL     OW 8272   0.440   5.892   3.627
 2458SOL    HW1 8273   0.537   5.912   3.609
 2458SOL    HW2 8274   0.433   5.803   3.672
 2459SOL     OW 8275   1.410   0.721   0.787
 2459SOL    HW1 8276   1.508   0.707   0.801
 2459SOL    HW2 8277   1.359   0.675   0.860
 2460SOL     OW 8278   3.552   5.201   1.259
 2460SOL    HW1 8279   3.462   5.238   1.236
 2460SOL    HW2 8280   3.547   5.154   1.347
 2461SOL     OW 8281   5.314   1.461   3.328
 2461SOL    HW1 8282   5.308   1.463   3.229
 2461SOL    HW2 8283   5.407   1.437   3.356
 2462SOL     OW 8284   2.359   4.354   6.549
 2462SOL    HW1 8285   2.379   4.427   6.614
 2462SOL    HW2 8286   2.297   4.288   6.591
 2463SOL     OW 8287   0.009   1.574   4.180
 2463SOL    HW1 8288   6.994   1.668   4.173
 2463SOL    HW2 8289   0.107   1.578   4.202
 2464SOL     OW 8290   1.159   3.338   1.114
 2464SOL    HW1 8291   1.089   3.277   1.153
 2464SOL    HW2 8292   1.239   3.284   1.087
 2465SOL     OW 8293   6.265   5.404   3.280
 2465SOL    HW1 8294   6.225   5.334   3.220
 2465SOL    HW2 8295   6.338   5.364   3.334
 2466SOL     OW 8296   3.557   1.289   2.197
 2466SOL    HW1 8297   3.509   1.332   2.120
 2466SOL    HW2 8298   3.626   1.352   2.232
 2467SOL     OW 8299   6.497   1.216   5.386
 2467SOL    HW1 8300   6.526   1.131   5.343
 2467SOL    HW2 8301   6.509   1.209   5.485
 2468SOL     OW 8302   6.955   3.952   0.596
 2468SOL    HW1 8303   6.992   3.943   0.503
 2468SOL    HW2 8304   6.900   4.036   0.602
 2469SOL     OW 8305   2.915   3.374   5.675
 2469SOL    HW1 8306   2.965   3.313   5.614
 2469SOL    HW2 8307   2.844   3.422   5.624
 2470SOL     OW 8308   5.599   2.936   0.360
 2470SOL    HW1 8309   5.540   3.016   0.346
 2470SOL    HW2 8310   5.636   2.908   0.272
 2471SOL     OW 8311   0.558   0.260   3.508
 2471SOL    HW1 8312   0.476   0.204   3.515
 2471SOL    HW2 8313   0.571   0.312   3.592
 2472SOL     OW 8314   5.258   1.535   3.707
 2472SOL    HW1 8315   5.313   1.619   3.713
 2472SOL    HW2 8316   5.272   1.493   3.618
 2473SOL     OW 8317   0.397   6.777   5.493
 2473SOL    HW1 8318   0.485   6.753   5.533
 2473SOL    HW2 8319   0.326   6.775   5.564
 2474SOL     OW 8320   5.589   5.818   4.850
 2474SOL    HW1 8321   5.637   5.794   4.934
 2474SOL    HW2 8322   5.586   5.738   4.789
 2475SOL     OW 8323   4.527   2.277   6.273
 2475SOL    HW1 8324   4.584   2.212   6.223
 2475SOL    HW2 8325   4.502   2.237   6.362
 2476SOL     OW 8326   0.564   1.736   3.814
 2476SOL    HW1 8327   0.617   1.652   3.810
 2476SOL    HW2 8328   0.615   1.811   3.771
 2477SOL     OW 8329   4.401   4.993   2.205
 2477SOL    HW1 8330   4.371   5.054   2.132
 2477SOL    HW2 8331   4.413   4.901   2.169
 2478SOL     OW 8332   6.417   6.917   2.976
 2478SOL    HW1 8333   6.352   6.873   2.915
 2478SOL    HW2 8334   6.498   6.859   2.986
 2479SOL     OW 8335   1.117   3.289   0.260
 2479SOL    HW1 8336   1.041   3.288   0.325
 2479SOL    HW2 8337   1.113   3.373   0.206
 2480SOL     OW 8338   1.055   4.352   1.988
 2480SOL    HW1 8339   1.102   4.390   1.909
 2480SOL    HW2 8340   1.120   4.304   2.046
 2481SOL     OW 8341   4.057   5.476   2.728
 2481SOL    HW1 8342   3.960   5.472   2.707
 2481SOL    HW2 8343   4.072   5.454   2.824
 2482SOL     OW 8344   4.981   2.238   4.098
 2482SOL    HW1 8345   4.924   2.216   4.019
 2482SOL    HW2 8346   4.944   2.319   4.144
 2483SOL     OW 8347   0.941   2.244   6.938
 2483SOL    HW1 8348   0.888   2.277   7.016
 2483SOL    HW2 8349   0.935   2.144   6.932
 2484SOL     OW 8350   3.347   2.588   6.127
 2484SOL    HW1 8351   3.293   2.524   6.072
 2484SOL    HW2 8352   3.360   2.672   6.074
 2485SOL     OW 8353   1.174   6.078   1.193
 2485SOL    HW1 8354   1.219   6.147   1.136
 2485SOL    HW2 8355   1.174   5.990   1.145
 2486SOL     OW 8356   0.734   5.191   2.974
 2486SOL    HW1 8357   0.671   5.234   2.910
 2486SOL    HW2 8358   0.688   5.175   3.061
 2487SOL     OW 8359   3.264   1.052   1.054
 2487SOL    HW1 8360   3.318   1.100   0.985
 2487SOL    HW2 8361   3.207   0.982   1.010
 2488SOL     OW 8362   3.338   6.253   6.175
 2488SOL    HW1 8363   3.318   6.270   6.272
 2488SOL    HW2 8364   3.426   6.294   6.151
 2489SOL     OW 8365   6.472   5.928   4.533
 2489SOL    HW1 8366   6.397   5.886   4.481
 2489SOL    HW2 8367   6.558   5.882   4.510
 2490SOL     OW 8368   5.666   3.548   1.677
 2490SOL    HW1 8369   5.637   3.636   1.638
 2490SOL    HW2 8370   5.667   3.555   1.777
 2491SOL     OW 8371   0.347   4.624   2.957
 2491SOL    HW1 8372   0.378   4.602   3.050
 2491SOL    HW2 8373   0.336   4.539   2.905
 2492SOL     OW 8374   4.434   2.258   5.791
 2492SOL    HW1 8375   4.386   2.325   5.848
 2492SOL    HW2 8376   4.524   2.239   5.830
 2493SOL     OW 8377   6.683   1.520   4.230
 2493SOL    HW1 8378   6.771   1.566   4.219
 2493SOL    HW2 8379   6.676   1.445   4.165
 2494SOL     OW 8380   4.193   4.735   1.294
 2494SOL    HW1 8381   4.197   4.646   1.340
 2494SOL    HW2 8382   4.151   4.724   1.204
 2495SOL     OW 8383   6.633   0.852   3.761
 2495SOL    HW1 8384   6.695   0.801   3.821
 2495SOL    HW2 8385   6.608   0.938   3.806
 2496SOL     OW 8386   1.550   5.565   6.490
 2496SOL    HW1 8387   1.459   5.524   6.494
 2496SOL    HW2 8388   1.541   5.661   6.465
 2497SOL     OW 8389   5.483   1.364   6.977
 2497SOL    HW1 8390   5.455   1.284   6.924
 2497SOL    HW2 8391   5.537   1.336   0.035
 2498SOL     OW 8392   0.904   3.275   4.546
 2498SOL    HW1 8393   0.900   3.342   4.471
 2498SOL    HW2 8394   0.994   3.278   4.589
 2499SOL     OW 8395   5.347   0.210   6.579
 2499SOL    HW1 8396   5.378   0.274   6.650
 2499SOL    HW2 8397   5.317   0.262   6.499
 2500SOL     OW 8398   4.467   3.592   6.488
 2500SOL    HW1 8399   4.468   3.515   6.424
 2500SOL    HW2 8400   4.375   3.632   6.490
 2501SOL     OW 8401   6.147   4.967   1.359
 2501SOL    HW1 8402   6.216   4.973   1.287
 2501SOL    HW2 8403   6.056   4.978   1.318
 2502SOL     OW 8404   1.763   6.660   2.801
 2502SOL    HW1 8405   1.668   6.684   2.782
 2502SOL    HW2 8406   1.807   6.736   2.849
 2503SOL     OW 8407   4.736   6.970   4.710
 2503SOL    HW1 8408   4.715   6.885   4.661
 2503SOL    HW2 8409   4.825   7.005   4.679
 2504SOL     OW 8410   2.145   4.189   3.511
 2504SOL    HW1 8411   2.049   4.162   3.509
 2504SOL    HW2 8412   2.195   4.130   3.575
 2505SOL     OW 8413   5.058   4.484   4.373
 2505SOL    HW1 8414   5.066   4.418   4.299
 2505SOL    HW2 8415   4.982   4.459   4.433
 2506SOL     OW 8416   0.199   2.053   0.983
 2506SOL    HW1 8417   0.200   1.953   0.980
 2506SOL    HW2 8418   0.155   2.088   0.900
 2507SOL     OW 8419   6.459   6.303   0.924
 2507SOL    HW1 8420   6.469   6.228   0.989
 2507SOL    HW2 8421   6.516   6.380   0.953
 2508SOL     OW 8422   2.421   2.646   1.895
 2508SOL    HW1 8423   2.504   2.699   1.879
 2508SOL    HW2 8424   2.373   2.632   1.808
 2509SOL     OW 8425   5.164   1.695   3.330
 2509SOL    HW1 8426   5.066   1.695   3.347
 2509SOL    HW2 8427   5.200   1.602   3.343
 2510SOL     OW 8428   4.119   5.865   1.318
 2510SOL    HW1 8429   4.065   5.897   1.240
 2510SOL    HW2 8430   4.061   5.811   1.379
 2511SOL     OW 8431   0.783   6.424   3.927
 2511SOL    HW1 8432   0.829   6.371   3.999
 2511SOL    HW2 8433   0.849   6.488   3.886
 2512SOL     OW 8434   5.066   2.997   4.076
 2512SOL    HW1 8435   5.109   2.980   3.988
 2512SOL    HW2 8436   5.002   2.923   4.097
 2513SOL     OW 8437   0.413   4.957   1.577
 2513SOL    HW1 8438   0.500   4.909   1.580
 2513SOL    HW2 8439   0.355   4.917   1.506
 2514SOL     OW 8440   0.442   1.787   4.199
 2514SOL    HW1 8441   0.482   1.859   4.255
 2514SOL    HW2 8442   0.502   1.766   4.122
 2515SOL     OW 8443   0.899   4.925   0.447
 2515SOL    HW1 8444   0.836   4.858   0.486
 2515SOL    HW2 8445   0.962   4.880   0.385
 2516SOL     OW 8446   4.751   6.352   4.571
 2516SOL    HW1 8447   4.722   6.317   4.482
 2516SOL    HW2 8448   4.743   6.452   4.572
 2517SOL     OW 8449   2.350   5.578   0.601
 2517SOL    HW1 8450   2.378   5.554   0.694
 2517SOL    HW2 8451   2.416   5.542   0.536
 2518SOL     OW 8452   2.336   2.639   6.488
 2518SOL    HW1 8453   2.414   2.640   6.426
 2518SOL    HW2 8454   2.255   2.606   6.440
 2519SOL     OW 8455   5.217   4.119   5.136
 2519SOL    HW1 8456   5.247   4.035   5.091
 2519SOL    HW2 8457   5.224   4.196   5.072
 2520SOL     OW 8458   3.018   5.267   1.864
 2520SOL    HW1 8459   3.115   5.281   1.884
 2520SOL    HW2 8460   3.004   5.177   1.824
 2521SOL     OW 8461   5.845   6.848   6.281
 2521SOL    HW1 8462   5.911   6.806   6.343
 2521SOL    HW2 8463   5.819   6.782   6.211
 2522SOL     OW 8464   1.760   4.055   4.474
 2522SOL    HW1 8465   1.716   4.144   4.481
 2522SOL    HW2 8466   1.855   4.062   4.506
 2523SOL     OW 8467   0.031   2.937   6.024
 2523SOL    HW1 8468   6.971   2.946   6.082
 2523SOL    HW2 8469   0.112   2.970   6.073
 2524SOL     OW 8470   1.216   6.785   5.011
 2524SOL    HW1 8471   1.153   6.816   5.081
 2524SOL    HW2 8472   1.168   6.776   4.924
 2525SOL     OW 8473   1.565   4.233   3.152
 2525SOL    HW1 8474   1.569   4.274   3.060
 2525SOL    HW2 8475   1.605   4.296   3.218
 2526SOL     OW 8476   0.465   2.478   5.160
 2526SOL    HW1 8477   0.391   2.473   5.092
 2526SOL    HW2 8478   0.550   2.504   5.115
 2527SOL     OW 8479   6.189   6.845   3.612
 2527SOL    HW1 8480   6.097   6.808   3.627
 2527SOL    HW2 8481   6.199   6.931   3.662
 2528SOL     OW 8482   6.039   5.226   0.529
 2528SOL    HW1 8483   5.995   5.294   0.587
 2528SOL    HW2 8484   6.009   5.134   0.557
 2529SOL     OW 8485   5.401   3.903   4.776
 2529SOL    HW1 8486   5.331   3.971   4.756
 2529SOL    HW2 8487   5.435   3.862   4.691
 2530SOL     OW 8488   1.126   6.551   3.491
 2530SOL    HW1 8489   1.221   6.581   3.505
 2530SOL    HW2 8490   1.107   6.472   3.549
 2531SOL     OW 8491   4.801   1.258   0.382
 2531SOL    HW1 8492   4.855   1.279   0.300
 2531SOL    HW2 8493   4.749   1.174   0.367
 2532SOL     OW 8494   1.110   4.383   5.898
 2532SOL    HW1 8495   1.016   4.383   5.933
 2532SOL    HW2 8496   1.115   4.326   5.816
 2533SOL     OW 8497   5.919   6.449   5.493
 2533SOL    HW1 8498   5.823   6.431   5.476
 2533SOL    HW2 8499   5.940   6.545   5.471
 2534SOL     OW 8500   6.976   1.712   3.322
 2534SOL    HW1 8501   7.009   1.749   3.409
 2534SOL    HW2 8502   6.958   1.787   3.258
 2535SOL     OW 8503   1.794   1.422   3.007
 2535SOL    HW1 8504   1.776   1.328   2.980
 2535SOL    HW2 8505   1.892   1.441   3.001
 2536SOL     OW 8506   0.352   0.610   4.067
 2536SOL    HW1 8507   0.380   0.677   4.135
 2536SOL    HW2 8508   0.253   0.595   4.073
 2537SOL     OW 8509   4.055   5.607   1.689
 2537SOL    HW1 8510   4.033   5.556   1.771
 2537SOL    HW2 8511   4.154   5.621   1.684
 2538SOL     OW 8512   1.283   4.580   4.779
 2538SOL    HW1 8513   1.342   4.604   4.856
 2538SOL    HW2 8514   1.188   4.600   4.802
 2539SOL     OW 8515   2.433   0.516   5.581
 2539SOL    HW1 8516   2.480   0.600   5.605
 2539SOL    HW2 8517   2.478   0.474   5.501
 2540SOL     OW 8518   5.508   1.858   2.568
 2540SOL    HW1 8519   5.491   1.956   2.574
 2540SOL    HW2 8520   5.600   1.838   2.603
 2541SOL     OW 8521   0.208   0.014   5.948
 2541SOL    HW1 8522   0.184   0.043   5.855
 2541SOL    HW2 8523   0.307   0.020   5.961
 2542SOL     OW 8524   4.223   1.838   3.605
 2542SOL    HW1 8525   4.240   1.820   3.702
 2542SOL    HW2 8526   4.126   1.862   3.593
 2543SOL     OW 8527   0.154   2.100   4.178
 2543SOL    HW1 8528   0.223   2.170   4.160
 2543SOL    HW2 8529   0.065   2.143   4.189
 2544SOL     OW 8530   6.829   5.901   1.836
 2544SOL    HW1 8531   6.885   5.966   1.888
 2544SOL    HW2 8532   6.812   5.937   1.744
 2545SOL     OW 8533   6.294   1.613   0.408
 2545SOL    HW1 8534   6.240   1.562   0.342
 2545SOL    HW2 8535   6.256   1.602   0.499
 2546SOL     OW 8536   6.730   3.775   2.254
 2546SOL    HW1 8537   6.719   3.875   2.249
 2546SOL    HW2 8538   6.643   3.733   2.281
 2547SOL     OW 8539   5.345   4.347   1.466
 2547SOL    HW1 8540   5.429   4.306   1.430
 2547SOL    HW2 8541   5.292   4.278   1.514
 2548SOL     OW 8542   6.256   0.174   5.668
 2548SOL    HW1 8543   6.322   0.157   5.741
 2548SOL    HW2 8544   6.193   0.096   5.660
 2549SOL     OW 8545   2.456   3.426   0.543
 2549SOL    HW1 8546   2.517   3.467   0.611
 2549SOL    HW2 8547   2.504   3.414   0.457
 2550SOL     OW 8548   4.135   6.072   0.213
 2550SOL    HW1 8549   4.063   6.003   0.204
 2550SOL    HW2 8550   4.094   6.162   0.225
 2551SOL     OW 8551   3.598   4.753   0.929
 2551SOL    HW1 8552   3.606   4.662   0.969
 2551SOL    HW2 8553   3.563   4.817   0.997
 2552SOL     OW 8554   2.293   4.840   1.857
 2552SOL    HW1 8555   2.214   4.899   1.878
 2552SOL    HW2 8556   2.261   4.758   1.810
 2553SOL     OW 8557   4.607   1.458   0.250
 2553SOL    HW1 8558   4.705   1.480   0.255
 2553SOL    HW2 8559   4.554   1.542   0.258
 2554SOL     OW 8560   1.147   5.592   1.032
 2554SOL    HW1 8561   1.060   5.634   1.006
 2554SOL    HW2 8562   1.134   5.538   1.116
 2555SOL     OW 8563   6.170   6.838   5.090
 2555SOL    HW1 8564   6.154   6.757   5.147
 2555SOL    HW2 8565   6.253   6.885   5.120
 2556SOL     OW 8566   3.767   6.928   0.836
 2556SOL    HW1 8567   3.743   6.863   0.764
 2556SOL    HW2 8568   3.693   6.931   0.904
 2557SOL     OW 8569   3.113   0.561   0.039
 2557SOL    HW1 8570   3.020   0.526   0.031
 2557SOL    HW2 8571   3.135   0.616   6.980
 2558SOL     OW 8572   4.952   2.419   1.532
 2558SOL    HW1 8573   4.891   2.485   1.487
 2558SOL    HW2 8574   4.904   2.379   1.611
 2559SOL     OW 8575   0.145   5.206   3.753
 2559SOL    HW1 8576   0.171   5.268   3.679
 2559SOL    HW2 8577   0.067   5.150   3.724
 2560SOL     OW 8578   5.118   2.299   2.802
 2560SOL    HW1 8579   5.038   2.263   2.754
 2560SOL    HW2 8580   5.094   2.384   2.849
 2561SOL     OW 8581   4.014   0.057   4.156
 2561SOL    HW1 8582   3.942   0.061   4.087
 2561SOL    HW2 8583   4.009   0.138   4.214
 2562SOL     OW 8584   2.008   6.787   4.869
 2562SOL    HW1 8585   1.916   6.824   4.883
 2562SOL    HW2 8586   2.044   6.819   4.781
 2563SOL     OW 8587   3.664   2.308   6.555
 2563SOL    HW1 8588   3.688   2.225   6.606
 2563SOL    HW2 8589   3.586   2.353   6.599
 2564SOL     OW 8590   1.106   1.634   0.364
 2564SOL    HW1 8591   1.172   1.658   0.293
 2564SOL    HW2 8592   1.022   1.687   0.351
 2565SOL     OW 8593   1.040   0.865   0.514
 2565SOL    HW1 8594   1.025   0.820   0.603
 2565SOL    HW2 8595   0.963   0.925   0.494
 2566SOL     OW 8596   2.692   1.078   1.134
 2566SOL    HW1 8597   2.751   1.158   1.138
 2566SOL    HW2 8598   2.606   1.097   1.182
 2567SOL     OW 8599   1.609   0.539   6.453
 2567SOL    HW1 8600   1.550   0.600   6.507
 2567SOL    HW2 8601   1.660   0.593   6.387
 2568SOL     OW 8602   1.914   5.986   0.825
 2568SOL    HW1 8603   1.860   6.011   0.906
 2568SOL    HW2 8604   1.979   6.059   0.805
 2569SOL     OW 8605   1.701   0.030   0.653
 2569SOL    HW1 8606   1.699   6.959   0.694
 2569SOL    HW2 8607   1.705   0.099   0.725
 2570SOL     OW 8608   0.501   6.059   4.650
 2570SOL    HW1 8609   0.407   6.031   4.632
 2570SOL    HW2 8610   0.502   6.153   4.685
 2571SOL     OW 8611   3.391   4.040   3.896
 2571SOL    HW1 8612   3.453   4.048   3.974
 2571SOL    HW2 8613   3.298   4.063   3.925
 2572SOL     OW 8614   1.643   5.231   2.084
 2572SOL    HW1 8615   1.627   5.317   2.134
 2572SOL    HW2 8616   1.696   5.250   2.001
 2573SOL     OW 8617   0.296   1.546   3.948
 2573SOL    HW1 8618   0.212   1.507   3.986
 2573SOL    HW2 8619   0.291   1.646   3.953
 2574SOL     OW 8620   0.743   3.683   2.337
 2574SOL    HW1 8621   0.754   3.670   2.436
 2574SOL    HW2 8622   0.664   3.631   2.306
 2575SOL     OW 8623   5.378   3.509   6.042
 2575SOL    HW1 8624   5.311   3.448   5.998
 2575SOL    HW2 8625   5.471   3.479   6.018
 2576SOL     OW 8626   1.790   7.006   3.235
 2576SOL    HW1 8627   1.781   0.085   3.225
 2576SOL    HW2 8628   1.738   6.976   3.314
 2577SOL     OW 8629   1.778   5.422   1.553
 2577SOL    HW1 8630   1.756   5.483   1.477
 2577SOL    HW2 8631   1.760   5.468   1.639
 2578SOL     OW 8632   4.387   2.453   4.392
 2578SOL    HW1 8633   4.365   2.474   4.487
 2578SOL    HW2 8634   4.313   2.398   4.352
 2579SOL     OW 8635   6.989   1.468   6.423
 2579SOL    HW1 8636   0.057   1.507   6.398
 2579SOL    HW2 8637   6.919   1.538   6.418
 2580SOL     OW 8638   1.556   1.510   6.004
 2580SOL    HW1 8639   1.498   1.477   6.080
 2580SOL    HW2 8640   1.617   1.581   6.037
 2581SOL     OW 8641   6.456   0.134   4.739
 2581SOL    HW1 8642   6.418   0.075   4.810
 2581SOL    HW2 8643   6.402   0.125   4.655
 2582SOL     OW 8644   0.314   5.744   2.643
 2582SOL    HW1 8645   0.345   5.719   2.552
 2582SOL    HW2 8646   0.394   5.756   2.703
 2583SOL     OW 8647   2.059   1.199   6.476
 2583SOL    HW1 8648   2.080   1.236   6.385
 2583SOL    HW2 8649   2.089   1.104   6.481
 2584SOL     OW 8650   5.351   0.067   2.872
 2584SOL    HW1 8651   5.298   0.128   2.931
 2584SOL    HW2 8652   5.338   0.094   2.776
 2585SOL     OW 8653   4.324   1.018   1.883
 2585SOL    HW1 8654   4.246   1.078   1.863
 2585SOL    HW2 8655   4.400   1.040   1.822
 2586SOL     OW 8656   6.407   1.318   4.163
 2586SOL    HW1 8657   6.503   1.322   4.137
 2586SOL    HW2 8658   6.361   1.403   4.135
 2587SOL     OW 8659   6.649   6.259   2.883
 2587SOL    HW1 8660   6.559   6.285   2.848
 2587SOL    HW2 8661   6.702   6.218   2.809
 2588SOL     OW 8662   5.017   0.115   1.830
 2588SOL    HW1 8663   4.999   0.043   1.897
 2588SOL    HW2 8664   5.008   0.205   1.873
 2589SOL     OW 8665   5.607   6.189   0.571
 2589SOL    HW1 8666   5.602   6.223   0.477
 2589SOL    HW2 8667   5.670   6.112   0.576
 2590SOL     OW 8668   3.747   6.614   2.869
 2590SOL    HW1 8669   3.678   6.651   2.808
 2590SOL    HW2 8670   3.837   6.651   2.844
 2591SOL     OW 8671   5.921   0.424   1.682
 2591SOL    HW1 8672   5.926   0.329   1.714
 2591SOL    HW2 8673   5.847   0.432   1.615
 2592SOL     OW 8674   3.278   4.789   1.633
 2592SOL    HW1 8675   3.289   4.812   1.536
 2592SOL    HW2 8676   3.196   4.732   1.645
 2593SOL     OW 8677   3.731   0.007   2.559
 2593SOL    HW1 8678   3.686   0.095   2.576
 2593SOL    HW2 8679   3.830   0.021   2.556
 2594SOL     OW 8680   1.332   6.777   6.589
 2594SOL    HW1 8681   1.356   6.770   6.685
 2594SOL    HW2 8682   1.363   6.695   6.540
 2595SOL     OW 8683   6.275   3.025   4.056
 2595SOL    HW1 8684   6.215   2.979   4.122
 2595SOL    HW2 8685   6.344   3.078   4.104
 2596SOL     OW 8686   4.253   2.452   1.463
 2596SOL    HW1 8687   4.224   2.356   1.464
 2596SOL    HW2 8688   4.343   2.459   1.421
 2597SOL     OW 8689   2.040   2.200   6.395
 2597SOL    HW1 8690   2.051   2.237   6.303
 2597SOL    HW2 8691   1.970   2.129   6.394
 2598SOL     OW 8692   5.956   1.988   2.936
 2598SOL    HW1 8693   5.928   2.084   2.938
 2598SOL    HW2 8694   6.050   1.980   2.968
 2599SOL     OW 8695   4.218   4.626   6.627
 2599SOL    HW1 8696   4.139   4.683   6.605
 2599SOL    HW2 8697   4.214   4.542   6.574
 2600SOL     OW 8698   6.880   3.279   3.733
 2600SOL    HW1 8699   6.791   3.234   3.727
 2600SOL    HW2 8700   6.937   3.232   3.800
 2601SOL     OW 8701   3.937   3.287   5.175
 2601SOL    HW1 8702   3.872   3.260   5.247
 2601SOL    HW2 8703   4.026   3.244   5.192
 2602SOL     OW 8704   6.142   5.830   5.382
 2602SOL    HW1 8705   6.177   5.739   5.357
 2602SOL    HW2 8706   6.205   5.900   5.350
 2603SOL     OW 8707   2.278   2.441   0.001
 2603SOL    HW1 8708   2.181   2.417   0.011
 2603SOL    HW2 8709   2.286   2.528   6.973
 2604SOL     OW 8710   5.724   1.809   1.640
 2604SOL    HW1 8711   5.715   1.742   1.713
 2604SOL    HW2 8712   5.659   1.787   1.567
 2605SOL     OW 8713   4.903   3.809   3.770
 2605SOL    HW1 8714   4.897   3.741   3.697
 2605SOL    HW2 8715   4.900   3.763   3.858
 2606SOL     OW 8716   6.828   4.576   0.966
 2606SOL    HW1 8717   6.808   4.489   1.011
 2606SOL    HW2 8718   6.806   4.652   1.027
 2607SOL     OW 8719   0.819   1.828   4.845
 2607SOL    HW1 8720   0.810   1.927   4.850
 2607SOL    HW2 8721   0.869   1.803   4.762
 2608SOL     OW 8722   5.421   6.783   0.731
 2608SOL    HW1 8723   5.421   6.837   0.815
 2608SOL    HW2 8724   5.497   6.718   0.732
 2609SOL     OW 8725   0.219   2.479   4.249
 2609SOL    HW1 8726   0.179   2.476   4.340
 2609SOL    HW2 8727   0.269   2.565   4.237
 2610SOL     OW 8728   5.077   5.612   5.027
 2610SOL    HW1 8729   5.125   5.525   5.028
 2610SOL    HW2 8730   5.136   5.683   4.990
 2611SOL     OW 8731   3.011   6.143   1.838
 2611SOL    HW1 8732   3.103   6.117   1.867
 2611SOL    HW2 8733   3.013   6.173   1.743
 2612SOL     OW 8734   6.496   6.845   5.090
 2612SOL    HW1 8735   6.466   6.927   5.137
 2612SOL    HW2 8736   6.454   6.841   4.999
 2613SOL     OW 8737   3.680   0.981   1.190
 2613SOL    HW1 8738   3.718   0.964   1.099
 2613SOL    HW2 8739   3.602   0.920   1.206
 2614SOL     OW 8740   6.779   6.441   6.497
 2614SOL    HW1 8741   6.758   6.413   6.590
 2614SOL    HW2 8742   6.700   6.488   6.458
 2615SOL     OW 8743   5.527   5.243   2.053
 2615SOL    HW1 8744   5.544   5.323   2.110
 2615SOL    HW2 8745   5.588   5.169   2.081
 2616SOL     OW 8746   4.107   3.227   2.391
 2616SOL    HW1 8747   4.204   3.208   2.372
 2616SOL    HW2 8748   4.061   3.142   2.416
 2617SOL     OW 8749   3.542   0.694   1.043
 2617SOL    HW1 8750   3.559   0.746   0.959
 2617SOL    HW2 8751   3.500   0.754   1.111
 2618SOL     OW 8752   0.770   0.601   0.201
 2618SOL    HW1 8753   0.850   0.541   0.210
 2618SOL    HW2 8754   0.760   0.655   0.284
 2619SOL     OW 8755   5.550   1.163   1.345
 2619SOL    HW1 8756   5.523   1.099   1.417
 2619SOL    HW2 8757   5.603   1.113   1.276
 2620SOL     OW 8758   1.442   5.053   4.341
 2620SOL    HW1 8759   1.464   5.005   4.426
 2620SOL    HW2 8760   1.487   5.007   4.265
 2621SOL     OW 8761   1.139   4.932   3.699
 2621SOL    HW1 8762   1.215   4.935   3.764
 2621SOL    HW2 8763   1.092   5.021   3.699
 2622SOL     OW 8764   2.692   3.232   6.275
 2622SOL    HW1 8765   2.668   3.264   6.184
 2622SOL    HW2 8766   2.697   3.132   6.274
 2623SOL     OW 8767   3.568   1.081   6.351
 2623SOL    HW1 8768   3.564   1.027   6.435
 2623SOL    HW2 8769   3.511   1.039   6.281
 2624SOL     OW 8770   6.938   2.038   3.979
 2624SOL    HW1 8771   6.945   2.115   4.043
 2624SOL    HW2 8772   6.922   2.073   3.887
 2625SOL     OW 8773   4.784   0.633   5.863
 2625SOL    HW1 8774   4.760   0.583   5.946
 2625SOL    HW2 8775   4.834   0.572   5.801
 2626SOL     OW 8776   2.280   0.384   2.068
 2626SOL    HW1 8777   2.294   0.300   2.119
 2626SOL    HW2 8778   2.350   0.394   1.998
 2627SOL     OW 8779   6.994   1.040   4.771
 2627SOL    HW1 8780   0.059   1.088   4.791
 2627SOL    HW2 8781   6.972   1.049   4.674
 2628SOL     OW 8782   3.897   5.837   6.264
 2628SOL    HW1 8783   3.980   5.893   6.262
 2628SOL    HW2 8784   3.915   5.749   6.220
 2629SOL     OW 8785   3.075   3.661   1.465
 2629SOL    HW1 8786   3.093   3.636   1.560
 2629SOL    HW2 8787   3.054   3.578   1.413
 2630SOL     OW 8788   2.929   2.222   2.298
 2630SOL    HW1 8789   2.979   2.260   2.220
 2630SOL    HW2 8790   2.902   2.296   2.360
 2631SOL     OW 8791   4.410   6.876   4.866
 2631SOL    HW1 8792   4.369   6.833   4.785
 2631SOL    HW2 8793   4.423   6.973   4.848
 2632SOL     OW 8794   5.681   1.332   1.639
 2632SOL    HW1 8795   5.711   1.378   1.556
 2632SOL    HW2 8796   5.583   1.313   1.633
 2633SOL     OW 8797   6.773   3.026   6.050
 2633SOL    HW1 8798   6.709   3.082   5.998
 2633SOL    HW2 8799   6.754   2.929   6.032
 2634SOL     OW 8800   3.120   5.170   1.236
 2634SOL    HW1 8801   3.168   5.098   1.186
 2634SOL    HW2 8802   3.175   5.253   1.235
 2635SOL     OW 8803   5.716   4.522   3.511
 2635SOL    HW1 8804   5.757   4.431   3.500
 2635SOL    HW2 8805   5.643   4.517   3.578
 2636SOL     OW 8806   5.630   0.350   5.058
 2636SOL    HW1 8807   5.539   0.318   5.083
 2636SOL    HW2 8808   5.623   0.407   4.976
 2637SOL     OW 8809   4.767   6.568   3.111
 2637SOL    HW1 8810   4.859   6.528   3.115
 2637SOL    HW2 8811   4.770   6.660   3.150
 2638SOL     OW 8812   5.744   5.674   0.718
 2638SOL    HW1 8813   5.681   5.676   0.796
 2638SOL    HW2 8814   5.766   5.579   0.695
 2639SOL     OW 8815   6.664   6.653   0.254
 2639SOL    HW1 8816   6.704   6.614   0.171
 2639SOL    HW2 8817   6.578   6.606   0.274
 2640SOL     OW 8818   6.316   0.079   6.506
 2640SOL    HW1 8819   6.223   0.099   6.534
 2640SOL    HW2 8820   6.320   0.070   6.406
 2641SOL     OW 8821   5.693   5.198   0.021
 2641SOL    HW1 8822   5.757   5.275   0.022
 2641SOL    HW2 8823   5.652   5.188   0.112
 2642SOL     OW 8824   6.495   0.075   3.257
 2642SOL    HW1 8825   6.491   0.066   3.357
 2642SOL    HW2 8826   6.574   0.024   3.223
 2643SOL     OW 8827   1.248   0.383   2.255
 2643SOL    HW1 8828   1.238   0.482   2.259
 2643SOL    HW2 8829   1.266   0.346   2.346
 2644SOL     OW 8830   0.810   5.754   6.107
 2644SOL    HW1 8831   0.812   5.852   6.127
 2644SOL    HW2 8832   0.731   5.713   6.152
 2645SOL     OW 8833   6.091   4.814   5.609
 2645SOL    HW1 8834   6.025   4.851   5.674
 2645SOL    HW2 8835   6.181   4.809   5.652
 2646SOL     OW 8836   6.585   6.309   6.965
 2646SOL    HW1 8837   6.620   6.280   0.033
 2646SOL    HW2 8838   6.525   6.388   6.976
 2647SOL     OW 8839   3.612   3.278   0.453
 2647SOL    HW1 8840   3.617   3.351   0.384
 2647SOL    HW2 8841   3.602   3.190   0.407
 2648SOL     OW 8842   3.415   1.050   3.127
 2648SOL    HW1 8843   3.447   0.992   3.202
 2648SOL    HW2 8844   3.392   0.992   3.048
 2649SOL     OW 8845   3.504   2.817   5.512
 2649SOL    HW1 8846   3.439   2.838   5.586
 2649SOL    HW2 8847   3.469   2.741   5.458
 2650SOL     OW 8848   0.029   6.377   2.045
 2650SOL    HW1 8849   0.080   6.300   2.085
 2650SOL    HW2 8850   0.089   6.427   1.983
 2651SOL     OW 8851   0.528   6.944   3.662
 2651SOL    HW1 8852   0.436   6.906   3.666
 2651SOL    HW2 8853   0.549   6.971   3.568
 2652SOL     OW 8854   3.112   2.967   2.673
 2652SOL    HW1 8855   3.195   3.020   2.656
 2652SOL    HW2 8856   3.113   2.885   2.616
 2653SOL     OW 8857   6.573   5.518   6.638
 2653SOL    HW1 8858   6.582   5.489   6.543
 2653SOL    HW2 8859   6.491   5.477   6.677
 2654SOL     OW 8860   5.138   2.153   6.083
 2654SOL    HW1 8861   5.190   2.163   6.168
 2654SOL    HW2 8862   5.189   2.195   6.008
 2655SOL     OW 8863   4.782   5.361   5.119
 2655SOL    HW1 8864   4.796   5.315   5.206
 2655SOL    HW2 8865   4.818   5.454   5.124
 2656SOL     OW 8866   5.306   3.441   3.825
 2656SOL    HW1 8867   5.233   3.405   3.884
 2656SOL    HW2 8868   5.326   3.536   3.851
 2657SOL     OW 8869   2.560   2.319   5.636
 2657SOL    HW1 8870   2.520   2.273   5.715
 2657SOL    HW2 8871   2.505   2.399   5.612
 2658SOL     OW 8872   5.422   4.583   5.748
 2658SOL    HW1 8873   5.416   4.572   5.648
 2658SOL    HW2 8874   5.516   4.568   5.777
 2659SOL     OW 8875   6.969   1.938   3.151
 2659SOL    HW1 8876   6.912   2.016   3.174
 2659SOL    HW2 8877   6.961   1.918   3.054
 2660SOL     OW 8878   6.604   1.892   2.794
 2660SOL    HW1 8879   6.521   1.927   2.750
 2660SOL    HW2 8880   6.684   1.936   2.752
 2661SOL     OW 8881   4.487   6.541   1.575
 2661SOL    HW1 8882   4.499   6.452   1.620
 2661SOL    HW2 8883   4.407   6.588   1.614
 2662SOL     OW 8884   3.834   6.722   3.628
 2662SOL    HW1 8885   3.794   6.644   3.580
 2662SOL    HW2 8886   3.828   6.706   3.727
 2663SOL     OW 8887   0.826   4.514   2.704
 2663SOL    HW1 8888   0.811   4.509   2.803
 2663SOL    HW2 8889   0.855   4.607   2.679
 2664SOL     OW 8890   4.075   3.605   1.877
 2664SOL    HW1 8891   4.075   3.649   1.966
 2664SOL    HW2 8892   4.124   3.663   1.811
 2665SOL     OW 8893   4.109   1.190   4.620
 2665SOL    HW1 8894   4.199   1.155   4.594
 2665SOL    HW2 8895   4.053   1.114   4.655
 2666SOL     OW 8896   5.550   6.314   1.834
 2666SOL    HW1 8897   5.523   6.254   1.910
 2666SOL    HW2 8898   5.612   6.385   1.868
 2667SOL     OW 8899   1.422   4.979   3.764
 2667SOL    HW1 8900   1.504   5.024   3.799
 2667SOL    HW2 8901   1.448   4.894   3.717
 2668SOL     OW 8902   6.895   2.565   5.837
 2668SOL    HW1 8903   6.833   2.582   5.760
 2668SOL    HW2 8904   6.983   2.608   5.819
 2669SOL     OW 8905   4.174   5.053   5.539
 2669SOL    HW1 8906   4.182   5.149   5.512
 2669SOL    HW2 8907   4.127   5.047   5.627
 2670SOL     OW 8908   1.988   0.603   6.042
 2670SOL    HW1 8909   1.894   0.582   6.071
 2670SOL    HW2 8910   2.017   0.537   5.973
 2671SOL     OW 8911   3.506   3.983   5.924
 2671SOL    HW1 8912   3.503   4.072   5.970
 2671SOL    HW2 8913   3.533   3.913   5.989
 2672SOL     OW 8914   0.550   4.151   0.616
 2672SOL    HW1 8915   0.573   4.161   0.713
 2672SOL    HW2 8916   0.451   4.145   0.606
 2673SOL     OW 8917   4.933   2.047   3.487
 2673SOL    HW1 8918   5.027   2.015   3.476
 2673SOL    HW2 8919   4.903   2.032   3.581
 2674SOL     OW 8920   5.575   5.511   5.469
 2674SOL    HW1 8921   5.628   5.499   5.385
 2674SOL    HW2 8922   5.632   5.556   5.537
 2675SOL     OW 8923   0.466   3.765   5.279
 2675SOL    HW1 8924   0.381   3.815   5.298
 2675SOL    HW2 8925   0.543   3.829   5.284
 2676SOL     OW 8926   4.313   0.399   2.285
 2676SOL    HW1 8927   4.284   0.494   2.299
 2676SOL    HW2 8928   4.251   0.338   2.333
 2677SOL     OW 8929   2.567   4.616   2.387
 2677SOL    HW1 8930   2.643   4.637   2.447
 2677SOL    HW2 8931   2.596   4.551   2.317
 2678SOL     OW 8932   0.114   5.908   6.338
 2678SOL    HW1 8933   0.054   5.828   6.334
 2678SOL    HW2 8934   0.132   5.941   6.245
 2679SOL     OW 8935   2.942   4.697   1.164
 2679SOL    HW1 8936   2.883   4.756   1.219
 2679SOL    HW2 8937   2.885   4.630   1.116
 2680SOL     OW 8938   0.841   1.913   1.117
 2680SOL    HW1 8939   0.866   1.926   1.214
 2680SOL    HW2 8940   0.749   1.877   1.111
 2681SOL     OW 8941   1.291   1.329   2.484
 2681SOL    HW1 8942   1.391   1.339   2.489
 2681SOL    HW2 8943   1.253   1.401   2.426
 2682SOL     OW 8944   6.509   2.572   3.301
 2682SOL    HW1 8945   6.572   2.530   3.366
 2682SOL    HW2 8946   6.496   2.510   3.223
 2683SOL     OW 8947   1.367   0.290   1.901
 2683SOL    HW1 8948   1.291   0.229   1.925
 2683SOL    HW2 8949   1.454   0.242   1.913
 2684SOL     OW 8950   2.444   5.934   2.637
 2684SOL    HW1 8951   2.392   5.901   2.715
 2684SOL    HW2 8952   2.447   5.863   2.566
 2685SOL     OW 8953   5.397   6.172   5.242
 2685SOL    HW1 8954   5.472   6.110   5.265
 2685SOL    HW2 8955   5.349   6.139   5.161
 2686SOL     OW 8956   1.246   3.120   4.386
 2686SOL    HW1 8957   1.222   3.134   4.482
 2686SOL    HW2 8958   1.341   3.089   4.379
 2687SOL     OW 8959   5.132   5.104   3.473
 2687SOL    HW1 8960   5.057   5.038   3.468
 2687SOL    HW2 8961   5.179   5.107   3.385
 2688SOL     OW 8962   3.297   4.999   6.201
 2688SOL    HW1 8963   3.350   4.930   6.249
 2688SOL    HW2 8964   3.314   4.992   6.102
 2689SOL     OW 8965   0.151   2.786   4.237
 2689SOL    HW1 8966   0.150   2.863   4.301
 2689SOL    HW2 8967   0.237   2.787   4.186
 2690SOL     OW 8968   2.869   3.544   2.897
 2690SOL    HW1 8969   2.828   3.545   2.989
 2690SOL    HW2 8970   2.806   3.500   2.833
 2691SOL     OW 8971   1.173   6.136   1.463
 2691SOL    HW1 8972   1.204   6.086   1.382
 2691SOL    HW2 8973   1.108   6.079   1.514
 2692SOL     OW 8974   6.600   5.598   3.108
 2692SOL    HW1 8975   6.615   5.663   3.183
 2692SOL    HW2 8976   6.651   5.628   3.027
 2693SOL     OW 8977   1.704   3.640   3.496
 2693SOL    HW1 8978   1.610   3.624   3.466
 2693SOL    HW2 8979   1.726   3.579   3.571
 2694SOL     OW 8980   2.695   0.847   2.903
 2694SOL    HW1 8981   2.770   0.797   2.945
 2694SOL    HW2 8982   2.700   0.838   2.804
 2695SOL     OW 8983   3.978   2.107   2.804
 2695SOL    HW1 8984   3.931   2.077   2.721
 2695SOL    HW2 8985   4.076   2.090   2.794
 2696SOL     OW 8986   4.186   3.250   5.256
 2696SOL    HW1 8987   4.279   3.278   5.230
 2696SOL    HW2 8988   4.161   3.294   5.342
 2697SOL     OW 8989   2.519   2.071   4.266
 2697SOL    HW1 8990   2.427   2.111   4.269
 2697SOL    HW2 8991   2.529   2.008   4.343
 2698SOL     OW 8992   2.155   3.478   6.689
 2698SOL    HW1 8993   2.158   3.475   6.789
 2698SOL    HW2 8994   2.140   3.386   6.653
 2699SOL     OW 8995   3.878   5.665   2.177
 2699SOL    HW1 8996   3.952   5.668   2.110
 2699SOL    HW2 8997   3.796   5.708   2.139
 2700SOL     OW 8998   1.305   3.667   2.971
 2700SOL    HW1 8999   1.319   3.626   2.881
 2700SOL    HW2 9000   1.267   3.759   2.960
 2701SOL     OW 9001   3.121   6.481   6.190
 2701SOL    HW1 9002   3.183   6.497   6.113
 2701SOL    HW2 9003   3.151   6.401   6.242
 2702SOL     OW 9004   0.190   0.152   2.754
 2702SOL    HW1 9005   0.112   0.114   2.804
 2702SOL    HW2 9006   0.175   0.143   2.656
 2703SOL     OW 9007   1.502   1.405   3.119
 2703SOL    HW1 9008   1.491   1.496   3.159
 2703SOL    HW2 9009   1.599   1.388   3.102
 2704SOL     OW 9010   1.524   6.082   0.524
 2704SOL    HW1 9011   1.444   6.022   0.519
 2704SOL    HW2 9012   1.601   6.031   0.564
 2705SOL     OW 9013   0.573   4.807   2.679
 2705SOL    HW1 9014   0.552   4.752   2.599
 2705SOL    HW2 9015   0.672   4.805   2.697
 2706SOL     OW 9016   6.573   1.784   1.969
 2706SOL    HW1 9017   6.624   1.700   1.984
 2706SOL    HW2 9018   6.475   1.767   1.986
 2707SOL     OW 9019   2.329   1.524   5.611
 2707SOL    HW1 9020   2.389   1.537   5.690
 2707SOL    HW2 9021   2.268   1.446   5.628
 2708SOL     OW 9022   1.892   2.954   1.010
 2708SOL    HW1 9023   1.901   2.939   0.912
 2708SOL    HW2 9024   1.883   3.052   1.028
 2709SOL     OW 9025   4.567   6.381   1.984
 2709SOL    HW1 9026   4.483   6.413   1.939
 2709SOL    HW2 9027   4.544   6.311   2.051
 2710SOL     OW 9028   5.754   3.997   2.536
 2710SOL    HW1 9029   5.725   3.902   2.530
 2710SOL    HW2 9030   5.747   4.029   2.630
 2711SOL     OW 9031   1.246   0.020   1.934
 2711SOL    HW1 9032   1.160   0.027   1.884
 2711SOL    HW2 9033   1.293   6.956   1.909
 2712SOL     OW 9034   3.276   4.990   1.080
 2712SOL    HW1 9035   3.223   4.905   1.074
 2712SOL    HW2 9036   3.368   4.969   1.112
 2713SOL     OW 9037   2.134   3.256   4.728
 2713SOL    HW1 9038   2.108   3.187   4.796
 2713SOL    HW2 9039   2.102   3.346   4.757
 2714SOL     OW 9040   5.477   6.797   5.422
 2714SOL    HW1 9041   5.453   6.883   5.377
 2714SOL    HW2 9042   5.538   6.816   5.498
 2715SOL     OW 9043   6.693   0.511   0.291
 2715SOL    HW1 9044   6.661   0.601   0.323
 2715SOL    HW2 9045   6.672   0.502   0.194
 2716SOL     OW 9046   0.672   6.634   2.864
 2716SOL    HW1 9047   0.757   6.685   2.877
 2716SOL    HW2 9048   0.607   6.691   2.813
 2717SOL     OW 9049   1.300   0.570   2.796
 2717SOL    HW1 9050   1.306   0.634   2.719
 2717SOL    HW2 9051   1.232   0.500   2.775
 2718SOL     OW 9052   1.139   4.794   3.240
 2718SOL    HW1 9053   1.143   4.887   3.276
 2718SOL    HW2 9054   1.188   4.732   3.302
 2719SOL     OW 9055   3.905   4.845   2.374
 2719SOL    HW1 9056   3.835   4.871   2.307
 2719SOL    HW2 9057   3.875   4.871   2.466
 2720SOL     OW 9058   1.022   5.842   3.877
 2720SOL    HW1 9059   1.047   5.750   3.905
 2720SOL    HW2 9060   1.103   5.901   3.881
 2721SOL     OW 9061   4.437   0.095   4.682
 2721SOL    HW1 9062   4.531   0.125   4.695
 2721SOL    HW2 9063   4.415   0.098   4.584
 2722SOL     OW 9064   1.395   5.438   1.338
 2722SOL    HW1 9065   1.393   5.340   1.320
 2722SOL    HW2 9066   1.490   5.469   1.345
 2723SOL     OW 9067   1.140   1.273   5.512
 2723SOL    HW1 9068   1.199   1.345   5.548
 2723SOL    HW2 9069   1.143   1.274   5.412
 2724SOL     OW 9070   2.897   5.465   6.298
 2724SOL    HW1 9071   2.951   5.545   6.324
 2724SOL    HW2 9072   2.820   5.494   6.241
 2725SOL     OW 9073   3.140   4.894   3.239
 2725SOL    HW1 9074   3.159   4.918   3.334
 2725SOL    HW2 9075   3.056   4.840   3.234
 2726SOL     OW 9076   4.854   5.890   2.232
 2726SOL    HW1 9077   4.806   5.920   2.150
 2726SOL    HW2 9078   4.911   5.811   2.210
 2727SOL     OW 9079   1.984   5.312   3.206
 2727SOL    HW1 9080   2.001   5.299   3.304
 2727SOL    HW2 9081   2.062   5.278   3.154
 2728SOL     OW 9082   3.798   0.208   5.461
 2728SOL    HW1 9083   3.737   0.242   5.389
 2728SOL    HW2 9084   3.819   0.112   5.444
 2729SOL     OW 9085   6.248   4.746   2.455
 2729SOL    HW1 9086   6.283   4.760   2.548
 2729SOL    HW2 9087   6.303   4.798   2.390
 2730SOL     OW 9088   1.589   4.378   1.421
 2730SOL    HW1 9089   1.642   4.299   1.450
 2730SOL    HW2 9090   1.492   4.361   1.439
 2731SOL     OW 9091   2.841   3.800   1.764
 2731SOL    HW1 9092   2.851   3.706   1.797
 2731SOL    HW2 9093   2.905   3.859   1.813
 2732SOL     OW 9094   5.486   2.101   3.312
 2732SOL    HW1 9095   5.438   2.017   3.338
 2732SOL    HW2 9096   5.473   2.170   3.383
 2733SOL     OW 9097   1.668   0.800   5.417
 2733SOL    HW1 9098   1.709   0.744   5.346
 2733SOL    HW2 9099   1.657   0.746   5.501
 2734SOL     OW 9100   2.636   6.129   3.818
 2734SOL    HW1 9101   2.550   6.159   3.777
 2734SOL    HW2 9102   2.678   6.059   3.761
 2735SOL     OW 9103   2.178   4.250   1.658
 2735SOL    HW1 9104   2.121   4.234   1.739
 2735SOL    HW2 9105   2.147   4.332   1.611
 2736SOL     OW 9106   3.789   6.827   6.328
 2736SOL    HW1 9107   3.709   6.853   6.274
 2736SOL    HW2 9108   3.790   6.728   6.341
 2737SOL     OW 9109   4.407   3.563   6.058
 2737SOL    HW1 9110   4.486   3.620   6.082
 2737SOL    HW2 9111   4.411   3.539   5.961
 2738SOL     OW 9112   5.723   4.877   4.101
 2738SOL    HW1 9113   5.667   4.895   4.020
 2738SOL    HW2 9114   5.668   4.832   4.171
 2739SOL     OW 9115   5.853   3.674   0.951
 2739SOL    HW1 9116   5.831   3.582   0.918
 2739SOL    HW2 9117   5.848   3.676   1.051
 2740SOL     OW 9118   6.745   2.407   3.109
 2740SOL    HW1 9119   6.823   2.359   3.069
 2740SOL    HW2 9120   6.766   2.504   3.120
 2741SOL     OW 9121   1.398   2.070   5.969
 2741SOL    HW1 9122   1.441   2.041   5.883
 2741SOL    HW2 9123   1.327   2.138   5.950
 2742SOL     OW 9124   2.108   6.592   6.179
 2742SOL    HW1 9125   2.148   6.522   6.119
 2742SOL    HW2 9126   2.055   6.657   6.124
 2743SOL     OW 9127   5.656   4.803   0.756
 2743SOL    HW1 9128   5.688   4.890   0.793
 2743SOL    HW2 9129   5.623   4.744   0.830
 2744SOL     OW 9130   4.231   0.705   6.652
 2744SOL    HW1 9131   4.159   0.692   6.584
 2744SOL    HW2 9132   4.252   0.803   6.661
 2745SOL     OW 9133   2.550   5.717   0.984
 2745SOL    HW1 9134   2.633   5.708   0.930
 2745SOL    HW2 9135   2.512   5.809   0.973
 2746SOL     OW 9136   1.551   1.932   6.177
 2746SOL    HW1 9137   1.507   1.972   6.097
 2746SOL    HW2 9138   1.602   1.851   6.150
 2747SOL     OW 9139   5.209   5.688   4.150
 2747SOL    HW1 9140   5.110   5.679   4.163
 2747SOL    HW2 9141   5.250   5.725   4.234
 2748SOL     OW 9142   3.722   1.260   4.430
 2748SOL    HW1 9143   3.770   1.333   4.381
 2748SOL    HW2 9144   3.715   1.284   4.527
 2749SOL     OW 9145   4.616   4.987   3.954
 2749SOL    HW1 9146   4.581   5.079   3.938
 2749SOL    HW2 9147   4.604   4.931   3.872
 2750SOL     OW 9148   0.523   5.978   1.738
 2750SOL    HW1 9149   0.444   5.990   1.798
 2750SOL    HW2 9150   0.594   6.044   1.762
 2751SOL     OW 9151   1.485   0.260   0.009
 2751SOL    HW1 9152   1.565   0.230   0.062
 2751SOL    HW2 9153   1.499   0.238   6.933
 2752SOL     OW 9154   6.595   6.210   5.674
 2752SOL    HW1 9155   6.530   6.165   5.735
 2752SOL    HW2 9156   6.588   6.170   5.583
 2753SOL     OW 9157   2.990   5.950   5.231
 2753SOL    HW1 9158   2.910   5.989   5.186
 2753SOL    HW2 9159   2.978   5.852   5.241
 2754SOL     OW 9160   1.072   5.975   4.287
 2754SOL    HW1 9161   1.020   6.022   4.358
 2754SOL    HW2 9162   1.042   5.879   4.281
 2755SOL     OW 9163   3.329   5.967   2.271
 2755SOL    HW1 9164   3.376   5.968   2.182
 2755SOL    HW2 9165   3.384   5.917   2.337
 2756SOL     OW 9166   0.331   2.992   5.409
 2756SOL    HW1 9167   0.294   3.055   5.340
 2756SOL    HW2 9168   0.265   2.983   5.484
 2757SOL     OW 9169   4.342   3.355   6.673
 2757SOL    HW1 9170   4.249   3.373   6.641
 2757SOL    HW2 9171   4.351   3.386   6.768
 2758SOL     OW 9172   0.064   6.755   1.937
 2758SOL    HW1 9173   0.013   6.818   1.879
 2758SOL    HW2 9174   0.131   6.705   1.882
 2759SOL     OW 9175   3.621   3.547   5.827
 2759SOL    HW1 9176   3.643   3.459   5.785
 2759SOL    HW2 9177   3.542   3.587   5.780
 2760SOL     OW 9178   5.916   5.781   2.444
 2760SOL    HW1 9179   5.942   5.776   2.541
 2760SOL    HW2 9180   5.898   5.876   2.420
 2761SOL     OW 9181   1.333   3.160   3.417
 2761SOL    HW1 9182   1.306   3.114   3.332
 2761SOL    HW2 9183   1.345   3.092   3.489
 2762SOL     OW 9184   3.124   1.888   0.791
 2762SOL    HW1 9185   3.156   1.967   0.738
 2762SOL    HW2 9186   3.182   1.877   0.872
 2763SOL     OW 9187   6.489   1.706   4.110
 2763SOL    HW1 9188   6.570   1.658   4.144
 2763SOL    HW2 9189   6.497   1.804   4.128
 2764SOL     OW 9190   0.588   3.118   3.352
 2764SOL    HW1 9191   0.602   3.215   3.373
 2764SOL    HW2 9192   0.492   3.103   3.326
 2765SOL     OW 9193   5.796   6.612   6.608
 2765SOL    HW1 9194   5.701   6.634   6.586
 2765SOL    HW2 9195   5.807   6.513   6.612
 2766SOL     OW 9196   4.225   6.824   0.322
 2766SOL    HW1 9197   4.171   6.754   0.275
 2766SOL    HW2 9198   4.311   6.783   0.353
 2767SOL     OW 9199   0.713   5.495   6.323
 2767SOL    HW1 9200   0.766   5.445   6.391
 2767SOL    HW2 9201   0.623   5.453   6.314
 2768SOL     OW 9202   4.170   6.924   1.628
 2768SOL    HW1 9203   4.261   6.958   1.607
 2768SOL    HW2 9204   4.135   6.871   1.551
 2769SOL     OW 9205   0.802   4.693   5.648
 2769SOL    HW1 9206   0.726   4.758   5.651
 2769SOL    HW2 9207   0.878   4.728   5.702
 2770SOL     OW 9208   2.494   5.995   0.620
 2770SOL    HW1 9209   2.482   6.044   0.534
 2770SOL    HW2 9210   2.408   5.997   0.671
 2771SOL     OW 9211   4.509   0.377   5.303
 2771SOL    HW1 9212   4.473   0.374   5.396
 2771SOL    HW2 9213   4.492   0.468   5.264
 2772SOL     OW 9214   4.442   0.873   3.813
 2772SOL    HW1 9215   4.440   0.857   3.714
 2772SOL    HW2 9216   4.465   0.969   3.831
 2773SOL     OW 9217   5.789   2.498   4.557
 2773SOL    HW1 9218   5.785   2.570   4.626
 2773SOL    HW2 9219   5.883   2.489   4.524
 2774SOL     OW 9220   5.544   1.758   4.165
 2774SOL    HW1 9221   5.614   1.783   4.098
 2774SOL    HW2 9222   5.547   1.659   4.181
 2775SOL     OW 9223   6.968   3.172   3.964
 2775SOL    HW1 9224   0.031   3.184   4.018
 2775SOL    HW2 9225   6.889   3.193   4.020
 2776SOL     OW 9226   5.138   4.889   6.210
 2776SOL    HW1 9227   5.106   4.922   6.121
 2776SOL    HW2 9228   5.176   4.797   6.199
 2777SOL     OW 9229   2.433   2.059   6.605
 2777SOL    HW1 9230   2.491   2.123   6.656
 2777SOL    HW2 9231   2.338   2.087   6.614
 2778SOL     OW 9232   2.676   0.765   6.108
 2778SOL    HW1 9233   2.578   0.783   6.103
 2778SOL    HW2 9234   2.718   0.779   6.018
 2779SOL     OW 9235   4.656   0.938   1.144
 2779SOL    HW1 9236   4.605   1.024   1.144
 2779SOL    HW2 9237   4.607   0.869   1.198
 2780SOL     OW 9238   6.945   1.244   5.113
 2780SOL    HW1 9239   7.014   1.218   5.181
 2780SOL    HW2 9240   6.860   1.267   5.160
 2781SOL     OW 9241   5.570   0.784   3.793
 2781SOL    HW1 9242   5.492   0.777   3.855
 2781SOL    HW2 9243   5.655   0.778   3.846
 2782SOL     OW 9244   5.509   0.657   5.915
 2782SOL    HW1 9245   5.539   0.663   6.011
 2782SOL    HW2 9246   5.415   0.689   5.908
 2783SOL     OW 9247   6.298   3.564   1.873
 2783SOL    HW1 9248   6.265   3.658   1.865
 2783SOL    HW2 9249   6.393   3.566   1.905
 2784SOL     OW 9250   0.842   3.013   0.998
 2784SOL    HW1 9251   0.809   2.968   1.081
 2784SOL    HW2 9252   0.942   3.019   1.002
 2785SOL     OW 9253   6.508   3.177   2.314
 2785SOL    HW1 9254   6.549   3.089   2.339
 2785SOL    HW2 9255   6.411   3.164   2.296
 2786SOL     OW 9256   0.899   6.308   6.639
 2786SOL    HW1 9257   0.840   6.285   6.561
 2786SOL    HW2 9258   0.879   6.401   6.668
 2787SOL     OW 9259   0.312   5.770   6.460
 2787SOL    HW1 9260   0.272   5.679   6.453
 2787SOL    HW2 9261   0.247   5.838   6.426
 2788SOL     OW 9262   2.568   0.087   6.186
 2788SOL    HW1 9263   2.537   0.132   6.103
 2788SOL    HW2 9264   2.620   0.004   6.162
 2789SOL     OW 9265   1.134   2.170   4.670
 2789SOL    HW1 9266   1.125   2.111   4.591
 2789SOL    HW2 9267   1.120   2.265   4.643
 2790SOL     OW 9268   1.230   5.478   1.730
 2790SOL    HW1 9269   1.244   5.577   1.722
 2790SOL    HW2 9270   1.148   5.460   1.783
 2791SOL     OW 9271   0.968   2.878   3.797
 2791SOL    HW1 9272   0.985   2.861   3.700
 2791SOL    HW2 9273   1.042   2.935   3.834
 2792SOL     OW 9274   3.616   1.982   6.110
 2792SOL    HW1 9275   3.538   1.939   6.064
 2792SOL    HW2 9276   3.609   1.967   6.209
 2793SOL     OW 9277   3.937   3.600   0.437
 2793SOL    HW1 9278   3.883   3.557   0.510
 2793SOL    HW2 9279   3.968   3.690   0.467
 2794SOL     OW 9280   1.202   2.719   0.257
 2794SOL    HW1 9281   1.173   2.813   0.237
 2794SOL    HW2 9282   1.298   2.720   0.286
 2795SOL     OW 9283   1.590   6.133   1.263
 2795SOL    HW1 9284   1.546   6.218   1.233
 2795SOL    HW2 9285   1.653   6.153   1.338
 2796SOL     OW 9286   1.642   5.973   6.750
 2796SOL    HW1 9287   1.595   6.040   6.691
 2796SOL    HW2 9288   1.575   5.909   6.787
 2797SOL     OW 9289   5.203   5.056   3.167
 2797SOL    HW1 9290   5.258   4.974   3.148
 2797SOL    HW2 9291   5.253   5.137   3.139
 2798SOL     OW 9292   5.369   1.054   1.828
 2798SOL    HW1 9293   5.379   1.038   1.730
 2798SOL    HW2 9294   5.380   1.152   1.847
 2799SOL     OW 9295   3.463   6.827   4.294
 2799SOL    HW1 9296   3.469   6.733   4.258
 2799SOL    HW2 9297   3.378   6.838   4.345
 2800SOL     OW 9298   5.035   0.412   6.603
 2800SOL    HW1 9299   5.045   0.313   6.587
 2800SOL    HW2 9300   5.124   0.456   6.592
 2801SOL     OW 9301   0.388   4.466   4.129
 2801SOL    HW1 9302   0.394   4.557   4.170
 2801SOL    HW2 9303   0.451   4.405   4.175
 2802SOL     OW 9304   1.822   5.141   5.111
 2802SOL    HW1 9305   1.751   5.177   5.172
 2802SOL    HW2 9306   1.827   5.197   5.028
 2803SOL     OW 9307   3.817   2.554   6.429
 2803SOL    HW1 9308   3.908   2.515   6.414
 2803SOL    HW2 9309   3.764   2.492   6.487
 2804SOL     OW 9310   0.025   2.561   3.621
 2804SOL    HW1 9311   0.016   2.499   3.699
 2804SOL    HW2 9312   0.122   2.574   3.599
 2805SOL     OW 9313   3.115   3.728   0.765
 2805SOL    HW1 9314   3.082   3.642   0.803
 2805SOL    HW2 9315   3.085   3.735   0.670
 2806SOL     OW 9316   0.247   3.062   6.110
 2806SOL    HW1 9317   0.275   3.154   6.135
 2806SOL    HW2 9318   0.327   3.002   6.109
 2807SOL     OW 9319   4.466   1.140   3.839
 2807SOL    HW1 9320   4.385   1.177   3.885
 2807SOL    HW2 9321   4.457   1.152   3.740
 2808SOL     OW 9322   0.709   5.071   5.518
 2808SOL    HW1 9323   0.705   5.142   5.588
 2808SOL    HW2 9324   0.791   5.083   5.463
 2809SOL     OW 9325   6.830   5.646   1.762
 2809SOL    HW1 9326   6.914   5.595   1.776
 2809SOL    HW2 9327   6.842   5.740   1.795
 2810SOL     OW 9328   1.830   6.889   2.999
 2810SOL    HW1 9329   1.786   6.937   3.075
 2810SOL    HW2 9330   1.924   6.921   2.990
 2811SOL     OW 9331   0.929   1.277   0.661
 2811SOL    HW1 9332   0.960   1.322   0.578
 2811SOL    HW2 9333   0.940   1.178   0.651
 2812SOL     OW 9334   1.342   1.921   0.509
 2812SOL    HW1 9335   1.395   1.871   0.441
 2812SOL    HW2 9336   1.404   1.980   0.562
 2813SOL     OW 9337   0.818   3.304   2.019
 2813SOL    HW1 9338   0.752   3.287   2.092
 2813SOL    HW2 9339   0.900   3.248   2.035
 2814SOL     OW 9340   2.706   3.867   6.740
 2814SOL    HW1 9341   2.663   3.922   6.669
 2814SOL    HW2 9342   2.764   3.925   6.797
 2815SOL     OW 9343   6.919   5.327   4.487
 2815SOL    HW1 9344   7.015   5.298   4.484
 2815SOL    HW2 9345   6.861   5.249   4.464
 2816SOL     OW 9346   0.783   5.777   4.914
 2816SOL    HW1 9347   0.710   5.745   4.854
 2816SOL    HW2 9348   0.867   5.726   4.895
 2817SOL     OW 9349   3.069   0.891   2.479
 2817SOL    HW1 9350   3.124   0.819   2.436
 2817SOL    HW2 9351   3.090   0.979   2.437
 2818SOL     OW 9352   1.854   0.590   0.354
 2818SOL    HW1 9353   1.845   0.688   0.335
 2818SOL    HW2 9354   1.950   0.565   0.355
 2819SOL     OW 9355   0.807   0.340   6.586
 2819SOL    HW1 9356   0.878   0.328   6.655
 2819SOL    HW2 9357   0.816   0.430   6.544
 2820SOL     OW 9358   1.698   2.194   0.006
 2820SOL    HW1 9359   1.701   2.122   6.958
 2820SOL    HW2 9360   1.701   2.283   6.981
 2821SOL     OW 9361   3.167   3.529   6.343
 2821SOL    HW1 9362   3.107   3.499   6.269
 2821SOL    HW2 9363   3.192   3.450   6.400
 2822SOL     OW 9364   5.131   2.691   0.347
 2822SOL    HW1 9365   5.202   2.737   0.294
 2822SOL    HW2 9366   5.062   2.654   0.285
 2823SOL     OW 9367   4.578   3.453   1.424
 2823SOL    HW1 9368   4.610   3.411   1.339
 2823SOL    HW2 9369   4.605   3.396   1.501
 2824SOL     OW 9370   0.806   4.409   4.663
 2824SOL    HW1 9371   0.801   4.312   4.640
 2824SOL    HW2 9372   0.891   4.447   4.629
 2825SOL     OW 9373   5.290   1.304   6.235
 2825SOL    HW1 9374   5.310   1.208   6.258
 2825SOL    HW2 9375   5.364   1.362   6.267
 2826SOL     OW 9376   2.387   2.878   6.617
 2826SOL    HW1 9377   2.369   2.805   6.551
 2826SOL    HW2 9378   2.474   2.922   6.595
 2827SOL     OW 9379   5.850   2.001   6.766
 2827SOL    HW1 9380   5.822   2.050   6.850
 2827SOL    HW2 9381   5.834   1.903   6.778
 2828SOL     OW 9382   1.702   3.185   1.373
 2828SOL    HW1 9383   1.728   3.147   1.462
 2828SOL    HW2 9384   1.734   3.124   1.300
 2829SOL     OW 9385   3.351   3.660   2.107
 2829SOL    HW1 9386   3.429   3.668   2.170
 2829SOL    HW2 9387   3.335   3.748   2.063
 2830SOL     OW 9388   2.954   6.383   4.636
 2830SOL    HW1 9389   2.960   6.331   4.551
 2830SOL    HW2 9390   2.882   6.453   4.628
 2831SOL     OW 9391   6.482   1.814   1.590
 2831SOL    HW1 9392   6.438   1.732   1.626
 2831SOL    HW2 9393   6.578   1.794   1.569
 2832SOL     OW 9394   0.743   3.806   2.613
 2832SOL    HW1 9395   0.700   3.740   2.675
 2832SOL    HW2 9396   0.689   3.891   2.612
 2833SOL     OW 9397   1.118   2.747   2.493
 2833SOL    HW1 9398   1.089   2.720   2.401
 2833SOL    HW2 9399   1.045   2.800   2.537
 2834SOL     OW 9400   3.782   6.735   4.210
 2834SOL    HW1 9401   3.822   6.776   4.292
 2834SOL    HW2 9402   3.848   6.671   4.170
 2835SOL     OW 9403   5.881   0.828   6.694
 2835SOL    HW1 9404   5.885   0.730   6.677
 2835SOL    HW2 9405   5.967   0.859   6.734
 2836SOL     OW 9406   2.964   5.898   2.783
 2836SOL    HW1 9407   3.033   5.827   2.765
 2836SOL    HW2 9408   2.922   5.881   2.872
 2837SOL     OW 9409   4.912   4.366   1.614
 2837SOL    HW1 9410   4.858   4.450   1.620
 2837SOL    HW2 9411   4.949   4.343   1.704
 2838SOL     OW 9412   6.879   3.981   6.167
 2838SOL    HW1 9413   6.841   3.932   6.088
 2838SOL    HW2 9414   6.942   4.051   6.134
 2839SOL     OW 9415   5.810   3.341   5.291
 2839SOL    HW1 9416   5.810   3.330   5.390
 2839SOL    HW2 9417   5.892   3.297   5.253
 2840SOL     OW 9418   6.053   6.564   3.802
 2840SOL    HW1 9419   6.008   6.644   3.763
 2840SOL    HW2 9420   5.988   6.512   3.857
 2841SOL     OW 9421   5.559   4.009   2.341
 2841SOL    HW1 9422   5.631   4.001   2.410
 2841SOL    HW2 9423   5.596   3.985   2.251
 2842SOL     OW 9424   0.797   6.996   3.676
 2842SOL    HW1 9425   0.715   6.940   3.672
 2842SOL    HW2 9426   0.800   0.036   3.596
 2843SOL     OW 9427   2.480   2.334   3.490
 2843SOL    HW1 9428   2.479   2.235   3.474
 2843SOL    HW2 9429   2.412   2.357   3.559
 2844SOL     OW 9430   4.863   3.724   0.859
 2844SOL    HW1 9431   4.920   3.802   0.886
 2844SOL    HW2 9432   4.787   3.756   0.802
 2845SOL     OW 9433   2.352   1.742   1.710
 2845SOL    HW1 9434   2.288   1.804   1.756
 2845SOL    HW2 9435   2.444   1.781   1.711
 2846SOL     OW 9436   6.613   7.013   6.556
 2846SOL    HW1 9437   6.518   6.989   6.575
 2846SOL    HW2 9438   6.673   6.940   6.588
 2847SOL     OW 9439   4.718   5.719   1.149
 2847SOL    HW1 9440   4.706   5.735   1.051
 2847SOL    HW2 9441   4.671   5.635   1.175
 2848SOL     OW 9442   0.851   4.505   5.465
 2848SOL    HW1 9443   0.829   4.575   5.533
 2848SOL    HW2 9444   0.889   4.548   5.383
 2849SOL     OW 9445   5.440   0.563   1.865
 2849SOL    HW1 9446   5.352   0.580   1.822
 2849SOL    HW2 9447   5.501   0.641   1.851
 2850SOL     OW 9448   1.375   0.556   1.868
 2850SOL    HW1 9449   1.383   0.458   1.886
 2850SOL    HW2 9450   1.419   0.606   1.942
 2851SOL     OW 9451   2.837   3.325   1.100
 2851SOL    HW1 9452   2.859   3.229   1.084
 2851SOL    HW2 9453   2.786   3.333   1.186
 2852SOL     OW 9454   0.182   4.674   5.903
 2852SOL    HW1 9455   0.217   4.610   5.834
 2852SOL    HW2 9456   0.248   4.683   5.977
 2853SOL     OW 9457   0.272   4.309   5.405
 2853SOL    HW1 9458   0.196   4.251   5.375
 2853SOL    HW2 9459   0.240   4.404   5.413
 2854SOL     OW 9460   3.131   0.674   6.799
 2854SOL    HW1 9461   3.196   0.612   6.755
 2854SOL    HW2 9462   3.050   0.684   6.740
 2855SOL     OW 9463   2.280   1.256   4.403
 2855SOL    HW1 9464   2.236   1.201   4.474
 2855SOL    HW2 9465   2.210   1.307   4.352
 2856SOL     OW 9466   0.364   5.663   3.753
 2856SOL    HW1 9467   0.303   5.732   3.792
 2856SOL    HW2 9468   0.347   5.575   3.796
 2857SOL     OW 9469   6.886   4.383   1.156
 2857SOL    HW1 9470   6.860   4.396   1.251
 2857SOL    HW2 9471   6.913   4.288   1.141
 2858SOL     OW 9472   4.917   4.643   2.362
 2858SOL    HW1 9473   4.902   4.547   2.387
 2858SOL    HW2 9474   5.001   4.650   2.308
 2859SOL     OW 9475   5.508   5.283   1.778
 2859SOL    HW1 9476   5.531   5.273   1.875
 2859SOL    HW2 9477   5.587   5.320   1.729
 2860SOL     OW 9478   1.088   0.023   2.701
 2860SOL    HW1 9479   1.100   0.054   2.606
 2860SOL    HW2 9480   0.993   0.035   2.728
 2861SOL     OW 9481   4.725   4.056   5.887
 2861SOL    HW1 9482   4.679   4.003   5.958
 2861SOL    HW2 9483   4.714   4.010   5.798
 2862SOL     OW 9484   4.746   1.928   0.478
 2862SOL    HW1 9485   4.720   1.858   0.411
 2862SOL    HW2 9486   4.694   2.012   0.459
 2863SOL     OW 9487   5.924   2.143   4.857
 2863SOL    HW1 9488   6.014   2.183   4.843
 2863SOL    HW2 9489   5.856   2.216   4.869
 2864SOL     OW 9490   3.984   4.396   0.711
 2864SOL    HW1 9491   3.989   4.360   0.804
 2864SOL    HW2 9492   3.891   4.386   0.675
 2865SOL     OW 9493   5.613   5.065   5.353
 2865SOL    HW1 9494   5.677   5.016   5.413
 2865SOL    HW2 9495   5.578   5.001   5.284
 2866SOL     OW 9496   3.619   4.456   0.724
 2866SOL    HW1 9497   3.687   4.517   0.683
 2866SOL    HW2 9498   3.660   4.410   0.803
 2867SOL     OW 9499   6.180   6.372   2.876
 2867SOL    HW1 9500   6.085   6.348   2.856
 2867SOL    HW2 9501   6.185   6.468   2.904
 2868SOL     OW 9502   0.277   0.580   5.677
 2868SOL    HW1 9503   0.290   0.677   5.654
 2868SOL    HW2 9504   0.343   0.525   5.626
 2869SOL     OW 9505   5.973   4.881   3.944
 2869SOL    HW1 9506   5.930   4.878   3.854
 2869SOL    HW2 9507   5.903   4.884   4.015
 2870SOL     OW 9508   7.009   1.651   2.025
 2870SOL    HW1 9509   0.064   1.655   1.961
 2870SOL    HW2 9510   0.013   1.700   2.109
 2871SOL     OW 9511   4.996   1.695   2.807
 2871SOL    HW1 9512   5.086   1.684   2.849
 2871SOL    HW2 9513   5.002   1.673   2.709
 2872SOL     OW 9514   2.282   2.235   2.781
 2872SOL    HW1 9515   2.322   2.309   2.835
 2872SOL    HW2 9516   2.355   2.176   2.746
 2873SOL     OW 9517   1.085   0.441   1.217
 2873SOL    HW1 9518   1.043   0.511   1.160
 2873SOL    HW2 9519   1.141   0.485   1.287
 2874SOL     OW 9520   2.037   1.531   3.297
 2874SOL    HW1 9521   2.071   1.527   3.203
 2874SOL    HW2 9522   2.091   1.598   3.348
 2875SOL     OW 9523   2.564   6.563   2.965
 2875SOL    HW1 9524   2.630   6.628   3.003
 2875SOL    HW2 9525   2.596   6.530   2.876
 2876SOL     OW 9526   2.049   6.366   1.360
 2876SOL    HW1 9527   2.045   6.266   1.361
 2876SOL    HW2 9528   2.009   6.402   1.444
 2877SOL     OW 9529   1.670   2.315   6.385
 2877SOL    HW1 9530   1.600   2.377   6.351
 2877SOL    HW2 9531   1.698   2.253   6.311
 2878SOL     OW 9532   3.897   3.004   4.497
 2878SOL    HW1 9533   3.913   2.970   4.404
 2878SOL    HW2 9534   3.924   3.100   4.503
 2879SOL     OW 9535   5.414   4.680   0.306
 2879SOL    HW1 9536   5.470   4.763   0.308
 2879SOL    HW2 9537   5.320   4.703   0.330
 2880SOL     OW 9538   2.032   1.131   3.507
 2880SOL    HW1 9539   2.058   1.114   3.602
 2880SOL    HW2 9540   1.974   1.057   3.473
 2881SOL     OW 9541   5.622   5.400   0.496
 2881SOL    HW1 9542   5.714   5.432   0.477
 2881SOL    HW2 9543   5.611   5.306   0.465
 2882SOL     OW 9544   4.452   6.301   6.988
 2882SOL    HW1 9545   4.438   6.203   6.998
 2882SOL    HW2 9546   4.495   6.320   6.900
 2883SOL     OW 9547   6.014   6.558   3.482
 2883SOL    HW1 9548   6.113   6.542   3.482
 2883SOL    HW2 9549   5.984   6.583   3.390
 2884SOL     OW 9550   5.766   5.622   4.262
 2884SOL    HW1 9551   5.734   5.544   4.209
 2884SOL    HW2 9552   5.865   5.617   4.274
 2885SOL     OW 9553   1.598   2.564   3.616
 2885SOL    HW1 9554   1.636   2.575   3.708
 2885SOL    HW2 9555   1.546   2.479   3.612
 2886SOL     OW 9556   2.324   4.519   5.485
 2886SOL    HW1 9557   2.390   4.581   5.529
 2886SOL    HW2 9558   2.342   4.516   5.387
 2887SOL     OW 9559   0.071   5.698   2.798
 2887SOL    HW1 9560   0.168   5.711   2.777
 2887SOL    HW2 9561   0.056   5.718   2.895
 2888SOL     OW 9562   5.302   7.019   6.753
 2888SOL    HW1 9563   5.317   0.075   6.691
 2888SOL    HW2 9564   5.272   6.939   6.700
 2889SOL     OW 9565   4.176   6.251   4.096
 2889SOL    HW1 9566   4.163   6.344   4.061
 2889SOL    HW2 9567   4.249   6.251   4.164
 2890SOL     OW 9568   1.037   2.137   0.934
 2890SOL    HW1 9569   1.025   2.039   0.948
 2890SOL    HW2 9570   1.014   2.186   1.018
 2891SOL     OW 9571   0.322   1.753   5.313
 2891SOL    HW1 9572   0.380   1.684   5.358
 2891SOL    HW2 9573   0.230   1.717   5.302
 2892SOL     OW 9574   5.367   4.154   1.925
 2892SOL    HW1 9575   5.395   4.061   1.901
 2892SOL    HW2 9576   5.274   4.153   1.960
 2893SOL     OW 9577   6.706   5.983   5.072
 2893SOL    HW1 9578   6.778   6.052   5.070
 2893SOL    HW2 9579   6.676   5.964   4.978
 2894SOL     OW 9580   2.227   5.423   2.074
 2894SOL    HW1 9581   2.266   5.405   1.984
 2894SOL    HW2 9582   2.129   5.402   2.072
 2895SOL     OW 9583   4.194   6.477   5.984
 2895SOL    HW1 9584   4.197   6.380   6.005
 2895SOL    HW2 9585   4.226   6.530   6.063
 2896SOL     OW 9586   5.392   0.291   4.802
 2896SOL    HW1 9587   5.436   0.203   4.821
 2896SOL    HW2 9588   5.332   0.315   4.879
 2897SOL     OW 9589   3.653   5.076   3.096
 2897SOL    HW1 9590   3.571   5.049   3.146
 2897SOL    HW2 9591   3.717   4.999   3.092
 2898SOL     OW 9592   5.143   2.552   2.425
 2898SOL    HW1 9593   5.074   2.588   2.488
 2898SOL    HW2 9594   5.115   2.462   2.393
 2899SOL     OW 9595   6.797   3.541   0.882
 2899SOL    HW1 9596   6.785   3.572   0.976
 2899SOL    HW2 9597   6.882   3.579   0.844
 2900SOL     OW 9598   2.551   3.165   5.475
 2900SOL    HW1 9599   2.645   3.131   5.479
 2900SOL    HW2 9600   2.518   3.160   5.381
 2901SOL     OW 9601   1.108   4.218   2.927
 2901SOL    HW1 9602   1.050   4.186   3.002
 2901SOL    HW2 9603   1.063   4.199   2.839
 2902SOL     OW 9604   5.728   5.488   3.707
 2902SOL    HW1 9605   5.719   5.510   3.610
 2902SOL    HW2 9606   5.637   5.478   3.747
 2903SOL     OW 9607   5.885   4.649   0.645
 2903SOL    HW1 9608   5.869   4.653   0.546
 2903SOL    HW2 9609   5.802   4.678   0.692
 2904SOL     OW 9610   2.013   4.660   5.303
 2904SOL    HW1 9611   1.978   4.566   5.310
 2904SOL    HW2 9612   2.097   4.660   5.250
 2905SOL     OW 9613   2.002   5.796   1.010
 2905SOL    HW1 9614   1.976   5.797   0.914
 2905SOL    HW2 9615   2.079   5.859   1.024
 2906SOL     OW 9616   6.086   6.091   4.613
 2906SOL    HW1 9617   6.125   6.038   4.688
 2906SOL    HW2 9618   6.025   6.033   4.559
 2907SOL     OW 9619   0.910   0.463   4.955
 2907SOL    HW1 9620   0.997   0.443   4.910
 2907SOL    HW2 9621   0.916   0.552   5.001
 2908SOL     OW 9622   4.622   0.183   3.181
 2908SOL    HW1 9623   4.612   0.086   3.205
 2908SOL    HW2 9624   4.678   0.192   3.099
 2909SOL     OW 9625   6.923   6.441   1.582
 2909SOL    HW1 9626   6.851   6.378   1.551
 2909SOL    HW2 9627   6.881   6.523   1.622
 2910SOL     OW 9628   0.715   0.582   4.518
 2910SOL    HW1 9629   0.767   0.654   4.564
 2910SOL    HW2 9630   0.755   0.562   4.429
 2911SOL     OW 9631   0.011   4.339   5.697
 2911SOL    HW1 9632   7.002   4.250   5.731
 2911SOL    HW2 9633   6.956   4.382   5.648
 2912SOL     OW 9634   1.204   0.952   1.566
 2912SOL    HW1 9635   1.264   0.926   1.642
 2912SOL    HW2 9636   1.138   1.021   1.597
 2913SOL     OW 9637   2.700   6.329   2.501
 2913SOL    HW1 9638   2.718   6.346   2.405
 2913SOL    HW2 9639   2.748   6.247   2.531
 2914SOL     OW 9640   3.930   5.511   0.893
 2914SOL    HW1 9641   3.862   5.470   0.953
 2914SOL    HW2 9642   3.956   5.445   0.822
 2915SOL     OW 9643   2.826   0.269   3.396
 2915SOL    HW1 9644   2.868   0.304   3.313
 2915SOL    HW2 9645   2.796   0.345   3.453
 2916SOL     OW 9646   1.657   5.735   7.011
 2916SOL    HW1 9647   1.752   5.765   0.003
 2916SOL    HW2 9648   1.641   5.714   6.914
 2917SOL     OW 9649   2.920   6.527   2.672
 2917SOL    HW1 9650   2.971   6.519   2.757
 2917SOL    HW2 9651   2.983   6.544   2.596
 2918SOL     OW 9652   5.201   3.050   1.682
 2918SOL    HW1 9653   5.129   3.002   1.631
 2918SOL    HW2 9654   5.184   3.149   1.678
 2919SOL     OW 9655   0.533   5.960   4.943
 2919SOL    HW1 9656   0.537   5.874   4.892
 2919SOL    HW2 9657   0.521   6.036   4.879
 2920SOL     OW 9658   2.163   2.196   2.206
 2920SOL    HW1 9659   2.236   2.196   2.274
 2920SOL    HW2 9660   2.204   2.190   2.114
 2921SOL     OW 9661   1.725   6.070   3.258
 2921SOL    HW1 9662   1.690   6.164   3.254
 2921SOL    HW2 9663   1.650   6.009   3.282
 2922SOL     OW 9664   4.191   4.856   4.060
 2922SOL    HW1 9665   4.114   4.882   4.119
 2922SOL    HW2 9666   4.164   4.866   3.964
 2923SOL     OW 9667   6.960   5.295   5.081
 2923SOL    HW1 9668   6.912   5.367   5.132
 2923SOL    HW2 9669   6.948   5.310   4.983
 2924SOL     OW 9670   6.089   1.773   6.819
 2924SOL    HW1 9671   6.175   1.734   6.787
 2924SOL    HW2 9672   6.077   1.864   6.780
 2925SOL     OW 9673   5.768   6.435   4.683
 2925SOL    HW1 9674   5.822   6.481   4.753
 2925SOL    HW2 9675   5.737   6.501   4.615
 2926SOL     OW 9676   6.965   2.377   3.825
 2926SOL    HW1 9677   6.888   2.337   3.874
 2926SOL    HW2 9678   7.018   2.434   3.889
 2927SOL     OW 9679   0.903   1.961   1.404
 2927SOL    HW1 9680   0.974   2.031   1.412
 2927SOL    HW2 9681   0.818   1.994   1.446
 2928SOL     OW 9682   6.254   3.178   0.520
 2928SOL    HW1 9683   6.333   3.231   0.489
 2928SOL    HW2 9684   6.228   3.113   0.449
 2929SOL     OW 9685   2.116   1.982   4.043
 2929SOL    HW1 9686   2.159   2.054   3.988
 2929SOL    HW2 9687   2.151   1.893   4.013
 2930SOL     OW 9688   0.262   4.044   4.054
 2930SOL    HW1 9689   0.282   4.086   4.142
 2930SOL    HW2 9690   0.274   3.945   4.061
 2931SOL     OW 9691   5.319   4.263   5.764
 2931SOL    HW1 9692   5.256   4.314   5.705
 2931SOL    HW2 9693   5.365   4.326   5.826
 2932SOL     OW 9694   5.938   4.879   1.570
 2932SOL    HW1 9695   5.876   4.954   1.593
 2932SOL    HW2 9696   6.014   4.915   1.514
 2933SOL     OW 9697   1.130   6.472   0.251
 2933SOL    HW1 9698   1.067   6.469   0.329
 2933SOL    HW2 9699   1.105   6.401   0.185
 2934SOL     OW 9700   3.864   5.128   1.258
 2934SOL    HW1 9701   3.925   5.080   1.195
 2934SOL    HW2 9702   3.812   5.197   1.208
 2935SOL     OW 9703   0.910   2.655   6.067
 2935SOL    HW1 9704   0.859   2.666   6.152
 2935SOL    HW2 9705   1.004   2.686   6.080
 2936SOL     OW 9706   4.822   6.468   1.911
 2936SOL    HW1 9707   4.725   6.454   1.930
 2936SOL    HW2 9708   4.870   6.493   1.996
 2937SOL     OW 9709   5.435   4.062   2.644
 2937SOL    HW1 9710   5.424   3.969   2.609
 2937SOL    HW2 9711   5.348   4.094   2.681
 2938SOL     OW 9712   0.753   6.009   6.177
 2938SOL    HW1 9713   0.682   6.066   6.136
 2938SOL    HW2 9714   0.750   6.018   6.276
 2939SOL     OW 9715   0.093   6.036   1.457
 2939SOL    HW1 9716   0.173   5.999   1.504
 2939SOL    HW2 9717   0.122   6.108   1.395
 2940SOL     OW 9718   4.463   6.692   3.639
 2940SOL    HW1 9719   4.364   6.685   3.623
 2940SOL    HW2 9720   4.509   6.718   3.554
 2941SOL     OW 9721   2.263   4.682   3.123
 2941SOL    HW1 9722   2.316   4.598   3.137
 2941SOL    HW2 9723   2.199   4.693   3.199
 2942SOL     OW 9724   3.546   1.538   1.560
 2942SOL    HW1 9725   3.517   1.603   1.490
 2942SOL    HW2 9726   3.468   1.515   1.618
 2943SOL     OW 9727   5.754   3.729   2.826
 2943SOL    HW1 9728   5.817   3.788   2.774
 2943SOL    HW2 9729   5.806   3.677   2.894
 2944SOL     OW 9730   2.017   5.673   2.306
 2944SOL    HW1 9731   2.116   5.663   2.297
 2944SOL    HW2 9732   1.994   5.688   2.402
 2945SOL     OW 9733   4.604   4.262   1.146
 2945SOL    HW1 9734   4.532   4.222   1.089
 2945SOL    HW2 9735   4.564   4.296   1.231
 2946SOL     OW 9736   3.450   3.257   4.461
 2946SOL    HW1 9737   3.350   3.258   4.464
 2946SOL    HW2 9738   3.482   3.162   4.462
 2947SOL     OW 9739   6.575   5.795   0.841
 2947SOL    HW1 9740   6.507   5.729   0.809
 2947SOL    HW2 9741   6.612   5.765   0.929
 2948SOL     OW 9742   6.958   3.433   2.332
 2948SOL    HW1 9743   0.038   3.429   2.333
 2948SOL    HW2 9744   6.928   3.516   2.378
 2949SOL     OW 9745   2.054   6.483   0.375
 2949SOL    HW1 9746   1.957   6.462   0.361
 2949SOL    HW2 9747   2.065   6.581   0.388
 2950SOL     OW 9748   6.290   6.059   2.289
 2950SOL    HW1 9749   6.295   6.001   2.370
 2950SOL    HW2 9750   6.379   6.059   2.243
 2951SOL     OW 9751   0.361   1.538   1.504
 2951SOL    HW1 9752   0.413   1.573   1.427
 2951SOL    HW2 9753   0.285   1.600   1.524
 2952SOL     OW 9754   6.835   1.671   5.513
 2952SOL    HW1 9755   6.821   1.712   5.603
 2952SOL    HW2 9756   6.759   1.694   5.452
 2953SOL     OW 9757   1.494   4.824   3.548
 2953SOL    HW1 9758   1.405   4.778   3.556
 2953SOL    HW2 9759   1.495   4.882   3.467
 2954SOL     OW 9760   0.576   3.906   6.244
 2954SOL    HW1 9761   0.605   3.811   6.230
 2954SOL    HW2 9762   0.478   3.914   6.228
 2955SOL     OW 9763   1.250   4.398   6.346
 2955SOL    HW1 9764   1.230   4.382   6.443
 2955SOL    HW2 9765   1.271   4.311   6.301
 2956SOL     OW 9766   5.236   4.983   4.387
 2956SOL    HW1 9767   5.194   5.011   4.473
 2956SOL    HW2 9768   5.165   4.958   4.321
 2957SOL     OW 9769   2.697   5.405   1.476
 2957SOL    HW1 9770   2.725   5.368   1.564
 2957SOL    HW2 9771   2.598   5.420   1.476
 2958SOL     OW 9772   1.583   4.360   2.882
 2958SOL    HW1 9773   1.607   4.452   2.914
 2958SOL    HW2 9774   1.619   4.346   2.790
 2959SOL     OW 9775   0.092   3.584   3.714
 2959SOL    HW1 9776   0.133   3.519   3.777
 2959SOL    HW2 9777   0.019   3.634   3.760
 2960SOL     OW 9778   5.077   0.055   1.195
 2960SOL    HW1 9779   5.001   7.020   1.161
 2960SOL    HW2 9780   5.127   0.093   1.117
 2961SOL     OW 9781   5.873   3.211   1.752
 2961SOL    HW1 9782   5.952   3.193   1.694
 2961SOL    HW2 9783   5.792   3.169   1.711
 2962SOL     OW 9784   0.056   0.279   3.493
 2962SOL    HW1 9785   0.067   0.313   3.399
 2962SOL    HW2 9786   0.142   0.236   3.523
 2963SOL     OW 9787   1.248   0.717   5.041
 2963SOL    HW1 9788   1.333   0.731   4.989
 2963SOL    HW2 9789   1.270   0.698   5.136
 2964SOL     OW 9790   1.592   1.108   6.258
 2964SOL    HW1 9791   1.516   1.062   6.305
 2964SOL    HW2 9792   1.663   1.129   6.325
 2965SOL     OW 9793   6.497   0.265   6.152
 2965SOL    HW1 9794   6.560   0.337   6.182
 2965SOL    HW2 9795   6.404   0.288   6.179
 2966SOL     OW 9796   2.887   5.730   1.970
 2966SOL    HW1 9797   2.830   5.676   2.032
 2966SOL    HW2 9798   2.972   5.756   2.016
 2967SOL     OW 9799   5.610   0.076   5.334
 2967SOL    HW1 9800   5.515   0.046   5.323
 2967SOL    HW2 9801   5.660   0.059   5.249
 2968SOL     OW 9802   0.893   3.910   1.087
 2968SOL    HW1 9803   0.819   3.843   1.076
 2968SOL    HW2 9804   0.859   4.001   1.060
 2969SOL     OW 9805   4.684   2.944   5.204
 2969SOL    HW1 9806   4.650   2.851   5.216
 2969SOL    HW2 9807   4.722   2.954   5.112
 2970SOL     OW 9808   2.509   2.334   5.261
 2970SOL    HW1 9809   2.537   2.248   5.303
 2970SOL    HW2 9810   2.582   2.401   5.271
 2971SOL     OW 9811   5.296   2.960   6.712
 2971SOL    HW1 9812   5.347   3.043   6.693
 2971SOL    HW2 9813   5.262   2.920   6.627
 2972SOL     OW 9814   0.168   5.501   6.359
 2972SOL    HW1 9815   0.070   5.488   6.377
 2972SOL    HW2 9816   0.221   5.475   6.440
 2973SOL     OW 9817   5.112   1.275   4.228
 2973SOL    HW1 9818   5.124   1.371   4.202
 2973SOL    HW2 9819   5.183   1.250   4.294
 2974SOL     OW 9820   4.572   6.879   2.492
 2974SOL    HW1 9821   4.599   6.802   2.551
 2974SOL    HW2 9822   4.626   6.960   2.516
 2975SOL     OW 9823   5.308   3.892   5.028
 2975SOL    HW1 9824   5.366   3.909   4.949
 2975SOL    HW2 9825   5.264   3.803   5.019
 2976SOL     OW 9826   3.693   1.163   1.888
 2976SOL    HW1 9827   3.687   1.256   1.852
 2976SOL    HW2 9828   3.779   1.121   1.858
 2977SOL     OW 9829   0.876   0.633   1.814
 2977SOL    HW1 9830   0.954   0.595   1.863
 2977SOL    HW2 9831   0.791   0.592   1.850
 2978SOL     OW 9832   4.160   5.086   6.807
 2978SOL    HW1 9833   4.192   4.992   6.814
 2978SOL    HW2 9834   4.075   5.088   6.754
 2979SOL     OW 9835   3.366   0.809   4.943
 2979SOL    HW1 9836   3.451   0.806   4.995
 2979SOL    HW2 9837   3.363   0.733   4.878
 2980SOL     OW 9838   2.983   3.481   4.300
 2980SOL    HW1 9839   2.972   3.528   4.212
 2980SOL    HW2 9840   2.965   3.384   4.288
 2981SOL     OW 9841   2.502   1.083   1.339
 2981SOL    HW1 9842   2.493   1.175   1.377
 2981SOL    HW2 9843   2.583   1.038   1.377
 2982SOL     OW 9844   1.625   1.069   1.160
 2982SOL    HW1 9845   1.650   1.107   1.071
 2982SOL    HW2 9846   1.704   1.076   1.222
 2983SOL     OW 9847   6.470   3.188   5.524
 2983SOL    HW1 9848   6.438   3.102   5.563
 2983SOL    HW2 9849   6.402   3.223   5.460
 2984SOL     OW 9850   0.339   5.671   1.462
 2984SOL    HW1 9851   0.383   5.658   1.374
 2984SOL    HW2 9852   0.257   5.615   1.468
 2985SOL     OW 9853   5.868   0.573   6.583
 2985SOL    HW1 9854   5.801   0.502   6.605
 2985SOL    HW2 9855   5.955   0.531   6.561
 2986SOL     OW 9856   3.569   3.684   2.270
 2986SOL    HW1 9857   3.612   3.721   2.352
 2986SOL    HW2 9858   3.639   3.655   2.205
 2987SOL     OW 9859   2.405   5.674   4.638
 2987SOL    HW1 9860   2.444   5.585   4.615
 2987SOL    HW2 9861   2.472   5.727   4.691
 2988SOL     OW 9862   6.929   1.850   6.157
 2988SOL    HW1 9863   6.990   1.784   6.114
 2988SOL    HW2 9864   6.844   1.857   6.104
 2989SOL     OW 9865   5.353   3.384   4.534
 2989SOL    HW1 9866   5.336   3.366   4.437
 2989SOL    HW2 9867   5.268   3.415   4.577
 2990SOL     OW 9868   5.464   2.237   4.745
 2990SOL    HW1 9869   5.563   2.250   4.738
 2990SOL    HW2 9870   5.433   2.261   4.837
 2991SOL     OW 9871   0.346   3.400   0.489
 2991SOL    HW1 9872   0.340   3.301   0.482
 2991SOL    HW2 9873   0.344   3.441   0.398
 2992SOL     OW 9874   0.463   4.137   4.759
 2992SOL    HW1 9875   0.366   4.114   4.752
 2992SOL    HW2 9876   0.507   4.075   4.824
 2993SOL     OW 9877   2.739   4.346   0.847
 2993SOL    HW1 9878   2.764   4.250   0.843
 2993SOL    HW2 9879   2.639   4.355   0.845
 2994SOL     OW 9880   3.300   5.623   5.159
 2994SOL    HW1 9881   3.287   5.707   5.107
 2994SOL    HW2 9882   3.272   5.545   5.104
 2995SOL     OW 9883   4.267   0.255   1.778
 2995SOL    HW1 9884   4.274   0.230   1.681
 2995SOL    HW2 9885   4.284   0.353   1.789
 2996SOL     OW 9886   6.658   1.279   4.056
 2996SOL    HW1 9887   6.705   1.324   3.980
 2996SOL    HW2 9888   6.594   1.211   4.020
 2997SOL     OW 9889   4.974   6.344   4.034
 2997SOL    HW1 9890   4.932   6.386   3.954
 2997SOL    HW2 9891   4.942   6.390   4.116
 2998SOL     OW 9892   2.870   0.934   1.523
 2998SOL    HW1 9893   2.850   0.962   1.617
 2998SOL    HW2 9894   2.886   0.835   1.521
 2999SOL     OW 9895   2.239   4.492   0.882
 2999SOL    HW1 9896   2.241   4.587   0.850
 2999SOL    HW2 9897   2.163   4.444   0.838
 3000SOL     OW 9898   2.457   4.174   5.388
 3000SOL    HW1 9899   2.508   4.248   5.343
 3000SOL    HW2 9900   2.466   4.091   5.334
 3001SOL     OW 9901   5.048   0.678   6.236
 3001SOL    HW1 9902   4.993   0.761   6.247
 3001SOL    HW2 9903   5.001   0.601   6.280
 3002SOL     OW 9904   1.708   1.944   1.870
 3002SOL    HW1 9905   1.721   1.923   1.966
 3002SOL    HW2 9906   1.789   1.917   1.818
 3003SOL     OW 9907   1.686   6.647   0.579
 3003SOL    HW1 9908   1.723   6.709   0.647
 3003SOL    HW2 9909   1.594   6.618   0.606
 3004SOL     OW 9910   2.718   6.954   3.291
 3004SOL    HW1 9911   2.760   6.892   3.357
 3004SOL    HW2 9912   2.625   6.976   3.319
 3005SOL     OW 9913   1.765   2.069   0.910
 3005SOL    HW1 9914   1.817   2.151   0.933
 3005SOL    HW2 9915   1.809   1.989   0.949
 3006SOL     OW 9916   5.347   1.429   5.997
 3006SOL    HW1 9917   5.316   1.371   6.073
 3006SOL    HW2 9918   5.286   1.418   5.919
 3007SOL     OW 9919   6.293   5.599   6.356
 3007SOL    HW1 9920   6.317   5.674   6.418
 3007SOL    HW2 9921   6.363   5.593   6.284
 3008SOL     OW 9922   4.520   3.716   5.621
 3008SOL    HW1 9923   4.574   3.800   5.618
 3008SOL    HW2 9924   4.545   3.657   5.544
 3009SOL     OW 9925   6.252   2.863   2.432
 3009SOL    HW1 9926   6.283   2.883   2.524
 3009SOL    HW2 9927   6.306   2.915   2.366
 3010SOL     OW 9928   4.405   5.639   1.937
 3010SOL    HW1 9929   4.310   5.666   1.956
 3010SOL    HW2 9930   4.464   5.669   2.011
 3011SOL     OW 9931   6.496   0.271   0.336
 3011SOL    HW1 9932   6.505   0.369   0.314
 3011SOL    HW2 9933   6.438   0.227   0.267
 3012SOL     OW 9934   2.202   1.493   4.935
 3012SOL    HW1 9935   2.184   1.562   4.865
 3012SOL    HW2 9936   2.133   1.420   4.928
 3013SOL     OW 9937   0.341   4.926   5.183
 3013SOL    HW1 9938   0.405   4.912   5.107
 3013SOL    HW2 9939   0.274   4.996   5.158
 3014SOL     OW 9940   4.844   0.024   6.737
 3014SOL    HW1 9941   4.746   0.007   6.726
 3014SOL    HW2 9942   4.862   0.054   6.830
 3015SOL     OW 9943   1.948   0.878   6.114
 3015SOL    HW1 9944   1.962   0.857   6.211
 3015SOL    HW2 9945   1.953   0.794   6.060
 3016SOL     OW 9946   2.318   6.674   4.065
 3016SOL    HW1 9947   2.356   6.638   4.150
 3016SOL    HW2 9948   2.346   6.769   4.053
 3017SOL     OW 9949   1.272   5.762   0.113
 3017SOL    HW1 9950   1.283   5.854   0.149
 3017SOL    HW2 9951   1.324   5.697   0.169
 3018SOL     OW 9952   3.729   1.420   1.792
 3018SOL    HW1 9953   3.659   1.479   1.752
 3018SOL    HW2 9954   3.762   1.461   1.877
 3019SOL     OW 9955   2.018   0.009   6.314
 3019SOL    HW1 9956   2.035   0.042   6.221
 3019SOL    HW2 9957   1.974   0.081   6.367
 3020SOL     OW 9958   5.731   5.092   6.790
 3020SOL    HW1 9959   5.680   5.122   6.871
 3020SOL    HW2 9960   5.812   5.149   6.778
 3021SOL     OW 9961   4.107   0.718   4.545
 3021SOL    HW1 9962   4.029   0.751   4.491
 3021SOL    HW2 9963   4.190   0.726   4.490
 3022SOL     OW 9964   4.391   6.016   3.255
 3022SOL    HW1 9965   4.328   6.074   3.204
 3022SOL    HW2 9966   4.477   6.065   3.270
 3023SOL     OW 9967   6.031   4.663   4.993
 3023SOL    HW1 9968   6.073   4.609   4.920
 3023SOL    HW2 9969   6.057   4.624   5.082
 3024SOL     OW 9970   0.005   0.833   0.443
 3024SOL    HW1 9971   0.021   0.761   0.376
 3024SOL    HW2 9972   6.941   0.814   0.492
 3025SOL     OW 9973   4.555   5.352   0.097
 3025SOL    HW1 9974   4.534   5.303   0.181
 3025SOL    HW2 9975   4.649   5.386   0.101
 3026SOL     OW 9976   0.319   0.580   1.814
 3026SOL    HW1 9977   0.233   0.541   1.780
 3026SOL    HW2 9978   0.363   0.632   1.741
 3027SOL     OW 9979   4.039   0.651   0.616
 3027SOL    HW1 9980   4.064   0.644   0.519
 3027SOL    HW2 9981   3.958   0.596   0.634
 3028SOL     OW 9982   2.933   3.642   5.139
 3028SOL    HW1 9983   2.923   3.721   5.078
 3028SOL    HW2 9984   2.897   3.560   5.095
 3029SOL     OW 9985   6.568   3.392   4.709
 3029SOL    HW1 9986   6.661   3.423   4.731
 3029SOL    HW2 9987   6.534   3.336   4.784
 3030SOL     OW 9988   2.171   2.446   6.682
 3030SOL    HW1 9989   2.093   2.477   6.737
 3030SOL    HW2 9990   2.183   2.508   6.605
 3031SOL     OW 9991   1.365   5.543   0.848
 3031SOL    HW1 9992   1.457   5.543   0.889
 3031SOL    HW2 9993   1.299   5.573   0.916
 3032SOL     OW 9994   2.415   6.599   3.377
 3032SOL    HW1 9995   2.502   6.633   3.413
 3032SOL    HW2 9996   2.366   6.673   3.332
 3033SOL     OW 9997   1.313   1.637   5.917
 3033SOL    HW1 9998   1.407   1.604   5.929
 3033SOL    HW2 9999   1.288   1.695   5.994
 3034SOL     OW10000   5.744   3.279   2.985
 3034SOL    HW110001   5.787   3.332   2.911
 3034SOL    HW210002   5.704   3.196   2.947
 3035SOL     OW10003   6.967   3.435   0.233
 3035SOL    HW110004   6.986   3.471   0.325
 3035SOL    HW210005   6.898   3.492   0.189
 3036SOL     OW10006   2.922   2.222   5.540
 3036SOL    HW110007   2.916   2.133   5.586
 3036SOL    HW210008   2.969   2.211   5.453
 3037SOL     OW10009   1.232   5.441   6.390
 3037SOL    HW110010   1.258   5.483   6.477
 3037SOL    HW210011   1.178   5.506   6.336
 3038SOL     OW10012   5.664   5.025   6.305
 3038SOL    HW110013   5.698   5.114   6.275
 3038SOL    HW210014   5.564   5.029   6.313
 3039SOL     OW10015   6.416   3.696   5.992
 3039SOL    HW110016   6.487   3.671   5.925
 3039SOL    HW210017   6.328   3.703   5.946
 3040SOL     OW10018   5.238   5.374   6.278
 3040SOL    HW110019   5.234   5.473   6.260
 3040SOL    HW210020   5.263   5.326   6.194
 3041SOL     OW10021   1.210   4.568   5.520
 3041SOL    HW110022   1.182   4.505   5.448
 3041SOL    HW210023   1.260   4.517   5.590
 3042SOL     OW10024   6.955   5.034   3.628
 3042SOL    HW110025   0.024   5.015   3.589
 3042SOL    HW210026   6.902   4.949   3.632
 3043SOL     OW10027   2.852   5.548   1.338
 3043SOL    HW110028   2.896   5.621   1.391
 3043SOL    HW210029   2.793   5.494   1.399
 3044SOL     OW10030   3.896   3.540   4.602
 3044SOL    HW110031   3.815   3.596   4.591
 3044SOL    HW210032   3.897   3.500   4.694
 3045SOL     OW10033   4.816   2.093   2.349
 3045SOL    HW110034   4.820   2.142   2.436
 3045SOL    HW210035   4.762   2.010   2.360
 3046SOL     OW10036   5.645   6.508   1.488
 3046SOL    HW110037   5.742   6.501   1.469
 3046SOL    HW210038   5.594   6.445   1.429
 3047SOL     OW10039   6.001   1.647   4.348
 3047SOL    HW110040   6.067   1.576   4.326
 3047SOL    HW210041   5.964   1.687   4.264
 3048SOL     OW10042   4.370   4.944   1.513
 3048SOL    HW110043   4.382   4.930   1.612
 3048SOL    HW210044   4.437   5.010   1.480
 3049SOL     OW10045   0.661   2.053   2.084
 3049SOL    HW110046   0.739   2.111   2.108
 3049SOL    HW210047   0.628   2.005   2.165
 3050SOL     OW10048   3.410   2.132   6.302
 3050SOL    HW110049   3.490   2.079   6.331
 3050SOL    HW210050   3.439   2.224   6.276
 3051SOL     OW10051   2.730   5.570   5.290
 3051SOL    HW110052   2.792   5.645   5.312
 3051SOL    HW210053   2.641   5.608   5.264
 3052SOL     OW10054   6.938   6.619   3.129
 3052SOL    HW110055   6.915   6.556   3.055
 3052SOL    HW210056   6.864   6.686   3.141
 3053SOL     OW10057   0.638   3.697   6.984
 3053SOL    HW110058   0.591   3.739   6.906
 3053SOL    HW210059   0.639   3.761   0.040
 3054SOL     OW10060   5.766   0.978   2.960
 3054SOL    HW110061   5.714   0.930   3.030
 3054SOL    HW210062   5.704   1.036   2.907
 3055SOL     OW10063   6.024   6.583   0.119
 3055SOL    HW110064   6.113   6.597   0.162
 3055SOL    HW210065   6.006   6.659   0.056
 3056SOL     OW10066   3.996   1.637   6.319
 3056SOL    HW110067   3.972   1.554   6.369
 3056SOL    HW210068   4.020   1.614   6.225
 3057SOL     OW10069   5.221   4.059   3.262
 3057SOL    HW110070   5.275   4.114   3.198
 3057SOL    HW210071   5.276   3.982   3.295
 3058SOL     OW10072   0.462   5.387   6.230
 3058SOL    HW110073   0.390   5.345   6.285
 3058SOL    HW210074   0.421   5.445   6.159
 3059SOL     OW10075   1.196   1.940   2.539
 3059SOL    HW110076   1.204   1.954   2.637
 3059SOL    HW210077   1.253   2.007   2.491
 3060SOL     OW10078   5.531   4.044   3.987
 3060SOL    HW110079   5.610   4.038   3.925
 3060SOL    HW210080   5.483   4.130   3.970
 3061SOL     OW10081   5.601   0.138   3.842
 3061SOL    HW110082   5.611   0.191   3.926
 3061SOL    HW210083   5.532   0.068   3.855
 3062SOL     OW10084   3.841   4.935   0.928
 3062SOL    HW110085   3.748   4.902   0.938
 3062SOL    HW210086   3.840   5.031   0.899
 3063SOL     OW10087   6.669   4.918   2.136
 3063SOL    HW110088   6.751   4.913   2.194
 3063SOL    HW210089   6.639   5.013   2.129
 3064SOL     OW10090   5.139   2.305   7.001
 3064SOL    HW110091   5.045   2.272   6.988
 3064SOL    HW210092   5.190   2.239   0.036
 3065SOL     OW10093   5.597   1.247   6.649
 3065SOL    HW110094   5.608   1.246   6.550
 3065SOL    HW210095   5.687   1.241   6.693
 3066SOL     OW10096   5.283   7.011   5.564
 3066SOL    HW110097   5.291   7.012   5.663
 3066SOL    HW210098   5.200   6.962   5.537
 3067SOL     OW10099   1.402   2.207   5.046
 3067SOL    HW110100   1.406   2.193   5.145
 3067SOL    HW210101   1.454   2.289   5.023
 3068SOL     OW10102   6.571   0.177   0.575
 3068SOL    HW110103   6.667   0.204   0.580
 3068SOL    HW210104   6.526   0.225   0.500
 3069SOL     OW10105   4.606   6.657   4.255
 3069SOL    HW110106   4.640   6.749   4.273
 3069SOL    HW210107   4.538   6.660   4.182
 3070SOL     OW10108   2.413   0.783   0.696
 3070SOL    HW110109   2.482   0.850   0.724
 3070SOL    HW210110   2.442   0.691   0.724
 3071SOL     OW10111   5.652   4.662   5.454
 3071SOL    HW110112   5.684   4.665   5.359
 3071SOL    HW210113   5.728   4.637   5.514
 3072SOL     OW10114   1.984   6.541   6.573
 3072SOL    HW110115   2.014   6.478   6.501
 3072SOL    HW210116   2.000   6.635   6.543
 3073SOL     OW10117   0.699   5.501   1.858
 3073SOL    HW110118   0.647   5.580   1.828
 3073SOL    HW210119   0.648   5.453   1.930
 3074SOL     OW10120   3.386   3.015   1.576
 3074SOL    HW110121   3.482   3.033   1.558
 3074SOL    HW210122   3.378   2.954   1.655
 3075SOL     OW10123   3.936   4.867   1.375
 3075SOL    HW110124   3.917   4.768   1.379
 3075SOL    HW210125   3.873   4.910   1.311
 3076SOL     OW10126   0.866   0.707   4.759
 3076SOL    HW110127   0.928   0.643   4.714
 3076SOL    HW210128   0.891   0.801   4.735
 3077SOL     OW10129   0.004   3.476   1.811
 3077SOL    HW110130   0.036   3.381   1.808
 3077SOL    HW210131   0.062   3.529   1.872
 3078SOL     OW10132   0.464   3.481   1.725
 3078SOL    HW110133   0.550   3.507   1.770
 3078SOL    HW210134   0.393   3.470   1.795
 3079SOL     OW10135   2.169   3.772   4.928
 3079SOL    HW110136   2.229   3.697   4.901
 3079SOL    HW210137   2.220   3.836   4.985
 3080SOL     OW10138   4.257   4.943   1.051
 3080SOL    HW110139   4.189   4.870   1.043
 3080SOL    HW210140   4.348   4.906   1.036
 3081SOL     OW10141   1.734   3.523   6.969
 3081SOL    HW110142   1.683   3.581   6.905
 3081SOL    HW210143   1.677   3.506   0.029
 3082SOL     OW10144   5.123   4.913   5.299
 3082SOL    HW110145   5.142   4.876   5.390
 3082SOL    HW210146   5.087   4.840   5.241
 3083SOL     OW10147   3.545   5.497   1.673
 3083SOL    HW110148   3.483   5.548   1.612
 3083SOL    HW210149   3.492   5.431   1.726
 3084SOL     OW10150   0.058   4.757   3.693
 3084SOL    HW110151   0.084   4.727   3.602
 3084SOL    HW210152   0.119   4.829   3.723
 3085SOL     OW10153   6.122   5.636   0.080
 3085SOL    HW110154   6.185   5.593   0.145
 3085SOL    HW210155   6.090   5.567   0.014
 3086SOL     OW10156   6.352   6.179   6.406
 3086SOL    HW110157   6.366   6.265   6.358
 3086SOL    HW210158   6.255   6.153   6.399
 3087SOL     OW10159   4.007   0.258   2.699
 3087SOL    HW110160   4.033   0.219   2.788
 3087SOL    HW210161   3.932   0.324   2.712
 3088SOL     OW10162   2.040   3.908   5.598
 3088SOL    HW110163   2.106   3.913   5.523
 3088SOL    HW210164   1.949   3.931   5.565
 3089SOL     OW10165   4.561   4.879   6.014
 3089SOL    HW110166   4.568   4.794   5.961
 3089SOL    HW210167   4.582   4.861   6.110
 3090SOL     OW10168   0.784   2.805   2.213
 3090SOL    HW110169   0.771   2.709   2.238
 3090SOL    HW210170   0.881   2.821   2.192
 3091SOL     OW10171   0.781   2.636   1.032
 3091SOL    HW110172   0.864   2.691   1.018
 3091SOL    HW210173   0.706   2.675   0.979
 3092SOL     OW10174   6.080   1.276   2.203
 3092SOL    HW110175   6.111   1.361   2.162
 3092SOL    HW210176   6.157   1.213   2.212
 3093SOL     OW10177   6.675   5.779   6.693
 3093SOL    HW110178   6.687   5.794   6.791
 3093SOL    HW210179   6.631   5.690   6.678
 3094SOL     OW10180   2.585   1.268   6.628
 3094SOL    HW110181   2.665   1.263   6.688
 3094SOL    HW210182   2.597   1.204   6.552
 3095SOL     OW10183   1.518   4.358   5.388
 3095SOL    HW110184   1.501   4.272   5.341
 3095SOL    HW210185   1.603   4.398   5.355
 3096SOL     OW10186   1.505   3.073   4.386
 3096SOL    HW110187   1.501   3.056   4.485
 3096SOL    HW210188   1.585   3.027   4.347
 3097SOL     OW10189   5.378   2.941   4.977
 3097SOL    HW110190   5.290   2.919   4.934
 3097SOL    HW210191   5.381   3.038   4.998
 3098SOL     OW10192   2.102   3.099   3.279
 3098SOL    HW110193   2.177   3.080   3.342
 3098SOL    HW210194   2.023   3.043   3.303
 3099SOL     OW10195   0.571   6.759   4.795
 3099SOL    HW110196   0.531   6.813   4.721
 3099SOL    HW210197   0.498   6.731   4.858
 3100SOL     OW10198   5.645   4.764   1.839
 3100SOL    HW110199   5.740   4.754   1.810
 3100SOL    HW210200   5.586   4.771   1.758
 3101SOL     OW10201   4.762   0.062   5.382
 3101SOL    HW110202   4.818   7.015   5.430
 3101SOL    HW210203   4.726   0.022   5.298
 3102SOL     OW10204   6.354   4.541   2.241
 3102SOL    HW110205   6.271   4.597   2.240
 3102SOL    HW210206   6.413   4.570   2.317
 3103SOL     OW10207   2.619   1.850   1.331
 3103SOL    HW110208   2.682   1.923   1.359
 3103SOL    HW210209   2.595   1.795   1.410
 3104SOL     OW10210   5.450   2.548   4.967
 3104SOL    HW110211   5.426   2.604   5.046
 3104SOL    HW210212   5.408   2.458   4.976
 3105SOL     OW10213   5.828   3.726   0.604
 3105SOL    HW110214   5.789   3.679   0.525
 3105SOL    HW210215   5.761   3.791   0.641
 3106SOL     OW10216   5.247   1.640   5.571
 3106SOL    HW110217   5.342   1.664   5.550
 3106SOL    HW210218   5.232   1.645   5.669
 3107SOL     OW10219   3.120   1.932   5.422
 3107SOL    HW110220   3.107   2.020   5.377
 3107SOL    HW210221   3.084   1.859   5.364
 3108SOL     OW10222   2.294   4.257   3.272
 3108SOL    HW110223   2.273   4.186   3.204
 3108SOL    HW210224   2.239   4.241   3.354
 3109SOL     OW10225   6.728   6.288   3.597
 3109SOL    HW110226   6.635   6.327   3.598
 3109SOL    HW210227   6.782   6.336   3.528
 3110SOL     OW10228   0.965   5.731   3.228
 3110SOL    HW110229   0.954   5.634   3.205
 3110SOL    HW210230   1.004   5.780   3.150
 3111SOL     OW10231   6.199   4.119   3.935
 3111SOL    HW110232   6.109   4.135   3.897
 3111SOL    HW210233   6.201   4.029   3.979
 3112SOL     OW10234   3.512   1.323   6.847
 3112SOL    HW110235   3.428   1.270   6.837
 3112SOL    HW210236   3.528   1.375   6.763
 3113SOL     OW10237   1.444   6.446   2.777
 3113SOL    HW110238   1.447   6.545   2.765
 3113SOL    HW210239   1.487   6.421   2.864
 3114SOL     OW10240   4.722   0.517   6.098
 3114SOL    HW110241   4.682   0.438   6.144
 3114SOL    HW210242   4.675   0.600   6.127
 3115SOL     OW10243   4.916   5.765   5.432
 3115SOL    HW110244   4.876   5.852   5.402
 3115SOL    HW210245   5.016   5.771   5.428
 3116SOL     OW10246   0.860   0.845   6.622
 3116SOL    HW110247   0.836   0.942   6.618
 3116SOL    HW210248   0.863   0.816   6.718
 3117SOL     OW10249   4.553   0.224   0.372
 3117SOL    HW110250   4.463   0.262   0.350
 3117SOL    HW210251   4.543   0.142   0.429
 3118SOL     OW10252   1.602   1.562   3.339
 3118SOL    HW110253   1.675   1.625   3.310
 3118SOL    HW210254   1.569   1.588   3.429
 3119SOL     OW10255   4.807   6.064   4.678
 3119SOL    HW110256   4.818   6.060   4.777
 3119SOL    HW210257   4.789   6.158   4.649
 3120SOL     OW10258   2.144   5.579   6.582
 3120SOL    HW110259   2.161   5.544   6.490
 3120SOL    HW210260   2.231   5.600   6.626
 3121SOL     OW10261   3.969   1.856   4.690
 3121SOL    HW110262   3.984   1.871   4.788
 3121SOL    HW210263   3.903   1.922   4.656
 3122SOL     OW10264   5.505   4.868   5.559
 3122SOL    HW110265   5.474   4.927   5.486
 3122SOL    HW210266   5.526   4.777   5.523
 3123SOL     OW10267   1.777   1.422   2.539
 3123SOL    HW110268   1.870   1.457   2.547
 3123SOL    HW210269   1.769   1.335   2.588
 3124SOL     OW10270   4.806   0.259   4.446
 3124SOL    HW110271   4.849   0.314   4.375
 3124SOL    HW210272   4.871   0.193   4.482
 3125SOL     OW10273   2.107   1.422   5.339
 3125SOL    HW110274   2.057   1.490   5.285
 3125SOL    HW210275   2.090   1.437   5.436
 3126SOL     OW10276   4.834   4.693   5.862
 3126SOL    HW110277   4.890   4.610   5.862
 3126SOL    HW210278   4.881   4.764   5.810
 3127SOL     OW10279   0.108   1.304   5.322
 3127SOL    HW110280   0.063   1.394   5.315
 3127SOL    HW210281   0.128   1.284   5.418
 3128SOL     OW10282   3.609   0.706   0.771
 3128SOL    HW110283   3.637   0.628   0.715
 3128SOL    HW210284   3.541   0.760   0.722
 3129SOL     OW10285   4.026   3.767   0.159
 3129SOL    HW110286   4.034   3.721   0.248
 3129SOL    HW210287   3.933   3.800   0.147
 3130SOL     OW10288   6.685   5.423   2.082
 3130SOL    HW110289   6.653   5.352   2.145
 3130SOL    HW210290   6.730   5.496   2.134
 3131SOL     OW10291   6.190   4.337   2.939
 3131SOL    HW110292   6.185   4.379   2.849
 3131SOL    HW210293   6.258   4.384   2.995
 3132SOL     OW10294   4.549   4.195   0.164
 3132SOL    HW110295   4.578   4.239   0.248
 3132SOL    HW210296   4.518   4.264   0.099
 3133SOL     OW10297   4.673   6.907   4.336
 3133SOL    HW110298   4.661   6.949   4.245
 3133SOL    HW210299   4.643   6.972   4.406
 3134SOL     OW10300   6.444   5.157   2.677
 3134SOL    HW110301   6.442   5.255   2.698
 3134SOL    HW210302   6.501   5.110   2.744
 3135SOL     OW10303   3.811   4.976   6.975
 3135SOL    HW110304   3.845   5.070   6.986
 3135SOL    HW210305   3.846   4.938   6.889
 3136SOL     OW10306   5.827   0.946   3.454
 3136SOL    HW110307   5.899   0.994   3.504
 3136SOL    HW210308   5.741   0.951   3.506
 3137SOL     OW10309   5.543   6.362   0.277
 3137SOL    HW110310   5.537   6.453   0.319
 3137SOL    HW210311   5.483   6.357   0.198
 3138SOL     OW10312   6.487   6.524   4.872
 3138SOL    HW110313   6.575   6.489   4.840
 3138SOL    HW210314   6.417   6.453   4.859
 3139SOL     OW10315   2.468   5.065   1.653
 3139SOL    HW110316   2.533   5.065   1.577
 3139SOL    HW210317   2.485   5.143   1.713
 3140SOL     OW10318   0.533   6.589   0.066
 3140SOL    HW110319   0.447   6.564   0.022
 3140SOL    HW210320   0.587   6.507   0.083
 3141SOL     OW10321   5.828   2.151   6.531
 3141SOL    HW110322   5.826   2.081   6.602
 3141SOL    HW210323   5.742   2.203   6.532
 3142SOL     OW10324   4.397   0.431   3.615
 3142SOL    HW110325   4.487   0.389   3.605
 3142SOL    HW210326   4.379   0.490   3.536
 3143SOL     OW10327   6.205   1.278   0.548
 3143SOL    HW110328   6.246   1.214   0.614
 3143SOL    HW210329   6.157   1.350   0.596
 3144SOL     OW10330   4.042   4.281   0.406
 3144SOL    HW110331   4.023   4.375   0.433
 3144SOL    HW210332   3.957   4.229   0.402
 3145SOL     OW10333   0.405   5.888   0.085
 3145SOL    HW110334   0.398   5.988   0.094
 3145SOL    HW210335   0.398   5.847   0.176
 3146SOL     OW10336   6.379   1.658   4.532
 3146SOL    HW110337   6.337   1.670   4.622
 3146SOL    HW210338   6.375   1.561   4.506
 3147SOL     OW10339   3.821   6.280   0.272
 3147SOL    HW110340   3.906   6.332   0.276
 3147SOL    HW210341   3.829   6.199   0.330
 3148SOL     OW10342   0.123   5.012   1.509
 3148SOL    HW110343   0.153   5.096   1.464
 3148SOL    HW210344   0.172   4.934   1.470
 3149SOL     OW10345   3.275   2.293   0.048
 3149SOL    HW110346   3.365   2.310   0.009
 3149SOL    HW210347   3.282   2.220   0.117
 3150SOL     OW10348   6.884   6.265   5.754
 3150SOL    HW110349   6.953   6.333   5.728
 3150SOL    HW210350   6.792   6.301   5.734
 3151SOL     OW10351   7.019   0.850   5.194
 3151SOL    HW110352   0.067   0.812   5.255
 3151SOL    HW210353   7.011   0.792   5.113
 3152SOL     OW10354   1.476   3.104   5.649
 3152SOL    HW110355   1.423   3.035   5.698
 3152SOL    HW210356   1.557   3.128   5.703
 3153SOL     OW10357   5.922   5.339   2.066
 3153SOL    HW110358   5.978   5.260   2.090
 3153SOL    HW210359   5.874   5.321   1.980
 3154SOL     OW10360   3.990   0.885   0.187
 3154SOL    HW110361   4.031   0.915   0.273
 3154SOL    HW210362   3.911   0.943   0.165
 3155SOL     OW10363   0.711   4.884   0.035
 3155SOL    HW110364   0.739   4.969   7.012
 3155SOL    HW210365   0.622   4.897   0.080
 3156SOL     OW10366   3.642   4.234   1.544
 3156SOL    HW110367   3.683   4.150   1.509
 3156SOL    HW210368   3.631   4.226   1.643
 3157SOL     OW10369   0.918   0.761   5.039
 3157SOL    HW110370   1.014   0.771   5.015
 3157SOL    HW210371   0.862   0.767   4.955
 3158SOL     OW10372   1.798   1.319   5.554
 3158SOL    HW110373   1.783   1.358   5.645
 3158SOL    HW210374   1.711   1.285   5.517
 3159SOL     OW10375   5.326   0.314   6.833
 3159SOL    HW110376   5.315   0.318   6.933
 3159SOL    HW210377   5.319   0.219   6.803
 3160SOL     OW10378   2.099   0.440   5.864
 3160SOL    HW110379   2.183   0.450   5.918
 3160SOL    HW210380   2.121   0.443   5.767
 3161SOL     OW10381   1.951   2.651   2.344
 3161SOL    HW110382   1.917   2.644   2.251
 3161SOL    HW210383   2.040   2.697   2.344
 3162SOL     OW10384   1.242   5.738   1.290
 3162SOL    HW110385   1.325   5.788   1.266
 3162SOL    HW210386   1.245   5.647   1.248
 3163SOL     OW10387   4.559   4.470   0.891
 3163SOL    HW110388   4.535   4.503   0.982
 3163SOL    HW210389   4.659   4.475   0.879
 3164SOL     OW10390   2.694   6.345   3.590
 3164SOL    HW110391   2.750   6.264   3.608
 3164SOL    HW210392   2.754   6.425   3.581
 3165SOL     OW10393   1.295   5.996   5.988
 3165SOL    HW110394   1.226   5.982   6.059
 3165SOL    HW210395   1.262   6.064   5.923
 3166SOL     OW10396   4.986   1.213   4.984
 3166SOL    HW110397   4.938   1.127   5.003
 3166SOL    HW210398   5.084   1.196   4.978
 3167SOL     OW10399   5.806   3.363   1.172
 3167SOL    HW110400   5.752   3.327   1.096
 3167SOL    HW210401   5.777   3.321   1.258
 3168SOL     OW10402   4.461   1.675   0.337
 3168SOL    HW110403   4.386   1.717   0.389
 3168SOL    HW210404   4.529   1.744   0.314
 3169SOL     OW10405   1.958   4.206   1.819
 3169SOL    HW110406   1.932   4.260   1.900
 3169SOL    HW210407   1.946   4.109   1.838
 3170SOL     OW10408   1.970   3.668   3.660
 3170SOL    HW110409   2.056   3.717   3.644
 3170SOL    HW210410   1.895   3.720   3.620
 3171SOL     OW10411   5.279   2.008   3.776
 3171SOL    HW110412   5.227   1.929   3.809
 3171SOL    HW210413   5.224   2.090   3.783
 3172SOL     OW10414   5.686   4.237   1.642
 3172SOL    HW110415   5.611   4.286   1.687
 3172SOL    HW210416   5.658   4.144   1.622
 3173SOL     OW10417   4.817   2.692   0.374
 3173SOL    HW110418   4.822   2.714   0.277
 3173SOL    HW210419   4.905   2.707   0.417
 3174SOL     OW10420   3.110   2.655   6.265
 3174SOL    HW110421   3.116   2.656   6.365
 3174SOL    HW210422   3.199   2.633   6.226
 3175SOL     OW10423   5.578   0.346   5.909
 3175SOL    HW110424   5.522   0.427   5.892
 3175SOL    HW210425   5.523   0.263   5.893
 3176SOL     OW10426   0.230   4.966   3.740
 3176SOL    HW110427   0.213   5.053   3.785
 3176SOL    HW210428   0.324   4.965   3.703
 3177SOL     OW10429   5.493   3.485   3.272
 3177SOL    HW110430   5.398   3.454   3.270
 3177SOL    HW210431   5.513   3.525   3.361
 3178SOL     OW10432   0.380   1.014   2.270
 3178SOL    HW110433   0.294   1.062   2.285
 3178SOL    HW210434   0.456   1.065   2.312
 3179SOL     OW10435   1.132   2.643   1.961
 3179SOL    HW110436   1.220   2.670   1.922
 3179SOL    HW210437   1.065   2.716   1.944
 3180SOL     OW10438   0.512   5.836   0.393
 3180SOL    HW110439   0.584   5.891   0.433
 3180SOL    HW210440   0.523   5.740   0.420
 3181SOL     OW10441   1.418   6.582   5.380
 3181SOL    HW110442   1.362   6.525   5.320
 3181SOL    HW210443   1.412   6.678   5.350
 3182SOL     OW10444   2.377   0.970   1.014
 3182SOL    HW110445   2.368   0.875   0.982
 3182SOL    HW210446   2.342   0.977   1.107
 3183SOL     OW10447   3.874   3.299   1.338
 3183SOL    HW110448   3.781   3.315   1.305
 3183SOL    HW210449   3.879   3.209   1.381
 3184SOL     OW10450   6.868   1.942   4.545
 3184SOL    HW110451   6.863   1.862   4.604
 3184SOL    HW210452   6.959   1.946   4.503
 3185SOL     OW10453   0.595   5.766   6.303
 3185SOL    HW110454   0.628   5.852   6.342
 3185SOL    HW210455   0.502   5.749   6.335
 3186SOL     OW10456   0.404   2.315   6.665
 3186SOL    HW110457   0.346   2.351   6.592
 3186SOL    HW210458   0.500   2.330   6.641
 3187SOL     OW10459   5.159   6.181   2.870
 3187SOL    HW110460   5.090   6.120   2.829
 3187SOL    HW210461   5.206   6.231   2.798
 3188SOL     OW10462   1.992   5.609   7.016
 3188SOL    HW110463   1.919   5.667   0.032
 3188SOL    HW210464   2.045   5.661   6.949
 3189SOL     OW10465   3.327   1.264   5.585
 3189SOL    HW110466   3.296   1.252   5.680
 3189SOL    HW210467   3.395   1.193   5.563
 3190SOL     OW10468   5.786   6.068   4.282
 3190SOL    HW110469   5.844   6.023   4.214
 3190SOL    HW210470   5.806   6.030   4.373
 3191SOL     OW10471   3.430   5.550   0.841
 3191SOL    HW110472   3.450   5.454   0.819
 3191SOL    HW210473   3.413   5.601   0.757
 3192SOL     OW10474   5.478   1.519   2.596
 3192SOL    HW110475   5.576   1.529   2.582
 3192SOL    HW210476   5.445   1.436   2.550
 3193SOL     OW10477   3.564   6.995   4.639
 3193SOL    HW110478   3.541   0.062   4.682
 3193SOL    HW210479   3.593   7.010   4.545
 3194SOL     OW10480   1.980   0.144   6.608
 3194SOL    HW110481   1.963   0.131   6.706
 3194SOL    HW210482   2.062   0.092   6.581
 3195SOL     OW10483   0.828   1.450   1.085
 3195SOL    HW110484   0.924   1.470   1.066
 3195SOL    HW210485   0.805   1.480   1.177
 3196SOL     OW10486   5.635   6.820   3.601
 3196SOL    HW110487   5.608   6.860   3.688
 3196SOL    HW210488   5.624   6.720   3.604
 3197SOL     OW10489   2.555   0.759   6.438
 3197SOL    HW110490   2.531   0.737   6.533
 3197SOL    HW210491   2.652   0.781   6.432
 3198SOL     OW10492   5.275   2.980   3.460
 3198SOL    HW110493   5.355   3.038   3.476
 3198SOL    HW210494   5.298   2.885   3.480
 3199SOL     OW10495   5.189   3.999   2.934
 3199SOL    HW110496   5.130   3.977   3.012
 3199SOL    HW210497   5.133   4.032   2.858
 3200SOL     OW10498   5.353   3.690   3.911
 3200SOL    HW110499   5.361   3.689   4.011
 3200SOL    HW210500   5.304   3.772   3.883
 3201SOL     OW10501   6.200   4.310   2.344
 3201SOL    HW110502   6.221   4.212   2.343
 3201SOL    HW210503   6.279   4.361   2.378
 3202SOL     OW10504   2.325   3.273   6.889
 3202SOL    HW110505   2.365   3.363   6.871
 3202SOL    HW210506   2.294   3.268   6.984
 3203SOL     OW10507   3.479   6.935   1.214
 3203SOL    HW110508   3.466   6.859   1.277
 3203SOL    HW210509   3.504   7.018   1.265
 3204SOL     OW10510   3.354   1.560   3.938
 3204SOL    HW110511   3.301   1.475   3.938
 3204SOL    HW210512   3.383   1.581   4.031
 3205SOL     OW10513   4.991   3.596   6.021
 3205SOL    HW110514   5.050   3.614   6.100
 3205SOL    HW210515   5.015   3.659   5.947
 3206SOL     OW10516   2.826   3.797   1.353
 3206SOL    HW110517   2.769   3.732   1.302
 3206SOL    HW210518   2.895   3.747   1.405
 3207SOL     OW10519   2.494   5.340   5.137
 3207SOL    HW110520   2.495   5.302   5.230
 3207SOL    HW210521   2.408   5.316   5.093
 3208SOL     OW10522   6.798   4.843   6.325
 3208SOL    HW110523   6.834   4.889   6.406
 3208SOL    HW210524   6.845   4.756   6.312
 3209SOL     OW10525   5.144   5.633   6.251
 3209SOL    HW110526   5.173   5.679   6.168
 3209SOL    HW210527   5.094   5.697   6.309
 3210SOL     OW10528   5.980   6.056   1.793
 3210SOL    HW110529   6.011   5.996   1.867
 3210SOL    HW210530   5.880   6.054   1.788
 3211SOL     OW10531   1.841   5.880   6.602
 3211SOL    HW110532   1.874   5.941   6.530
 3211SOL    HW210533   1.755   5.915   6.638
 3212SOL     OW10534   2.050   0.204   3.176
 3212SOL    HW110535   1.951   0.202   3.191
 3212SOL    HW210536   2.074   0.147   3.098
 3213SOL     OW10537   1.006   6.716   6.106
 3213SOL    HW110538   0.910   6.732   6.127
 3213SOL    HW210539   1.027   6.753   6.015
 3214SOL     OW10540   3.350   0.931   2.874
 3214SOL    HW110541   3.413   0.889   2.809
 3214SOL    HW210542   3.259   0.939   2.834
 3215SOL     OW10543   1.881   3.228   2.026
 3215SOL    HW110544   1.859   3.244   2.122
 3215SOL    HW210545   1.979   3.205   2.018
 3216SOL     OW10546   5.918   5.003   1.213
 3216SOL    HW110547   5.819   5.000   1.202
 3216SOL    HW210548   5.956   4.911   1.198
 3217SOL     OW10549   6.857   6.159   2.261
 3217SOL    HW110550   6.877   6.136   2.166
 3217SOL    HW210551   6.873   6.257   2.276
 3218SOL     OW10552   5.371   1.292   3.016
 3218SOL    HW110553   5.401   1.217   3.075
 3218SOL    HW210554   5.284   1.327   3.049
 3219SOL     OW10555   6.196   1.476   5.235
 3219SOL    HW110556   6.146   1.441   5.314
 3219SOL    HW210557   6.204   1.404   5.166
 3220SOL     OW10558   0.249   4.484   5.713
 3220SOL    HW110559   0.167   4.429   5.696
 3220SOL    HW210560   0.294   4.505   5.626
 3221SOL     OW10561   3.355   1.466   1.745
 3221SOL    HW110562   3.389   1.430   1.832
 3221SOL    HW210563   3.257   1.484   1.752
 3222SOL     OW10564   3.187   1.268   3.681
 3222SOL    HW110565   3.227   1.186   3.642
 3222SOL    HW210566   3.230   1.349   3.641
 3223SOL     OW10567   1.662   5.585   0.230
 3223SOL    HW110568   1.671   5.641   0.148
 3223SOL    HW210569   1.565   5.563   0.245
 3224SOL     OW10570   3.821   1.886   3.958
 3224SOL    HW110571   3.785   1.805   3.913
 3224SOL    HW210572   3.862   1.947   3.890
 3225SOL     OW10573   4.149   1.412   4.099
 3225SOL    HW110574   4.114   1.337   4.155
 3225SOL    HW210575   4.239   1.387   4.063
 3226SOL     OW10576   5.826   0.435   0.420
 3226SOL    HW110577   5.753   0.491   0.381
 3226SOL    HW210578   5.915   0.469   0.391
 3227SOL     OW10579   5.343   4.582   5.005
 3227SOL    HW110580   5.288   4.656   4.965
 3227SOL    HW210581   5.439   4.610   5.006
 3228SOL     OW10582   2.423   4.147   0.296
 3228SOL    HW110583   2.462   4.224   0.246
 3228SOL    HW210584   2.493   4.105   0.354
 3229SOL     OW10585   1.755   2.308   0.259
 3229SOL    HW110586   1.661   2.332   0.283
 3229SOL    HW210587   1.755   2.260   0.171
 3230SOL     OW10588   2.983   6.342   5.557
 3230SOL    HW110589   3.004   6.305   5.467
 3230SOL    HW210590   2.941   6.270   5.613
 3231SOL     OW10591   1.779   1.863   2.885
 3231SOL    HW110592   1.865   1.833   2.845
 3231SOL    HW210593   1.797   1.915   2.968
 3232SOL     OW10594   3.484   4.889   4.013
 3232SOL    HW110595   3.512   4.854   3.924
 3232SOL    HW210596   3.385   4.878   4.024
 3233SOL     OW10597   0.734   1.225   0.339
 3233SOL    HW110598   0.759   1.132   0.367
 3233SOL    HW210599   0.813   1.285   0.351
 3234SOL     OW10600   3.099   2.661   1.102
 3234SOL    HW110601   3.056   2.593   1.043
 3234SOL    HW210602   3.194   2.634   1.120
 3235SOL     OW10603   1.249   0.108   3.120
 3235SOL    HW110604   1.326   0.074   3.065
 3235SOL    HW210605   1.282   0.132   3.211
 3236SOL     OW10606   3.956   1.564   0.378
 3236SOL    HW110607   3.926   1.471   0.397
 3236SOL    HW210608   4.048   1.562   0.339
 3237SOL     OW10609   5.849   2.132   5.562
 3237SOL    HW110610   5.945   2.106   5.566
 3237SOL    HW210611   5.792   2.054   5.588
 3238SOL     OW10612   6.710   4.673   1.542
 3238SOL    HW110613   6.615   4.655   1.567
 3238SOL    HW210614   6.771   4.619   1.600
 3239SOL     OW10615   6.694   0.059   4.640
 3239SOL    HW110616   6.608   0.100   4.673
 3239SOL    HW210617   6.709   6.992   4.686
 3240SOL     OW10618   0.072   0.586   0.287
 3240SOL    HW110619   0.166   0.603   0.259
 3240SOL    HW210620   0.011   0.601   0.210
 3241SOL     OW10621   6.128   3.091   5.673
 3241SOL    HW110622   6.036   3.070   5.705
 3241SOL    HW210623   6.193   3.028   5.715
 3242SOL     OW10624   6.232   3.941   4.510
 3242SOL    HW110625   6.217   3.857   4.457
 3242SOL    HW210626   6.148   3.964   4.560
 3243SOL     OW10627   5.752   4.556   4.478
 3243SOL    HW110628   5.812   4.594   4.408
 3243SOL    HW210629   5.780   4.463   4.500
 3244SOL     OW10630   5.034   0.216   0.040
 3244SOL    HW110631   4.983   0.282   7.004
 3244SOL    HW210632   5.010   0.123   0.012
 3245SOL     OW10633   3.795   6.960   5.420
 3245SOL    HW110634   3.885   6.920   5.435
 3245SOL    HW210635   3.758   6.929   5.333
 3246SOL     OW10636   0.229   0.715   2.802
 3246SOL    HW110637   0.226   0.811   2.773
 3246SOL    HW210638   0.203   0.656   2.725
 3247SOL     OW10639   0.448   4.055   3.651
 3247SOL    HW110640   0.536   4.036   3.608
 3247SOL    HW210641   0.375   4.011   3.599
 3248SOL     OW10642   5.202   2.283   3.448
 3248SOL    HW110643   5.254   2.335   3.516
 3248SOL    HW210644   5.229   2.187   3.452
 3249SOL     OW10645   3.359   4.173   3.448
 3249SOL    HW110646   3.298   4.251   3.461
 3249SOL    HW210647   3.427   4.170   3.521
 3250SOL     OW10648   4.899   5.565   2.462
 3250SOL    HW110649   4.856   5.543   2.375
 3250SOL    HW210650   4.873   5.658   2.490
 3251SOL     OW10651   2.444   1.926   2.743
 3251SOL    HW110652   2.461   1.955   2.648
 3251SOL    HW210653   2.521   1.871   2.775
 3252SOL     OW10654   1.803   0.549   3.066
 3252SOL    HW110655   1.887   0.528   3.017
 3252SOL    HW210656   1.731   0.486   3.036
 3253SOL     OW10657   6.445   3.646   0.515
 3253SOL    HW110658   6.366   3.705   0.499
 3253SOL    HW210659   6.496   3.634   0.429
 3254SOL     OW10660   5.782   6.889   1.122
 3254SOL    HW110661   5.760   6.972   1.072
 3254SOL    HW210662   5.820   6.821   1.059
 3255SOL     OW10663   4.969   6.256   1.225
 3255SOL    HW110664   5.001   6.311   1.302
 3255SOL    HW210665   4.976   6.310   1.141
 3256SOL     OW10666   4.723   2.655   1.479
 3256SOL    HW110667   4.667   2.676   1.559
 3256SOL    HW210668   4.673   2.677   1.395
 3257SOL     OW10669   2.827   1.773   3.080
 3257SOL    HW110670   2.763   1.705   3.045
 3257SOL    HW210671   2.863   1.828   3.004
 3258SOL     OW10672   2.265   5.282   3.936
 3258SOL    HW110673   2.245   5.226   3.856
 3258SOL    HW210674   2.305   5.369   3.907
 3259SOL     OW10675   5.105   4.130   3.999
 3259SOL    HW110676   5.113   4.031   3.983
 3259SOL    HW210677   5.070   4.174   3.917
 3260SOL     OW10678   1.303   4.438   2.940
 3260SOL    HW110679   1.362   4.435   2.860
 3260SOL    HW210680   1.238   4.361   2.936
 3261SOL     OW10681   5.034   0.532   3.664
 3261SOL    HW110682   4.971   0.540   3.587
 3261SOL    HW210683   5.128   0.539   3.631
 3262SOL     OW10684   2.816   1.783   3.531
 3262SOL    HW110685   2.841   1.879   3.519
 3262SOL    HW210686   2.796   1.766   3.627
 3263SOL     OW10687   0.124   1.024   2.633
 3263SOL    HW110688   0.139   1.095   2.564
 3263SOL    HW210689   0.177   1.046   2.715
 3264SOL     OW10690   1.472   4.863   6.375
 3264SOL    HW110691   1.383   4.867   6.420
 3264SOL    HW210692   1.465   4.903   6.283
 3265SOL     OW10693   6.621   5.439   6.293
 3265SOL    HW110694   6.591   5.428   6.198
 3265SOL    HW210695   6.623   5.350   6.338
 3266SOL     OW10696   3.159   5.174   6.403
 3266SOL    HW110697   3.116   5.089   6.433
 3266SOL    HW210698   3.232   5.154   6.338
 3267SOL     OW10699   3.536   0.056   0.273
 3267SOL    HW110700   3.567   7.019   0.349
 3267SOL    HW210701   3.437   0.045   0.261
 3268SOL     OW10702   6.171   5.434   1.965
 3268SOL    HW110703   6.104   5.388   2.023
 3268SOL    HW210704   6.157   5.533   1.971
 3269SOL     OW10705   1.733   4.732   1.150
 3269SOL    HW110706   1.753   4.793   1.073
 3269SOL    HW210707   1.799   4.749   1.223
 3270SOL     OW10708   0.759   2.651   5.591
 3270SOL    HW110709   0.775   2.564   5.639
 3270SOL    HW210710   0.792   2.643   5.497
 3271SOL     OW10711   1.092   3.167   1.990
 3271SOL    HW110712   1.163   3.117   2.041
 3271SOL    HW210713   1.113   3.264   1.992
 3272SOL     OW10714   4.052   6.468   0.942
 3272SOL    HW110715   4.134   6.492   0.994
 3272SOL    HW210716   4.037   6.536   0.871
 3273SOL     OW10717   4.232   3.340   6.288
 3273SOL    HW110718   4.321   3.372   6.318
 3273SOL    HW210719   4.189   3.409   6.230
 3274SOL     OW10720   5.363   0.254   1.831
 3274SOL    HW110721   5.276   0.274   1.786
 3274SOL    HW210722   5.406   0.339   1.861
 3275SOL     OW10723   4.829   0.400   1.632
 3275SOL    HW110724   4.795   0.353   1.551
 3275SOL    HW210725   4.821   0.499   1.619
 3276SOL     OW10726   5.165   0.044   0.488
 3276SOL    HW110727   5.076   0.060   0.532
 3276SOL    HW210728   5.154   0.050   0.388
 3277SOL     OW10729   3.359   2.065   2.225
 3277SOL    HW110730   3.447   2.078   2.271
 3277SOL    HW210731   3.285   2.090   2.287
 3278SOL     OW10732   5.894   0.908   6.366
 3278SOL    HW110733   5.846   0.869   6.287
 3278SOL    HW210734   5.836   0.902   6.447
 3279SOL     OW10735   3.280   0.242   2.159
 3279SOL    HW110736   3.331   0.311   2.209
 3279SOL    HW210737   3.267   0.161   2.218
 3280SOL     OW10738   6.417   3.727   4.066
 3280SOL    HW110739   6.388   3.823   4.061
 3280SOL    HW210740   6.377   3.685   4.147
 3281SOL     OW10741   5.928   3.270   2.009
 3281SOL    HW110742   5.956   3.186   2.056
 3281SOL    HW210743   5.885   3.246   1.922
 3282SOL     OW10744   0.127   5.106   4.750
 3282SOL    HW110745   0.208   5.071   4.703
 3282SOL    HW210746   0.138   5.095   4.848
 3283SOL     OW10747   3.612   1.757   0.970
 3283SOL    HW110748   3.528   1.721   0.931
 3283SOL    HW210749   3.640   1.701   1.048
 3284SOL     OW10750   2.425   6.157   4.295
 3284SOL    HW110751   2.428   6.209   4.380
 3284SOL    HW210752   2.518   6.130   4.270
 3285SOL     OW10753   3.659   2.119   4.808
 3285SOL    HW110754   3.561   2.129   4.790
 3285SOL    HW210755   3.700   2.210   4.818
 3286SOL     OW10756   1.907   2.014   2.530
 3286SOL    HW110757   1.916   2.087   2.598
 3286SOL    HW210758   1.813   2.010   2.496
 3287SOL     OW10759   2.416   0.241   0.335
 3287SOL    HW110760   2.373   0.151   0.340
 3287SOL    HW210761   2.440   0.272   0.427
 3288SOL     OW10762   2.524   6.248   1.956
 3288SOL    HW110763   2.500   6.333   2.004
 3288SOL    HW210764   2.623   6.246   1.940
 3289SOL     OW10765   4.485   0.908   6.405
 3289SOL    HW110766   4.543   0.988   6.390
 3289SOL    HW210767   4.518   0.832   6.349
 3290SOL     OW10768   0.734   5.955   0.497
 3290SOL    HW110769   0.833   5.956   0.480
 3290SOL    HW210770   0.702   6.049   0.509
 3291SOL     OW10771   4.945   0.294   4.798
 3291SOL    HW110772   4.929   0.382   4.844
 3291SOL    HW210773   4.978   0.310   4.705
 3292SOL     OW10774   6.939   2.322   0.891
 3292SOL    HW110775   7.018   2.364   0.935
 3292SOL    HW210776   6.881   2.393   0.852
 3293SOL     OW10777   5.848   5.835   4.099
 3293SOL    HW110778   5.810   5.822   4.008
 3293SOL    HW210779   5.821   5.758   4.158
 3294SOL     OW10780   5.086   2.843   5.286
 3294SOL    HW110781   5.055   2.825   5.379
 3294SOL    HW210782   5.118   2.937   5.278
 3295SOL     OW10783   0.818   2.547   2.315
 3295SOL    HW110784   0.847   2.451   2.324
 3295SOL    HW210785   0.725   2.557   2.349
 3296SOL     OW10786   1.716   0.747   5.886
 3296SOL    HW110787   1.788   0.792   5.835
 3296SOL    HW210788   1.672   0.812   5.948
 3297SOL     OW10789   3.492   1.203   4.976
 3297SOL    HW110790   3.395   1.217   4.958
 3297SOL    HW210791   3.529   1.137   4.911
 3298SOL     OW10792   5.333   4.019   5.986
 3298SOL    HW110793   5.362   3.926   5.963
 3298SOL    HW210794   5.237   4.031   5.963
 3299SOL     OW10795   2.574   4.663   4.014
 3299SOL    HW110796   2.497   4.612   3.976
 3299SOL    HW210797   2.656   4.647   3.959
 3300SOL     OW10798   2.056   6.586   4.013
 3300SOL    HW110799   2.148   6.608   4.046
 3300SOL    HW210800   2.064   6.533   3.928
 3301SOL     OW10801   1.143   1.300   3.188
 3301SOL    HW110802   1.216   1.260   3.242
 3301SOL    HW210803   1.149   1.267   3.094
 3302SOL     OW10804   1.641   5.235   5.303
 3302SOL    HW110805   1.544   5.255   5.288
 3302SOL    HW210806   1.650   5.172   5.380
 3303SOL     OW10807   3.246   3.155   0.622
 3303SOL    HW110808   3.166   3.170   0.564
 3303SOL    HW210809   3.284   3.064   0.604
 3304SOL     OW10810   2.742   4.891   0.123
 3304SOL    HW110811   2.768   4.979   0.082
 3304SOL    HW210812   2.805   4.870   0.198
 3305SOL     OW10813   3.291   2.842   0.833
 3305SOL    HW110814   3.219   2.876   0.893
 3305SOL    HW210815   3.335   2.763   0.876
 3306SOL     OW10816   2.458   0.720   0.030
 3306SOL    HW110817   2.363   0.690   0.024
 3306SOL    HW210818   2.466   0.796   0.094
 3307SOL     OW10819   1.102   6.636   5.581
 3307SOL    HW110820   1.044   6.628   5.500
 3307SOL    HW210821   1.197   6.621   5.556
 3308SOL     OW10822   4.060   4.760   1.011
 3308SOL    HW110823   3.986   4.799   0.956
 3308SOL    HW210824   4.047   4.661   1.019
 3309SOL     OW10825   5.886   2.806   3.180
 3309SOL    HW110826   5.866   2.821   3.277
 3309SOL    HW210827   5.800   2.790   3.131
 3310SOL     OW10828   6.453   4.572   6.173
 3310SOL    HW110829   6.509   4.626   6.236
 3310SOL    HW210830   6.446   4.478   6.206
 3311SOL     OW10831   2.776   3.533   0.361
 3311SOL    HW110832   2.865   3.487   0.358
 3311SOL    HW210833   2.788   3.627   0.393
 3312SOL     OW10834   4.325   2.481   5.927
 3312SOL    HW110835   4.271   2.488   6.011
 3312SOL    HW210836   4.416   2.519   5.944
 3313SOL     OW10837   0.370   0.610   3.541
 3313SOL    HW110838   0.314   0.661   3.476
 3313SOL    HW210839   0.403   0.526   3.497
 3314SOL     OW10840   3.009   5.491   2.337
 3314SOL    HW110841   2.982   5.435   2.259
 3314SOL    HW210842   3.108   5.506   2.335
 3315SOL     OW10843   0.293   5.938   4.566
 3315SOL    HW110844   0.276   5.864   4.502
 3315SOL    HW210845   0.239   5.924   4.649
 3316SOL     OW10846   4.529   2.508   6.616
 3316SOL    HW110847   4.576   2.594   6.595
 3316SOL    HW210848   4.594   2.445   6.658
 3317SOL     OW10849   5.131   2.539   1.957
 3317SOL    HW110850   5.160   2.610   2.021
 3317SOL    HW210851   5.195   2.535   1.880
 3318SOL     OW10852   3.405   2.924   0.607
 3318SOL    HW110853   3.349   2.877   0.676
 3318SOL    HW210854   3.402   2.872   0.522
 3319SOL     OW10855   6.268   5.654   3.207
 3319SOL    HW110856   6.264   5.558   3.236
 3319SOL    HW210857   6.293   5.712   3.284
 3320SOL     OW10858   6.513   6.870   1.300
 3320SOL    HW110859   6.477   6.782   1.329
 3320SOL    HW210860   6.465   6.901   1.218
 3321SOL     OW10861   4.895   1.691   0.075
 3321SOL    HW110862   4.928   1.782   0.099
 3321SOL    HW210863   4.916   1.673   6.999
 3322SOL     OW10864   6.610   3.678   0.755
 3322SOL    HW110865   6.682   3.625   0.799
 3322SOL    HW210866   6.572   3.626   0.678
 3323SOL     OW10867   1.639   1.996   1.466
 3323SOL    HW110868   1.577   2.013   1.390
 3323SOL    HW210869   1.645   1.898   1.483
 3324SOL     OW10870   5.519   6.075   5.770
 3324SOL    HW110871   5.577   6.042   5.695
 3324SOL    HW210872   5.551   6.036   5.856
 3325SOL     OW10873   2.326   4.234   5.605
 3325SOL    HW110874   2.361   4.153   5.559
 3325SOL    HW210875   2.336   4.313   5.544
 3326SOL     OW10876   4.375   1.530   2.226
 3326SOL    HW110877   4.322   1.575   2.298
 3326SOL    HW210878   4.313   1.494   2.156
 3327SOL     OW10879   0.508   4.801   6.660
 3327SOL    HW110880   0.529   4.894   6.689
 3327SOL    HW210881   0.589   4.743   6.673
 3328SOL     OW10882   4.649   2.571   6.026
 3328SOL    HW110883   4.604   2.560   6.115
 3328SOL    HW210884   4.618   2.655   5.983
 3329SOL     OW10885   6.496   5.852   5.797
 3329SOL    HW110886   6.554   5.861   5.716
 3329SOL    HW210887   6.552   5.825   5.875
 3330SOL     OW10888   0.122   3.500   2.832
 3330SOL    HW110889   0.072   3.416   2.814
 3330SOL    HW210890   0.080   3.548   2.909
 3331SOL     OW10891   1.960   3.517   0.980
 3331SOL    HW110892   1.962   3.505   0.880
 3331SOL    HW210893   1.938   3.612   1.002
 3332SOL     OW10894   6.532   4.668   1.773
 3332SOL    HW110895   6.519   4.765   1.755
 3332SOL    HW210896   6.565   4.655   1.866
 3333SOL     OW10897   3.682   5.447   6.884
 3333SOL    HW110898   3.703   5.354   6.851
 3333SOL    HW210899   3.677   5.509   6.806
 3334SOL     OW10900   2.451   4.230   1.803
 3334SOL    HW110901   2.520   4.281   1.752
 3334SOL    HW210902   2.361   4.245   1.762
 3335SOL     OW10903   6.018   4.125   4.677
 3335SOL    HW110904   6.047   4.185   4.603
 3335SOL    HW210905   5.982   4.179   4.753
 3336SOL     OW10906   2.600   5.750   5.868
 3336SOL    HW110907   2.550   5.704   5.941
 3336SOL    HW210908   2.683   5.791   5.905
 3337SOL     OW10909   3.734   1.914   0.391
 3337SOL    HW110910   3.833   1.902   0.385
 3337SOL    HW210911   3.706   1.988   0.329
 3338SOL     OW10912   6.817   4.143   0.286
 3338SOL    HW110913   6.767   4.199   0.220
 3338SOL    HW210914   6.782   4.161   0.378
 3339SOL     OW10915   0.395   5.769   6.096
 3339SOL    HW110916   0.482   5.776   6.144
 3339SOL    HW210917   0.382   5.851   6.039
 3340SOL     OW10918   3.966   6.476   1.797
 3340SOL    HW110919   4.023   6.407   1.753
 3340SOL    HW210920   3.941   6.546   1.731
 3341SOL     OW10921   1.005   0.239   1.973
 3341SOL    HW110922   1.024   0.176   1.897
 3341SOL    HW210923   0.930   0.203   2.028
 3342SOL     OW10924   2.682   6.983   4.172
 3342SOL    HW110925   2.730   0.000   4.093
 3342SOL    HW210926   2.748   6.946   4.238
 3343SOL     OW10927   6.197   2.604   1.041
 3343SOL    HW110928   6.265   2.574   0.974
 3343SOL    HW210929   6.219   2.696   1.074
 3344SOL     OW10930   6.873   3.343   5.299
 3344SOL    HW110931   6.901   3.297   5.383
 3344SOL    HW210932   6.780   3.314   5.275
 3345SOL     OW10933   3.188   4.005   6.108
 3345SOL    HW110934   3.116   3.943   6.076
 3345SOL    HW210935   3.150   4.097   6.117
 3346SOL     OW10936   1.477   5.956   2.024
 3346SOL    HW110937   1.528   5.925   2.104
 3346SOL    HW210938   1.447   6.051   2.038
 3347SOL     OW10939   5.652   4.029   4.732
 3347SOL    HW110940   5.567   3.985   4.760
 3347SOL    HW210941   5.730   3.971   4.758
 3348SOL     OW10942   3.775   3.549   3.120
 3348SOL    HW110943   3.747   3.471   3.065
 3348SOL    HW210944   3.875   3.555   3.120
 3349SOL     OW10945   6.323   3.736   5.603
 3349SOL    HW110946   6.354   3.644   5.629
 3349SOL    HW210947   6.321   3.743   5.504
 3350SOL     OW10948   1.498   2.141   0.866
 3350SOL    HW110949   1.441   2.090   0.931
 3350SOL    HW210950   1.594   2.123   0.885
 3351SOL     OW10951   5.365   2.033   1.394
 3351SOL    HW110952   5.361   2.086   1.478
 3351SOL    HW210953   5.459   2.034   1.358
 3352SOL     OW10954   0.568   3.703   0.629
 3352SOL    HW110955   0.619   3.621   0.655
 3352SOL    HW210956   0.474   3.696   0.661
 3353SOL     OW10957   2.082   6.788   6.485
 3353SOL    HW110958   2.177   6.758   6.477
 3353SOL    HW210959   2.069   6.870   6.429
 3354SOL     OW10960   0.837   1.072   2.438
 3354SOL    HW110961   0.785   1.100   2.518
 3354SOL    HW210962   0.895   1.148   2.407
 3355SOL     OW10963   6.590   1.889   2.456
 3355SOL    HW110964   6.625   1.865   2.547
 3355SOL    HW210965   6.662   1.874   2.388
 3356SOL     OW10966   2.576   3.539   6.551
 3356SOL    HW110967   2.587   3.462   6.489
 3356SOL    HW210968   2.483   3.576   6.544
 3357SOL     OW10969   2.147   5.151   2.198
 3357SOL    HW110970   2.214   5.187   2.133
 3357SOL    HW210971   2.121   5.223   2.263
 3358SOL     OW10972   5.370   4.472   3.000
 3358SOL    HW110973   5.406   4.490   2.908
 3358SOL    HW210974   5.447   4.459   3.063
 3359SOL     OW10975   0.960   1.095   1.628
 3359SOL    HW110976   0.921   1.003   1.631
 3359SOL    HW210977   0.892   1.160   1.661
 3360SOL     OW10978   1.875   0.396   6.413
 3360SOL    HW110979   1.792   0.435   6.452
 3360SOL    HW210980   1.867   0.296   6.412
 3361SOL     OW10981   5.135   0.238   2.773
 3361SOL    HW110982   5.157   0.277   2.863
 3361SOL    HW210983   5.079   0.156   2.786
 3362SOL     OW10984   2.335   1.344   5.223
 3362SOL    HW110985   2.316   1.252   5.187
 3362SOL    HW210986   2.251   1.383   5.260
 3363SOL     OW10987   0.353   0.937   6.857
 3363SOL    HW110988   0.379   1.032   6.876
 3363SOL    HW210989   0.323   0.893   6.942
 3364SOL     OW10990   2.149   4.846   5.675
 3364SOL    HW110991   2.189   4.756   5.690
 3364SOL    HW210992   2.112   4.881   5.761
 3365SOL     OW10993   6.030   1.725   5.936
 3365SOL    HW110994   5.960   1.792   5.912
 3365SOL    HW210995   5.992   1.633   5.926
 3366SOL     OW10996   5.531   1.003   5.977
 3366SOL    HW110997   5.559   1.094   5.947
 3366SOL    HW210998   5.434   0.991   5.959
 3367SOL     OW10999   1.225   0.706   2.169
 3367SOL    HW111000   1.143   0.667   2.211
 3367SOL    HW211001   1.199   0.757   2.086
 3368SOL     OW11002   6.421   6.894   5.792
 3368SOL    HW111003   6.464   6.850   5.870
 3368SOL    HW211004   6.470   6.979   5.770
 3369SOL     OW11005   3.522   6.440   6.070
 3369SOL    HW111006   3.593   6.488   6.121
 3369SOL    HW211007   3.460   6.507   6.029
 3370SOL     OW11008   4.821   0.334   5.335
 3370SOL    HW111009   4.740   0.373   5.292
 3370SOL    HW211010   4.797   0.247   5.379
 3371SOL     OW11011   0.341   5.033   1.862
 3371SOL    HW111012   0.366   4.994   1.774
 3371SOL    HW211013   0.358   5.132   1.860
 3372SOL     OW11014   0.286   1.884   2.262
 3372SOL    HW111015   0.269   1.889   2.360
 3372SOL    HW211016   0.235   1.956   2.215
 3373SOL     OW11017   0.370   1.910   5.544
 3373SOL    HW111018   0.321   1.854   5.477
 3373SOL    HW211019   0.458   1.866   5.566
 3374SOL     OW11020   3.617   5.111   5.278
 3374SOL    HW111021   3.525   5.100   5.240
 3374SOL    HW211022   3.637   5.208   5.289
 3375SOL     OW11023   4.464   4.114   5.467
 3375SOL    HW111024   4.512   4.071   5.391
 3375SOL    HW211025   4.439   4.207   5.441
 3376SOL     OW11026   2.945   3.887   2.447
 3376SOL    HW111027   2.979   3.880   2.541
 3376SOL    HW211028   2.939   3.795   2.407
 3377SOL     OW11029   2.518   5.892   5.515
 3377SOL    HW111030   2.430   5.863   5.479
 3377SOL    HW211031   2.560   5.817   5.566
 3378SOL     OW11032   0.736   1.732   0.839
 3378SOL    HW111033   0.727   1.633   0.825
 3378SOL    HW211034   0.833   1.755   0.849
 3379SOL     OW11035   1.075   4.277   6.827
 3379SOL    HW111036   1.043   4.354   6.883
 3379SOL    HW211037   1.174   4.282   6.816
 3380SOL     OW11038   0.649   3.690   5.640
 3380SOL    HW111039   0.725   3.659   5.582
 3380SOL    HW211040   0.684   3.755   5.708
 3381SOL     OW11041   3.519   2.655   0.839
 3381SOL    HW111042   3.598   2.714   0.820
 3381SOL    HW211043   3.536   2.604   0.924
 3382SOL     OW11044   6.635   0.041   0.909
 3382SOL    HW111045   6.547   7.020   0.885
 3382SOL    HW211046   6.666   0.003   0.996
 3383SOL     OW11047   6.797   4.581   2.938
 3383SOL    HW111048   6.824   4.675   2.917
 3383SOL    HW211049   6.825   4.558   3.031
 3384SOL     OW11050   3.248   3.001   4.248
 3384SOL    HW111051   3.331   2.948   4.258
 3384SOL    HW211052   3.209   2.986   4.157
 3385SOL     OW11053   6.029   3.777   3.386
 3385SOL    HW111054   5.989   3.755   3.298
 3385SOL    HW211055   5.961   3.765   3.458
 3386SOL     OW11056   6.172   4.464   4.799
 3386SOL    HW111057   6.242   4.438   4.865
 3386SOL    HW211058   6.212   4.465   4.707
 3387SOL     OW11059   2.903   1.968   2.918
 3387SOL    HW111060   2.997   1.933   2.920
 3387SOL    HW211061   2.896   2.049   2.975
 3388SOL     OW11062   5.444   3.010   2.214
 3388SOL    HW111063   5.490   2.942   2.158
 3388SOL    HW211064   5.362   3.042   2.168
 3389SOL     OW11065   5.837   4.276   3.489
 3389SOL    HW111066   5.795   4.287   3.398
 3389SOL    HW211067   5.897   4.196   3.488
 3390SOL     OW11068   4.991   2.712   5.510
 3390SOL    HW111069   4.908   2.765   5.527
 3390SOL    HW211070   4.967   2.621   5.477
 3391SOL     OW11071   3.424   1.862   4.073
 3391SOL    HW111072   3.515   1.832   4.102
 3391SOL    HW211073   3.355   1.818   4.131
 3392SOL     OW11074   4.721   6.140   3.895
 3392SOL    HW111075   4.790   6.211   3.881
 3392SOL    HW211076   4.655   6.143   3.820
 3393SOL     OW11077   6.227   0.130   6.887
 3393SOL    HW111078   6.143   0.086   6.856
 3393SOL    HW211079   6.214   0.229   6.891
 3394SOL     OW11080   5.977   2.650   1.770
 3394SOL    HW111081   6.021   2.619   1.855
 3394SOL    HW211082   5.992   2.748   1.759
 3395SOL     OW11083   1.405   3.574   4.862
 3395SOL    HW111084   1.499   3.563   4.894
 3395SOL    HW211085   1.357   3.640   4.920
 3396SOL     OW11086   0.629   4.352   3.952
 3396SOL    HW111087   0.582   4.394   4.030
 3396SOL    HW211088   0.572   4.278   3.915
 3397SOL     OW11089   4.230   6.214   6.074
 3397SOL    HW111090   4.242   6.200   6.172
 3397SOL    HW211091   4.319   6.211   6.028
 3398SOL     OW11092   6.942   6.444   4.403
 3398SOL    HW111093   6.975   6.457   4.309
 3398SOL    HW211094   6.904   6.352   4.412
 3399SOL     OW11095   4.480   5.154   4.711
 3399SOL    HW111096   4.410   5.108   4.656
 3399SOL    HW211097   4.563   5.100   4.712
 3400SOL     OW11098   4.923   2.478   6.782
 3400SOL    HW111099   4.979   2.560   6.783
 3400SOL    HW211100   4.952   2.418   6.708
 3401SOL     OW11101   6.104   5.341   0.288
 3401SOL    HW111102   6.173   5.284   0.244
 3401SOL    HW211103   6.090   5.310   0.382
 3402SOL     OW11104   5.300   5.956   2.109
 3402SOL    HW111105   5.271   5.910   2.193
 3402SOL    HW211106   5.269   5.904   2.030
 3403SOL     OW11107   3.193   0.873   5.459
 3403SOL    HW111108   3.244   0.822   5.391
 3403SOL    HW211109   3.168   0.963   5.422
 3404SOL     OW11110   4.484   0.725   0.855
 3404SOL    HW111111   4.531   0.649   0.899
 3404SOL    HW211112   4.496   0.808   0.909
 3405SOL     OW11113   5.809   3.989   0.405
 3405SOL    HW111114   5.763   4.075   0.423
 3405SOL    HW211115   5.753   3.913   0.436
 3406SOL     OW11116   1.223   4.450   1.763
 3406SOL    HW111117   1.259   4.542   1.779
 3406SOL    HW211118   1.295   4.383   1.781
 3407SOL     OW11119   1.794   5.754   2.191
 3407SOL    HW111120   1.774   5.849   2.214
 3407SOL    HW211121   1.882   5.728   2.230
 3408SOL     OW11122   5.213   4.434   3.318
 3408SOL    HW111123   5.313   4.437   3.323
 3408SOL    HW211124   5.185   4.424   3.222
 3409SOL     OW11125   3.206   0.448   5.711
 3409SOL    HW111126   3.150   0.510   5.657
 3409SOL    HW211127   3.259   0.500   5.778
 3410SOL     OW11128   6.856   6.821   6.857
 3410SOL    HW111129   6.829   6.765   6.779
 3410SOL    HW211130   6.954   6.811   6.873
 3411SOL     OW11131   4.958   2.141   2.133
 3411SOL    HW111132   4.920   2.140   2.225
 3411SOL    HW211133   5.054   2.113   2.136
 3412SOL     OW11134   4.168   4.545   0.545
 3412SOL    HW111135   4.113   4.506   0.618
 3412SOL    HW211136   4.234   4.477   0.513
 3413SOL     OW11137   3.846   2.034   2.573
 3413SOL    HW111138   3.861   1.939   2.601
 3413SOL    HW211139   3.771   2.038   2.506
 3414SOL     OW11140   2.811   2.121   5.157
 3414SOL    HW111141   2.785   2.165   5.071
 3414SOL    HW211142   2.751   2.153   5.230
 3415SOL     OW11143   0.481   5.180   3.807
 3415SOL    HW111144   0.468   5.230   3.721
 3415SOL    HW211145   0.569   5.134   3.805
 3416SOL     OW11146   1.776   4.930   5.702
 3416SOL    HW111147   1.825   4.853   5.661
 3416SOL    HW211148   1.679   4.907   5.711
 3417SOL     OW11149   6.181   0.317   2.680
 3417SOL    HW111150   6.082   0.321   2.689
 3417SOL    HW211151   6.222   0.388   2.736
 3418SOL     OW11152   3.312   1.174   5.832
 3418SOL    HW111153   3.371   1.217   5.901
 3418SOL    HW211154   3.221   1.214   5.836
 3419SOL     OW11155   4.391   4.645   0.723
 3419SOL    HW111156   4.441   4.566   0.760
 3419SOL    HW211157   4.319   4.613   0.662
 3420SOL     OW11158   3.993   2.162   4.153
 3420SOL    HW111159   3.898   2.158   4.124
 3420SOL    HW211160   4.006   2.104   4.233
 3421SOL     OW11161   0.021   5.935   4.977
 3421SOL    HW111162   0.040   5.920   5.074
 3421SOL    HW211163   6.994   6.022   4.965
 3422SOL     OW11164   3.084   1.539   1.705
 3422SOL    HW111165   3.019   1.467   1.679
 3422SOL    HW211166   3.034   1.615   1.747
 3423SOL     OW11167   2.515   0.541   0.775
 3423SOL    HW111168   2.583   0.476   0.740
 3423SOL    HW211169   2.536   0.564   0.870
 3424SOL     OW11170   4.511   1.313   2.872
 3424SOL    HW111171   4.598   1.264   2.873
 3424SOL    HW211172   4.492   1.345   2.779
 3425SOL     OW11173   4.258   4.480   1.762
 3425SOL    HW111174   4.179   4.500   1.820
 3425SOL    HW211175   4.329   4.435   1.816
 3426SOL     OW11176   4.688   3.727   0.663
 3426SOL    HW111177   4.710   3.800   0.598
 3426SOL    HW211178   4.730   3.642   0.633
 3427SOL     OW11179   0.270   1.713   6.625
 3427SOL    HW111180   0.261   1.672   6.534
 3427SOL    HW211181   0.247   1.644   6.694
 3428SOL     OW11182   4.547   4.450   2.903
 3428SOL    HW111183   4.560   4.507   2.822
 3428SOL    HW211184   4.602   4.485   2.978
 3429SOL     OW11185   1.316   3.012   6.700
 3429SOL    HW111186   1.371   3.095   6.695
 3429SOL    HW211187   1.344   2.949   6.627
 3430SOL     OW11188   1.584   6.940   6.905
 3430SOL    HW111189   1.646   7.002   6.857
 3430SOL    HW211190   1.625   6.911   6.991
 3431SOL     OW11191   0.885   5.786   0.814
 3431SOL    HW111192   0.944   5.828   0.883
 3431SOL    HW211193   0.881   5.687   0.831
 3432SOL     OW11194   3.444   1.333   6.505
 3432SOL    HW111195   3.436   1.234   6.488
 3432SOL    HW211196   3.417   1.383   6.423
 3433SOL     OW11197   3.813   0.894   5.192
 3433SOL    HW111198   3.848   0.810   5.232
 3433SOL    HW211199   3.721   0.879   5.156
 3434SOL     OW11200   4.420   2.398   2.314
 3434SOL    HW111201   4.347   2.413   2.380
 3434SOL    HW211202   4.440   2.300   2.308
 3435SOL     OW11203   0.284   0.851   0.505
 3435SOL    HW111204   0.188   0.854   0.478
 3435SOL    HW211205   0.337   0.914   0.448
 3436SOL     OW11206   4.005   6.600   4.129
 3436SOL    HW111207   4.085   6.579   4.073
 3436SOL    HW211208   4.019   6.566   4.221
 3437SOL     OW11209   3.910   6.986   6.056
 3437SOL    HW111210   3.995   6.953   6.016
 3437SOL    HW211211   3.877   6.920   6.123
 3438SOL     OW11212   1.437   3.027   6.243
 3438SOL    HW111213   1.356   2.969   6.240
 3438SOL    HW211214   1.421   3.103   6.307
 3439SOL     OW11215   2.526   5.592   3.520
 3439SOL    HW111216   2.571   5.504   3.536
 3439SOL    HW211217   2.592   5.657   3.482
 3440SOL     OW11218   4.923   3.114   0.592
 3440SOL    HW111219   4.879   3.151   0.674
 3440SOL    HW211220   5.018   3.146   0.588
 3441SOL     OW11221   2.777   0.557   4.144
 3441SOL    HW111222   2.757   0.614   4.065
 3441SOL    HW211223   2.868   0.517   4.135
 3442SOL     OW11224   2.002   4.754   3.394
 3442SOL    HW111225   1.967   4.796   3.311
 3442SOL    HW211226   2.051   4.823   3.448
 3443SOL     OW11227   5.347   1.023   3.782
 3443SOL    HW111228   5.325   1.050   3.875
 3443SOL    HW211229   5.305   0.934   3.762
 3444SOL     OW11230   4.551   5.148   0.306
 3444SOL    HW111231   4.524   5.054   0.328
 3444SOL    HW211232   4.476   5.210   0.326
 3445SOL     OW11233   6.371   4.140   5.040
 3445SOL    HW111234   6.423   4.071   5.090
 3445SOL    HW211235   6.434   4.209   5.005
 3446SOL     OW11236   3.556   6.969   3.206
 3446SOL    HW111237   3.600   6.888   3.244
 3446SOL    HW211238   3.542   6.956   3.108
 3447SOL     OW11239   5.472   5.706   6.370
 3447SOL    HW111240   5.442   5.633   6.430
 3447SOL    HW211241   5.432   5.793   6.400
 3448SOL     OW11242   4.059   2.403   0.947
 3448SOL    HW111243   4.008   2.424   1.030
 3448SOL    HW211244   4.004   2.428   0.867
 3449SOL     OW11245   6.400   6.055   3.331
 3449SOL    HW111246   6.375   6.126   3.265
 3449SOL    HW211247   6.499   6.053   3.343
 3450SOL     OW11248   0.883   1.481   1.413
 3450SOL    HW111249   0.932   1.546   1.471
 3450SOL    HW211250   0.934   1.395   1.408
 3451SOL     OW11251   1.258   5.761   4.596
 3451SOL    HW111252   1.205   5.676   4.587
 3451SOL    HW211253   1.195   5.838   4.596
 3452SOL     OW11254   6.047   2.185   0.305
 3452SOL    HW111255   5.970   2.141   0.260
 3452SOL    HW211256   6.072   2.268   0.256
 3453SOL     OW11257   5.301   5.773   5.230
 3453SOL    HW111258   5.317   5.849   5.168
 3453SOL    HW211259   5.329   5.687   5.186
 3454SOL     OW11260   0.596   0.783   0.075
 3454SOL    HW111261   0.631   0.723   0.147
 3454SOL    HW211262   0.668   0.848   0.049
 3455SOL     OW11263   1.807   2.448   4.323
 3455SOL    HW111264   1.882   2.488   4.376
 3455SOL    HW211265   1.843   2.410   4.238
 3456SOL     OW11266   5.849   0.140   1.965
 3456SOL    HW111267   5.752   0.137   1.941
 3456SOL    HW211268   5.887   0.229   1.941
 3457SOL     OW11269   2.160   5.181   3.017
 3457SOL    HW111270   2.122   5.089   3.021
 3457SOL    HW211271   2.260   5.176   3.019
 3458SOL     OW11272   5.686   5.977   0.963
 3458SOL    HW111273   5.781   5.946   0.974
 3458SOL    HW211274   5.683   6.077   0.959
 3459SOL     OW11275   6.828   5.622   4.070
 3459SOL    HW111276   6.775   5.705   4.053
 3459SOL    HW211277   6.778   5.542   4.037
 3460SOL     OW11278   4.342   3.132   6.475
 3460SOL    HW111279   4.326   3.142   6.377
 3460SOL    HW211280   4.329   3.220   6.520
 3461SOL     OW11281   3.807   6.249   3.057
 3461SOL    HW111282   3.774   6.287   2.970
 3461SOL    HW211283   3.880   6.183   3.038
 3462SOL     OW11284   5.268   3.430   3.078
 3462SOL    HW111285   5.215   3.482   3.011
 3462SOL    HW211286   5.227   3.340   3.090
 3463SOL     OW11287   2.319   2.646   1.268
 3463SOL    HW111288   2.255   2.687   1.204
 3463SOL    HW211289   2.396   2.708   1.283
 3464SOL     OW11290   4.660   2.749   6.546
 3464SOL    HW111291   4.687   2.815   6.617
 3464SOL    HW211292   4.739   2.728   6.488
 3465SOL     OW11293   2.126   3.734   2.261
 3465SOL    HW111294   2.122   3.634   2.269
 3465SOL    HW211295   2.155   3.773   2.348
 3466SOL     OW11296   6.237   5.068   3.505
 3466SOL    HW111297   6.139   5.049   3.509
 3466SOL    HW211298   6.267   5.105   3.593
 3467SOL     OW11299   3.199   2.243   0.966
 3467SOL    HW111300   3.227   2.197   1.051
 3467SOL    HW211301   3.247   2.330   0.958
 3468SOL     OW11302   4.003   1.927   0.921
 3468SOL    HW111303   4.045   2.017   0.928
 3468SOL    HW211304   4.036   1.869   0.996
 3469SOL     OW11305   4.554   6.566   5.836
 3469SOL    HW111306   4.521   6.536   5.926
 3469SOL    HW211307   4.484   6.623   5.792
 3470SOL     OW11308   0.534   3.202   1.780
 3470SOL    HW111309   0.578   3.259   1.710
 3470SOL    HW211310   0.483   3.128   1.736
 3471SOL     OW11311   5.057   3.237   3.676
 3471SOL    HW111312   5.068   3.258   3.773
 3471SOL    HW211313   4.995   3.302   3.634
 3472SOL     OW11314   4.245   1.764   3.877
 3472SOL    HW111315   4.205   1.832   3.938
 3472SOL    HW211316   4.340   1.749   3.902
 3473SOL     OW11317   0.393   4.554   2.084
 3473SOL    HW111318   0.310   4.535   2.032
 3473SOL    HW211319   0.368   4.596   2.172
 3474SOL     OW11320   5.687   5.391   4.119
 3474SOL    HW111321   5.587   5.395   4.127
 3474SOL    HW211322   5.721   5.311   4.168
 3475SOL     OW11323   6.974   3.869   4.410
 3475SOL    HW111324   7.009   3.776   4.400
 3475SOL    HW211325   6.994   3.902   4.502
 3476SOL     OW11326   1.048   1.066   3.578
 3476SOL    HW111327   1.003   0.993   3.527
 3476SOL    HW211328   0.994   1.150   3.572
 3477SOL     OW11329   0.865   4.396   1.556
 3477SOL    HW111330   0.943   4.333   1.566
 3477SOL    HW211331   0.834   4.423   1.647
 3478SOL     OW11332   2.103   0.499   0.360
 3478SOL    HW111333   2.148   0.583   0.328
 3478SOL    HW211334   2.169   0.424   0.360
 3479SOL     OW11335   1.569   3.939   3.913
 3479SOL    HW111336   1.597   3.848   3.945
 3479SOL    HW211337   1.594   3.949   3.817
 3480SOL     OW11338   1.228   4.843   6.524
 3480SOL    HW111339   1.157   4.782   6.560
 3480SOL    HW211340   1.185   4.920   6.478
 3481SOL     OW11341   6.646   0.537   5.248
 3481SOL    HW111342   6.575   0.533   5.317
 3481SOL    HW211343   6.690   0.627   5.250
 3482SOL     OW11344   6.216   3.903   4.973
 3482SOL    HW111345   6.241   3.843   4.896
 3482SOL    HW211346   6.252   3.994   4.957
 3483SOL     OW11347   4.741   2.906   4.067
 3483SOL    HW111348   4.722   2.808   4.064
 3483SOL    HW211349   4.685   2.948   4.139
 3484SOL     OW11350   1.885   3.376   5.160
 3484SOL    HW111351   1.865   3.309   5.088
 3484SOL    HW211352   1.955   3.440   5.128
 3485SOL     OW11353   0.646   2.260   6.035
 3485SOL    HW111354   0.672   2.251   6.131
 3485SOL    HW211355   0.583   2.337   6.024
 3486SOL     OW11356   2.149   6.700   4.399
 3486SOL    HW111357   2.103   6.787   4.414
 3486SOL    HW211358   2.088   6.624   4.425
 3487SOL     OW11359   5.188   1.296   6.662
 3487SOL    HW111360   5.113   1.313   6.599
 3487SOL    HW211361   5.152   1.271   6.752
 3488SOL     OW11362   5.937   0.548   4.324
 3488SOL    HW111363   6.013   0.605   4.294
 3488SOL    HW211364   5.913   0.482   4.254
 3489SOL     OW11365   3.151   0.108   0.269
 3489SOL    HW111366   3.229   0.160   0.304
 3489SOL    HW211367   3.158   0.013   0.300
 3490SOL     OW11368   3.811   5.231   0.255
 3490SOL    HW111369   3.751   5.310   0.269
 3490SOL    HW211370   3.817   5.210   0.157
 3491SOL     OW11371   4.963   4.465   6.738
 3491SOL    HW111372   5.007   4.490   6.824
 3491SOL    HW211373   4.946   4.366   6.736
 3492SOL     OW11374   6.218   4.078   2.823
 3492SOL    HW111375   6.224   4.152   2.891
 3492SOL    HW211376   6.163   4.109   2.746
 3493SOL     OW11377   5.889   3.002   4.808
 3493SOL    HW111378   5.962   2.951   4.853
 3493SOL    HW211379   5.815   3.019   4.873
 3494SOL     OW11380   4.457   1.431   1.870
 3494SOL    HW111381   4.517   1.511   1.875
 3494SOL    HW211382   4.385   1.439   1.939
 3495SOL     OW11383   1.316   2.536   2.574
 3495SOL    HW111384   1.372   2.497   2.501
 3495SOL    HW211385   1.245   2.594   2.534
 3496SOL     OW11386   6.060   5.536   1.085
 3496SOL    HW111387   6.098   5.545   1.177
 3496SOL    HW211388   5.968   5.577   1.084
 3497SOL     OW11389   3.496   0.804   2.669
 3497SOL    HW111390   3.575   0.855   2.634
 3497SOL    HW211391   3.461   0.745   2.596
 3498SOL     OW11392   2.243   1.764   1.174
 3498SOL    HW111393   2.257   1.852   1.221
 3498SOL    HW211394   2.146   1.750   1.158
 3499SOL     OW11395   6.229   5.457   5.522
 3499SOL    HW111396   6.279   5.370   5.521
 3499SOL    HW211397   6.161   5.456   5.596
 3500SOL     OW11398   1.414   2.002   3.916
 3500SOL    HW111399   1.453   2.014   4.007
 3500SOL    HW211400   1.487   2.002   3.848
 3501SOL     OW11401   1.541   0.095   5.675
 3501SOL    HW111402   1.539   0.183   5.722
 3501SOL    HW211403   1.448   0.069   5.649
 3502SOL     OW11404   4.855   3.212   2.246
 3502SOL    HW111405   4.920   3.136   2.256
 3502SOL    HW211406   4.791   3.192   2.173
 3503SOL     OW11407   6.702   6.266   6.692
 3503SOL    HW111408   6.660   6.260   6.783
 3503SOL    HW211409   6.674   6.187   6.638
 3504SOL     OW11410   1.384   1.027   0.940
 3504SOL    HW111411   1.431   1.053   1.025
 3504SOL    HW211412   1.340   0.938   0.953
 3505SOL     OW11413   5.988   4.852   6.543
 3505SOL    HW111414   5.935   4.935   6.524
 3505SOL    HW211415   6.000   4.800   6.459
 3506SOL     OW11416   4.948   4.906   4.795
 3506SOL    HW111417   4.889   4.982   4.824
 3506SOL    HW211418   4.908   4.862   4.714
 3507SOL     OW11419   2.923   6.362   0.620
 3507SOL    HW111420   2.957   6.272   0.648
 3507SOL    HW211421   2.940   6.428   0.693
 3508SOL     OW11422   2.986   2.569   5.341
 3508SOL    HW111423   3.016   2.663   5.327
 3508SOL    HW211424   3.037   2.508   5.280
 3509SOL     OW11425   4.367   5.317   6.812
 3509SOL    HW111426   4.295   5.249   6.822
 3509SOL    HW211427   4.436   5.304   6.883
 3510SOL     OW11428   2.407   0.611   1.036
 3510SOL    HW111429   2.473   0.686   1.037
 3510SOL    HW211430   2.421   0.554   1.117
 3511SOL     OW11431   2.156   4.728   1.611
 3511SOL    HW111432   2.177   4.825   1.604
 3511SOL    HW211433   2.220   4.677   1.553
 3512SOL     OW11434   0.644   4.121   6.645
 3512SOL    HW111435   0.633   4.204   6.589
 3512SOL    HW211436   0.717   4.135   6.711
 3513SOL     OW11437   5.627   2.043   0.351
 3513SOL    HW111438   5.582   1.983   0.417
 3513SOL    HW211439   5.569   2.123   0.335
 3514SOL     OW11440   4.130   0.947   2.888
 3514SOL    HW111441   4.051   0.977   2.835
 3514SOL    HW211442   4.115   0.966   2.985
 3515SOL     OW11443   6.270   5.852   4.373
 3515SOL    HW111444   6.188   5.900   4.342
 3515SOL    HW211445   6.323   5.820   4.294
 3516SOL     OW11446   5.152   0.435   0.989
 3516SOL    HW111447   5.193   0.431   1.081
 3516SOL    HW211448   5.222   0.413   0.921
 3517SOL     OW11449   6.320   0.929   0.456
 3517SOL    HW111450   6.283   0.836   0.466
 3517SOL    HW211451   6.333   0.969   0.547
 3518SOL     OW11452   5.550   1.727   5.225
 3518SOL    HW111453   5.505   1.811   5.257
 3518SOL    HW211454   5.483   1.654   5.217
 3519SOL     OW11455   3.443   0.882   0.633
 3519SOL    HW111456   3.351   0.919   0.640
 3519SOL    HW211457   3.457   0.846   0.540
 3520SOL     OW11458   2.861   6.610   5.031
 3520SOL    HW111459   2.929   6.611   5.105
 3520SOL    HW211460   2.901   6.651   4.949
 3521SOL     OW11461   3.138   2.538   0.105
 3521SOL    HW111462   3.053   2.525   0.054
 3521SOL    HW211463   3.191   2.453   0.104
 3522SOL     OW11464   6.937   5.742   6.567
 3522SOL    HW111465   6.850   5.735   6.615
 3522SOL    HW211466   6.935   5.685   6.485
 3523SOL     OW11467   1.113   5.402   5.814
 3523SOL    HW111468   1.172   5.397   5.894
 3523SOL    HW211469   1.019   5.382   5.840
 3524SOL     OW11470   5.534   1.313   3.395
 3524SOL    HW111471   5.625   1.322   3.435
 3524SOL    HW211472   5.468   1.292   3.466
 3525SOL     OW11473   6.120   4.492   3.466
 3525SOL    HW111474   6.037   4.548   3.471
 3525SOL    HW211475   6.165   4.508   3.379
 3526SOL     OW11476   0.979   6.252   2.869
 3526SOL    HW111477   1.040   6.306   2.927
 3526SOL    HW211478   0.899   6.307   2.844
 3527SOL     OW11479   6.610   3.182   5.893
 3527SOL    HW111480   6.646   3.223   5.809
 3527SOL    HW211481   6.512   3.165   5.882
 3528SOL     OW11482   2.620   6.528   4.917
 3528SOL    HW111483   2.591   6.617   4.882
 3528SOL    HW211484   2.701   6.540   4.975
 3529SOL     OW11485   4.862   5.268   0.554
 3529SOL    HW111486   4.925   5.270   0.476
 3529SOL    HW211487   4.915   5.269   0.639
 3530SOL     OW11488   0.082   0.468   1.728
 3530SOL    HW111489   0.022   0.440   1.652
 3530SOL    HW211490   0.029   0.521   1.794
 3531SOL     OW11491   5.296   1.711   1.241
 3531SOL    HW111492   5.236   1.791   1.230
 3531SOL    HW211493   5.392   1.741   1.239
 3532SOL     OW11494   1.675   1.248   1.969
 3532SOL    HW111495   1.662   1.345   1.989
 3532SOL    HW211496   1.772   1.231   1.952
 3533SOL     OW11497   0.098   1.286   3.101
 3533SOL    HW111498   0.047   1.304   3.185
 3533SOL    HW211499   0.161   1.361   3.083
 3534SOL     OW11500   6.746   1.032   1.173
 3534SOL    HW111501   6.706   1.113   1.129
 3534SOL    HW211502   6.780   0.969   1.103
 3535SOL     OW11503   2.735   5.404   5.011
 3535SOL    HW111504   2.655   5.421   5.069
 3535SOL    HW211505   2.766   5.310   5.023
 3536SOL     OW11506   3.410   2.130   2.516
 3536SOL    HW111507   3.351   2.174   2.448
 3536SOL    HW211508   3.481   2.077   2.469
 3537SOL     OW11509   1.666   5.503   2.176
 3537SOL    HW111510   1.707   5.594   2.169
 3537SOL    HW211511   1.603   5.501   2.253
 3538SOL     OW11512   3.193   5.684   4.431
 3538SOL    HW111513   3.270   5.747   4.423
 3538SOL    HW211514   3.226   5.595   4.460
 3539SOL     OW11515   3.852   3.883   4.700
 3539SOL    HW111516   3.803   3.804   4.736
 3539SOL    HW211517   3.872   3.868   4.603
 3540SOL     OW11518   1.996   1.568   3.888
 3540SOL    HW111519   1.942   1.564   3.804
 3540SOL    HW211520   1.965   1.496   3.951
 3541SOL     OW11521   2.898   3.978   5.230
 3541SOL    HW111522   2.825   3.950   5.167
 3541SOL    HW211523   2.873   3.951   5.323
 3542SOL     OW11524   0.823   5.010   1.826
 3542SOL    HW111525   0.917   4.991   1.856
 3542SOL    HW211526   0.782   4.926   1.789
 3543SOL     OW11527   5.635   2.856   4.919
 3543SOL    HW111528   5.627   2.766   4.961
 3543SOL    HW211529   5.548   2.904   4.926
 3544SOL     OW11530   2.232   4.653   5.858
 3544SOL    HW111531   2.188   4.725   5.911
 3544SOL    HW211532   2.192   4.565   5.882
 3545SOL     OW11533   3.930   5.065   6.679
 3545SOL    HW111534   3.856   5.125   6.710
 3545SOL    HW211535   3.931   5.063   6.579
 3546SOL     OW11536   6.535   5.139   3.193
 3546SOL    HW111537   6.534   5.208   3.266
 3546SOL    HW211538   6.562   5.051   3.232
 3547SOL     OW11539   5.175   5.157   4.587
 3547SOL    HW111540   5.157   5.230   4.652
 3547SOL    HW211541   5.168   5.192   4.494
 3548SOL     OW11542   4.893   2.537   5.843
 3548SOL    HW111543   4.890   2.473   5.766
 3548SOL    HW211544   4.806   2.534   5.892
 3549SOL     OW11545   5.665   4.502   3.023
 3549SOL    HW111546   5.653   4.601   3.017
 3549SOL    HW211547   5.654   4.461   2.932
 3550SOL     OW11548   5.541   1.743   2.313
 3550SOL    HW111549   5.577   1.782   2.398
 3550SOL    HW211550   5.443   1.762   2.307
 3551SOL     OW11551   2.869   6.560   3.146
 3551SOL    HW111552   2.959   6.568   3.189
 3551SOL    HW211553   2.820   6.646   3.154
 3552SOL     OW11554   6.217   5.057   2.777
 3552SOL    HW111555   6.212   5.125   2.850
 3552SOL    HW211556   6.298   5.076   2.721
 3553SOL     OW11557   5.239   1.623   2.914
 3553SOL    HW111558   5.250   1.694   2.984
 3553SOL    HW211559   5.323   1.617   2.860
 3554SOL     OW11560   4.028   4.821   6.530
 3554SOL    HW111561   3.946   4.778   6.569
 3554SOL    HW211562   4.001   4.897   6.471
 3555SOL     OW11563   1.182   2.874   3.318
 3555SOL    HW111564   1.177   2.788   3.269
 3555SOL    HW211565   1.191   2.950   3.253
 3556SOL     OW11566   3.442   0.922   6.169
 3556SOL    HW111567   3.517   0.858   6.153
 3556SOL    HW211568   3.385   0.927   6.087
 3557SOL     OW11569   1.499   0.184   5.195
 3557SOL    HW111570   1.578   0.169   5.255
 3557SOL    HW211571   1.513   0.135   5.109
 3558SOL     OW11572   6.927   5.853   1.393
 3558SOL    HW111573   6.938   5.759   1.425
 3558SOL    HW211574   6.993   5.912   1.438
 3559SOL     OW11575   0.771   0.373   5.333
 3559SOL    HW111576   0.707   0.417   5.270
 3559SOL    HW211577   0.789   0.433   5.411
 3560SOL     OW11578   0.359   6.458   1.021
 3560SOL    HW111579   0.361   6.428   0.926
 3560SOL    HW211580   0.265   6.476   1.049
 3561SOL     OW11581   4.984   5.111   5.449
 3561SOL    HW111582   4.906   5.053   5.426
 3561SOL    HW211583   5.067   5.073   5.409
 3562SOL     OW11584   5.286   0.746   3.066
 3562SOL    HW111585   5.358   0.789   3.011
 3562SOL    HW211586   5.197   0.777   3.034
 3563SOL     OW11587   4.615   0.836   1.801
 3563SOL    HW111588   4.541   0.818   1.737
 3563SOL    HW211589   4.660   0.922   1.778
 3564SOL     OW11590   6.890   4.761   3.175
 3564SOL    HW111591   6.912   4.692   3.244
 3564SOL    HW211592   6.972   4.782   3.122
 3565SOL     OW11593   1.973   0.618   5.131
 3565SOL    HW111594   2.032   0.681   5.182
 3565SOL    HW211595   1.980   0.638   5.033
 3566SOL     OW11596   0.604   3.275   5.612
 3566SOL    HW111597   0.619   3.209   5.539
 3566SOL    HW211598   0.644   3.363   5.587
 3567SOL     OW11599   0.205   3.213   0.995
 3567SOL    HW111600   0.193   3.157   1.077
 3567SOL    HW211601   0.134   3.284   0.992
 3568SOL     OW11602   4.684   4.360   3.498
 3568SOL    HW111603   4.678   4.356   3.598
 3568SOL    HW211604   4.772   4.399   3.472
 3569SOL     OW11605   3.712   3.447   3.986
 3569SOL    HW111606   3.772   3.384   4.035
 3569SOL    HW211607   3.691   3.525   4.045
 3570SOL     OW11608   0.342   2.266   5.633
 3570SOL    HW111609   0.389   2.261   5.545
 3570SOL    HW211610   0.374   2.191   5.691
 3571SOL     OW11611   2.276   6.646   4.983
 3571SOL    HW111612   2.220   6.714   5.031
 3571SOL    HW211613   2.352   6.691   4.937
 3572SOL     OW11614   4.869   4.803   1.879
 3572SOL    HW111615   4.963   4.824   1.905
 3572SOL    HW211616   4.845   4.711   1.910
 3573SOL     OW11617   6.771   4.046   3.262
 3573SOL    HW111618   6.851   4.081   3.310
 3573SOL    HW211619   6.695   4.038   3.327
 3574SOL     OW11620   2.213   2.770   6.116
 3574SOL    HW111621   2.260   2.814   6.192
 3574SOL    HW211622   2.169   2.840   6.060
 3575SOL     OW11623   5.633   0.017   0.466
 3575SOL    HW111624   5.715   0.059   0.428
 3575SOL    HW211625   5.644   6.938   0.467
 3576SOL     OW11626   1.534   2.653   1.019
 3576SOL    HW111627   1.446   2.627   1.060
 3576SOL    HW211628   1.520   2.675   0.923
 3577SOL     OW11629   2.400   3.071   5.894
 3577SOL    HW111630   2.496   3.056   5.869
 3577SOL    HW211631   2.355   3.126   5.824
 3578SOL     OW11632   2.916   3.076   6.142
 3578SOL    HW111633   2.922   3.075   6.241
 3578SOL    HW211634   2.946   3.165   6.107
 3579SOL     OW11635   0.698   2.867   1.861
 3579SOL    HW111636   0.750   2.907   1.786
 3579SOL    HW211637   0.600   2.874   1.841
 3580SOL     OW11638   0.574   4.419   1.925
 3580SOL    HW111639   0.560   4.322   1.944
 3580SOL    HW211640   0.506   4.473   1.975
 3581SOL     OW11641   1.357   7.003   2.746
 3581SOL    HW111642   1.259   0.002   2.748
 3581SOL    HW211643   1.398   0.008   2.834
 3582SOL     OW11644   3.519   4.760   5.998
 3582SOL    HW111645   3.533   4.817   5.917
 3582SOL    HW211646   3.607   4.726   6.031
 3583SOL     OW11647   0.351   5.185   0.530
 3583SOL    HW111648   0.445   5.211   0.511
 3583SOL    HW211649   0.349   5.113   0.600
 3584SOL     OW11650   6.308   4.782   4.752
 3584SOL    HW111651   6.223   4.833   4.738
 3584SOL    HW211652   6.312   4.749   4.846
 3585SOL     OW11653   2.685   1.592   2.970
 3585SOL    HW111654   2.678   1.505   3.018
 3585SOL    HW211655   2.746   1.583   2.891
 3586SOL     OW11656   6.463   2.063   4.816
 3586SOL    HW111657   6.536   2.002   4.786
 3586SOL    HW211658   6.390   2.064   4.747
 3587SOL     OW11659   2.897   6.689   6.397
 3587SOL    HW111660   2.842   6.760   6.354
 3587SOL    HW211661   2.993   6.718   6.400
 3588SOL     OW11662   6.344   4.556   4.596
 3588SOL    HW111663   6.320   4.627   4.662
 3588SOL    HW211664   6.443   4.557   4.581
 3589SOL     OW11665   0.082   6.822   6.028
 3589SOL    HW111666   0.082   6.834   6.128
 3589SOL    HW211667   0.130   6.898   5.985
 3590SOL     OW11668   6.443   4.931   0.634
 3590SOL    HW111669   6.413   5.026   0.639
 3590SOL    HW211670   6.538   4.924   0.665
 3591SOL     OW11671   5.877   1.756   6.451
 3591SOL    HW111672   5.910   1.704   6.373
 3591SOL    HW211673   5.777   1.749   6.455
 3592SOL     OW11674   2.142   6.020   1.656
 3592SOL    HW111675   2.216   5.954   1.665
 3592SOL    HW211676   2.113   6.051   1.747
 3593SOL     OW11677   4.492   3.221   5.787
 3593SOL    HW111678   4.444   3.179   5.710
 3593SOL    HW211679   4.452   3.189   5.873
 3594SOL     OW11680   4.379   4.779   5.136
 3594SOL    HW111681   4.372   4.703   5.071
 3594SOL    HW211682   4.379   4.865   5.085
 3595SOL     OW11683   5.301   6.477   5.091
 3595SOL    HW111684   5.282   6.514   5.000
 3595SOL    HW211685   5.228   6.504   5.154
 3596SOL     OW11686   3.901   2.105   3.792
 3596SOL    HW111687   3.995   2.135   3.779
 3596SOL    HW211688   3.851   2.175   3.843
 3597SOL     OW11689   2.201   3.138   5.263
 3597SOL    HW111690   2.279   3.076   5.275
 3597SOL    HW211691   2.159   3.155   5.352
 3598SOL     OW11692   1.090   5.750   5.090
 3598SOL    HW111693   1.121   5.828   5.145
 3598SOL    HW211694   1.145   5.670   5.112
 3599SOL     OW11695   3.653   1.350   4.685
 3599SOL    HW111696   3.693   1.428   4.734
 3599SOL    HW211697   3.639   1.274   4.748
 3600SOL     OW11698   3.079   3.033   0.126
 3600SOL    HW111699   3.020   2.958   0.158
 3600SOL    HW211700   3.175   3.006   0.136
 3601SOL     OW11701   4.827   0.708   5.487
 3601SOL    HW111702   4.893   0.753   5.547
 3601SOL    HW211703   4.770   0.777   5.442
 3602SOL     OW11704   1.913   1.833   1.713
 3602SOL    HW111705   1.931   1.922   1.671
 3602SOL    HW211706   1.972   1.764   1.670
 3603SOL     OW11707   3.020   0.569   5.563
 3603SOL    HW111708   2.953   0.498   5.540
 3603SOL    HW211709   3.038   0.625   5.482
 3604SOL     OW11710   0.010   0.378   3.215
 3604SOL    HW111711   0.017   0.436   3.134
 3604SOL    HW211712   6.935   0.369   3.242
 3605SOL     OW11713   1.573   5.913   3.584
 3605SOL    HW111714   1.548   5.895   3.489
 3605SOL    HW211715   1.494   5.895   3.643
 3606SOL     OW11716   2.989   6.407   2.424
 3606SOL    HW111717   2.948   6.407   2.516
 3606SOL    HW211718   3.014   6.314   2.398
 3607SOL     OW11719   5.698   2.163   2.721
 3607SOL    HW111720   5.764   2.097   2.683
 3607SOL    HW211721   5.620   2.170   2.659
 3608SOL     OW11722   2.939   1.472   6.001
 3608SOL    HW111723   2.842   1.450   5.985
 3608SOL    HW211724   2.947   1.527   6.084
 3609SOL     OW11725   2.394   0.555   4.758
 3609SOL    HW111726   2.451   0.583   4.681
 3609SOL    HW211727   2.451   0.531   4.836
 3610SOL     OW11728   1.877   0.027   5.153
 3610SOL    HW111729   1.916   0.088   5.085
 3610SOL    HW211730   1.848   0.080   5.233
 3611SOL     OW11731   5.589   5.040   2.979
 3611SOL    HW111732   5.558   4.948   3.003
 3611SOL    HW211733   5.519   5.107   3.004
 3612SOL     OW11734   6.050   1.297   0.082
 3612SOL    HW111735   6.148   1.310   0.102
 3612SOL    HW211736   6.022   1.362   0.013
 3613SOL     OW11737   4.685   5.492   1.782
 3613SOL    HW111738   4.761   5.429   1.796
 3613SOL    HW211739   4.696   5.538   1.694
 3614SOL     OW11740   3.543   4.800   6.653
 3614SOL    HW111741   3.624   4.774   6.705
 3614SOL    HW211742   3.572   4.841   6.566
 3615SOL     OW11743   5.507   2.721   5.876
 3615SOL    HW111744   5.548   2.752   5.790
 3615SOL    HW211745   5.499   2.621   5.874
 3616SOL     OW11746   1.231   1.247   0.052
 3616SOL    HW111747   1.153   1.194   0.019
 3616SOL    HW211748   1.219   1.343   0.024
 3617SOL     OW11749   3.830   6.281   5.551
 3617SOL    HW111750   3.868   6.197   5.589
 3617SOL    HW211751   3.741   6.262   5.510
 3618SOL     OW11752   1.472   4.929   4.579
 3618SOL    HW111753   1.481   4.829   4.586
 3618SOL    HW211754   1.562   4.971   4.591
 3619SOL     OW11755   5.580   3.780   1.548
 3619SOL    HW111756   5.546   3.729   1.468
 3619SOL    HW211757   5.644   3.851   1.518
 3620SOL     OW11758   6.117   5.863   5.097
 3620SOL    HW111759   6.175   5.831   5.173
 3620SOL    HW211760   6.080   5.953   5.120
 3621SOL     OW11761   2.930   3.615   3.557
 3621SOL    HW111762   2.890   3.582   3.471
 3621SOL    HW211763   3.005   3.555   3.584
 3622SOL     OW11764   1.379   5.821   6.673
 3622SOL    HW111765   1.417   5.896   6.619
 3622SOL    HW211766   1.384   5.844   6.771
 3623SOL     OW11767   0.955   5.285   6.148
 3623SOL    HW111768   1.055   5.281   6.136
 3623SOL    HW211769   0.935   5.300   6.245
 3624SOL     OW11770   2.771   2.060   1.393
 3624SOL    HW111771   2.804   2.106   1.310
 3624SOL    HW211772   2.848   2.045   1.455
 3625SOL     OW11773   6.895   2.063   0.453
 3625SOL    HW111774   6.918   2.030   0.361
 3625SOL    HW211775   6.841   2.147   0.446
 3626SOL     OW11776   1.334   2.724   4.893
 3626SOL    HW111777   1.301   2.765   4.808
 3626SOL    HW211778   1.360   2.795   4.957
 3627SOL     OW11779   3.437   2.050   1.953
 3627SOL    HW111780   3.525   2.095   1.966
 3627SOL    HW211781   3.393   2.038   2.042
 3628SOL     OW11782   6.185   2.109   1.200
 3628SOL    HW111783   6.162   2.014   1.179
 3628SOL    HW211784   6.272   2.112   1.250
 3629SOL     OW11785   0.860   0.799   3.745
 3629SOL    HW111786   0.951   0.768   3.716
 3629SOL    HW211787   0.790   0.746   3.697
 3630SOL     OW11788   0.093   2.047   2.136
 3630SOL    HW111789   0.008   2.018   2.091
 3630SOL    HW211790   0.072   2.123   2.199
 3631SOL     OW11791   1.701   6.903   2.205
 3631SOL    HW111792   1.629   6.948   2.257
 3631SOL    HW211793   1.768   6.971   2.174
 3632SOL     OW11794   4.245   3.787   1.480
 3632SOL    HW111795   4.211   3.713   1.538
 3632SOL    HW211796   4.340   3.768   1.455
 3633SOL     OW11797   4.122   4.013   6.605
 3633SOL    HW111798   4.031   3.973   6.598
 3633SOL    HW211799   4.176   3.988   6.524
 3634SOL     OW11800   3.312   5.622   6.430
 3634SOL    HW111801   3.331   5.526   6.447
 3634SOL    HW211802   3.391   5.665   6.385
 3635SOL     OW11803   1.768   6.835   1.904
 3635SOL    HW111804   1.860   6.826   1.865
 3635SOL    HW211805   1.748   6.756   1.962
 3636SOL     OW11806   0.808   4.651   6.915
 3636SOL    HW111807   0.738   4.580   6.905
 3636SOL    HW211808   0.767   4.733   6.956
 3637SOL     OW11809   6.125   3.580   0.006
 3637SOL    HW111810   6.123   3.625   0.095
 3637SOL    HW211811   6.033   3.547   7.003
 3638SOL     OW11812   6.354   4.187   3.301
 3638SOL    HW111813   6.445   4.199   3.341
 3638SOL    HW211814   6.324   4.092   3.315
 3639SOL     OW11815   3.503   2.855   4.193
 3639SOL    HW111816   3.507   2.756   4.182
 3639SOL    HW211817   3.518   2.899   4.105
 3640SOL     OW11818   4.611   2.127   1.152
 3640SOL    HW111819   4.626   2.225   1.141
 3640SOL    HW211820   4.591   2.107   1.248
 3641SOL     OW11821   5.972   3.869   2.730
 3641SOL    HW111822   5.974   3.964   2.699
 3641SOL    HW211823   6.065   3.840   2.754
 3642SOL     OW11824   5.770   3.540   6.495
 3642SOL    HW111825   5.671   3.551   6.494
 3642SOL    HW211826   5.802   3.519   6.402
 3643SOL     OW11827   3.911   5.999   5.353
 3643SOL    HW111828   3.890   5.909   5.316
 3643SOL    HW211829   3.905   5.996   5.453
 3644SOL     OW11830   2.565   0.339   1.466
 3644SOL    HW111831   2.474   0.370   1.437
 3644SOL    HW211832   2.566   0.239   1.474
 3645SOL     OW11833   1.196   4.421   3.331
 3645SOL    HW111834   1.140   4.477   3.393
 3645SOL    HW211835   1.151   4.417   3.242
 3646SOL     OW11836   1.494   4.675   5.506
 3646SOL    HW111837   1.552   4.644   5.430
 3646SOL    HW211838   1.399   4.655   5.486
 3647SOL     OW11839   3.153   0.010   6.283
 3647SOL    HW111840   3.240   6.986   6.262
 3647SOL    HW211841   3.133   0.078   6.212
 3648SOL     OW11842   4.380   5.266   3.272
 3648SOL    HW111843   4.345   5.215   3.194
 3648SOL    HW211844   4.460   5.319   3.244
 3649SOL     OW11845   6.189   2.689   0.108
 3649SOL    HW111846   6.109   2.748   0.121
 3649SOL    HW211847   6.260   2.739   0.058
 3650SOL     OW11848   5.519   5.917   0.046
 3650SOL    HW111849   5.486   5.973   0.121
 3650SOL    HW211850   5.613   5.944   0.023
 3651SOL     OW11851   0.648   1.871   5.617
 3651SOL    HW111852   0.746   1.877   5.638
 3651SOL    HW211853   0.599   1.938   5.673
 3652SOL     OW11854   4.264   1.724   1.612
 3652SOL    HW111855   4.214   1.719   1.699
 3652SOL    HW211856   4.319   1.641   1.602
 3653SOL     OW11857   1.043   1.367   0.882
 3653SOL    HW111858   1.087   1.285   0.920
 3653SOL    HW211859   0.998   1.343   0.796
 3654SOL     OW11860   5.012   6.440   1.437
 3654SOL    HW111861   4.933   6.457   1.495
 3654SOL    HW211862   5.068   6.523   1.432
 3655SOL     OW11863   1.590   1.411   3.782
 3655SOL    HW111864   1.576   1.438   3.686
 3655SOL    HW211865   1.683   1.378   3.794
 3656SOL     OW11866   6.787   0.234   1.281
 3656SOL    HW111867   6.883   0.232   1.253
 3656SOL    HW211868   6.744   0.319   1.252
 3657SOL     OW11869   5.837   5.178   5.658
 3657SOL    HW111870   5.868   5.225   5.575
 3657SOL    HW211871   5.737   5.173   5.658
 3658SOL     OW11872   2.110   5.155   5.315
 3658SOL    HW111873   2.149   5.209   5.391
 3658SOL    HW211874   2.174   5.156   5.238
 3659SOL     OW11875   0.494   2.462   6.088
 3659SOL    HW111876   0.516   2.467   6.186
 3659SOL    HW211877   0.395   2.464   6.077
 3660SOL     OW11878   5.696   5.698   6.654
 3660SOL    HW111879   5.747   5.665   6.574
 3660SOL    HW211880   5.623   5.634   6.676
 3661SOL     OW11881   6.867   1.788   4.765
 3661SOL    HW111882   6.961   1.763   4.744
 3661SOL    HW211883   6.840   1.750   4.853
 3662SOL     OW11884   2.682   1.830   5.257
 3662SOL    HW111885   2.748   1.884   5.205
 3662SOL    HW211886   2.666   1.743   5.209
 3663SOL     OW11887   2.706   2.148   6.700
 3663SOL    HW111888   2.680   2.094   6.780
 3663SOL    HW211889   2.784   2.105   6.655
 3664SOL     OW11890   3.963   1.381   1.625
 3664SOL    HW111891   3.879   1.383   1.679
 3664SOL    HW211892   3.953   1.441   1.546
 3665SOL     OW11893   0.834   5.804   5.856
 3665SOL    HW111894   0.907   5.752   5.811
 3665SOL    HW211895   0.828   5.776   5.952
 3666SOL     OW11896   2.318   2.578   4.581
 3666SOL    HW111897   2.351   2.525   4.659
 3666SOL    HW211898   2.354   2.540   4.496
 3667SOL     OW11899   2.026   0.307   1.178
 3667SOL    HW111900   2.095   0.302   1.250
 3667SOL    HW211901   1.935   0.315   1.219
 3668SOL     OW11902   6.753   0.652   0.909
 3668SOL    HW111903   6.791   0.744   0.919
 3668SOL    HW211904   6.820   0.593   0.862
 3669SOL     OW11905   0.827   1.285   3.568
 3669SOL    HW111906   0.864   1.357   3.626
 3669SOL    HW211907   0.733   1.265   3.595
 3670SOL     OW11908   2.823   6.878   2.093
 3670SOL    HW111909   2.778   6.790   2.075
 3670SOL    HW211910   2.804   6.941   2.017
 3671SOL     OW11911   6.401   0.688   3.827
 3671SOL    HW111912   6.490   0.717   3.793
 3671SOL    HW211913   6.392   0.714   3.923
 3672SOL     OW11914   3.538   0.103   3.561
 3672SOL    HW111915   3.598   0.176   3.530
 3672SOL    HW211916   3.588   0.040   3.620
 3673SOL     OW11917   3.408   6.447   0.916
 3673SOL    HW111918   3.368   6.368   0.961
 3673SOL    HW211919   3.427   6.518   0.984
 3674SOL     OW11920   1.315   4.187   6.720
 3674SOL    HW111921   1.258   4.167   6.640
 3674SOL    HW211922   1.368   4.106   6.744
 3675SOL     OW11923   1.202   0.183   3.956
 3675SOL    HW111924   1.206   0.235   4.041
 3675SOL    HW211925   1.106   0.159   3.936
 3676SOL     OW11926   3.645   1.702   4.452
 3676SOL    HW111927   3.583   1.630   4.482
 3676SOL    HW211928   3.636   1.781   4.513
 3677SOL     OW11929   1.641   0.879   4.719
 3677SOL    HW111930   1.683   0.967   4.698
 3677SOL    HW211931   1.564   0.863   4.657
 3678SOL     OW11932   1.109   0.777   4.144
 3678SOL    HW111933   1.032   0.841   4.139
 3678SOL    HW211934   1.074   0.684   4.150
 3679SOL     OW11935   4.255   0.410   2.651
 3679SOL    HW111936   4.217   0.344   2.715
 3679SOL    HW211937   4.354   0.415   2.663
 3680SOL     OW11938   3.255   1.532   4.650
 3680SOL    HW111939   3.194   1.545   4.728
 3680SOL    HW211940   3.207   1.556   4.566
 3681SOL     OW11941   1.177   6.256   3.899
 3681SOL    HW111942   1.260   6.287   3.851
 3681SOL    HW211943   1.188   6.159   3.923
 3682SOL     OW11944   5.327   2.618   1.227
 3682SOL    HW111945   5.366   2.555   1.159
 3682SOL    HW211946   5.228   2.615   1.222
 3683SOL     OW11947   6.024   1.466   6.899
 3683SOL    HW111948   6.004   1.564   6.910
 3683SOL    HW211949   5.956   1.424   6.840
 3684SOL     OW11950   2.163   6.356   5.146
 3684SOL    HW111951   2.204   6.427   5.203
 3684SOL    HW211952   2.092   6.396   5.088
 3685SOL     OW11953   2.135   5.816   4.708
 3685SOL    HW111954   2.223   5.825   4.661
 3685SOL    HW211955   2.099   5.907   4.730
 3686SOL     OW11956   0.350   3.818   1.597
 3686SOL    HW111957   0.364   3.725   1.563
 3686SOL    HW211958   0.425   3.877   1.567
 3687SOL     OW11959   5.536   4.773   4.782
 3687SOL    HW111960   5.559   4.844   4.848
 3687SOL    HW211961   5.470   4.809   4.716
 3688SOL     OW11962   6.356   2.547   0.826
 3688SOL    HW111963   6.379   2.454   0.797
 3688SOL    HW211964   6.432   2.609   0.806
 3689SOL     OW11965   1.191   6.834   5.868
 3689SOL    HW111966   1.116   6.775   5.839
 3689SOL    HW211967   1.278   6.785   5.861
 3690SOL     OW11968   5.215   5.640   1.922
 3690SOL    HW111969   5.299   5.597   1.953
 3690SOL    HW211970   5.175   5.586   1.848
 3691SOL     OW11971   1.895   3.112   0.603
 3691SOL    HW111972   1.943   3.032   0.639
 3691SOL    HW211973   1.803   3.117   0.643
 3692SOL     OW11974   0.786   3.049   5.474
 3692SOL    HW111975   0.869   3.102   5.495
 3692SOL    HW211976   0.811   2.954   5.456
 3693SOL     OW11977   6.766   1.532   2.318
 3693SOL    HW111978   6.846   1.590   2.333
 3693SOL    HW211979   6.789   1.438   2.343
 3694SOL     OW11980   6.774   6.915   2.510
 3694SOL    HW111981   6.845   6.938   2.576
 3694SOL    HW211982   6.815   6.908   2.418
 3695SOL     OW11983   5.540   3.515   3.006
 3695SOL    HW111984   5.461   3.468   3.045
 3695SOL    HW211985   5.607   3.448   2.975
 3696SOL     OW11986   3.864   0.735   4.401
 3696SOL    HW111987   3.877   0.814   4.340
 3696SOL    HW211988   3.770   0.701   4.391
 3697SOL     OW11989   6.851   5.981   3.149
 3697SOL    HW111990   6.773   6.043   3.147
 3697SOL    HW211991   6.911   6.005   3.225
 3698SOL     OW11992   1.041   0.113   2.424
 3698SOL    HW111993   0.999   0.201   2.399
 3698SOL    HW211994   1.090   0.077   2.344
 3699SOL     OW11995   2.834   2.289   3.247
 3699SOL    HW111996   2.761   2.348   3.281
 3699SOL    HW211997   2.871   2.234   3.322
 3700SOL     OW11998   0.994   5.599   4.873
 3700SOL    HW111999   1.018   5.644   4.959
 3700SOL    HW212000   0.973   5.503   4.890
 3701SOL     OW12001   1.057   0.500   1.940
 3701SOL    HW112002   1.155   0.520   1.936
 3701SOL    HW212003   1.043   0.401   1.938
 3702SOL     OW12004   5.957   4.147   3.145
 3702SOL    HW112005   5.952   4.049   3.124
 3702SOL    HW212006   6.043   4.166   3.191
 3703SOL     OW12007   1.691   1.836   3.896
 3703SOL    HW112008   1.731   1.855   3.806
 3703SOL    HW212009   1.684   1.737   3.909
 3704SOL     OW12010   6.589   1.256   0.530
 3704SOL    HW112011   6.542   1.343   0.544
 3704SOL    HW212012   6.638   1.257   0.443
 3705SOL     OW12013   5.430   4.305   3.959
 3705SOL    HW112014   5.349   4.364   3.965
 3705SOL    HW212015   5.508   4.351   4.002
 3706SOL     OW12016   1.381   3.968   6.947
 3706SOL    HW112017   1.283   3.962   6.926
 3706SOL    HW212018   1.418   3.876   6.960
 3707SOL     OW12019   1.178   5.368   3.276
 3707SOL    HW112020   1.246   5.414   3.217
 3707SOL    HW212021   1.173   5.415   3.364
 3708SOL     OW12022   2.279   5.965   1.199
 3708SOL    HW112023   2.179   5.957   1.202
 3708SOL    HW212024   2.308   6.036   1.263
 3709SOL     OW12025   1.044   1.396   1.760
 3709SOL    HW112026   1.127   1.340   1.763
 3709SOL    HW212027   0.964   1.339   1.776
 3710SOL     OW12028   0.546   4.336   5.407
 3710SOL    HW112029   0.448   4.355   5.416
 3710SOL    HW212030   0.567   4.245   5.443
 3711SOL     OW12031   0.889   5.753   4.438
 3711SOL    HW112032   0.869   5.795   4.527
 3711SOL    HW212033   0.804   5.742   4.386
 3712SOL     OW12034   1.737   5.314   4.243
 3712SOL    HW112035   1.638   5.331   4.245
 3712SOL    HW212036   1.761   5.248   4.314
 3713SOL     OW12037   6.406   0.705   4.121
 3713SOL    HW112038   6.430   0.670   4.212
 3713SOL    HW212039   6.322   0.758   4.127
 3714SOL     OW12040   0.828   4.154   0.599
 3714SOL    HW112041   0.728   4.156   0.591
 3714SOL    HW212042   0.860   4.060   0.589
 3715SOL     OW12043   5.761   5.201   3.525
 3715SOL    HW112044   5.742   5.143   3.446
 3715SOL    HW212045   5.780   5.294   3.494
 3716SOL     OW12046   5.064   5.341   4.797
 3716SOL    HW112047   5.028   5.431   4.820
 3716SOL    HW212048   5.164   5.342   4.805
 3717SOL     OW12049   4.629   1.240   0.965
 3717SOL    HW112050   4.697   1.306   0.935
 3717SOL    HW212051   4.585   1.272   1.049
 3718SOL     OW12052   6.121   6.558   6.306
 3718SOL    HW112053   6.071   6.471   6.297
 3718SOL    HW212054   6.069   6.620   6.365
 3719SOL     OW12055   3.434   3.872   0.118
 3719SOL    HW112056   3.483   3.835   0.197
 3719SOL    HW212057   3.356   3.814   0.097
 3720SOL     OW12058   0.068   3.455   1.016
 3720SOL    HW112059   0.050   3.486   1.110
 3720SOL    HW212060   0.122   3.524   0.968
 3721SOL     OW12061   6.814   6.828   5.638
 3721SOL    HW112062   6.734   6.881   5.608
 3721SOL    HW212063   6.783   6.743   5.681
 3722SOL     OW12064   5.463   6.919   2.458
 3722SOL    HW112065   5.518   6.913   2.542
 3722SOL    HW212066   5.494   6.996   2.403
 3723SOL     OW12067   4.621   3.650   0.177
 3723SOL    HW112068   4.527   3.621   0.194
 3723SOL    HW212069   4.623   3.749   0.161
 3724SOL     OW12070   0.398   5.068   4.641
 3724SOL    HW112071   0.475   5.110   4.593
 3724SOL    HW212072   0.382   4.977   4.603
 3725SOL     OW12073   1.356   6.498   7.007
 3725SOL    HW112074   1.285   6.469   0.051
 3725SOL    HW212075   1.376   6.423   6.945
 3726SOL     OW12076   6.040   3.755   5.148
 3726SOL    HW112077   6.104   3.789   5.079
 3726SOL    HW212078   6.018   3.659   5.128
 3727SOL     OW12079   6.979   2.904   3.911
 3727SOL    HW112080   6.946   2.856   3.993
 3727SOL    HW212081   6.941   2.996   3.910
 3728SOL     OW12082   2.507   3.019   0.869
 3728SOL    HW112083   2.492   3.086   0.941
 3728SOL    HW212084   2.603   3.021   0.841
 3729SOL     OW12085   0.482   0.526   5.954
 3729SOL    HW112086   0.387   0.532   5.984
 3729SOL    HW212087   0.494   0.442   5.900
 3730SOL     OW12088   5.022   5.719   4.635
 3730SOL    HW112089   5.018   5.806   4.586
 3730SOL    HW212090   5.028   5.644   4.569
 3731SOL     OW12091   0.004   2.224   6.785
 3731SOL    HW112092   6.999   2.274   6.702
 3731SOL    HW212093   0.012   2.127   6.764
 3732SOL     OW12094   3.560   2.356   6.943
 3732SOL    HW112095   3.656   2.334   6.956
 3732SOL    HW212096   3.545   2.386   6.848
 3733SOL     OW12097   1.371   0.247   3.613
 3733SOL    HW112098   1.375   0.183   3.689
 3733SOL    HW212099   1.412   0.334   3.640
 3734SOL     OW12100   3.995   0.052   1.111
 3734SOL    HW112101   4.062   0.121   1.138
 3734SOL    HW212102   3.919   0.095   1.064
 3735SOL     OW12103   4.512   6.759   2.761
 3735SOL    HW112104   4.593   6.709   2.791
 3735SOL    HW212105   4.435   6.697   2.754
 3736SOL     OW12106   6.643   1.007   6.917
 3736SOL    HW112107   6.720   0.988   6.856
 3736SOL    HW212108   6.588   1.081   6.880
 3737SOL     OW12109   6.721   2.225   2.709
 3737SOL    HW112110   6.755   2.155   2.772
 3737SOL    HW212111   6.667   2.292   2.760
 3738SOL     OW12112   6.962   6.867   1.378
 3738SOL    HW112113   0.019   6.822   1.335
 3738SOL    HW212114   6.983   6.887   1.473
 3739SOL     OW12115   3.158   3.578   0.234
 3739SOL    HW112116   3.176   3.641   0.159
 3739SOL    HW212117   3.111   3.497   0.199
 3740SOL     OW12118   4.549   5.500   6.565
 3740SOL    HW112119   4.557   5.541   6.656
 3740SOL    HW212120   4.554   5.401   6.573
 3741SOL     OW12121   5.456   3.139   0.252
 3741SOL    HW112122   5.472   3.223   0.303
 3741SOL    HW212123   5.423   3.161   0.160
 3742SOL     OW12124   3.931   5.949   1.132
 3742SOL    HW112125   3.843   5.995   1.142
 3742SOL    HW212126   3.935   5.903   1.043
 3743SOL     OW12127   3.395   3.333   1.451
 3743SOL    HW112128   3.429   3.290   1.534
 3743SOL    HW212129   3.361   3.425   1.471
 3744SOL     OW12130   0.215   6.668   2.142
 3744SOL    HW112131   0.147   6.703   2.077
 3744SOL    HW212132   0.194   6.703   2.234
 3745SOL     OW12133   5.060   3.051   2.574
 3745SOL    HW112134   5.063   3.011   2.483
 3745SOL    HW212135   4.985   3.011   2.627
 3746SOL     OW12136   6.278   0.435   3.823
 3746SOL    HW112137   6.299   0.531   3.840
 3746SOL    HW212138   6.322   0.378   3.893
 3747SOL     OW12139   3.373   6.169   5.735
 3747SOL    HW112140   3.318   6.172   5.818
 3747SOL    HW212141   3.445   6.239   5.739
 3748SOL     OW12142   4.927   2.134   3.117
 3748SOL    HW112143   5.016   2.179   3.121
 3748SOL    HW212144   4.939   2.040   3.088
 3749SOL     OW12145   0.167   6.309   2.633
 3749SOL    HW112146   0.216   6.391   2.664
 3749SOL    HW212147   0.086   6.295   2.691
 3750SOL     OW12148   5.406   4.469   1.221
 3750SOL    HW112149   5.504   4.478   1.241
 3750SOL    HW212150   5.358   4.439   1.304
 3751SOL     OW12151   1.682   3.697   2.217
 3751SOL    HW112152   1.755   3.764   2.209
 3751SOL    HW212153   1.598   3.733   2.178
 3752SOL     OW12154   0.786   6.441   5.946
 3752SOL    HW112155   0.700   6.413   5.904
 3752SOL    HW212156   0.855   6.454   5.875
 3753SOL     OW12157   6.971   0.180   4.723
 3753SOL    HW112158   6.971   0.277   4.750
 3753SOL    HW212159   6.882   0.157   4.684
 3754SOL     OW12160   6.767   6.557   1.785
 3754SOL    HW112161   6.725   6.637   1.828
 3754SOL    HW212162   6.784   6.487   1.854
 3755SOL     OW12163   4.744   2.573   2.832
 3755SOL    HW112164   4.767   2.483   2.867
 3755SOL    HW212165   4.811   2.640   2.865
 3756SOL     OW12166   2.977   0.124   6.887
 3756SOL    HW112167   3.069   0.119   6.925
 3756SOL    HW212168   2.980   0.099   6.790
 3757SOL     OW12169   3.136   4.866   0.119
 3757SOL    HW112170   3.130   4.869   0.218
 3757SOL    HW212171   3.151   4.771   0.089
 3758SOL     OW12172   0.580   0.680   3.711
 3758SOL    HW112173   0.586   0.628   3.797
 3758SOL    HW212174   0.509   0.641   3.653
 3759SOL     OW12175   4.872   4.667   0.139
 3759SOL    HW112176   4.854   4.742   0.203
 3759SOL    HW212177   4.813   4.676   0.059
 3760SOL     OW12178   2.070   2.427   5.495
 3760SOL    HW112179   2.028   2.421   5.586
 3760SOL    HW212180   2.128   2.509   5.490
 3761SOL     OW12181   0.013   6.613   3.752
 3761SOL    HW112182   0.046   6.567   3.834
 3761SOL    HW212183   0.029   6.554   3.672
 3762SOL     OW12184   0.696   3.807   6.668
 3762SOL    HW112185   0.721   3.904   6.670
 3762SOL    HW212186   0.613   3.796   6.614
 3763SOL     OW12187   6.328   3.431   6.112
 3763SOL    HW112188   6.354   3.525   6.088
 3763SOL    HW212189   6.277   3.391   6.037
 3764SOL     OW12190   2.146   6.469   3.768
 3764SOL    HW112191   2.209   6.494   3.695
 3764SOL    HW212192   2.112   6.376   3.752
 3765SOL     OW12193   5.696   1.200   4.093
 3765SOL    HW112194   5.727   1.264   4.163
 3765SOL    HW212195   5.720   1.107   4.120
 3766SOL     OW12196   1.526   0.474   5.157
 3766SOL    HW112197   1.533   0.476   5.057
 3766SOL    HW212198   1.528   0.379   5.188
 3767SOL     OW12199   1.490   4.559   1.205
 3767SOL    HW112200   1.548   4.623   1.156
 3767SOL    HW212201   1.544   4.509   1.273
 3768SOL     OW12202   4.878   6.593   0.731
 3768SOL    HW112203   4.976   6.585   0.714
 3768SOL    HW212204   4.828   6.541   0.661
 3769SOL     OW12205   4.091   6.169   5.084
 3769SOL    HW112206   4.120   6.104   5.153
 3769SOL    HW212207   4.169   6.225   5.055
 3770SOL     OW12208   1.984   1.499   0.120
 3770SOL    HW112209   2.047   1.461   0.187
 3770SOL    HW212210   1.933   1.575   0.161
 3771SOL     OW12211   5.271   1.357   5.665
 3771SOL    HW112212   5.187   1.336   5.713
 3771SOL    HW212213   5.262   1.446   5.619
 3772SOL     OW12214   5.359   1.033   2.633
 3772SOL    HW112215   5.299   1.020   2.712
 3772SOL    HW212216   5.332   0.970   2.560
 3773SOL     OW12217   6.711   2.759   6.762
 3773SOL    HW112218   6.732   2.842   6.814
 3773SOL    HW212219   6.612   2.749   6.754
 3774SOL     OW12220   0.498   1.380   1.699
 3774SOL    HW112221   0.503   1.437   1.782
 3774SOL    HW212222   0.459   1.433   1.624
 3775SOL     OW12223   5.746   3.415   3.777
 3775SOL    HW112224   5.683   3.430   3.853
 3775SOL    HW212225   5.805   3.495   3.766
 3776SOL     OW12226   2.608   3.034   6.989
 3776SOL    HW112227   2.653   3.016   6.901
 3776SOL    HW212228   2.577   2.948   0.007
 3777SOL     OW12229   1.846   4.499   3.312
 3777SOL    HW112230   1.792   4.437   3.369
 3777SOL    HW212231   1.803   4.589   3.311
 3778SOL     OW12232   2.343   6.686   2.244
 3778SOL    HW112233   2.244   6.699   2.237
 3778SOL    HW212234   2.376   6.729   2.328
 3779SOL     OW12235   2.998   4.969   6.477
 3779SOL    HW112236   2.971   4.969   6.573
 3779SOL    HW212237   2.920   4.941   6.420
 3780SOL     OW12238   3.069   0.010   4.508
 3780SOL    HW112239   3.009   0.035   4.584
 3780SOL    HW212240   3.124   6.951   4.534
 3781SOL     OW12241   3.266   5.409   4.984
 3781SOL    HW112242   3.179   5.362   4.997
 3781SOL    HW212243   3.295   5.400   4.889
 3782SOL     OW12244   1.843   1.950   3.175
 3782SOL    HW112245   1.801   1.871   3.219
 3782SOL    HW212246   1.942   1.944   3.183
 3783SOL     OW12247   4.770   5.430   5.889
 3783SOL    HW112248   4.852   5.378   5.915
 3783SOL    HW212249   4.782   5.466   5.796
 3784SOL     OW12250   4.754   1.091   3.508
 3784SOL    HW112251   4.730   1.010   3.562
 3784SOL    HW212252   4.835   1.071   3.453
 3785SOL     OW12253   1.573   1.772   1.588
 3785SOL    HW112254   1.509   1.796   1.661
 3785SOL    HW212255   1.575   1.673   1.576
 3786SOL     OW12256   3.166   5.239   2.602
 3786SOL    HW112257   3.147   5.333   2.572
 3786SOL    HW212258   3.164   5.178   2.522
 3787SOL     OW12259   3.865   1.540   4.078
 3787SOL    HW112260   3.829   1.544   3.985
 3787SOL    HW212261   3.960   1.510   4.076
 3788SOL     OW12262   6.022   3.408   2.365
 3788SOL    HW112263   6.023   3.491   2.421
 3788SOL    HW212264   5.981   3.429   2.276
 3789SOL     OW12265   1.271   4.847   2.677
 3789SOL    HW112266   1.274   4.810   2.585
 3789SOL    HW212267   1.194   4.911   2.684
 3790SOL     OW12268   2.124   3.583   4.016
 3790SOL    HW112269   2.049   3.552   3.959
 3790SOL    HW212270   2.124   3.683   4.019
 3791SOL     OW12271   5.101   0.160   2.207
 3791SOL    HW112272   5.126   0.208   2.122
 3791SOL    HW212273   5.145   0.206   2.284
 3792SOL     OW12274   0.056   6.959   5.628
 3792SOL    HW112275   0.127   6.901   5.668
 3792SOL    HW212276   6.988   6.915   5.639
 3793SOL     OW12277   2.221   0.254   2.415
 3793SOL    HW112278   2.157   0.183   2.385
 3793SOL    HW212279   2.171   0.324   2.465
 3794SOL     OW12280   4.245   6.507   2.437
 3794SOL    HW112281   4.233   6.594   2.484
 3794SOL    HW212282   4.245   6.522   2.338
 3795SOL     OW12283   4.598   6.880   0.196
 3795SOL    HW112284   4.643   6.942   0.261
 3795SOL    HW212285   4.646   6.884   0.108
 3796SOL     OW12286   1.729   2.784   1.715
 3796SOL    HW112287   1.820   2.743   1.709
 3796SOL    HW212288   1.666   2.718   1.755
 3797SOL     OW12289   0.277   5.449   2.463
 3797SOL    HW112290   0.259   5.538   2.421
 3797SOL    HW212291   0.369   5.449   2.502
 3798SOL     OW12292   1.632   4.018   2.196
 3798SOL    HW112293   1.598   4.111   2.212
 3798SOL    HW212294   1.731   4.015   2.212
 3799SOL     OW12295   1.765   0.228   5.299
 3799SOL    HW112296   1.733   0.246   5.392
 3799SOL    HW212297   1.835   0.295   5.274
 3800SOL     OW12298   4.842   2.786   4.720
 3800SOL    HW112299   4.941   2.786   4.709
 3800SOL    HW212300   4.803   2.713   4.664
 3801SOL     OW12301   7.012   0.198   6.646
 3801SOL    HW112302   0.069   0.175   6.586
 3801SOL    HW212303   0.015   0.178   6.741
 3802SOL     OW12304   1.702   2.468   5.180
 3802SOL    HW112305   1.729   2.379   5.142
 3802SOL    HW212306   1.624   2.504   5.129
 3803SOL     OW12307   3.869   1.463   1.067
 3803SOL    HW112308   3.968   1.470   1.067
 3803SOL    HW212309   3.841   1.378   1.024
 3804SOL     OW12310   4.735   2.357   5.663
 3804SOL    HW112311   4.703   2.266   5.635
 3804SOL    HW212312   4.663   2.424   5.644
 3805SOL     OW12313   2.088   3.723   1.288
 3805SOL    HW112314   2.157   3.755   1.353
 3805SOL    HW212315   1.997   3.740   1.325
 3806SOL     OW12316   2.581   1.751   0.299
 3806SOL    HW112317   2.630   1.702   0.226
 3806SOL    HW212318   2.482   1.738   0.286
 3807SOL     OW12319   1.287   6.666   3.210
 3807SOL    HW112320   1.228   6.705   3.139
 3807SOL    HW212321   1.277   6.567   3.211
 3808SOL     OW12322   3.379   0.566   1.536
 3808SOL    HW112323   3.349   0.531   1.625
 3808SOL    HW212324   3.312   0.539   1.466
 3809SOL     OW12325   4.565   0.660   6.281
 3809SOL    HW112326   4.511   0.612   6.211
 3809SOL    HW212327   4.590   0.595   6.353
 3810SOL     OW12328   2.792   3.204   5.231
 3810SOL    HW112329   2.785   3.274   5.302
 3810SOL    HW212330   2.700   3.170   5.210
 3811SOL     OW12331   0.750   6.268   6.414
 3811SOL    HW112332   0.653   6.293   6.418
 3811SOL    HW212333   0.793   6.314   6.336
 3812SOL     OW12334   5.416   1.198   5.288
 3812SOL    HW112335   5.389   1.165   5.379
 3812SOL    HW212336   5.407   1.124   5.222
 3813SOL     OW12337   3.909   4.768   1.828
 3813SOL    HW112338   3.902   4.862   1.862
 3813SOL    HW212339   3.821   4.722   1.836
 3814SOL     OW12340   1.394   6.566   2.241
 3814SOL    HW112341   1.493   6.559   2.231
 3814SOL    HW212342   1.355   6.474   2.250
 3815SOL     OW12343   5.507   2.360   1.534
 3815SOL    HW112344   5.536   2.356   1.439
 3815SOL    HW212345   5.438   2.289   1.551
 3816SOL     OW12346   0.526   6.604   1.422
 3816SOL    HW112347   0.525   6.600   1.322
 3816SOL    HW212348   0.616   6.632   1.453
 3817SOL     OW12349   5.114   1.955   5.459
 3817SOL    HW112350   5.141   1.958   5.555
 3817SOL    HW212351   5.079   1.864   5.437
 3818SOL     OW12352   5.353   5.213   2.661
 3818SOL    HW112353   5.343   5.313   2.666
 3818SOL    HW212354   5.443   5.190   2.626
 3819SOL     OW12355   5.406   4.409   6.030
 3819SOL    HW112356   5.474   4.339   6.004
 3819SOL    HW212357   5.440   4.462   6.107
 3820SOL     OW12358   5.359   6.478   4.103
 3820SOL    HW112359   5.329   6.557   4.156
 3820SOL    HW212360   5.296   6.462   4.027
 3821SOL     OW12361   0.691   3.901   1.960
 3821SOL    HW112362   0.690   3.922   2.058
 3821SOL    HW212363   0.751   3.966   1.913
 3822SOL     OW12364   1.949   4.967   2.141
 3822SOL    HW112365   1.864   4.995   2.186
 3822SOL    HW212366   2.024   5.024   2.173
 3823SOL     OW12367   3.110   2.851   5.275
 3823SOL    HW112368   3.210   2.841   5.270
 3823SOL    HW212369   3.079   2.914   5.205
 3824SOL     OW12370   0.239   2.379   6.461
 3824SOL    HW112371   0.187   2.459   6.430
 3824SOL    HW212372   0.208   2.298   6.410
 3825SOL     OW12373   6.669   0.120   6.295
 3825SOL    HW112374   6.636   0.077   6.379
 3825SOL    HW212375   6.591   0.158   6.244
 3826SOL     OW12376   6.906   2.234   1.431
 3826SOL    HW112377   6.976   2.250   1.362
 3826SOL    HW212378   6.876   2.139   1.427
 3827SOL     OW12379   4.470   3.600   0.778
 3827SOL    HW112380   4.515   3.510   0.774
 3827SOL    HW212381   4.538   3.672   0.765
 3828SOL     OW12382   4.131   1.207   1.894
 3828SOL    HW112383   4.056   1.206   1.829
 3828SOL    HW212384   4.147   1.301   1.925
 3829SOL     OW12385   1.581   5.634   3.100
 3829SOL    HW112386   1.575   5.555   3.039
 3829SOL    HW212387   1.495   5.645   3.149
 3830SOL     OW12388   2.804   0.209   4.824
 3830SOL    HW112389   2.862   0.237   4.747
 3830SOL    HW212390   2.833   0.257   4.907
 3831SOL     OW12391   4.200   1.494   2.004
 3831SOL    HW112392   4.133   1.480   2.077
 3831SOL    HW212393   4.160   1.552   1.933
 3832SOL     OW12394   5.719   0.107   2.672
 3832SOL    HW112395   5.729   0.021   2.622
 3832SOL    HW212396   5.676   0.090   2.760
 3833SOL     OW12397   1.150   5.262   6.667
 3833SOL    HW112398   1.135   5.340   6.728
 3833SOL    HW212399   1.149   5.293   6.572
 3834SOL     OW12400   2.325   2.262   0.875
 3834SOL    HW112401   2.325   2.334   0.805
 3834SOL    HW212402   2.417   2.252   0.913
 3835SOL     OW12403   3.480   6.232   4.282
 3835SOL    HW112404   3.574   6.256   4.257
 3835SOL    HW212405   3.417   6.269   4.215
 3836SOL     OW12406   1.559   3.275   5.268
 3836SOL    HW112407   1.509   3.206   5.321
 3836SOL    HW212408   1.514   3.363   5.277
 3837SOL     OW12409   3.420   3.308   0.169
 3837SOL    HW112410   3.332   3.263   0.186
 3837SOL    HW212411   3.425   3.393   0.221
 3838SOL     OW12412   5.914   3.650   5.509
 3838SOL    HW112413   5.864   3.616   5.588
 3838SOL    HW212414   5.991   3.589   5.489
 3839SOL     OW12415   6.268   6.272   6.061
 3839SOL    HW112416   6.228   6.181   6.076
 3839SOL    HW212417   6.233   6.309   5.975
 3840SOL     OW12418   2.504   0.420   3.697
 3840SOL    HW112419   2.431   0.371   3.649
 3840SOL    HW212420   2.532   0.367   3.777
 3841SOL     OW12421   0.177   3.658   4.627
 3841SOL    HW112422   0.229   3.592   4.682
 3841SOL    HW212423   0.152   3.736   4.684
 3842SOL     OW12424   1.001   5.077   6.790
 3842SOL    HW112425   1.055   5.136   6.729
 3842SOL    HW212426   0.950   5.011   6.735
 3843SOL     OW12427   6.002   4.289   1.003
 3843SOL    HW112428   5.965   4.326   0.917
 3843SOL    HW212429   5.955   4.203   1.024
 3844SOL     OW12430   2.201   4.127   6.612
 3844SOL    HW112431   2.235   4.110   6.519
 3844SOL    HW212432   2.242   4.060   6.674
 3845SOL     OW12433   3.314   3.533   3.849
 3845SOL    HW112434   3.332   3.631   3.838
 3845SOL    HW212435   3.293   3.514   3.945
 3846SOL     OW12436   6.821   4.222   3.613
 3846SOL    HW112437   6.886   4.200   3.541
 3846SOL    HW212438   6.853   4.304   3.662
 3847SOL     OW12439   0.904   0.261   0.319
 3847SOL    HW112440   0.929   0.172   0.280
 3847SOL    HW212441   0.987   0.309   0.348
 3848SOL     OW12442   3.077   5.024   0.643
 3848SOL    HW112443   3.176   5.016   0.655
 3848SOL    HW212444   3.047   4.959   0.573
 3849SOL     OW12445   2.469   2.198   5.851
 3849SOL    HW112446   2.549   2.139   5.863
 3849SOL    HW212447   2.421   2.207   5.938
 3850SOL     OW12448   2.507   3.605   1.440
 3850SOL    HW112449   2.488   3.618   1.342
 3850SOL    HW212450   2.558   3.684   1.475
 3851SOL     OW12451   2.297   2.660   1.615
 3851SOL    HW112452   2.227   2.652   1.544
 3851SOL    HW212453   2.388   2.649   1.573
 3852SOL     OW12454   4.771   0.849   6.012
 3852SOL    HW112455   4.823   0.784   5.957
 3852SOL    HW212456   4.692   0.882   5.959
 3853SOL     OW12457   1.579   2.820   2.455
 3853SOL    HW112458   1.488   2.807   2.416
 3853SOL    HW212459   1.620   2.731   2.475
 3854SOL     OW12460   1.174   2.938   4.748
 3854SOL    HW112461   1.146   2.990   4.829
 3854SOL    HW212462   1.094   2.916   4.692
 3855SOL     OW12463   6.874   1.988   5.275
 3855SOL    HW112464   6.867   1.890   5.255
 3855SOL    HW212465   6.836   2.040   5.198
 3856SOL     OW12466   0.802   6.535   5.353
 3856SOL    HW112467   0.744   6.514   5.432
 3856SOL    HW212468   0.752   6.596   5.291
 3857SOL     OW12469   0.754   0.009   6.171
 3857SOL    HW112470   0.816   0.005   6.093
 3857SOL    HW212471   0.801   0.052   6.249
 3858SOL     OW12472   2.314   5.127   6.541
 3858SOL    HW112473   2.246   5.122   6.614
 3858SOL    HW212474   2.396   5.174   6.575
 3859SOL     OW12475   6.572   2.307   1.853
 3859SOL    HW112476   6.638   2.303   1.779
 3859SOL    HW212477   6.525   2.395   1.852
 3860SOL     OW12478   1.895   6.553   5.001
 3860SOL    HW112479   1.925   6.484   4.934
 3860SOL    HW212480   1.910   6.644   4.964
 3861SOL     OW12481   4.511   4.823   1.087
 3861SOL    HW112482   4.597   4.815   1.036
 3861SOL    HW212483   4.478   4.732   1.112
 3862SOL     OW12484   1.192   5.060   5.931
 3862SOL    HW112485   1.282   5.040   5.891
 3862SOL    HW212486   1.128   5.084   5.858
 3863SOL     OW12487   3.279   3.203   0.878
 3863SOL    HW112488   3.264   3.128   0.943
 3863SOL    HW212489   3.287   3.165   0.786
 3864SOL     OW12490   3.057   1.813   7.000
 3864SOL    HW112491   3.090   1.760   6.922
 3864SOL    HW212492   2.963   1.786   0.001
 3865SOL     OW12493   4.523   0.608   2.247
 3865SOL    HW112494   4.547   0.511   2.240
 3865SOL    HW212495   4.464   0.632   2.170
 3866SOL     OW12496   3.942   6.146   6.045
 3866SOL    HW112497   4.009   6.072   6.042
 3866SOL    HW212498   3.947   6.192   6.134
 3867SOL     OW12499   1.887   4.053   3.881
 3867SOL    HW112500   1.844   3.982   3.825
 3867SOL    HW212501   1.819   4.120   3.908
 3868SOL     OW12502   1.516   5.430   2.419
 3868SOL    HW112503   1.443   5.373   2.455
 3868SOL    HW212504   1.587   5.441   2.489
 3869SOL     OW12505   1.615   1.580   4.007
 3869SOL    HW112506   1.595   1.507   3.942
 3869SOL    HW212507   1.529   1.616   4.045
 3870SOL     OW12508   4.059   4.085   0.655
 3870SOL    HW112509   4.095   4.041   0.737
 3870SOL    HW212510   4.039   4.181   0.675
 3871SOL     OW12511   2.907   1.598   4.598
 3871SOL    HW112512   2.903   1.694   4.625
 3871SOL    HW212513   2.845   1.545   4.656
 3872SOL     OW12514   4.317   3.686   0.439
 3872SOL    HW112515   4.285   3.602   0.482
 3872SOL    HW212516   4.366   3.742   0.507
 3873SOL     OW12517   5.211   4.489   1.697
 3873SOL    HW112518   5.236   4.436   1.616
 3873SOL    HW212519   5.216   4.587   1.677
 3874SOL     OW12520   4.920   5.777   6.386
 3874SOL    HW112521   4.944   5.771   6.483
 3874SOL    HW212522   4.839   5.721   6.368
 3875SOL     OW12523   2.115   4.251   0.413
 3875SOL    HW112524   2.174   4.227   0.490
 3875SOL    HW212525   2.117   4.177   0.345
 3876SOL     OW12526   5.323   4.194   2.322
 3876SOL    HW112527   5.412   4.159   2.294
 3876SOL    HW212528   5.336   4.277   2.376
 3877SOL     OW12529   5.713   1.200   2.426
 3877SOL    HW112530   5.803   1.236   2.400
 3877SOL    HW212531   5.707   1.104   2.400
 3878SOL     OW12532   4.124   6.031   4.616
 3878SOL    HW112533   4.075   6.005   4.700
 3878SOL    HW212534   4.209   5.979   4.609
 3879SOL     OW12535   2.999   5.866   1.358
 3879SOL    HW112536   3.050   5.789   1.395
 3879SOL    HW212537   2.987   5.853   1.259
 3880SOL     OW12538   5.274   2.548   3.911
 3880SOL    HW112539   5.279   2.615   3.985
 3880SOL    HW212540   5.361   2.546   3.861
 3881SOL     OW12541   1.438   5.179   1.227
 3881SOL    HW112542   1.513   5.116   1.243
 3881SOL    HW212543   1.415   5.181   1.130
 3882SOL     OW12544   1.079   5.965   6.170
 3882SOL    HW112545   1.010   6.002   6.108
 3882SOL    HW212546   1.066   6.003   6.261
 3883SOL     OW12547   3.217   1.631   6.461
 3883SOL    HW112548   3.221   1.585   6.550
 3883SOL    HW212549   3.239   1.728   6.472
 3884SOL     OW12550   1.976   4.968   5.446
 3884SOL    HW112551   2.040   4.913   5.499
 3884SOL    HW212552   2.025   5.045   5.405
 3885SOL     OW12553   0.053   1.619   5.399
 3885SOL    HW112554   6.989   1.642   5.447
 3885SOL    HW212555   0.115   1.571   5.461
 3886SOL     OW12556   0.156   6.086   5.213
 3886SOL    HW112557   0.176   5.996   5.252
 3886SOL    HW212558   0.082   6.129   5.265
 3887SOL     OW12559   5.265   3.389   4.922
 3887SOL    HW112560   5.233   3.382   4.828
 3887SOL    HW212561   5.341   3.454   4.927
 3888SOL     OW12562   5.675   2.058   1.756
 3888SOL    HW112563   5.757   2.114   1.744
 3888SOL    HW212564   5.686   1.971   1.708
 3889SOL     OW12565   0.069   5.642   0.025
 3889SOL    HW112566   0.049   5.545   0.041
 3889SOL    HW212567   0.093   5.656   6.950
 3890SOL     OW12568   6.705   3.405   2.772
 3890SOL    HW112569   6.642   3.343   2.819
 3890SOL    HW212570   6.734   3.365   2.685
 3891SOL     OW12571   6.223   5.061   6.261
 3891SOL    HW112572   6.169   5.018   6.190
 3891SOL    HW212573   6.170   5.134   6.304
 3892SOL     OW12574   5.464   5.404   4.321
 3892SOL    HW112575   5.420   5.454   4.247
 3892SOL    HW212576   5.465   5.306   4.300
 3893SOL     OW12577   3.185   5.882   4.060
 3893SOL    HW112578   3.118   5.856   4.130
 3893SOL    HW212579   3.223   5.972   4.083
 3894SOL     OW12580   4.968   5.650   0.056
 3894SOL    HW112581   4.980   5.621   6.982
 3894SOL    HW212582   4.943   5.747   0.058
 3895SOL     OW12583   1.979   2.457   5.752
 3895SOL    HW112584   1.953   2.375   5.803
 3895SOL    HW212585   1.899   2.494   5.705
 3896SOL     OW12586   6.434   2.603   6.093
 3896SOL    HW112587   6.353   2.608   6.151
 3896SOL    HW212588   6.515   2.625   6.148
 3897SOL     OW12589   3.231   6.564   3.272
 3897SOL    HW112590   3.219   6.470   3.239
 3897SOL    HW212591   3.301   6.566   3.343
 3898SOL     OW12592   2.910   3.556   4.770
 3898SOL    HW112593   2.850   3.477   4.775
 3898SOL    HW212594   2.993   3.537   4.823
 3899SOL     OW12595   4.753   1.892   4.764
 3899SOL    HW112596   4.738   1.799   4.796
 3899SOL    HW212597   4.692   1.955   4.813
 3900SOL     OW12598   6.871   2.535   4.362
 3900SOL    HW112599   6.957   2.525   4.412
 3900SOL    HW212600   6.889   2.528   4.263
 3901SOL     OW12601   2.780   5.624   4.861
 3901SOL    HW112602   2.853   5.587   4.803
 3901SOL    HW212603   2.761   5.559   4.935
 3902SOL     OW12604   4.247   4.634   2.621
 3902SOL    HW112605   4.301   4.600   2.698
 3902SOL    HW212606   4.273   4.584   2.538
 3903SOL     OW12607   4.759   3.220   5.887
 3903SOL    HW112608   4.804   3.140   5.846
 3903SOL    HW212609   4.661   3.216   5.870
 3904SOL     OW12610   2.540   6.493   0.764
 3904SOL    HW112611   2.546   6.584   0.806
 3904SOL    HW212612   2.590   6.427   0.821
 3905SOL     OW12613   6.072   0.678   6.192
 3905SOL    HW112614   5.978   0.650   6.210
 3905SOL    HW212615   6.122   0.602   6.149
 3906SOL     OW12616   6.988   6.164   4.640
 3906SOL    HW112617   7.020   6.108   4.716
 3906SOL    HW212618   0.003   6.257   4.650
 3907SOL     OW12619   0.531   1.684   5.058
 3907SOL    HW112620   0.525   1.729   5.147
 3907SOL    HW212621   0.620   1.640   5.048
 3908SOL     OW12622   2.560   0.759   4.344
 3908SOL    HW112623   2.620   0.774   4.265
 3908SOL    HW212624   2.500   0.837   4.356
 3909SOL     OW12625   5.099   2.886   1.313
 3909SOL    HW112626   5.180   2.940   1.330
 3909SOL    HW212627   5.059   2.856   1.400
 3910SOL     OW12628   3.081   2.410   0.706
 3910SOL    HW112629   3.026   2.382   0.785
 3910SOL    HW212630   3.177   2.421   0.735
 3911SOL     OW12631   6.845   0.698   1.597
 3911SOL    HW112632   6.866   0.673   1.692
 3911SOL    HW212633   6.879   0.626   1.536
 3912SOL     OW12634   4.213   4.223   0.215
 3912SOL    HW112635   4.305   4.253   0.239
 3912SOL    HW212636   4.147   4.268   0.275
 3913SOL     OW12637   4.252   5.454   1.190
 3913SOL    HW112638   4.286   5.369   1.151
 3913SOL    HW212639   4.234   5.440   1.288
 3914SOL     OW12640   6.492   2.424   6.763
 3914SOL    HW112641   6.438   2.350   6.804
 3914SOL    HW212642   6.588   2.396   6.758
 3915SOL     OW12643   5.345   0.528   5.508
 3915SOL    HW112644   5.378   0.614   5.548
 3915SOL    HW212645   5.399   0.507   5.426
 3916SOL     OW12646   2.056   2.412   2.666
 3916SOL    HW112647   1.978   2.350   2.678
 3916SOL    HW212648   2.139   2.358   2.654
 3917SOL     OW12649   3.755   4.899   2.156
 3917SOL    HW112650   3.830   4.931   2.099
 3917SOL    HW212651   3.678   4.873   2.097
 3918SOL     OW12652   4.937   0.095   0.615
 3918SOL    HW112653   4.942   0.135   0.524
 3918SOL    HW212654   4.922   0.167   0.683
 3919SOL     OW12655   5.042   5.905   3.472
 3919SOL    HW112656   5.017   5.833   3.537
 3919SOL    HW212657   5.081   5.863   3.390
 3920SOL     OW12658   2.875   1.647   5.347
 3920SOL    HW112659   2.798   1.711   5.343
 3920SOL    HW212660   2.957   1.691   5.311
 3921SOL     OW12661   1.502   3.432   6.245
 3921SOL    HW112662   1.463   3.525   6.247
 3921SOL    HW212663   1.600   3.437   6.226
 3922SOL     OW12664   4.850   3.394   3.588
 3922SOL    HW112665   4.847   3.492   3.570
 3922SOL    HW212666   4.764   3.352   3.559
 3923SOL     OW12667   5.680   1.775   1.315
 3923SOL    HW112668   5.680   1.682   1.281
 3923SOL    HW212669   5.588   1.800   1.346
 3924SOL     OW12670   4.796   4.833   4.566
 3924SOL    HW112671   4.749   4.909   4.522
 3924SOL    HW212672   4.729   4.766   4.598
 3925SOL     OW12673   4.906   5.726   1.337
 3925SOL    HW112674   4.943   5.817   1.355
 3925SOL    HW212675   4.843   5.730   1.260
 3926SOL     OW12676   0.810   5.735   5.203
 3926SOL    HW112677   0.889   5.791   5.229
 3926SOL    HW212678   0.783   5.757   5.110
 3927SOL     OW12679   5.834   1.597   5.528
 3927SOL    HW112680   5.746   1.587   5.574
 3927SOL    HW212681   5.890   1.665   5.577
 3928SOL     OW12682   3.741   5.546   2.503
 3928SOL    HW112683   3.806   5.622   2.503
 3928SOL    HW212684   3.757   5.487   2.582
 3929SOL     OW12685   0.838   1.638   5.769
 3929SOL    HW112686   0.916   1.581   5.793
 3929SOL    HW212687   0.833   1.717   5.831
 3930SOL     OW12688   1.246   5.236   3.652
 3930SOL    HW112689   1.310   5.175   3.697
 3930SOL    HW212690   1.269   5.331   3.673
 3931SOL     OW12691   1.360   2.202   0.133
 3931SOL    HW112692   1.302   2.192   0.052
 3931SOL    HW212693   1.303   2.207   0.215
 3932SOL     OW12694   2.314   4.335   2.866
 3932SOL    HW112695   2.286   4.332   2.770
 3932SOL    HW212696   2.361   4.250   2.890
 3933SOL     OW12697   2.148   5.647   1.433
 3933SOL    HW112698   2.109   5.558   1.410
 3933SOL    HW212699   2.243   5.651   1.402
 3934SOL     OW12700   2.215   6.845   1.295
 3934SOL    HW112701   2.119   6.829   1.317
 3934SOL    HW212702   2.272   6.821   1.373
 3935SOL     OW12703   0.254   3.457   4.838
 3935SOL    HW112704   0.187   3.393   4.800
 3935SOL    HW212705   0.335   3.457   4.779
 3936SOL     OW12706   0.272   4.339   5.064
 3936SOL    HW112707   0.320   4.414   5.110
 3936SOL    HW212708   0.291   4.253   5.111
 3937SOL     OW12709   1.161   6.519   0.567
 3937SOL    HW112710   1.073   6.506   0.612
 3937SOL    HW212711   1.166   6.461   0.485
 3938SOL     OW12712   0.321   3.089   0.532
 3938SOL    HW112713   0.225   3.066   0.542
 3938SOL    HW212714   0.359   3.111   0.622
 3939SOL     OW12715   1.426   6.350   3.405
 3939SOL    HW112716   1.420   6.267   3.460
 3939SOL    HW212717   1.409   6.430   3.463
 3940SOL     OW12718   2.826   5.493   6.804
 3940SOL    HW112719   2.852   5.525   6.713
 3940SOL    HW212720   2.729   5.466   6.803
 3941SOL     OW12721   4.943   5.826   2.520
 3941SOL    HW112722   4.940   5.869   2.429
 3941SOL    HW212723   4.966   5.895   2.588
 3942SOL     OW12724   6.543   6.607   6.457
 3942SOL    HW112725   6.505   6.520   6.428
 3942SOL    HW212726   6.571   6.660   6.378
 3943SOL     OW12727   2.211   3.087   6.744
 3943SOL    HW112728   2.252   3.156   6.803
 3943SOL    HW212729   2.260   3.000   6.754
 3944SOL     OW12730   4.181   3.166   6.819
 3944SOL    HW112731   4.173   3.245   6.880
 3944SOL    HW212732   4.277   3.146   6.802
 3945SOL     OW12733   5.528   0.665   3.558
 3945SOL    HW112734   5.433   0.636   3.569
 3945SOL    HW212735   5.561   0.704   3.644
 3946SOL     OW12736   0.460   3.274   0.219
 3946SOL    HW112737   0.407   3.221   0.153
 3946SOL    HW212738   0.478   3.366   0.182
 3947SOL     OW12739   5.402   6.579   2.257
 3947SOL    HW112740   5.381   6.528   2.174
 3947SOL    HW212741   5.318   6.618   2.295
 3948SOL     OW12742   1.774   2.227   5.099
 3948SOL    HW112743   1.853   2.175   5.065
 3948SOL    HW212744   1.692   2.171   5.094
 3949SOL     OW12745   6.637   6.915   2.202
 3949SOL    HW112746   6.583   6.999   2.199
 3949SOL    HW212747   6.586   6.844   2.249
 3950SOL     OW12748   3.070   4.586   1.624
 3950SOL    HW112749   3.076   4.515   1.554
 3950SOL    HW212750   3.041   4.546   1.711
 3951SOL     OW12751   0.796   2.701   4.168
 3951SOL    HW112752   0.731   2.649   4.224
 3951SOL    HW212753   0.752   2.785   4.136
 3952SOL     OW12754   5.789   4.295   6.873
 3952SOL    HW112755   5.802   4.393   6.865
 3952SOL    HW212756   5.878   4.249   6.864
 3953SOL     OW12757   3.064   3.811   5.943
 3953SOL    HW112758   3.062   3.855   5.854
 3953SOL    HW212759   3.068   3.711   5.931
 3954SOL     OW12760   0.688   3.313   4.999
 3954SOL    HW112761   0.756   3.266   5.055
 3954SOL    HW212762   0.654   3.393   5.049
 3955SOL     OW12763   5.961   3.990   0.146
 3955SOL    HW112764   5.898   3.944   0.083
 3955SOL    HW212765   5.932   3.974   0.240
 3956SOL     OW12766   6.468   2.913   5.536
 3956SOL    HW112767   6.404   2.841   5.509
 3956SOL    HW212768   6.522   2.941   5.456
 3957SOL     OW12769   0.624   2.007   1.825
 3957SOL    HW112770   0.659   1.915   1.806
 3957SOL    HW212771   0.643   2.030   1.921
 3958SOL     OW12772   5.459   6.288   0.762
 3958SOL    HW112773   5.472   6.387   0.760
 3958SOL    HW212774   5.528   6.245   0.704
 3959SOL     OW12775   2.049   4.988   1.848
 3959SOL    HW112776   2.034   4.956   1.942
 3959SOL    HW212777   1.968   5.038   1.817
 3960SOL     OW12778   4.848   3.449   0.863
 3960SOL    HW112779   4.795   3.427   0.781
 3960SOL    HW212780   4.872   3.546   0.863
 3961SOL     OW12781   6.481   0.447   1.339
 3961SOL    HW112782   6.461   0.373   1.404
 3961SOL    HW212783   6.539   0.412   1.266
 3962SOL     OW12784   0.499   0.003   6.037
 3962SOL    HW112785   0.586   0.004   6.085
 3962SOL    HW212786   0.496   0.080   5.972
 3963SOL     OW12787   5.200   4.435   3.988
 3963SOL    HW112788   5.149   4.392   4.061
 3963SOL    HW212789   5.140   4.495   3.935
 3964SOL     OW12790   5.721   5.838   0.283
 3964SOL    HW112791   5.650   5.795   0.339
 3964SOL    HW212792   5.690   5.929   0.254
 3965SOL     OW12793   3.672   3.557   1.137
 3965SOL    HW112794   3.587   3.509   1.160
 3965SOL    HW212795   3.650   3.641   1.087
 3966SOL     OW12796   6.605   4.139   5.614
 3966SOL    HW112797   6.639   4.114   5.523
 3966SOL    HW212798   6.537   4.212   5.605
 3967SOL     OW12799   1.758   6.635   0.096
 3967SOL    HW112800   1.739   6.730   0.123
 3967SOL    HW212801   1.814   6.634   0.013
 3968SOL     OW12802   5.108   2.277   1.048
 3968SOL    HW112803   5.080   2.353   1.107
 3968SOL    HW212804   5.054   2.197   1.070
 3969SOL     OW12805   0.132   6.147   0.872
 3969SOL    HW112806   0.123   6.229   0.929
 3969SOL    HW212807   0.160   6.070   0.928
 3970SOL     OW12808   5.062   4.269   4.211
 3970SOL    HW112809   5.005   4.227   4.282
 3970SOL    HW212810   5.052   4.219   4.126
 3971SOL     OW12811   6.813   6.169   3.852
 3971SOL    HW112812   6.783   6.201   3.762
 3971SOL    HW212813   6.733   6.148   3.909
 3972SOL     OW12814   1.159   0.263   5.969
 3972SOL    HW112815   1.073   0.269   6.020
 3972SOL    HW212816   1.141   0.274   5.871
 3973SOL     OW12817   3.179   3.287   3.433
 3973SOL    HW112818   3.154   3.288   3.337
 3973SOL    HW212819   3.113   3.231   3.484
 3974SOL     OW12820   5.469   1.106   6.838
 3974SOL    HW112821   5.510   1.153   6.759
 3974SOL    HW212822   5.469   1.007   6.822
 3975SOL     OW12823   0.172   6.391   5.393
 3975SOL    HW112824   0.110   6.432   5.460
 3975SOL    HW212825   0.154   6.429   5.303
 3976SOL     OW12826   0.612   2.639   6.597
 3976SOL    HW112827   0.521   2.664   6.563
 3976SOL    HW212828   0.669   2.721   6.603
 3977SOL     OW12829   2.853   5.837   4.661
 3977SOL    HW112830   2.835   5.772   4.587
 3977SOL    HW212831   2.914   5.795   4.729
 3978SOL     OW12832   6.418   3.767   0.046
 3978SOL    HW112833   6.424   3.839   0.115
 3978SOL    HW212834   6.333   3.778   7.015
 3979SOL     OW12835   1.519   6.828   3.192
 3979SOL    HW112836   1.432   6.784   3.216
 3979SOL    HW212837   1.582   6.760   3.154
 3980SOL     OW12838   4.819   3.806   4.110
 3980SOL    HW112839   4.772   3.774   4.193
 3980SOL    HW212840   4.870   3.731   4.069
 3981SOL     OW12841   6.908   1.570   5.873
 3981SOL    HW112842   6.860   1.658   5.870
 3981SOL    HW212843   6.999   1.584   5.913
 3982SOL     OW12844   1.975   3.028   4.241
 3982SOL    HW112845   1.978   3.118   4.197
 3982SOL    HW212846   2.056   3.017   4.299
 3983SOL     OW12847   2.913   6.813   4.012
 3983SOL    HW112848   2.936   6.718   3.992
 3983SOL    HW212849   2.830   6.838   3.963
 3984SOL     OW12850   2.028   6.131   1.894
 3984SOL    HW112851   2.019   6.091   1.985
 3984SOL    HW212852   2.077   6.218   1.900
 3985SOL     OW12853   2.026   2.794   1.823
 3985SOL    HW112854   2.035   2.892   1.804
 3985SOL    HW212855   2.113   2.759   1.858
 3986SOL     OW12856   0.902   2.208   2.078
 3986SOL    HW112857   0.922   2.306   2.075
 3986SOL    HW212858   0.970   2.159   2.022
 3987SOL     OW12859   1.616   4.020   5.124
 3987SOL    HW112860   1.681   4.089   5.154
 3987SOL    HW212861   1.610   3.947   5.193
 3988SOL     OW12862   5.214   0.027   0.955
 3988SOL    HW112863   5.308   7.014   0.941
 3988SOL    HW212864   5.194   0.096   0.886
 3989SOL     OW12865   4.396   0.316   5.898
 3989SOL    HW112866   4.346   0.379   5.839
 3989SOL    HW212867   4.338   0.237   5.919
 3990SOL     OW12868   0.483   2.170   3.553
 3990SOL    HW112869   0.454   2.186   3.648
 3990SOL    HW212870   0.580   2.146   3.551
 3991SOL     OW12871   1.060   2.085   3.680
 3991SOL    HW112872   1.140   2.110   3.625
 3991SOL    HW212873   1.073   1.993   3.718
 3992SOL     OW12874   5.814   3.796   6.753
 3992SOL    HW112875   5.868   3.712   6.756
 3992SOL    HW212876   5.858   3.861   6.691
 3993SOL     OW12877   1.925   0.599   4.005
 3993SOL    HW112878   1.993   0.584   4.077
 3993SOL    HW212879   1.923   0.520   3.944
 3994SOL     OW12880   3.022   1.788   3.333
 3994SOL    HW112881   2.975   1.752   3.413
 3994SOL    HW212882   2.956   1.832   3.272
 3995SOL     OW12883   1.751   2.970   2.260
 3995SOL    HW112884   1.795   2.904   2.199
 3995SOL    HW212885   1.732   2.927   2.348
 3996SOL     OW12886   5.880   6.113   5.033
 3996SOL    HW112887   5.883   6.108   4.933
 3996SOL    HW212888   5.789   6.087   5.065
 3997SOL     OW12889   5.084   3.513   2.890
 3997SOL    HW112890   5.012   3.573   2.857
 3997SOL    HW212891   5.063   3.418   2.867
 3998SOL     OW12892   4.651   1.832   3.137
 3998SOL    HW112893   4.562   1.877   3.133
 3998SOL    HW212894   4.643   1.747   3.188
 3999SOL     OW12895   4.000   3.599   0.902
 3999SOL    HW112896   3.965   3.552   0.983
 3999SOL    HW212897   3.969   3.695   0.903
 4000SOL     OW12898   2.315   4.953   2.625
 4000SOL    HW112899   2.238   4.999   2.582
 4000SOL    HW212900   2.398   5.008   2.614
 4001SOL     OW12901   6.843   5.756   4.518
 4001SOL    HW112902   6.884   5.839   4.480
 4001SOL    HW212903   6.745   5.755   4.497
 4002SOL     OW12904   3.824   3.419   4.268
 4002SOL    HW112905   3.731   3.401   4.298
 4002SOL    HW212906   3.824   3.498   4.206
 4003SOL     OW12907   1.893   0.737   4.605
 4003SOL    HW112908   1.793   0.740   4.608
 4003SOL    HW212909   1.927   0.821   4.562
 4004SOL     OW12910   1.607   4.017   4.235
 4004SOL    HW112911   1.554   4.058   4.309
 4004SOL    HW212912   1.545   3.990   4.161
 4005SOL     OW12913   4.617   3.289   6.609
 4005SOL    HW112914   4.540   3.353   6.615
 4005SOL    HW212915   4.637   3.270   6.513
 4006SOL     OW12916   6.655   5.832   2.198
 4006SOL    HW112917   6.617   5.873   2.115
 4006SOL    HW212918   6.754   5.842   2.197
 4007SOL     OW12919   0.205   0.857   2.016
 4007SOL    HW112920   0.287   0.808   2.044
 4007SOL    HW212921   0.189   0.843   1.919
 4008SOL     OW12922   3.216   1.190   1.300
 4008SOL    HW112923   3.118   1.177   1.317
 4008SOL    HW212924   3.240   1.151   1.212
 4009SOL     OW12925   4.792   2.273   0.233
 4009SOL    HW112926   4.718   2.226   0.282
 4009SOL    HW212927   4.774   2.372   0.232
 4010SOL     OW12928   1.902   4.839   1.332
 4010SOL    HW112929   1.905   4.834   1.432
 4010SOL    HW212930   1.957   4.916   1.301
 4011SOL     OW12931   5.997   5.905   5.822
 4011SOL    HW112932   5.992   5.845   5.741
 4011SOL    HW212933   5.946   5.864   5.897
 4012SOL     OW12934   5.367   6.316   2.688
 4012SOL    HW112935   5.445   6.297   2.746
 4012SOL    HW212936   5.332   6.231   2.648
 4013SOL     OW12937   0.226   1.548   6.397
 4013SOL    HW112938   0.304   1.523   6.454
 4013SOL    HW212939   0.238   1.508   6.306
 4014SOL     OW12940   3.187   4.995   2.066
 4014SOL    HW112941   3.124   4.933   2.112
 4014SOL    HW212942   3.152   5.018   1.975
 4015SOL     OW12943   3.963   5.024   6.349
 4015SOL    HW112944   3.922   4.986   6.266
 4015SOL    HW212945   3.990   5.119   6.333
 4016SOL     OW12946   5.196   4.863   4.924
 4016SOL    HW112947   5.110   4.886   4.879
 4016SOL    HW212948   5.272   4.905   4.874
 4017SOL     OW12949   1.014   4.855   6.060
 4017SOL    HW112950   1.091   4.917   6.046
 4017SOL    HW212951   1.036   4.789   6.132
 4018SOL     OW12952   3.889   6.254   0.972
 4018SOL    HW112953   3.947   6.335   0.972
 4018SOL    HW212954   3.852   6.240   1.064
 4019SOL     OW12955   6.188   3.911   2.432
 4019SOL    HW112956   6.090   3.923   2.413
 4019SOL    HW212957   6.240   3.984   2.389
 4020SOL     OW12958   6.309   5.219   4.645
 4020SOL    HW112959   6.311   5.312   4.610
 4020SOL    HW212960   6.302   5.221   4.745
 4021SOL     OW12961   4.859   4.343   6.334
 4021SOL    HW112962   4.916   4.410   6.287
 4021SOL    HW212963   4.904   4.312   6.417
 4022SOL     OW12964   3.108   6.491   1.481
 4022SOL    HW112965   3.013   6.461   1.481
 4022SOL    HW212966   3.117   6.573   1.537
 4023SOL     OW12967   0.678   1.507   4.519
 4023SOL    HW112968   0.683   1.409   4.501
 4023SOL    HW212969   0.736   1.556   4.454
 4024SOL     OW12970   0.687   6.485   4.659
 4024SOL    HW112971   0.713   6.567   4.709
 4024SOL    HW212972   0.635   6.510   4.577
 4025SOL     OW12973   6.538   5.652   3.589
 4025SOL    HW112974   6.508   5.723   3.525
 4025SOL    HW212975   6.459   5.623   3.644
 4026SOL     OW12976   0.810   6.794   4.457
 4026SOL    HW112977   0.848   6.715   4.409
 4026SOL    HW212978   0.710   6.789   4.455
 4027SOL     OW12979   2.979   4.913   5.244
 4027SOL    HW112980   3.018   4.824   5.222
 4027SOL    HW212981   3.020   4.948   5.328
 4028SOL     OW12982   4.813   0.802   3.605
 4028SOL    HW112983   4.716   0.780   3.606
 4028SOL    HW212984   4.862   0.740   3.667
 4029SOL     OW12985   1.763   6.226   0.241
 4029SOL    HW112986   1.761   6.314   0.288
 4029SOL    HW212987   1.683   6.219   0.181
 4030SOL     OW12988   0.702   1.660   2.149
 4030SOL    HW112989   0.674   1.743   2.197
 4030SOL    HW212990   0.742   1.685   2.060
 4031SOL     OW12991   6.065   6.374   0.576
 4031SOL    HW112992   6.143   6.319   0.548
 4031SOL    HW212993   5.992   6.366   0.507
 4032SOL     OW12994   5.012   0.487   2.434
 4032SOL    HW112995   5.082   0.448   2.374
 4032SOL    HW212996   5.053   0.506   2.524
 4033SOL     OW12997   1.806   2.355   2.462
 4033SOL    HW112998   1.872   2.420   2.500
 4033SOL    HW212999   1.714   2.394   2.467
 4034SOL     OW13000   0.981   2.858   5.371
 4034SOL    HW113001   1.067   2.851   5.321
 4034SOL    HW213002   0.928   2.774   5.358
 4035SOL     OW13003   4.561   2.050   1.708
 4035SOL    HW113004   4.474   2.066   1.661
 4035SOL    HW213005   4.580   2.127   1.769
 4036SOL     OW13006   2.873   5.442   3.195
 4036SOL    HW113007   2.903   5.461   3.288
 4036SOL    HW213008   2.774   5.425   3.195
 4037SOL     OW13009   2.527   1.561   5.823
 4037SOL    HW113010   2.510   1.648   5.868
 4037SOL    HW213011   2.578   1.501   5.885
 4038SOL     OW13012   3.321   4.732   5.600
 4038SOL    HW113013   3.370   4.698   5.519
 4038SOL    HW213014   3.275   4.656   5.646
 4039SOL     OW13015   5.431   5.351   1.319
 4039SOL    HW113016   5.430   5.293   1.400
 4039SOL    HW213017   5.382   5.435   1.338
 4040SOL     OW13018   3.050   6.615   5.249
 4040SOL    HW113019   3.084   6.523   5.264
 4040SOL    HW213020   3.004   6.648   5.331
 4041SOL     OW13021   2.176   6.666   1.569
 4041SOL    HW113022   2.151   6.570   1.580
 4041SOL    HW213023   2.167   6.713   1.656
 4042SOL     OW13024   6.862   1.318   2.672
 4042SOL    HW113025   6.878   1.219   2.674
 4042SOL    HW213026   6.916   1.359   2.598
 4043SOL     OW13027   5.331   3.165   6.334
 4043SOL    HW113028   5.317   3.177   6.236
 4043SOL    HW213029   5.274   3.091   6.368
 4044SOL     OW13030   4.925   4.459   3.224
 4044SOL    HW113031   4.989   4.487   3.152
 4044SOL    HW213032   4.927   4.359   3.233
 4045SOL     OW13033   5.017   1.155   5.402
 4045SOL    HW113034   4.985   1.242   5.364
 4045SOL    HW213035   5.111   1.138   5.371
 4046SOL     OW13036   5.465   1.829   3.354
 4046SOL    HW113037   5.554   1.813   3.310
 4046SOL    HW213038   5.393   1.787   3.299
 4047SOL     OW13039   2.770   2.736   6.496
 4047SOL    HW113040   2.716   2.658   6.465
 4047SOL    HW213041   2.780   2.801   6.421
 4048SOL     OW13042   4.694   1.854   2.309
 4048SOL    HW113043   4.619   1.840   2.246
 4048SOL    HW213044   4.660   1.852   2.403
 4049SOL     OW13045   4.384   4.286   0.819
 4049SOL    HW113046   4.334   4.290   0.906
 4049SOL    HW213047   4.468   4.339   0.827
 4050SOL     OW13048   1.056   5.738   2.178
 4050SOL    HW113049   1.127   5.701   2.119
 4050SOL    HW213050   1.063   5.838   2.182
 4051SOL     OW13051   5.600   1.092   4.900
 4051SOL    HW113052   5.684   1.057   4.941
 4051SOL    HW213053   5.575   1.179   4.944
 4052SOL     OW13054   5.932   1.691   3.169
 4052SOL    HW113055   5.947   1.660   3.075
 4052SOL    HW213056   5.971   1.624   3.232
 4053SOL     OW13057   1.167   5.322   4.113
 4053SOL    HW113058   1.171   5.314   4.213
 4053SOL    HW213059   1.243   5.270   4.073
 4054SOL     OW13060   3.990   3.532   1.462
 4054SOL    HW113061   3.920   3.600   1.441
 4054SOL    HW213062   3.960   3.443   1.426
 4055SOL     OW13063   0.410   3.836   0.221
 4055SOL    HW113064   0.379   3.914   0.166
 4055SOL    HW213065   0.503   3.853   0.252
 4056SOL     OW13066   4.880   3.537   0.143
 4056SOL    HW113067   4.786   3.570   0.130
 4056SOL    HW213068   4.890   3.503   0.237
 4057SOL     OW13069   0.339   3.558   0.158
 4057SOL    HW113070   0.350   3.649   0.197
 4057SOL    HW213071   0.404   3.546   0.083
 4058SOL     OW13072   2.423   0.489   5.303
 4058SOL    HW113073   2.366   0.569   5.319
 4058SOL    HW213074   2.509   0.516   5.260
 4059SOL     OW13075   0.496   1.315   3.897
 4059SOL    HW113076   0.447   1.402   3.897
 4059SOL    HW213077   0.497   1.278   3.990
 4060SOL     OW13078   6.740   6.450   4.722
 4060SOL    HW113079   6.692   6.364   4.705
 4060SOL    HW213080   6.773   6.452   4.816
 4061SOL     OW13081   1.084   5.529   0.636
 4061SOL    HW113082   1.067   5.478   0.721
 4061SOL    HW213083   0.998   5.538   0.585
 4062SOL     OW13084   2.057   2.975   1.514
 4062SOL    HW113085   2.118   3.048   1.544
 4062SOL    HW213086   2.031   2.989   1.419
 4063SOL     OW13087   4.259   0.608   0.192
 4063SOL    HW113088   4.318   0.610   0.110
 4063SOL    HW213089   4.276   0.689   0.247
 4064SOL     OW13090   1.625   1.475   5.723
 4064SOL    HW113091   1.585   1.557   5.683
 4064SOL    HW213092   1.597   1.467   5.819
 4065SOL     OW13093   2.898   6.473   0.878
 4065SOL    HW113094   2.806   6.438   0.898
 4065SOL    HW213095   2.892   6.569   0.850
 4066SOL     OW13096   0.854   3.837   3.658
 4066SOL    HW113097   0.808   3.757   3.619
 4066SOL    HW213098   0.790   3.884   3.719
 4067SOL     OW13099   5.408   4.931   0.457
 4067SOL    HW113100   5.317   4.966   0.431
 4067SOL    HW213101   5.398   4.867   0.534
 4068SOL     OW13102   2.214   2.989   4.598
 4068SOL    HW113103   2.229   3.076   4.644
 4068SOL    HW213104   2.266   2.917   4.645
 4069SOL     OW13105   4.018   6.577   6.434
 4069SOL    HW113106   4.012   6.622   6.523
 4069SOL    HW213107   3.948   6.506   6.428
 4070SOL     OW13108   1.371   3.400   3.550
 4070SOL    HW113109   1.370   3.329   3.478
 4070SOL    HW213110   1.292   3.388   3.609
 4071SOL     OW13111   1.326   0.783   3.928
 4071SOL    HW113112   1.229   0.794   3.949
 4071SOL    HW213113   1.380   0.848   3.981
 4072SOL     OW13114   2.428   5.146   3.014
 4072SOL    HW113115   2.425   5.052   3.048
 4072SOL    HW213116   2.514   5.161   2.967
 4073SOL     OW13117   3.861   4.640   0.233
 4073SOL    HW113118   3.804   4.674   0.159
 4073SOL    HW213119   3.806   4.584   0.295
 4074SOL     OW13120   1.724   5.428   2.672
 4074SOL    HW113121   1.802   5.434   2.735
 4074SOL    HW213122   1.661   5.503   2.690
 4075SOL     OW13123   6.627   1.270   1.066
 4075SOL    HW113124   6.536   1.309   1.079
 4075SOL    HW213125   6.692   1.343   1.048
 4076SOL     OW13126   2.242   4.339   5.109
 4076SOL    HW113127   2.332   4.380   5.126
 4076SOL    HW213128   2.253   4.261   5.047
 4077SOL     OW13129   3.035   0.717   1.715
 4077SOL    HW113130   3.050   0.802   1.765
 4077SOL    HW213131   3.096   0.646   1.750
 4078SOL     OW13132   2.944   4.921   2.538
 4078SOL    HW113133   3.023   4.888   2.486
 4078SOL    HW213134   2.964   4.915   2.636
 4079SOL     OW13135   0.893   1.911   4.374
 4079SOL    HW113136   0.925   1.957   4.292
 4079SOL    HW213137   0.801   1.942   4.397
 4080SOL     OW13138   6.215   1.725   5.167
 4080SOL    HW113139   6.271   1.731   5.085
 4080SOL    HW213140   6.213   1.630   5.200
 4081SOL     OW13141   1.776   3.305   3.893
 4081SOL    HW113142   1.718   3.225   3.881
 4081SOL    HW213143   1.811   3.307   3.987
 4082SOL     OW13144   1.005   3.167   1.247
 4082SOL    HW113145   1.085   3.118   1.282
 4082SOL    HW213146   0.925   3.107   1.252
 4083SOL     OW13147   5.529   2.788   4.501
 4083SOL    HW113148   5.548   2.710   4.442
 4083SOL    HW213149   5.490   2.757   4.587
 4084SOL     OW13150   0.354   1.519   4.254
 4084SOL    HW113151   0.392   1.602   4.213
 4084SOL    HW213152   0.387   1.439   4.203
 4085SOL     OW13153   2.702   6.156   0.633
 4085SOL    HW113154   2.684   6.246   0.594
 4085SOL    HW213155   2.616   6.105   0.640
 4086SOL     OW13156   1.153   5.241   0.594
 4086SOL    HW113157   1.245   5.247   0.634
 4086SOL    HW213158   1.104   5.327   0.611
 4087SOL     OW13159   1.430   1.777   2.580
 4087SOL    HW113160   1.467   1.857   2.627
 4087SOL    HW213161   1.344   1.801   2.535
 4088SOL     OW13162   6.593   2.044   0.741
 4088SOL    HW113163   6.664   2.049   0.811
 4088SOL    HW213164   6.508   2.082   0.777
 4089SOL     OW13165   0.865   0.992   5.236
 4089SOL    HW113166   0.958   0.978   5.203
 4089SOL    HW213167   0.801   0.945   5.175
 4090SOL     OW13168   1.894   4.671   5.548
 4090SOL    HW113169   1.920   4.581   5.581
 4090SOL    HW213170   1.952   4.697   5.471
 4091SOL     OW13171   4.760   6.132   0.637
 4091SOL    HW113172   4.711   6.061   0.688
 4091SOL    HW213173   4.859   6.120   0.649
 4092SOL     OW13174   0.354   2.372   4.642
 4092SOL    HW113175   0.357   2.398   4.739
 4092SOL    HW213176   0.327   2.450   4.587
 4093SOL     OW13177   5.812   0.882   4.950
 4093SOL    HW113178   5.904   0.887   4.911
 4093SOL    HW213179   5.815   0.900   5.048
 4094SOL     OW13180   2.639   4.536   5.355
 4094SOL    HW113181   2.722   4.525   5.300
 4094SOL    HW213182   2.659   4.513   5.450
 4095SOL     OW13183   1.305   3.715   6.288
 4095SOL    HW113184   1.391   3.723   6.237
 4095SOL    HW213185   1.235   3.773   6.245
 4096SOL     OW13186   4.186   4.699   1.910
 4096SOL    HW113187   4.244   4.693   1.829
 4096SOL    HW213188   4.094   4.729   1.882
 4097SOL     OW13189   3.168   3.636   5.327
 4097SOL    HW113190   3.210   3.553   5.290
 4097SOL    HW213191   3.095   3.667   5.266
 4098SOL     OW13192   0.296   1.948   2.605
 4098SOL    HW113193   0.347   1.890   2.669
 4098SOL    HW213194   0.355   2.023   2.576
 4099SOL     OW13195   4.216   6.281   1.985
 4099SOL    HW113196   4.137   6.292   2.047
 4099SOL    HW213197   4.190   6.224   1.907
 4100SOL     OW13198   3.845   5.887   3.392
 4100SOL    HW113199   3.777   5.823   3.357
 4100SOL    HW213200   3.800   5.963   3.439
 4101SOL     OW13201   5.342   1.040   6.254
 4101SOL    HW113202   5.433   0.999   6.251
 4101SOL    HW213203   5.309   1.042   6.348
 4102SOL     OW13204   6.033   1.363   0.770
 4102SOL    HW113205   5.940   1.329   0.761
 4102SOL    HW213206   6.032   1.460   0.795
 4103SOL     OW13207   0.471   0.100   2.228
 4103SOL    HW113208   0.378   0.065   2.213
 4103SOL    HW213209   0.473   0.150   2.314
 4104SOL     OW13210   1.601   4.941   2.970
 4104SOL    HW113211   1.659   4.860   2.966
 4104SOL    HW213212   1.647   5.012   3.023
 4105SOL     OW13213   5.158   4.887   0.142
 4105SOL    HW113214   5.116   4.932   0.063
 4105SOL    HW213215   5.144   4.788   0.134
 4106SOL     OW13216   6.693   3.831   5.032
 4106SOL    HW113217   6.738   3.920   5.036
 4106SOL    HW213218   6.717   3.786   4.946
 4107SOL     OW13219   6.897   0.875   1.009
 4107SOL    HW113220   6.963   0.802   1.026
 4107SOL    HW213221   6.941   0.948   0.957
 4108SOL     OW13222   6.412   3.494   5.670
 4108SOL    HW113223   6.495   3.519   5.721
 4108SOL    HW213224   6.354   3.435   5.727
 4109SOL     OW13225   3.361   6.210   3.673
 4109SOL    HW113226   3.407   6.177   3.755
 4109SOL    HW213227   3.401   6.166   3.593
 4110SOL     OW13228   5.053   3.357   5.719
 4110SOL    HW113229   5.074   3.371   5.816
 4110SOL    HW213230   4.966   3.401   5.697
 4111SOL     OW13231   4.433   3.119   6.766
 4111SOL    HW113232   4.405   3.206   6.725
 4111SOL    HW213233   4.524   3.095   6.733
 4112SOL     OW13234   3.842   1.007   4.307
 4112SOL    HW113235   3.793   1.073   4.363
 4112SOL    HW213236   3.802   1.004   4.216
 4113SOL     OW13237   3.894   5.490   4.557
 4113SOL    HW113238   3.928   5.407   4.602
 4113SOL    HW213239   3.911   5.484   4.458
 4114SOL     OW13240   2.848   1.918   2.402
 4114SOL    HW113241   2.872   2.012   2.376
 4114SOL    HW213242   2.749   1.906   2.391
 4115SOL     OW13243   5.138   4.853   1.964
 4115SOL    HW113244   5.170   4.766   2.002
 4115SOL    HW213245   5.217   4.910   1.940
 4116SOL     OW13246   2.730   1.174   2.135
 4116SOL    HW113247   2.674   1.185   2.217
 4116SOL    HW213248   2.816   1.130   2.158
 4117SOL     OW13249   1.098   5.854   1.494
 4117SOL    HW113250   0.999   5.861   1.492
 4117SOL    HW213251   1.130   5.814   1.407
 4118SOL     OW13252   2.275   6.703   0.137
 4118SOL    HW113253   2.369   6.683   0.110
 4118SOL    HW213254   2.245   6.637   0.207
 4119SOL     OW13255   4.071   0.945   3.604
 4119SOL    HW113256   4.147   1.010   3.593
 4119SOL    HW213257   4.018   0.970   3.686
 4120SOL     OW13258   4.083   0.770   1.491
 4120SOL    HW113259   3.997   0.786   1.540
 4120SOL    HW213260   4.133   0.696   1.535
 4121SOL     OW13261   6.519   2.940   5.036
 4121SOL    HW113262   6.434   2.952   5.086
 4121SOL    HW213263   6.501   2.945   4.937
 4122SOL     OW13264   1.660   5.947   6.139
 4122SOL    HW113265   1.624   6.037   6.112
 4122SOL    HW213266   1.623   5.877   6.079
 4123SOL     OW13267   5.321   3.670   6.642
 4123SOL    HW113268   5.382   3.658   6.720
 4123SOL    HW213269   5.271   3.757   6.652
 4124SOL     OW13270   4.792   6.734   3.882
 4124SOL    HW113271   4.819   6.819   3.926
 4124SOL    HW213272   4.807   6.742   3.783
 4125SOL     OW13273   5.141   1.400   1.314
 4125SOL    HW113274   5.134   1.444   1.224
 4125SOL    HW213275   5.173   1.467   1.381
 4126SOL     OW13276   1.935   4.782   4.220
 4126SOL    HW113277   2.024   4.817   4.191
 4126SOL    HW213278   1.918   4.694   4.174
 4127SOL     OW13279   6.649   3.740   5.640
 4127SOL    HW113280   6.567   3.796   5.653
 4127SOL    HW213281   6.643   3.657   5.695
 4128SOL     OW13282   1.022   2.050   2.833
 4128SOL    HW113283   1.037   1.975   2.898
 4128SOL    HW213284   0.959   2.117   2.872
 4129SOL     OW13285   5.486   2.459   5.774
 4129SOL    HW113286   5.394   2.449   5.735
 4129SOL    HW213287   5.551   2.410   5.716
 4130SOL     OW13288   5.560   3.753   0.908
 4130SOL    HW113289   5.656   3.775   0.923
 4130SOL    HW213290   5.551   3.655   0.890
 4131SOL     OW13291   6.440   4.563   3.397
 4131SOL    HW113292   6.421   4.641   3.456
 4131SOL    HW213293   6.369   4.556   3.327
 4132SOL     OW13294   5.355   2.410   3.646
 4132SOL    HW113295   5.277   2.427   3.705
 4132SOL    HW213296   5.438   2.444   3.689
 4133SOL     OW13297   3.099   1.657   1.343
 4133SOL    HW113298   3.161   1.644   1.420
 4133SOL    HW213299   3.004   1.649   1.376
 4134SOL     OW13300   0.804   1.358   6.913
 4134SOL    HW113301   0.756   1.333   6.997
 4134SOL    HW213302   0.829   1.455   6.917
 4135SOL     OW13303   1.173   0.829   1.297
 4135SOL    HW113304   1.202   0.895   1.366
 4135SOL    HW213305   1.074   0.830   1.288
 4136SOL     OW13306   1.322   2.181   3.550
 4136SOL    HW113307   1.356   2.109   3.490
 4136SOL    HW213308   1.279   2.253   3.495
 4137SOL     OW13309   3.210   4.380   6.313
 4137SOL    HW113310   3.143   4.429   6.370
 4137SOL    HW213311   3.162   4.329   6.242
 4138SOL     OW13312   4.307   4.904   3.476
 4138SOL    HW113313   4.273   4.942   3.390
 4138SOL    HW213314   4.368   4.970   3.520
 4139SOL     OW13315   2.124   1.237   6.762
 4139SOL    HW113316   2.205   1.181   6.779
 4139SOL    HW213317   2.108   1.243   6.663
 4140SOL     OW13318   4.388   1.268   5.011
 4140SOL    HW113319   4.288   1.260   5.007
 4140SOL    HW213320   4.417   1.279   5.106
 4141SOL     OW13321   5.171   5.500   0.550
 4141SOL    HW113322   5.108   5.475   0.623
 4141SOL    HW213323   5.265   5.485   0.580
 4142SOL     OW13324   6.318   3.890   1.478
 4142SOL    HW113325   6.296   3.823   1.407
 4142SOL    HW213326   6.233   3.925   1.519
 4143SOL     OW13327   0.417   2.731   1.099
 4143SOL    HW113328   0.449   2.822   1.126
 4143SOL    HW213329   0.423   2.721   1.000
 4144SOL     OW13330   4.533   0.507   2.608
 4144SOL    HW113331   4.472   0.577   2.571
 4144SOL    HW213332   4.586   0.467   2.533
 4145SOL     OW13333   2.259   6.744   2.613
 4145SOL    HW113334   2.192   6.786   2.674
 4145SOL    HW213335   2.286   6.810   2.543
 4146SOL     OW13336   5.355   5.878   0.371
 4146SOL    HW113337   5.404   5.796   0.401
 4146SOL    HW213338   5.294   5.909   0.445
 4147SOL     OW13339   3.414   2.262   5.655
 4147SOL    HW113340   3.367   2.177   5.676
 4147SOL    HW213341   3.400   2.284   5.558
 4148SOL     OW13342   6.032   0.516   3.478
 4148SOL    HW113343   6.084   0.523   3.393
 4148SOL    HW213344   6.077   0.450   3.539
 4149SOL     OW13345   5.549   3.960   1.784
 4149SOL    HW113346   5.578   3.901   1.709
 4149SOL    HW213347   5.584   3.924   1.871
 4150SOL     OW13348   4.916   0.464   6.359
 4150SOL    HW113349   4.953   0.461   6.453
 4150SOL    HW213350   4.818   0.444   6.361
 4151SOL     OW13351   0.808   5.497   0.838
 4151SOL    HW113352   0.884   5.434   0.857
 4151SOL    HW213353   0.722   5.447   0.847
 4152SOL     OW13354   3.412   4.105   1.275
 4152SOL    HW113355   3.385   4.076   1.367
 4152SOL    HW213356   3.331   4.117   1.218
 4153SOL     OW13357   6.529   5.048   5.894
 4153SOL    HW113358   6.446   5.103   5.890
 4153SOL    HW213359   6.560   5.039   5.989
 4154SOL     OW13360   5.371   3.244   5.886
 4154SOL    HW113361   5.340   3.175   5.952
 4154SOL    HW213362   5.386   3.202   5.797
 4155SOL     OW13363   0.811   2.992   1.667
 4155SOL    HW113364   0.764   3.080   1.655
 4155SOL    HW213365   0.904   3.008   1.701
 4156SOL     OW13366   6.071   6.990   5.526
 4156SOL    HW113367   6.006   0.028   5.477
 4156SOL    HW213368   6.053   6.995   5.624
 4157SOL     OW13369   3.604   0.743   5.047
 4157SOL    HW113370   3.674   0.783   4.989
 4157SOL    HW213371   3.598   0.644   5.030
 4158SOL     OW13372   1.001   6.636   3.963
 4158SOL    HW113373   1.091   6.598   3.986
 4158SOL    HW213374   0.975   6.606   3.871
 4159SOL     OW13375   0.995   2.770   5.011
 4159SOL    HW113376   1.069   2.803   5.069
 4159SOL    HW213377   0.928   2.844   4.998
 4160SOL     OW13378   1.585   1.131   0.713
 4160SOL    HW113379   1.626   1.042   0.695
 4160SOL    HW213380   1.489   1.119   0.738
 4161SOL     OW13381   6.284   2.062   0.398
 4161SOL    HW113382   6.194   2.095   0.369
 4161SOL    HW213383   6.316   1.991   0.336
 4162SOL     OW13384   6.304   0.338   5.434
 4162SOL    HW113385   6.293   0.314   5.530
 4162SOL    HW213386   6.239   0.287   5.378
 4163SOL     OW13387   5.542   1.416   4.238
 4163SOL    HW113388   5.494   1.449   4.319
 4163SOL    HW213389   5.637   1.397   4.261
 4164SOL     OW13390   2.402   0.180   6.002
 4164SOL    HW113391   2.396   0.233   5.918
 4164SOL    HW213392   2.336   0.105   6.000
 4165SOL     OW13393   4.023   6.349   2.206
 4165SOL    HW113394   4.086   6.423   2.224
 4165SOL    HW213395   3.942   6.384   2.159
 4166SOL     OW13396   5.654   3.072   0.751
 4166SOL    HW113397   5.749   3.086   0.722
 4166SOL    HW213398   5.625   2.979   0.730
 4167SOL     OW13399   2.034   2.697   1.554
 4167SOL    HW113400   2.048   2.796   1.545
 4167SOL    HW213401   2.008   2.677   1.648
 4168SOL     OW13402   1.341   5.144   0.971
 4168SOL    HW113403   1.331   5.047   0.949
 4168SOL    HW213404   1.335   5.198   0.887
 4169SOL     OW13405   5.850   3.462   4.599
 4169SOL    HW113406   5.755   3.490   4.611
 4169SOL    HW213407   5.874   3.461   4.502
 4170SOL     OW13408   4.533   2.519   5.593
 4170SOL    HW113409   4.458   2.461   5.561
 4170SOL    HW213410   4.535   2.604   5.540
 4171SOL     OW13411   6.002   3.740   1.873
 4171SOL    HW113412   5.998   3.748   1.973
 4171SOL    HW213413   5.954   3.657   1.845
 4172SOL     OW13414   1.738   1.707   0.483
 4172SOL    HW113415   1.644   1.726   0.453
 4172SOL    HW213416   1.744   1.719   0.582
 4173SOL     OW13417   5.304   3.830   5.517
 4173SOL    HW113418   5.365   3.819   5.438
 4173SOL    HW213419   5.350   3.883   5.588
 4174SOL     OW13420   4.934   0.957   4.691
 4174SOL    HW113421   4.862   0.923   4.629
 4174SOL    HW213422   4.904   0.946   4.786
 4175SOL     OW13423   3.306   1.302   3.106
 4175SOL    HW113424   3.238   1.313   3.034
 4175SOL    HW213425   3.336   1.206   3.109
 4176SOL     OW13426   5.598   6.203   2.817
 4176SOL    HW113427   5.695   6.218   2.832
 4176SOL    HW213428   5.545   6.262   2.878
 4177SOL     OW13429   6.950   5.601   2.580
 4177SOL    HW113430   7.020   5.614   2.650
 4177SOL    HW213431   6.898   5.685   2.569
 4178SOL     OW13432   4.137   2.516   5.696
 4178SOL    HW113433   4.198   2.535   5.772
 4178SOL    HW213434   4.069   2.589   5.688
 4179SOL     OW13435   5.684   3.158   6.155
 4179SOL    HW113436   5.742   3.223   6.105
 4179SOL    HW213437   5.625   3.209   6.218
 4180SOL     OW13438   4.212   3.822   1.790
 4180SOL    HW113439   4.276   3.774   1.729
 4180SOL    HW213440   4.236   3.919   1.791
 4181SOL     OW13441   0.428   1.192   6.851
 4181SOL    HW113442   0.359   1.249   6.896
 4181SOL    HW213443   0.508   1.182   6.911
 4182SOL     OW13444   5.387   1.265   3.647
 4182SOL    HW113445   5.336   1.327   3.707
 4182SOL    HW213446   5.394   1.175   3.689
 4183SOL     OW13447   1.359   1.686   1.232
 4183SOL    HW113448   1.277   1.719   1.280
 4183SOL    HW213449   1.365   1.586   1.241
 4184SOL     OW13450   4.724   5.465   0.412
 4184SOL    HW113451   4.759   5.389   0.467
 4184SOL    HW213452   4.660   5.519   0.466
 4185SOL     OW13453   0.417   7.006   4.139
 4185SOL    HW113454   0.435   0.071   4.187
 4185SOL    HW213455   0.330   7.013   4.090
 4186SOL     OW13456   3.035   4.260   1.081
 4186SOL    HW113457   3.117   4.317   1.088
 4186SOL    HW213458   2.965   4.308   1.029
 4187SOL     OW13459   4.230   4.206   6.786
 4187SOL    HW113460   4.208   4.296   6.823
 4187SOL    HW213461   4.232   4.211   6.686
 4188SOL     OW13462   4.793   6.731   4.592
 4188SOL    HW113463   4.858   6.795   4.632
 4188SOL    HW213464   4.827   6.699   4.504
 4189SOL     OW13465   2.258   2.950   3.702
 4189SOL    HW113466   2.223   3.043   3.713
 4189SOL    HW213467   2.256   2.904   3.791
 4190SOL     OW13468   3.062   0.291   1.498
 4190SOL    HW113469   3.132   0.326   1.437
 4190SOL    HW213470   2.992   0.361   1.513
 4191SOL     OW13471   6.309   2.195   2.427
 4191SOL    HW113472   6.315   2.107   2.380
 4191SOL    HW213473   6.238   2.191   2.497
 4192SOL     OW13474   6.342   1.693   3.223
 4192SOL    HW113475   6.293   1.614   3.185
 4192SOL    HW213476   6.280   1.745   3.282
 4193SOL     OW13477   1.624   0.233   1.982
 4193SOL    HW113478   1.683   0.289   1.924
 4193SOL    HW213479   1.666   0.143   1.993
 4194SOL     OW13480   0.316   0.637   4.466
 4194SOL    HW113481   0.239   0.592   4.420
 4194SOL    HW213482   0.361   0.572   4.527
 4195SOL     OW13483   4.848   0.817   2.001
 4195SOL    HW113484   4.944   0.841   1.988
 4195SOL    HW213485   4.799   0.824   1.914
 4196SOL     OW13486   4.639   2.675   3.547
 4196SOL    HW113487   4.640   2.629   3.458
 4196SOL    HW213488   4.614   2.610   3.618
 4197SOL     OW13489   4.457   4.517   3.986
 4197SOL    HW113490   4.405   4.555   4.063
 4197SOL    HW213491   4.440   4.571   3.904
 4198SOL     OW13492   5.819   3.747   5.948
 4198SOL    HW113493   5.795   3.843   5.930
 4198SOL    HW213494   5.896   3.744   6.012
 4199SOL     OW13495   3.168   4.014   5.167
 4199SOL    HW113496   3.166   4.044   5.072
 4199SOL    HW213497   3.075   3.993   5.197
 4200SOL     OW13498   2.352   0.051   6.339
 4200SOL    HW113499   2.331   6.987   6.289
 4200SOL    HW213500   2.437   0.089   6.305
 4201SOL     OW13501   6.034   6.459   4.321
 4201SOL    HW113502   6.015   6.422   4.413
 4201SOL    HW213503   6.125   6.430   4.292
 4202SOL     OW13504   5.308   4.352   4.641
 4202SOL    HW113505   5.323   4.343   4.543
 4202SOL    HW213506   5.395   4.347   4.689
 4203SOL     OW13507   5.205   5.393   3.730
 4203SOL    HW113508   5.226   5.342   3.813
 4203SOL    HW213509   5.131   5.347   3.681
 4204SOL     OW13510   3.209   4.015   0.354
 4204SOL    HW113511   3.160   4.024   0.440
 4204SOL    HW213512   3.144   3.994   0.281
 4205SOL     OW13513   2.653   5.347   2.754
 4205SOL    HW113514   2.675   5.332   2.850
 4205SOL    HW213515   2.730   5.318   2.697
 4206SOL     OW13516   6.103   6.984   4.656
 4206SOL    HW113517   6.066   6.901   4.699
 4206SOL    HW213518   6.193   7.004   4.695
 4207SOL     OW13519   0.909   0.744   1.273
 4207SOL    HW113520   0.884   0.654   1.307
 4207SOL    HW213521   0.828   0.803   1.270
 4208SOL     OW13522   0.811   3.363   1.407
 4208SOL    HW113523   0.884   3.309   1.450
 4208SOL    HW213524   0.847   3.408   1.325
 4209SOL     OW13525   2.975   7.014   4.789
 4209SOL    HW113526   2.890   0.047   4.797
 4209SOL    HW213527   3.044   0.032   4.849
 4210SOL     OW13528   5.100   2.554   0.598
 4210SOL    HW113529   5.107   2.612   0.679
 4210SOL    HW213530   5.108   2.610   0.515
 4211SOL     OW13531   5.061   4.144   3.471
 4211SOL    HW113532   5.051   4.244   3.463
 4211SOL    HW213533   5.109   4.109   3.391
 4212SOL     OW13534   6.351   6.941   2.407
 4212SOL    HW113535   6.286   6.943   2.330
 4212SOL    HW213536   6.339   0.002   2.463
 4213SOL     OW13537   0.675   0.549   2.205
 4213SOL    HW113538   0.590   0.556   2.153
 4213SOL    HW213539   0.653   0.531   2.301
 4214SOL     OW13540   2.009   4.181   4.517
 4214SOL    HW113541   2.054   4.175   4.427
 4214SOL    HW213542   2.073   4.219   4.584
 4215SOL     OW13543   0.746   5.530   4.678
 4215SOL    HW113544   0.726   5.465   4.604
 4215SOL    HW213545   0.845   5.532   4.694
 4216SOL     OW13546   2.237   3.427   5.466
 4216SOL    HW113547   2.158   3.424   5.527
 4216SOL    HW213548   2.248   3.338   5.421
 4217SOL     OW13549   6.759   0.485   3.256
 4217SOL    HW113550   6.758   0.562   3.193
 4217SOL    HW213551   6.810   0.509   3.338
 4218SOL     OW13552   3.252   6.577   2.768
 4218SOL    HW113553   3.337   6.593   2.718
 4218SOL    HW213554   3.213   6.489   2.740
 4219SOL     OW13555   4.849   6.294   3.554
 4219SOL    HW113556   4.901   6.332   3.477
 4219SOL    HW213557   4.820   6.201   3.532
 4220SOL     OW13558   0.493   3.703   3.402
 4220SOL    HW113559   0.530   3.636   3.466
 4220SOL    HW213560   0.395   3.713   3.415
 4221SOL     OW13561   5.473   5.681   6.048
 4221SOL    HW113562   5.396   5.738   6.020
 4221SOL    HW213563   5.489   5.690   6.146
 4222SOL     OW13564   4.196   2.524   0.029
 4222SOL    HW113565   4.105   2.554   0.057
 4222SOL    HW213566   4.264   2.558   0.095
 4223SOL     OW13567   3.771   4.093   2.903
 4223SOL    HW113568   3.788   4.119   2.808
 4223SOL    HW213569   3.685   4.134   2.933
 4224SOL     OW13570   4.397   2.194   5.049
 4224SOL    HW113571   4.381   2.221   5.144
 4224SOL    HW213572   4.363   2.265   4.988
 4225SOL     OW13573   5.154   0.687   4.937
 4225SOL    HW113574   5.111   0.771   4.969
 4225SOL    HW213575   5.254   0.699   4.937
 4226SOL     OW13576   1.634   0.717   3.492
 4226SOL    HW113577   1.604   0.812   3.483
 4226SOL    HW213578   1.580   0.672   3.563
 4227SOL     OW13579   5.742   4.260   0.451
 4227SOL    HW113580   5.837   4.266   0.420
 4227SOL    HW213581   5.731   4.314   0.535
 4228SOL     OW13582   6.113   5.595   2.309
 4228SOL    HW113583   6.115   5.500   2.279
 4228SOL    HW213584   6.089   5.599   2.406
 4229SOL     OW13585   4.898   4.899   5.704
 4229SOL    HW113586   4.858   4.985   5.734
 4229SOL    HW213587   4.878   4.885   5.607
 4230SOL     OW13588   3.324   0.315   4.184
 4230SOL    HW113589   3.390   0.251   4.143
 4230SOL    HW213590   3.249   0.264   4.226
 4231SOL     OW13591   3.816   6.262   5.268
 4231SOL    HW113592   3.870   6.185   5.302
 4231SOL    HW213593   3.878   6.336   5.240
 4232SOL     OW13594   2.300   3.988   1.881
 4232SOL    HW113595   2.296   3.923   1.804
 4232SOL    HW213596   2.348   4.071   1.853
 4233SOL     OW13597   5.367   6.912   1.250
 4233SOL    HW113598   5.400   6.819   1.267
 4233SOL    HW213599   5.274   6.921   1.286
 4234SOL     OW13600   3.190   4.103   5.446
 4234SOL    HW113601   3.210   4.025   5.386
 4234SOL    HW213602   3.252   4.178   5.424
 4235SOL     OW13603   0.052   3.570   5.506
 4235SOL    HW113604   0.048   3.612   5.597
 4235SOL    HW213605   0.071   3.472   5.515
 4236SOL     OW13606   1.066   4.312   4.939
 4236SOL    HW113607   0.997   4.371   4.980
 4236SOL    HW213608   1.157   4.339   4.970
 4237SOL     OW13609   5.407   4.367   4.372
 4237SOL    HW113610   5.342   4.338   4.302
 4237SOL    HW213611   5.494   4.319   4.359
 4238SOL     OW13612   4.162   4.936   3.801
 4238SOL    HW113613   4.076   4.939   3.750
 4238SOL    HW213614   4.193   5.029   3.818
 4239SOL     OW13615   5.057   5.511   5.915
 4239SOL    HW113616   5.151   5.526   5.946
 4239SOL    HW213617   5.004   5.595   5.926
 4240SOL     OW13618   2.622   4.479   6.276
 4240SOL    HW113619   2.526   4.480   6.301
 4240SOL    HW213620   2.673   4.541   6.336
 4241SOL     OW13621   3.795   1.082   0.150
 4241SOL    HW113622   3.743   1.121   0.226
 4241SOL    HW213623   3.748   1.103   0.064
 4242SOL     OW13624   1.618   0.173   2.360
 4242SOL    HW113625   1.607   0.234   2.438
 4242SOL    HW213626   1.676   0.217   2.291
 4243SOL     OW13627   1.653   3.267   3.586
 4243SOL    HW113628   1.745   3.302   3.604
 4243SOL    HW213629   1.631   3.195   3.652
 4244SOL     OW13630   3.468   6.344   1.435
 4244SOL    HW113631   3.510   6.354   1.345
 4244SOL    HW213632   3.450   6.247   1.453
 4245SOL     OW13633   6.594   3.064   1.992
 4245SOL    HW113634   6.615   2.992   1.926
 4245SOL    HW213635   6.591   3.025   2.084
 4246SOL     OW13636   4.225   2.285   4.060
 4246SOL    HW113637   4.131   2.286   4.094
 4246SOL    HW213638   4.285   2.241   4.127
 4247SOL     OW13639   2.088   4.232   6.274
 4247SOL    HW113640   2.060   4.137   6.293
 4247SOL    HW213641   2.168   4.232   6.215
 4248SOL     OW13642   1.711   0.076   2.817
 4248SOL    HW113643   1.769   0.004   2.857
 4248SOL    HW213644   1.662   0.039   2.739
 4249SOL     OW13645   6.530   7.020   5.469
 4249SOL    HW113646   6.569   0.040   5.386
 4249SOL    HW213647   6.484   6.934   5.445
 4250SOL     OW13648   6.287   5.746   4.082
 4250SOL    HW113649   6.240   5.782   4.001
 4250SOL    HW213650   6.219   5.718   4.149
 4251SOL     OW13651   6.061   2.550   5.401
 4251SOL    HW113652   6.130   2.479   5.410
 4251SOL    HW213653   6.105   2.639   5.392
 4252SOL     OW13654   0.075   6.683   0.047
 4252SOL    HW113655   0.089   6.719   6.976
 4252SOL    HW213656   0.034   6.754   0.105
 4253SOL     OW13657   4.663   5.628   2.741
 4253SOL    HW113658   4.661   5.552   2.675
 4253SOL    HW213659   4.612   5.603   2.823
 4254SOL     OW13660   2.180   2.622   5.823
 4254SOL    HW113661   2.092   2.578   5.803
 4254SOL    HW213662   2.228   2.569   5.893
 4255SOL     OW13663   1.111   3.342   3.256
 4255SOL    HW113664   1.196   3.394   3.247
 4255SOL    HW213665   1.106   3.301   3.347
 4256SOL     OW13666   0.217   5.923   1.011
 4256SOL    HW113667   0.276   5.960   1.084
 4256SOL    HW213668   0.267   5.855   0.958
 4257SOL     OW13669   6.878   0.154   3.920
 4257SOL    HW113670   6.892   0.189   3.828
 4257SOL    HW213671   6.821   0.071   3.916
 4258SOL     OW13672   3.137   5.590   0.982
 4258SOL    HW113673   3.177   5.666   0.930
 4258SOL    HW213674   3.066   5.546   0.928
 4259SOL     OW13675   1.195   0.323   0.290
 4259SOL    HW113676   1.249   0.369   0.360
 4259SOL    HW213677   1.141   0.390   0.239
 4260SOL     OW13678   5.432   0.940   4.779
 4260SOL    HW113679   5.489   1.008   4.826
 4260SOL    HW213680   5.445   0.851   4.822
 4261SOL     OW13681   2.729   6.204   4.345
 4261SOL    HW113682   2.710   6.301   4.328
 4261SOL    HW213683   2.811   6.177   4.294
 4262SOL     OW13684   2.801   4.525   6.032
 4262SOL    HW113685   2.717   4.511   6.086
 4262SOL    HW213686   2.785   4.494   5.938
 4263SOL     OW13687   2.170   1.874   3.669
 4263SOL    HW113688   2.219   1.792   3.697
 4263SOL    HW213689   2.181   1.945   3.738
 4264SOL     OW13690   4.592   2.109   5.583
 4264SOL    HW113691   4.511   2.108   5.641
 4264SOL    HW213692   4.605   2.019   5.541
 4265SOL     OW13693   2.228   6.964   5.987
 4265SOL    HW113694   2.215   6.906   6.068
 4265SOL    HW213695   2.188   6.919   5.907
 4266SOL     OW13696   1.418   4.889   1.963
 4266SOL    HW113697   1.365   4.823   2.017
 4266SOL    HW213698   1.391   4.982   1.987
 4267SOL     OW13699   1.170   4.237   4.379
 4267SOL    HW113700   1.153   4.218   4.476
 4267SOL    HW213701   1.090   4.281   4.339
 4268SOL     OW13702   1.106   3.898   6.143
 4268SOL    HW113703   1.010   3.906   6.172
 4268SOL    HW213704   1.140   3.988   6.118
 4269SOL     OW13705   2.859   1.291   4.982
 4269SOL    HW113706   2.835   1.252   5.071
 4269SOL    HW213707   2.906   1.222   4.928
 4270SOL     OW13708   3.557   3.054   0.170
 4270SOL    HW113709   3.521   3.146   0.184
 4270SOL    HW213710   3.611   3.052   0.086
 4271SOL     OW13711   6.839   1.111   1.418
 4271SOL    HW113712   6.802   1.068   1.501
 4271SOL    HW213713   6.790   1.075   1.338
 4272SOL     OW13714   6.611   0.872   6.266
 4272SOL    HW113715   6.599   0.886   6.364
 4272SOL    HW213716   6.530   0.825   6.229
 4273SOL     OW13717   2.910   5.969   4.432
 4273SOL    HW113718   2.902   5.960   4.532
 4273SOL    HW213719   2.818   5.973   4.392
 4274SOL     OW13720   7.012   1.443   2.463
 4274SOL    HW113721   0.011   1.455   2.366
 4274SOL    HW213722   0.047   1.507   2.517
 4275SOL     OW13723   0.501   2.446   3.456
 4275SOL    HW113724   0.504   2.346   3.460
 4275SOL    HW213725   0.562   2.484   3.526
 4276SOL     OW13726   2.146   5.855   2.815
 4276SOL    HW113727   2.131   5.831   2.911
 4276SOL    HW213728   2.070   5.821   2.760
 4277SOL     OW13729   6.765   5.664   2.883
 4277SOL    HW113730   6.845   5.712   2.847
 4277SOL    HW213731   6.752   5.578   2.833
 4278SOL     OW13732   1.104   6.931   1.404
 4278SOL    HW113733   1.067   6.913   1.313
 4278SOL    HW213734   1.068   7.018   1.438
 4279SOL     OW13735   0.793   2.130   3.591
 4279SOL    HW113736   0.890   2.115   3.605
 4279SOL    HW213737   0.780   2.187   3.509
 4280SOL     OW13738   2.110   6.412   6.371
 4280SOL    HW113739   2.126   6.492   6.313
 4280SOL    HW213740   2.109   6.330   6.314
 4281SOL     OW13741   5.354   5.864   3.077
 4281SOL    HW113742   5.357   5.962   3.059
 4281SOL    HW213743   5.429   5.818   3.030
 4282SOL     OW13744   4.529   5.247   2.269
 4282SOL    HW113745   4.449   5.187   2.272
 4282SOL    HW213746   4.558   5.259   2.174
 4283SOL     OW13747   4.924   1.501   4.711
 4283SOL    HW113748   4.905   1.405   4.692
 4283SOL    HW213749   4.929   1.516   4.809
 4284SOL     OW13750   4.520   5.239   6.564
 4284SOL    HW113751   4.567   5.227   6.477
 4284SOL    HW213752   4.427   5.203   6.558
 4285SOL     OW13753   3.738   1.300   6.243
 4285SOL    HW113754   3.751   1.296   6.144
 4285SOL    HW213755   3.682   1.222   6.273
 4286SOL     OW13756   5.828   0.625   6.314
 4286SOL    HW113757   5.854   0.633   6.410
 4286SOL    HW213758   5.755   0.556   6.305
 4287SOL     OW13759   3.431   0.875   1.211
 4287SOL    HW113760   3.400   0.867   1.306
 4287SOL    HW213761   3.401   0.962   1.173
 4288SOL     OW13762   6.973   6.092   1.974
 4288SOL    HW113763   6.930   6.167   1.925
 4288SOL    HW213764   0.050   6.111   1.986
 4289SOL     OW13765   0.156   4.809   4.530
 4289SOL    HW113766   0.189   4.867   4.455
 4289SOL    HW213767   0.152   4.714   4.500
 4290SOL     OW13768   0.439   1.233   3.199
 4290SOL    HW113769   0.528   1.279   3.189
 4290SOL    HW213770   0.453   1.134   3.202
 4291SOL     OW13771   3.981   4.286   6.533
 4291SOL    HW113772   3.889   4.265   6.501
 4291SOL    HW213773   3.999   4.239   6.619
 4292SOL     OW13774   6.494   1.382   1.677
 4292SOL    HW113775   6.560   1.372   1.752
 4292SOL    HW213776   6.428   1.307   1.681
 4293SOL     OW13777   3.800   2.903   0.066
 4293SOL    HW113778   3.735   2.901   7.011
 4293SOL    HW213779   3.891   2.925   0.031
 4294SOL     OW13780   2.624   1.767   6.563
 4294SOL    HW113781   2.583   1.855   6.589
 4294SOL    HW213782   2.674   1.729   6.641
 4295SOL     OW13783   4.238   6.193   3.027
 4295SOL    HW113784   4.310   6.174   2.960
 4295SOL    HW213785   4.211   6.289   3.022
 4296SOL     OW13786   2.542   6.633   2.462
 4296SOL    HW113787   2.579   6.576   2.535
 4296SOL    HW213788   2.504   6.576   2.390
 4297SOL     OW13789   5.180   5.044   0.366
 4297SOL    HW113790   5.202   4.975   0.297
 4297SOL    HW213791   5.103   5.100   0.335
 4298SOL     OW13792   1.826   0.513   0.642
 4298SOL    HW113793   1.915   0.510   0.687
 4298SOL    HW213794   1.836   0.551   0.550
 4299SOL     OW13795   1.104   2.867   7.011
 4299SOL    HW113796   1.201   2.852   6.994
 4299SOL    HW213797   1.087   2.964   0.002
 4300SOL     OW13798   2.964   0.389   1.837
 4300SOL    HW113799   2.988   0.300   1.799
 4300SOL    HW213800   3.046   0.446   1.840
 4301SOL     OW13801   2.657   5.725   6.862
 4301SOL    HW113802   2.594   5.763   6.931
 4301SOL    HW213803   2.683   5.632   6.888
 4302SOL     OW13804   3.502   4.871   5.755
 4302SOL    HW113805   3.596   4.849   5.730
 4302SOL    HW213806   3.440   4.835   5.686
 4303SOL     OW13807   5.008   5.390   3.097
 4303SOL    HW113808   4.935   5.449   3.131
 4303SOL    HW213809   4.976   5.296   3.094
 4304SOL     OW13810   3.077   4.038   1.392
 4304SOL    HW113811   3.001   4.079   1.342
 4304SOL    HW213812   3.047   3.955   1.437
 4305SOL     OW13813   1.128   6.301   6.143
 4305SOL    HW113814   1.181   6.345   6.070
 4305SOL    HW213815   1.178   6.306   6.229
 4306SOL     OW13816   5.543   4.184   5.084
 4306SOL    HW113817   5.494   4.103   5.050
 4306SOL    HW213818   5.484   4.233   5.148
 4307SOL     OW13819   0.298   0.858   5.770
 4307SOL    HW113820   0.354   0.844   5.852
 4307SOL    HW213821   0.324   0.944   5.727
 4308SOL     OW13822   4.738   5.588   6.367
 4308SOL    HW113823   4.812   5.522   6.358
 4308SOL    HW213824   4.670   5.554   6.432
 4309SOL     OW13825   1.473   1.150   6.989
 4309SOL    HW113826   1.391   1.183   0.016
 4309SOL    HW213827   1.449   1.068   6.936
 4310SOL     OW13828   6.800   2.149   3.245
 4310SOL    HW113829   6.757   2.218   3.187
 4310SOL    HW213830   6.877   2.190   3.294
 4311SOL     OW13831   0.547   6.981   1.700
 4311SOL    HW113832   0.601   0.015   1.763
 4311SOL    HW213833   0.600   6.963   1.618
 4312SOL     OW13834   6.528   4.653   2.469
 4312SOL    HW113835   6.624   4.671   2.489
 4312SOL    HW213836   6.500   4.568   2.515
 4313SOL     OW13837   0.826   2.950   6.480
 4313SOL    HW113838   0.888   2.969   6.556
 4313SOL    HW213839   0.733   2.942   6.514
 4314SOL     OW13840   0.959   1.379   6.551
 4314SOL    HW113841   0.972   1.373   6.452
 4314SOL    HW213842   1.047   1.369   6.597
 4315SOL     OW13843   2.776   1.193   5.254
 4315SOL    HW113844   2.766   1.259   5.328
 4315SOL    HW213845   2.686   1.162   5.224
 4316SOL     OW13846   4.705   5.830   1.637
 4316SOL    HW113847   4.727   5.737   1.607
 4316SOL    HW213848   4.778   5.892   1.608
 4317SOL     OW13849   5.005   0.816   5.657
 4317SOL    HW113850   5.088   0.795   5.709
 4317SOL    HW213851   5.006   0.912   5.629
 4318SOL     OW13852   1.178   6.345   4.291
 4318SOL    HW113853   1.264   6.390   4.266
 4318SOL    HW213854   1.196   6.274   4.359
 4319SOL     OW13855   0.990   3.834   2.486
 4319SOL    HW113856   1.056   3.872   2.550
 4319SOL    HW213857   0.900   3.829   2.529
 4320SOL     OW13858   3.116   0.396   0.576
 4320SOL    HW113859   3.118   0.444   0.664
 4320SOL    HW213860   3.108   0.463   0.502
 4321SOL     OW13861   6.602   6.524   3.206
 4321SOL    HW113862   6.635   6.431   3.194
 4321SOL    HW213863   6.606   6.548   3.303
 4322SOL     OW13864   1.953   2.046   5.004
 4322SOL    HW113865   2.039   2.038   5.055
 4322SOL    HW213866   1.890   1.975   5.035
 4323SOL     OW13867   4.795   4.883   0.291
 4323SOL    HW113868   4.711   4.881   0.344
 4323SOL    HW213869   4.790   4.956   0.222
 4324SOL     OW13870   1.182   4.839   5.606
 4324SOL    HW113871   1.107   4.844   5.672
 4324SOL    HW213872   1.193   4.745   5.575
 4325SOL     OW13873   2.318   6.936   2.424
 4325SOL    HW113874   2.224   6.963   2.444
 4325SOL    HW213875   2.378   7.016   2.432
 4326SOL     OW13876   5.241   2.114   2.049
 4326SOL    HW113877   5.269   2.189   1.988
 4326SOL    HW213878   5.306   2.108   2.125
 4327SOL     OW13879   2.523   5.303   3.743
 4327SOL    HW113880   2.537   5.356   3.659
 4327SOL    HW213881   2.529   5.206   3.722
 4328SOL     OW13882   6.598   0.305   3.861
 4328SOL    HW113883   6.667   0.282   3.930
 4328SOL    HW213884   6.509   0.317   3.906
 4329SOL     OW13885   0.255   2.615   6.838
 4329SOL    HW113886   0.290   2.549   6.905
 4329SOL    HW213887   0.159   2.593   6.817
 4330SOL     OW13888   2.660   5.263   4.423
 4330SOL    HW113889   2.597   5.326   4.378
 4330SOL    HW213890   2.696   5.305   4.506
 4331SOL     OW13891   5.884   1.921   2.663
 4331SOL    HW113892   5.890   1.821   2.668
 4331SOL    HW213893   5.931   1.961   2.741
 4332SOL     OW13894   1.176   5.411   1.484
 4332SOL    HW113895   1.183   5.450   1.575
 4332SOL    HW213896   1.248   5.448   1.426
 4333SOL     OW13897   3.982   2.287   6.090
 4333SOL    HW113898   4.063   2.232   6.107
 4333SOL    HW213899   3.919   2.280   6.167
 4334SOL     OW13900   0.495   2.663   4.334
 4334SOL    HW113901   0.498   2.639   4.431
 4334SOL    HW213902   0.465   2.758   4.325
 4335SOL     OW13903   2.552   3.972   1.456
 4335SOL    HW113904   2.503   4.058   1.468
 4335SOL    HW213905   2.614   3.978   1.378
 4336SOL     OW13906   2.766   5.886   5.401
 4336SOL    HW113907   2.675   5.879   5.441
 4336SOL    HW213908   2.761   5.936   5.314
 4337SOL     OW13909   0.726   5.072   3.802
 4337SOL    HW113910   0.748   5.066   3.899
 4337SOL    HW213911   0.810   5.087   3.749
 4338SOL     OW13912   3.069   2.633   5.798
 4338SOL    HW113913   3.076   2.558   5.732
 4338SOL    HW213914   2.998   2.611   5.864
 4339SOL     OW13915   4.340   5.046   5.936
 4339SOL    HW113916   4.318   5.079   6.028
 4339SOL    HW213917   4.373   4.952   5.942
 4340SOL     OW13918   6.445   4.020   1.672
 4340SOL    HW113919   6.405   3.974   1.593
 4340SOL    HW213920   6.375   4.032   1.743
 4341SOL     OW13921   6.389   6.051   1.485
 4341SOL    HW113922   6.306   6.000   1.505
 4341SOL    HW213923   6.410   6.112   1.561
 4342SOL     OW13924   5.136   3.390   2.528
 4342SOL    HW113925   5.181   3.479   2.533
 4342SOL    HW213926   5.188   3.323   2.581
 4343SOL     OW13927   3.591   6.771   6.110
 4343SOL    HW113928   3.590   6.770   6.010
 4343SOL    HW213929   3.652   6.699   6.143
 4344SOL     OW13930   6.864   4.006   2.982
 4344SOL    HW113931   6.944   3.955   2.952
 4344SOL    HW213932   6.857   4.003   3.082
 4345SOL     OW13933   3.411   2.929   2.468
 4345SOL    HW113934   3.336   2.880   2.423
 4345SOL    HW213935   3.378   3.020   2.496
 4346SOL     OW13936   1.013   2.961   2.674
 4346SOL    HW113937   1.060   3.049   2.681
 4346SOL    HW213938   1.066   2.892   2.724
 4347SOL     OW13939   6.778   5.818   0.361
 4347SOL    HW113940   6.747   5.860   0.446
 4347SOL    HW213941   6.871   5.848   0.341
 4348SOL     OW13942   5.850   5.129   4.981
 4348SOL    HW113943   5.840   5.050   4.921
 4348SOL    HW213944   5.761   5.156   5.016
 4349SOL     OW13945   0.297   3.197   4.108
 4349SOL    HW113946   0.301   3.165   4.013
 4349SOL    HW213947   0.385   3.183   4.152
 4350SOL     OW13948   3.722   1.010   4.073
 4350SOL    HW113949   3.655   1.084   4.071
 4350SOL    HW213950   3.741   0.980   3.979
 4351SOL     OW13951   0.847   5.611   0.514
 4351SOL    HW113952   0.786   5.595   0.591
 4351SOL    HW213953   0.903   5.692   0.531
 4352SOL     OW13954   3.814   5.090   1.734
 4352SOL    HW113955   3.824   5.183   1.700
 4352SOL    HW213956   3.788   5.091   1.830
 4353SOL     OW13957   2.742   2.734   1.363
 4353SOL    HW113958   2.742   2.741   1.264
 4353SOL    HW213959   2.836   2.744   1.397
 4354SOL     OW13960   5.796   6.571   2.703
 4354SOL    HW113961   5.737   6.609   2.774
 4354SOL    HW213962   5.862   6.641   2.674
 4355SOL     OW13963   1.721   5.017   2.290
 4355SOL    HW113964   1.665   5.010   2.373
 4355SOL    HW213965   1.725   5.112   2.261
 4356SOL     OW13966   6.275   2.773   5.339
 4356SOL    HW113967   6.309   2.680   5.352
 4356SOL    HW213968   6.315   2.811   5.255
 4357SOL     OW13969   5.249   0.478   2.057
 4357SOL    HW113970   5.249   0.507   2.153
 4357SOL    HW213971   5.310   0.537   2.004
 4358SOL     OW13972   2.780   0.027   0.395
 4358SOL    HW113973   2.738   0.106   0.350
 4358SOL    HW213974   2.809   6.981   0.325
 4359SOL     OW13975   3.048   1.899   1.205
 4359SOL    HW113976   2.948   1.898   1.202
 4359SOL    HW213977   3.082   1.813   1.244
 4360SOL     OW13978   2.395   4.894   3.955
 4360SOL    HW113979   2.372   4.870   3.860
 4360SOL    HW213980   2.445   4.819   3.997
 4361SOL     OW13981   0.204   2.186   0.169
 4361SOL    HW113982   0.249   2.201   0.081
 4361SOL    HW213983   0.258   2.121   0.223
 4362SOL     OW13984   0.852   5.447   3.100
 4362SOL    HW113985   0.892   5.435   3.009
 4362SOL    HW213986   0.829   5.358   3.138
 4363SOL     OW13987   3.889   1.093   2.425
 4363SOL    HW113988   3.864   1.189   2.430
 4363SOL    HW213989   3.970   1.083   2.368
 4364SOL     OW13990   4.029   3.433   2.972
 4364SOL    HW113991   4.063   3.402   2.882
 4364SOL    HW213992   4.003   3.353   3.026
 4365SOL     OW13993   2.134   1.210   1.205
 4365SOL    HW113994   2.154   1.209   1.107
 4365SOL    HW213995   2.040   1.178   1.220
 4366SOL     OW13996   4.951   0.049   4.573
 4366SOL    HW113997   4.989   0.001   4.495
 4366SOL    HW213998   5.024   0.074   4.637
 4367SOL     OW13999   2.898   6.193   2.718
 4367SOL    HW114000   2.925   6.115   2.773
 4367SOL    HW214001   2.800   6.210   2.731
 4368SOL     OW14002   4.942   4.108   3.716
 4368SOL    HW114003   4.918   4.011   3.727
 4368SOL    HW214004   4.956   4.127   3.619
 4369SOL     OW14005   5.164   3.896   3.842
 4369SOL    HW114006   5.075   3.867   3.808
 4369SOL    HW214007   5.206   3.958   3.776
 4370SOL     OW14008   3.760   4.528   1.642
 4370SOL    HW114009   3.692   4.458   1.620
 4370SOL    HW214010   3.721   4.592   1.708
 4371SOL     OW14011   2.073   1.097   1.747
 4371SOL    HW114012   2.070   1.102   1.647
 4371SOL    HW214013   2.129   1.020   1.775
 4372SOL     OW14014   1.781   3.369   4.403
 4372SOL    HW114015   1.806   3.399   4.311
 4372SOL    HW214016   1.685   3.391   4.420
 4373SOL     OW14017   3.414   0.800   6.549
 4373SOL    HW114018   3.368   0.854   6.619
 4373SOL    HW214019   3.352   0.786   6.472
 4374SOL     OW14020   2.738   6.377   0.414
 4374SOL    HW114021   2.738   6.475   0.395
 4374SOL    HW214022   2.802   6.358   0.488
 4375SOL     OW14023   4.611   1.555   5.285
 4375SOL    HW114024   4.657   1.593   5.205
 4375SOL    HW214025   4.520   1.597   5.294
 4376SOL     OW14026   2.378   5.690   6.725
 4376SOL    HW114027   2.456   5.634   6.754
 4376SOL    HW214028   2.338   5.735   6.805
 4377SOL     OW14029   5.169   6.713   6.592
 4377SOL    HW114030   5.070   6.703   6.601
 4377SOL    HW214031   5.214   6.628   6.621
 4378SOL     OW14032   2.464   5.148   2.261
 4378SOL    HW114033   2.422   5.110   2.178
 4378SOL    HW214034   2.511   5.075   2.310
 4379SOL     OW14035   0.979   0.077   1.561
 4379SOL    HW114036   0.889   0.035   1.570
 4379SOL    HW214037   0.972   0.176   1.574
 4380SOL     OW14038   2.193   5.071   4.499
 4380SOL    HW114039   2.136   5.008   4.445
 4380SOL    HW214040   2.286   5.071   4.463
 4381SOL     OW14041   4.815   6.180   5.590
 4381SOL    HW114042   4.859   6.198   5.678
 4381SOL    HW214043   4.749   6.252   5.571
 4382SOL     OW14044   4.925   3.452   3.161
 4382SOL    HW114045   4.882   3.385   3.221
 4382SOL    HW214046   4.909   3.426   3.065
 4383SOL     OW14047   0.896   1.749   0.006
 4383SOL    HW114048   0.884   1.747   0.105
 4383SOL    HW214049   0.842   1.676   6.985
 4384SOL     OW14050   3.872   6.528   1.206
 4384SOL    HW114051   3.921   6.495   1.286
 4384SOL    HW214052   3.936   6.569   1.142
 4385SOL     OW14053   6.370   2.005   2.246
 4385SOL    HW114054   6.337   1.916   2.214
 4385SOL    HW214055   6.361   2.072   2.172
 4386SOL     OW14056   1.527   3.515   6.777
 4386SOL    HW114057   1.430   3.530   6.794
 4386SOL    HW214058   1.548   3.537   6.681
 4387SOL     OW14059   6.771   2.708   1.876
 4387SOL    HW114060   6.809   2.616   1.873
 4387SOL    HW214061   6.844   2.775   1.862
 4388SOL     OW14062   3.182   1.294   5.222
 4388SOL    HW114063   3.215   1.293   5.127
 4388SOL    HW214064   3.221   1.372   5.269
 4389SOL     OW14065   5.928   1.891   2.092
 4389SOL    HW114066   5.848   1.835   2.069
 4389SOL    HW214067   5.898   1.975   2.137
 4390SOL     OW14068   4.281   2.599   1.714
 4390SOL    HW114069   4.264   2.573   1.619
 4390SOL    HW214070   4.216   2.670   1.741
 4391SOL     OW14071   0.476   5.893   1.143
 4391SOL    HW114072   0.492   5.801   1.180
 4391SOL    HW214073   0.474   5.888   1.043
 4392SOL     OW14074   5.333   3.318   4.255
 4392SOL    HW114075   5.269   3.387   4.222
 4392SOL    HW214076   5.294   3.227   4.240
 4393SOL     OW14077   4.844   5.818   3.701
 4393SOL    HW114078   4.910   5.743   3.695
 4393SOL    HW214079   4.804   5.818   3.793
 4394SOL     OW14080   4.779   0.907   2.649
 4394SOL    HW114081   4.679   0.908   2.656
 4394SOL    HW214082   4.806   0.872   2.559
 4395SOL     OW14083   4.711   2.049   1.443
 4395SOL    HW114084   4.743   2.041   1.538
 4395SOL    HW214085   4.723   1.962   1.396
 4396SOL     OW14086   1.350   0.877   4.202
 4396SOL    HW114087   1.329   0.957   4.146
 4396SOL    HW214088   1.275   0.811   4.195
 4397SOL     OW14089   6.073   0.388   6.447
 4397SOL    HW114090   5.992   0.384   6.388
 4397SOL    HW214091   6.154   0.402   6.391
 4398SOL     OW14092   6.865   4.809   4.051
 4398SOL    HW114093   6.784   4.826   3.995
 4398SOL    HW214094   6.855   4.722   4.098
 4399SOL     OW14095   2.591   1.332   1.699
 4399SOL    HW114096   2.637   1.417   1.725
 4399SOL    HW214097   2.591   1.269   1.777
 4400SOL     OW14098   3.475   5.728   3.742
 4400SOL    HW114099   3.474   5.783   3.825
 4400SOL    HW214100   3.384   5.689   3.727
 4401SOL     OW14101   5.691   6.615   4.459
 4401SOL    HW114102   5.648   6.546   4.400
 4401SOL    HW214103   5.769   6.655   4.411
 4402SOL     OW14104   6.397   0.570   3.196
 4402SOL    HW114105   6.412   0.585   3.294
 4402SOL    HW214106   6.301   0.548   3.179
 4403SOL     OW14107   0.786   0.048   2.775
 4403SOL    HW114108   0.822   0.006   2.858
 4403SOL    HW214109   0.787   0.148   2.785
 4404SOL     OW14110   1.749   4.290   3.459
 4404SOL    HW114111   1.679   4.228   3.493
 4404SOL    HW214112   1.831   4.282   3.515
 4405SOL     OW14113   3.322   4.095   6.530
 4405SOL    HW114114   3.307   4.029   6.456
 4405SOL    HW214115   3.355   4.181   6.491
 4406SOL     OW14116   5.653   3.610   1.930
 4406SOL    HW114117   5.694   3.693   1.968
 4406SOL    HW214118   5.597   3.564   1.999
 4407SOL     OW14119   6.983   6.862   0.199
 4407SOL    HW114120   6.915   6.837   0.268
 4407SOL    HW214121   0.034   6.917   0.241
 4408SOL     OW14122   4.952   6.184   0.937
 4408SOL    HW114123   4.965   6.087   0.918
 4408SOL    HW214124   4.855   6.207   0.933
 4409SOL     OW14125   2.093   1.269   2.111
 4409SOL    HW114126   2.032   1.347   2.108
 4409SOL    HW214127   2.186   1.298   2.089
 4410SOL     OW14128   2.412   5.695   1.403
 4410SOL    HW114129   2.409   5.745   1.490
 4410SOL    HW214130   2.493   5.722   1.351
 4411SOL     OW14131   3.981   3.053   2.936
 4411SOL    HW114132   4.068   3.087   2.900
 4411SOL    HW214133   3.925   3.018   2.861
 4412SOL     OW14134   3.853   1.666   6.090
 4412SOL    HW114135   3.791   1.590   6.069
 4412SOL    HW214136   3.868   1.670   6.189
 4413SOL     OW14137   4.252   5.505   4.714
 4413SOL    HW114138   4.263   5.573   4.641
 4413SOL    HW214139   4.233   5.416   4.673
 4414SOL     OW14140   3.287   5.438   1.444
 4414SOL    HW114141   3.341   5.368   1.490
 4414SOL    HW214142   3.297   5.428   1.345
 4415SOL     OW14143   4.451   1.767   1.050
 4415SOL    HW114144   4.392   1.837   1.010
 4415SOL    HW214145   4.538   1.766   1.000
 4416SOL     OW14146   3.168   1.318   4.277
 4416SOL    HW114147   3.217   1.245   4.326
 4416SOL    HW214148   3.115   1.278   4.202
 4417SOL     OW14149   0.469   0.588   0.553
 4417SOL    HW114150   0.402   0.661   0.544
 4417SOL    HW214151   0.441   0.526   0.626
 4418SOL     OW14152   4.715   0.581   3.775
 4418SOL    HW114153   4.782   0.508   3.786
 4418SOL    HW214154   4.642   0.570   3.842
 4419SOL     OW14155   6.871   5.581   0.218
 4419SOL    HW114156   6.817   5.627   0.288
 4419SOL    HW214157   6.967   5.609   0.227
 4420SOL     OW14158   4.345   0.823   6.982
 4420SOL    HW114159   4.254   0.836   0.002
 4420SOL    HW214160   4.371   0.905   6.931
 4421SOL     OW14161   1.972   1.900   3.479
 4421SOL    HW114162   1.992   1.995   3.457
 4421SOL    HW214163   2.035   1.868   3.550
 4422SOL     OW14164   2.120   4.109   5.767
 4422SOL    HW114165   2.108   4.022   5.719
 4422SOL    HW214166   2.206   4.151   5.738
 4423SOL     OW14167   6.768   1.526   6.611
 4423SOL    HW114168   6.844   1.591   6.611
 4423SOL    HW214169   6.718   1.533   6.697
 4424SOL     OW14170   0.204   6.441   3.986
 4424SOL    HW114171   0.268   6.486   4.048
 4424SOL    HW214172   0.254   6.396   3.912
 4425SOL     OW14173   4.362   4.528   0.235
 4425SOL    HW114174   4.389   4.533   0.139
 4425SOL    HW214175   4.424   4.465   0.283
 4426SOL     OW14176   1.048   0.461   5.426
 4426SOL    HW114177   1.142   0.432   5.443
 4426SOL    HW214178   1.039   0.486   5.330
 4427SOL     OW14179   1.271   6.236   3.204
 4427SOL    HW114180   1.334   6.280   3.269
 4427SOL    HW214181   1.318   6.160   3.159
 4428SOL     OW14182   2.577   6.161   2.745
 4428SOL    HW114183   2.506   6.227   2.772
 4428SOL    HW214184   2.534   6.084   2.699
 4429SOL     OW14185   3.639   0.760   3.113
 4429SOL    HW114186   3.585   0.787   3.192
 4429SOL    HW214187   3.584   0.704   3.051
 4430SOL     OW14188   1.245   0.569   1.390
 4430SOL    HW114189   1.226   0.582   1.488
 4430SOL    HW214190   1.221   0.653   1.341
 4431SOL     OW14191   2.177   1.653   3.471
 4431SOL    HW114192   2.217   1.731   3.423
 4431SOL    HW214193   2.223   1.641   3.559
 4432SOL     OW14194   2.963   3.781   3.863
 4432SOL    HW114195   2.947   3.779   3.765
 4432SOL    HW214196   2.958   3.688   3.900
 4433SOL     OW14197   6.878   0.627   3.456
 4433SOL    HW114198   6.790   0.675   3.456
 4433SOL    HW214199   6.905   0.607   3.550
 4434SOL     OW14200   4.822   2.320   4.496
 4434SOL    HW114201   4.779   2.257   4.560
 4434SOL    HW214202   4.779   2.312   4.407
 4435SOL     OW14203   3.729   2.903   2.430
 4435SOL    HW114204   3.684   2.875   2.514
 4435SOL    HW214205   3.692   2.851   2.353
 4436SOL     OW14206   4.957   0.626   0.881
 4436SOL    HW114207   5.030   0.572   0.922
 4436SOL    HW214208   4.950   0.606   0.783
 4437SOL     OW14209   3.583   0.228   4.849
 4437SOL    HW114210   3.619   0.260   4.762
 4437SOL    HW214211   3.657   0.189   4.904
 4438SOL     OW14212   3.862   3.885   6.542
 4438SOL    HW114213   3.880   3.866   6.445
 4438SOL    HW214214   3.770   3.854   6.566
 4439SOL     OW14215   2.081   5.045   2.471
 4439SOL    HW114216   2.109   5.082   2.383
 4439SOL    HW214217   2.037   4.956   2.458
 4440SOL     OW14218   6.539   0.594   6.728
 4440SOL    HW114219   6.563   0.526   6.659
 4440SOL    HW214220   6.446   0.575   6.761
 4441SOL     OW14221   5.621   2.139   3.697
 4441SOL    HW114222   5.562   2.165   3.774
 4441SOL    HW214223   5.637   2.041   3.700
 4442SOL     OW14224   2.082   6.792   2.216
 4442SOL    HW114225   2.085   6.892   2.210
 4442SOL    HW214226   2.026   6.765   2.294
 4443SOL     OW14227   2.684   1.410   5.988
 4443SOL    HW114228   2.644   1.423   6.079
 4443SOL    HW214229   2.656   1.321   5.953
 4444SOL     OW14230   5.569   0.737   2.825
 4444SOL    HW114231   5.660   0.707   2.854
 4444SOL    HW214232   5.542   0.817   2.879
 4445SOL     OW14233   1.699   1.271   6.029
 4445SOL    HW114234   1.648   1.229   6.105
 4445SOL    HW214235   1.673   1.368   6.023
 4446SOL     OW14236   5.433   5.542   3.704
 4446SOL    HW114237   5.468   5.538   3.611
 4446SOL    HW214238   5.376   5.462   3.722
 4447SOL     OW14239   4.959   3.438   4.915
 4447SOL    HW114240   4.891   3.494   4.963
 4447SOL    HW214241   4.948   3.342   4.942
 4448SOL     OW14242   2.636   2.462   6.378
 4448SOL    HW114243   2.591   2.523   6.313
 4448SOL    HW214244   2.705   2.407   6.330
 4449SOL     OW14245   0.769   1.485   5.319
 4449SOL    HW114246   0.762   1.387   5.299
 4449SOL    HW214247   0.730   1.538   5.244
 4450SOL     OW14248   4.037   3.606   3.411
 4450SOL    HW114249   4.060   3.679   3.346
 4450SOL    HW214250   3.955   3.632   3.462
 4451SOL     OW14251   0.013   4.241   1.840
 4451SOL    HW114252   0.072   4.266   1.917
 4451SOL    HW214253   6.939   4.232   1.871
 4452SOL     OW14254   6.578   4.072   6.530
 4452SOL    HW114255   6.648   4.081   6.459
 4452SOL    HW214256   6.530   4.160   6.540
 4453SOL     OW14257   5.359   2.216   1.175
 4453SOL    HW114258   5.261   2.221   1.158
 4453SOL    HW214259   5.375   2.155   1.253
 4454SOL     OW14260   5.473   3.264   1.338
 4454SOL    HW114261   5.483   3.165   1.340
 4454SOL    HW214262   5.548   3.306   1.388
 4455SOL     OW14263   4.624   1.787   1.680
 4455SOL    HW114264   4.588   1.749   1.594
 4455SOL    HW214265   4.583   1.876   1.697
 4456SOL     OW14266   1.282   5.729   2.625
 4456SOL    HW114267   1.339   5.798   2.669
 4456SOL    HW214268   1.319   5.708   2.535
 4457SOL     OW14269   5.148   1.938   6.493
 4457SOL    HW114270   5.055   1.905   6.507
 4457SOL    HW214271   5.198   1.875   6.435
 4458SOL     OW14272   3.838   1.949   0.027
 4458SOL    HW114273   3.865   1.942   6.951
 4458SOL    HW214274   3.877   1.873   0.078
 4459SOL     OW14275   5.043   6.173   5.892
 4459SOL    HW114276   5.091   6.128   5.816
 4459SOL    HW214277   5.106   6.235   5.938
 4460SOL     OW14278   1.300   1.170   6.173
 4460SOL    HW114279   1.382   1.131   6.133
 4460SOL    HW214280   1.308   1.270   6.175
 4461SOL     OW14281   2.216   0.576   2.243
 4461SOL    HW114282   2.170   0.647   2.189
 4461SOL    HW214283   2.243   0.500   2.183
 4462SOL     OW14284   0.020   5.632   0.796
 4462SOL    HW114285   0.005   5.533   0.793
 4462SOL    HW214286   0.005   5.665   0.889
 4463SOL     OW14287   1.339   3.684   5.862
 4463SOL    HW114288   1.307   3.590   5.864
 4463SOL    HW214289   1.265   3.746   5.889
 4464SOL     OW14290   6.017   3.307   6.832
 4464SOL    HW114291   5.985   3.345   6.919
 4464SOL    HW214292   5.993   3.370   6.758
 4465SOL     OW14293   0.938   6.103   1.656
 4465SOL    HW114294   0.917   6.066   1.566
 4465SOL    HW214295   0.933   6.203   1.655
 4466SOL     OW14296   0.864   2.433   3.540
 4466SOL    HW114297   0.811   2.518   3.539
 4466SOL    HW214298   0.939   2.441   3.606
 4467SOL     OW14299   1.399   0.173   3.336
 4467SOL    HW114300   1.361   0.208   3.422
 4467SOL    HW214301   1.460   0.096   3.356
 4468SOL     OW14302   1.488   2.350   0.348
 4468SOL    HW114303   1.446   2.441   0.342
 4468SOL    HW214304   1.453   2.293   0.274
 4469SOL     OW14305   4.260   6.979   0.531
 4469SOL    HW114306   4.253   6.919   0.452
 4469SOL    HW214307   4.168   7.009   0.559
 4470SOL     OW14308   4.985   5.651   1.038
 4470SOL    HW114309   4.893   5.682   1.061
 4470SOL    HW214310   5.051   5.722   1.063
 4471SOL     OW14311   6.510   3.196   0.698
 4471SOL    HW114312   6.458   3.238   0.773
 4471SOL    HW214313   6.480   3.235   0.611
 4472SOL     OW14314   1.868   4.839   1.606
 4472SOL    HW114315   1.958   4.839   1.650
 4472SOL    HW214316   1.801   4.883   1.666
 4473SOL     OW14317   0.934   0.284   6.112
 4473SOL    HW114318   0.839   0.316   6.112
 4473SOL    HW214319   0.952   0.233   6.195
 4474SOL     OW14320   5.973   0.410   3.845
 4474SOL    HW114321   6.071   0.428   3.840
 4474SOL    HW214322   5.922   0.488   3.808
 4475SOL     OW14323   1.396   4.156   0.104
 4475SOL    HW114324   1.418   4.241   0.056
 4475SOL    HW214325   1.387   4.082   0.037
 4476SOL     OW14326   5.089   6.310   2.130
 4476SOL    HW114327   5.007   6.254   2.133
 4476SOL    HW214328   5.065   6.406   2.148
 4477SOL     OW14329   1.377   1.528   6.940
 4477SOL    HW114330   1.437   1.605   6.919
 4477SOL    HW214331   1.377   1.463   6.864
 4478SOL     OW14332   1.417   5.439   1.933
 4478SOL    HW114333   1.390   5.439   1.837
 4478SOL    HW214334   1.515   5.421   1.940
 4479SOL     OW14335   0.190   0.190   5.696
 4479SOL    HW114336   0.152   0.106   5.657
 4479SOL    HW214337   0.141   0.269   5.659
 4480SOL     OW14338   1.032   4.690   3.822
 4480SOL    HW114339   1.073   4.768   3.775
 4480SOL    HW214340   0.932   4.696   3.817
 4481SOL     OW14341   1.030   6.865   3.606
 4481SOL    HW114342   0.941   6.911   3.613
 4481SOL    HW214343   1.018   6.774   3.568
 4482SOL     OW14344   0.653   4.518   3.709
 4482SOL    HW114345   0.646   4.469   3.796
 4482SOL    HW214346   0.690   4.609   3.726
 4483SOL     OW14347   4.980   2.815   1.548
 4483SOL    HW114348   4.940   2.883   1.610
 4483SOL    HW214349   4.914   2.741   1.534
 4484SOL     OW14350   3.991   2.930   6.378
 4484SOL    HW114351   3.905   2.983   6.376
 4484SOL    HW214352   4.034   2.940   6.467
 4485SOL     OW14353   4.758   0.578   6.822
 4485SOL    HW114354   4.778   0.672   6.793
 4485SOL    HW214355   4.843   0.527   6.831
 4486SOL     OW14356   6.573   2.748   3.651
 4486SOL    HW114357   6.484   2.789   3.630
 4486SOL    HW214358   6.616   2.798   3.727
 4487SOL     OW14359   3.048   3.169   5.858
 4487SOL    HW114360   3.045   3.086   5.802
 4487SOL    HW214361   2.968   3.226   5.839
 4488SOL     OW14362   0.087   1.656   6.046
 4488SOL    HW114363   0.143   1.671   5.965
 4488SOL    HW214364   0.108   1.566   6.085
 4489SOL     OW14365   6.484   0.767   3.028
 4489SOL    HW114366   6.484   0.846   3.089
 4489SOL    HW214367   6.457   0.685   3.079
 4490SOL     OW14368   6.742   2.305   3.533
 4490SOL    HW114369   6.752   2.403   3.551
 4490SOL    HW214370   6.767   2.285   3.439
 4491SOL     OW14371   1.785   3.096   3.146
 4491SOL    HW114372   1.705   3.123   3.093
 4491SOL    HW214373   1.807   3.168   3.212
 4492SOL     OW14374   4.470   3.929   6.507
 4492SOL    HW114375   4.477   3.846   6.562
 4492SOL    HW214376   4.558   3.976   6.508
 4493SOL     OW14377   5.782   5.384   3.092
 4493SOL    HW114378   5.709   5.403   3.026
 4493SOL    HW214379   5.817   5.292   3.077
 4494SOL     OW14380   6.077   3.208   3.941
 4494SOL    HW114381   6.056   3.186   3.846
 4494SOL    HW214382   6.143   3.142   3.976
 4495SOL     OW14383   4.452   6.173   2.112
 4495SOL    HW114384   4.403   6.132   2.035
 4495SOL    HW214385   4.388   6.189   2.187
 4496SOL     OW14386   5.147   4.355   6.007
 4496SOL    HW114387   5.243   4.381   6.014
 4496SOL    HW214388   5.131   4.272   6.060
 4497SOL     OW14389   6.261   5.174   1.073
 4497SOL    HW114390   6.217   5.259   1.102
 4497SOL    HW214391   6.219   5.142   0.988
 4498SOL     OW14392   0.324   3.799   6.948
 4498SOL    HW114393   0.359   3.741   6.874
 4498SOL    HW214394   0.242   3.758   6.987
 4499SOL     OW14395   6.218   3.114   6.868
 4499SOL    HW114396   6.265   3.096   6.782
 4499SOL    HW214397   6.167   3.200   6.862
 4500SOL     OW14398   3.356   3.889   4.755
 4500SOL    HW114399   3.420   3.943   4.700
 4500SOL    HW214400   3.303   3.829   4.695
 4501SOL     OW14401   1.058   4.518   4.585
 4501SOL    HW114402   1.040   4.604   4.536
 4501SOL    HW214403   1.157   4.508   4.600
 4502SOL     OW14404   6.153   2.975   0.068
 4502SOL    HW114405   6.166   2.969   6.989
 4502SOL    HW214406   6.183   3.064   0.100
 4503SOL     OW14407   1.590   1.997   2.704
 4503SOL    HW114408   1.659   1.955   2.762
 4503SOL    HW214409   1.588   2.096   2.721
 4504SOL     OW14410   4.343   2.415   4.666
 4504SOL    HW114411   4.280   2.348   4.704
 4504SOL    HW214412   4.389   2.464   4.740
 4505SOL     OW14413   1.944   5.119   5.825
 4505SOL    HW114414   1.882   5.058   5.774
 4505SOL    HW214415   2.025   5.137   5.770
 4506SOL     OW14416   4.266   6.934   5.230
 4506SOL    HW114417   4.191   6.926   5.164
 4506SOL    HW214418   4.345   6.882   5.196
 4507SOL     OW14419   6.223   4.273   1.592
 4507SOL    HW114420   6.165   4.354   1.585
 4507SOL    HW214421   6.301   4.293   1.651
 4508SOL     OW14422   1.485   4.307   0.547
 4508SOL    HW114423   1.403   4.249   0.551
 4508SOL    HW214424   1.518   4.311   0.453
 4509SOL     OW14425   0.921   2.034   4.127
 4509SOL    HW114426   0.969   2.045   4.040
 4509SOL    HW214427   0.822   2.040   4.112
 4510SOL     OW14428   3.567   6.605   5.298
 4510SOL    HW114429   3.546   6.581   5.393
 4510SOL    HW214430   3.509   6.681   5.269
 4511SOL     OW14431   6.170   3.495   6.345
 4511SOL    HW114432   6.099   3.438   6.304
 4511SOL    HW214433   6.258   3.475   6.303
 4512SOL     OW14434   2.632   4.999   0.678
 4512SOL    HW114435   2.684   4.922   0.716
 4512SOL    HW214436   2.694   5.076   0.663
 4513SOL     OW14437   5.208   0.943   2.028
 4513SOL    HW114438   5.122   0.992   2.034
 4513SOL    HW214439   5.260   0.976   1.949
 4514SOL     OW14440   3.622   1.351   5.525
 4514SOL    HW114441   3.540   1.403   5.500
 4514SOL    HW214442   3.605   1.254   5.510
 4515SOL     OW14443   6.846   5.146   0.813
 4515SOL    HW114444   6.918   5.102   0.867
 4515SOL    HW214445   6.762   5.150   0.867
 4516SOL     OW14446   1.504   6.843   4.411
 4516SOL    HW114447   1.460   6.905   4.346
 4516SOL    HW214448   1.583   6.800   4.367
 4517SOL     OW14449   3.643   6.716   5.853
 4517SOL    HW114450   3.588   6.764   5.785
 4517SOL    HW214451   3.686   6.636   5.810
 4518SOL     OW14452   1.227   1.344   4.254
 4518SOL    HW114453   1.136   1.307   4.271
 4518SOL    HW214454   1.228   1.391   4.166
 4519SOL     OW14455   6.366   2.623   4.471
 4519SOL    HW114456   6.364   2.628   4.371
 4519SOL    HW214457   6.380   2.529   4.499
 4520SOL     OW14458   0.585   4.336   3.017
 4520SOL    HW114459   0.531   4.396   2.957
 4520SOL    HW214460   0.599   4.248   2.972
 4521SOL     OW14461   5.705   2.320   5.700
 4521SOL    HW114462   5.777   2.388   5.687
 4521SOL    HW214463   5.723   2.240   5.643
 4522SOL     OW14464   5.628   0.465   3.428
 4522SOL    HW114465   5.586   0.543   3.474
 4522SOL    HW214466   5.667   0.403   3.496
 4523SOL     OW14467   3.694   3.167   6.963
 4523SOL    HW114468   3.637   3.240   6.925
 4523SOL    HW214469   3.766   3.143   6.897
 4524SOL     OW14470   6.051   0.509   5.294
 4524SOL    HW114471   6.103   0.430   5.262
 4524SOL    HW214472   5.962   0.510   5.249
 4525SOL     OW14473   6.467   1.461   5.656
 4525SOL    HW114474   6.549   1.452   5.713
 4525SOL    HW214475   6.495   1.477   5.561
 4526SOL     OW14476   3.931   1.414   0.681
 4526SOL    HW114477   3.964   1.504   0.710
 4526SOL    HW214478   3.939   1.350   0.758
 4527SOL     OW14479   3.624   1.300   4.088
 4527SOL    HW114480   3.554   1.351   4.137
 4527SOL    HW214481   3.713   1.343   4.103
 4528SOL     OW14482   5.512   0.019   6.437
 4528SOL    HW114483   5.434   0.051   6.491
 4528SOL    HW214484   5.536   0.088   6.369
 4529SOL     OW14485   3.709   0.347   3.509
 4529SOL    HW114486   3.726   0.304   3.420
 4529SOL    HW214487   3.651   0.428   3.496
 4530SOL     OW14488   0.811   2.982   4.957
 4530SOL    HW114489   0.731   2.924   4.974
 4530SOL    HW214490   0.822   2.995   4.858
 4531SOL     OW14491   0.071   3.249   3.538
 4531SOL    HW114492   0.051   3.273   3.443
 4531SOL    HW214493   7.007   3.248   3.591
 4532SOL     OW14494   6.604   1.656   0.421
 4532SOL    HW114495   6.599   1.591   0.497
 4532SOL    HW214496   6.596   1.749   0.457
 4533SOL     OW14497   2.781   5.891   2.505
 4533SOL    HW114498   2.849   5.869   2.435
 4533SOL    HW214499   2.819   5.957   2.570
 4534SOL     OW14500   6.719   4.052   5.375
 4534SOL    HW114501   6.746   4.145   5.350
 4534SOL    HW214502   6.797   3.990   5.366
 4535SOL     OW14503   4.953   2.701   2.573
 4535SOL    HW114504   5.034   2.703   2.632
 4535SOL    HW214505   4.875   2.667   2.625
 4536SOL     OW14506   6.550   1.040   3.930
 4536SOL    HW114507   6.519   1.025   4.024
 4536SOL    HW214508   6.472   1.062   3.872
 4537SOL     OW14509   3.607   3.184   5.875
 4537SOL    HW114510   3.613   3.088   5.903
 4537SOL    HW214511   3.577   3.239   5.952
 4538SOL     OW14512   3.645   1.240   2.508
 4538SOL    HW114513   3.554   1.258   2.547
 4538SOL    HW214514   3.647   1.147   2.472
 4539SOL     OW14515   1.016   1.756   2.395
 4539SOL    HW114516   1.053   1.807   2.472
 4539SOL    HW214517   1.039   1.803   2.309
 4540SOL     OW14518   3.131   3.092   4.483
 4540SOL    HW114519   3.183   3.049   4.409
 4540SOL    HW214520   3.139   3.036   4.566
 4541SOL     OW14521   6.083   1.601   1.178
 4541SOL    HW114522   6.047   1.513   1.146
 4541SOL    HW214523   6.027   1.636   1.253
 4542SOL     OW14524   4.660   0.334   3.625
 4542SOL    HW114525   4.708   0.301   3.707
 4542SOL    HW214526   4.724   0.379   3.564
 4543SOL     OW14527   5.431   1.936   1.735
 4543SOL    HW114528   5.395   1.905   1.823
 4543SOL    HW214529   5.518   1.984   1.750
 4544SOL     OW14530   3.503   4.537   6.523
 4544SOL    HW114531   3.448   4.619   6.535
 4544SOL    HW214532   3.509   4.488   6.610
 4545SOL     OW14533   4.059   2.857   5.826
 4545SOL    HW114534   4.158   2.866   5.811
 4545SOL    HW214535   4.043   2.825   5.919
 4546SOL     OW14536   0.841   6.571   6.453
 4546SOL    HW114537   0.915   6.519   6.410
 4546SOL    HW214538   0.874   6.661   6.480
 4547SOL     OW14539   4.376   1.920   1.288
 4547SOL    HW114540   4.404   1.832   1.326
 4547SOL    HW214541   4.446   1.952   1.224
 4548SOL     OW14542   1.624   3.078   3.813
 4548SOL    HW114543   1.528   3.097   3.793
 4548SOL    HW214544   1.631   2.995   3.868
 4549SOL     OW14545   4.918   1.831   2.593
 4549SOL    HW114546   5.002   1.853   2.543
 4549SOL    HW214547   4.896   1.905   2.656
 4550SOL     OW14548   1.383   6.080   4.836
 4550SOL    HW114549   1.297   6.054   4.792
 4550SOL    HW214550   1.453   6.012   4.816
 4551SOL     OW14551   0.522   2.595   5.857
 4551SOL    HW114552   0.509   2.571   5.953
 4551SOL    HW214553   0.573   2.681   5.851
 4552SOL     OW14554   0.221   2.842   3.877
 4552SOL    HW114555   0.263   2.802   3.958
 4552SOL    HW214556   0.122   2.850   3.891
 4553SOL     OW14557   5.100   4.632   0.822
 4553SOL    HW114558   5.018   4.576   0.828
 4553SOL    HW214559   5.143   4.639   0.912
 4554SOL     OW14560   5.512   6.841   3.361
 4554SOL    HW114561   5.424   6.811   3.397
 4554SOL    HW214562   5.581   6.837   3.434
 4555SOL     OW14563   5.338   1.707   0.211
 4555SOL    HW114564   5.262   1.750   0.260
 4555SOL    HW214565   5.418   1.702   0.270
 4556SOL     OW14566   5.228   1.310   4.762
 4556SOL    HW114567   5.133   1.321   4.736
 4556SOL    HW214568   5.275   1.399   4.754
 4557SOL     OW14569   5.232   0.140   5.822
 4557SOL    HW114570   5.136   0.113   5.823
 4557SOL    HW214571   5.240   0.234   5.790
 4558SOL     OW14572   6.665   3.541   5.802
 4558SOL    HW114573   6.686   3.451   5.763
 4558SOL    HW214574   6.664   3.534   5.902
 4559SOL     OW14575   0.586   6.429   1.622
 4559SOL    HW114576   0.593   6.455   1.719
 4559SOL    HW214577   0.524   6.492   1.575
 4560SOL     OW14578   4.935   2.754   2.862
 4560SOL    HW114579   5.021   2.747   2.812
 4560SOL    HW214580   4.951   2.790   2.953
 4561SOL     OW14581   3.183   0.223   6.460
 4561SOL    HW114582   3.160   0.140   6.409
 4561SOL    HW214583   3.256   0.203   6.526
 4562SOL     OW14584   3.325   5.321   5.231
 4562SOL    HW114585   3.315   5.382   5.152
 4562SOL    HW214586   3.332   5.226   5.200
 4563SOL     OW14587   5.090   2.589   6.286
 4563SOL    HW114588   5.056   2.590   6.193
 4563SOL    HW214589   5.175   2.641   6.291
 4564SOL     OW14590   1.641   5.685   6.738
 4564SOL    HW114591   1.729   5.704   6.694
 4564SOL    HW214592   1.576   5.652   6.670
 4565SOL     OW14593   2.667   0.893   4.103
 4565SOL    HW114594   2.679   0.854   4.012
 4565SOL    HW214595   2.613   0.978   4.097
 4566SOL     OW14596   0.825   1.758   0.265
 4566SOL    HW114597   0.727   1.752   0.285
 4566SOL    HW214598   0.862   1.842   0.305
 4567SOL     OW14599   6.777   0.796   0.570
 4567SOL    HW114600   6.780   0.866   0.642
 4567SOL    HW214601   6.758   0.707   0.612
 4568SOL     OW14602   3.359   5.087   5.105
 4568SOL    HW114603   3.355   5.059   5.009
 4568SOL    HW214604   3.357   5.007   5.164
 4569SOL     OW14605   0.180   1.822   4.072
 4569SOL    HW114606   0.136   1.912   4.071
 4569SOL    HW214607   0.264   1.826   4.126
 4570SOL     OW14608   6.728   5.136   4.394
 4570SOL    HW114609   6.697   5.055   4.443
 4570SOL    HW214610   6.680   5.143   4.307
 4571SOL     OW14611   3.452   3.313   4.056
 4571SOL    HW114612   3.523   3.262   4.104
 4571SOL    HW214613   3.467   3.411   4.071
 4572SOL     OW14614   2.333   6.211   1.769
 4572SOL    HW114615   2.367   6.140   1.708
 4572SOL    HW214616   2.379   6.204   1.858
 4573SOL     OW14617   5.577   6.533   0.751
 4573SOL    HW114618   5.622   6.525   0.662
 4573SOL    HW214619   5.645   6.522   0.823
 4574SOL     OW14620   0.828   4.446   1.833
 4574SOL    HW114621   0.892   4.411   1.902
 4574SOL    HW214622   0.736   4.450   1.872
 4575SOL     OW14623   6.681   6.783   1.916
 4575SOL    HW114624   6.683   6.782   2.016
 4575SOL    HW214625   6.724   6.868   1.883
 4576SOL     OW14626   3.402   5.910   4.564
 4576SOL    HW114627   3.372   6.005   4.555
 4576SOL    HW214628   3.423   5.874   4.473
 4577SOL     OW14629   1.100   2.729   4.323
 4577SOL    HW114630   1.079   2.723   4.225
 4577SOL    HW214631   1.081   2.641   4.367
 4578SOL     OW14632   0.474   4.148   3.899
 4578SOL    HW114633   0.462   4.099   3.813
 4578SOL    HW214634   0.387   4.150   3.949
 4579SOL     OW14635   5.271   2.334   4.085
 4579SOL    HW114636   5.276   2.422   4.039
 4579SOL    HW214637   5.178   2.298   4.078
 4580SOL     OW14638   0.309   6.033   0.416
 4580SOL    HW114639   0.283   6.026   0.512
 4580SOL    HW214640   0.387   5.972   0.398
 4581SOL     OW14641   3.585   5.704   3.486
 4581SOL    HW114642   3.547   5.786   3.444
 4581SOL    HW214643   3.568   5.706   3.584
 4582SOL     OW14644   4.608   6.860   3.040
 4582SOL    HW114645   4.528   6.915   3.063
 4582SOL    HW214646   4.607   6.839   2.943
 4583SOL     OW14647   4.353   1.611   5.278
 4583SOL    HW114648   4.327   1.691   5.333
 4583SOL    HW214649   4.288   1.599   5.203
 4584SOL     OW14650   0.417   4.624   5.518
 4584SOL    HW114651   0.469   4.698   5.560
 4584SOL    HW214652   0.384   4.654   5.428
 4585SOL     OW14653   3.889   6.641   2.565
 4585SOL    HW114654   3.935   6.705   2.503
 4585SOL    HW214655   3.944   6.559   2.574
 4586SOL     OW14656   3.207   6.313   2.095
 4586SOL    HW114657   3.174   6.267   2.177
 4586SOL    HW214658   3.236   6.246   2.028
 4587SOL     OW14659   2.344   4.430   1.123
 4587SOL    HW114660   2.314   4.342   1.159
 4587SOL    HW214661   2.306   4.443   1.031
 4588SOL     OW14662   4.674   3.955   5.610
 4588SOL    HW114663   4.757   3.970   5.557
 4588SOL    HW214664   4.608   4.028   5.590
 4589SOL     OW14665   1.020   1.391   3.869
 4589SOL    HW114666   1.107   1.400   3.917
 4589SOL    HW214667   0.945   1.401   3.935
 4590SOL     OW14668   4.536   5.857   2.607
 4590SOL    HW114669   4.557   5.856   2.509
 4590SOL    HW214670   4.577   5.778   2.651
 4591SOL     OW14671   6.333   6.305   5.031
 4591SOL    HW114672   6.352   6.207   5.026
 4591SOL    HW214673   6.312   6.331   5.125
 4592SOL     OW14674   3.203   1.598   5.907
 4592SOL    HW114675   3.174   1.687   5.870
 4592SOL    HW214676   3.123   1.542   5.925
 4593SOL     OW14677   4.046   6.747   1.467
 4593SOL    HW114678   3.982   6.728   1.541
 4593SOL    HW214679   3.999   6.796   1.394
 4594SOL     OW14680   3.172   1.636   2.673
 4594SOL    HW114681   3.078   1.670   2.663
 4594SOL    HW214682   3.215   1.630   2.583
 4595SOL     OW14683   4.310   2.369   5.562
 4595SOL    HW114684   4.352   2.320   5.638
 4595SOL    HW214685   4.228   2.416   5.594
 4596SOL     OW14686   6.353   0.130   2.137
 4596SOL    HW114687   6.314   0.047   2.176
 4596SOL    HW214688   6.412   0.106   2.059
 4597SOL     OW14689   7.014   4.692   6.707
 4597SOL    HW114690   6.938   4.748   6.738
 4597SOL    HW214691   7.014   4.605   6.756
 4598SOL     OW14692   3.092   4.509   0.447
 4598SOL    HW114693   3.137   4.482   0.532
 4598SOL    HW214694   3.150   4.575   0.399
 4599SOL     OW14695   1.885   5.383   0.123
 4599SOL    HW114696   1.810   5.404   0.185
 4599SOL    HW214697   1.908   5.464   0.070
 4600SOL     OW14698   3.977   5.319   1.431
 4600SOL    HW114699   3.947   5.260   1.356
 4600SOL    HW214700   3.898   5.340   1.489
 4601SOL     OW14701   1.904   5.905   4.401
 4601SOL    HW114702   1.991   5.954   4.391
 4601SOL    HW214703   1.901   5.861   4.491
 4602SOL     OW14704   1.978   1.191   0.725
 4602SOL    HW114705   2.054   1.235   0.772
 4602SOL    HW214706   1.976   1.094   0.748
 4603SOL     OW14707   3.217   0.901   2.063
 4603SOL    HW114708   3.122   0.902   2.097
 4603SOL    HW214709   3.256   0.993   2.073
 4604SOL     OW14710   2.538   0.581   2.352
 4604SOL    HW114711   2.457   0.637   2.367
 4604SOL    HW214712   2.563   0.535   2.437
 4605SOL     OW14713   5.016   6.798   5.660
 4605SOL    HW114714   5.094   6.740   5.686
 4605SOL    HW214715   4.947   6.795   5.731
 4606SOL     OW14716   6.968   6.470   5.532
 4606SOL    HW114717   6.979   6.539   5.603
 4606SOL    HW214718   6.878   6.480   5.489
 4607SOL     OW14719   2.287   2.160   1.476
 4607SOL    HW114720   2.288   2.256   1.448
 4607SOL    HW214721   2.340   2.149   1.561
 4608SOL     OW14722   1.772   3.434   5.401
 4608SOL    HW114723   1.805   3.409   5.310
 4608SOL    HW214724   1.699   3.371   5.429
 4609SOL     OW14725   4.026   6.692   6.677
 4609SOL    HW114726   4.083   6.746   6.740
 4609SOL    HW214727   3.986   6.615   6.727
 4610SOL     OW14728   0.841   3.382   6.757
 4610SOL    HW114729   0.913   3.314   6.748
 4610SOL    HW214730   0.862   3.443   6.834
 4611SOL     OW14731   0.858   3.519   6.998
 4611SOL    HW114732   0.801   3.601   6.994
 4611SOL    HW214733   0.944   3.540   0.024
 4612SOL     OW14734   2.419   0.366   6.426
 4612SOL    HW114735   2.486   0.357   6.352
 4612SOL    HW214736   2.329   0.339   6.393
 4613SOL     OW14737   2.780   5.506   2.104
 4613SOL    HW114738   2.682   5.494   2.121
 4613SOL    HW214739   2.827   5.418   2.112
 4614SOL     OW14740   2.140   5.257   0.556
 4614SOL    HW114741   2.109   5.341   0.512
 4614SOL    HW214742   2.083   5.237   0.635
 4615SOL     OW14743   0.101   2.946   0.147
 4615SOL    HW114744   0.046   2.876   0.103
 4615SOL    HW214745   0.061   3.036   0.129
 4616SOL     OW14746   5.885   0.810   0.201
 4616SOL    HW114747   5.970   0.859   0.222
 4616SOL    HW214748   5.811   0.875   0.188
 4617SOL     OW14749   0.312   3.442   1.941
 4617SOL    HW114750   0.238   3.448   2.008
 4617SOL    HW214751   0.358   3.354   1.952
 4618SOL     OW14752   0.977   2.009   6.147
 4618SOL    HW114753   1.025   2.095   6.165
 4618SOL    HW214754   0.964   1.960   6.233
 4619SOL     OW14755   3.128   0.623   4.118
 4619SOL    HW114756   3.220   0.645   4.148
 4619SOL    HW214757   3.094   0.694   4.057
 4620SOL     OW14758   2.327   4.465   6.286
 4620SOL    HW114759   2.298   4.419   6.202
 4620SOL    HW214760   2.279   4.425   6.364
 4621SOL     OW14761   0.336   6.713   6.384
 4621SOL    HW114762   0.405   6.782   6.361
 4621SOL    HW214763   0.265   6.755   6.441
 4622SOL     OW14764   2.472   3.670   1.174
 4622SOL    HW114765   2.441   3.764   1.177
 4622SOL    HW214766   2.407   3.614   1.122
 4623SOL     OW14767   5.969   4.375   2.495
 4623SOL    HW114768   5.971   4.473   2.512
 4623SOL    HW214769   6.037   4.352   2.426
 4624SOL     OW14770   4.629   6.881   5.588
 4624SOL    HW114771   4.574   6.963   5.576
 4624SOL    HW214772   4.612   6.818   5.512
 4625SOL     OW14773   1.379   3.225   6.409
 4625SOL    HW114774   1.424   3.227   6.498
 4625SOL    HW214775   1.404   3.307   6.358
 4626SOL     OW14776   5.709   5.436   2.209
 4626SOL    HW114777   5.784   5.380   2.176
 4626SOL    HW214778   5.738   5.532   2.213
 4627SOL     OW14779   2.310   0.422   6.042
 4627SOL    HW114780   2.307   0.480   6.123
 4627SOL    HW214781   2.341   0.330   6.068
 4628SOL     OW14782   0.190   3.895   1.794
 4628SOL    HW114783   0.108   3.871   1.742
 4628SOL    HW214784   0.271   3.868   1.742
 4629SOL     OW14785   3.712   5.356   4.863
 4629SOL    HW114786   3.806   5.389   4.860
 4629SOL    HW214787   3.655   5.421   4.913
 4630SOL     OW14788   2.640   0.435   2.872
 4630SOL    HW114789   2.577   0.499   2.827
 4630SOL    HW214790   2.608   0.341   2.856
 4631SOL     OW14791   2.424   0.848   2.598
 4631SOL    HW114792   2.404   0.927   2.655
 4631SOL    HW214793   2.374   0.856   2.511
 4632SOL     OW14794   5.374   5.494   4.074
 4632SOL    HW114795   5.343   5.428   4.006
 4632SOL    HW214796   5.314   5.573   4.073
 4633SOL     OW14797   5.939   2.509   5.672
 4633SOL    HW114798   5.916   2.602   5.698
 4633SOL    HW214799   5.973   2.507   5.578
 4634SOL     OW14800   3.555   4.563   1.115
 4634SOL    HW114801   3.486   4.592   1.181
 4634SOL    HW214802   3.639   4.538   1.164
 4635SOL     OW14803   5.082   4.360   1.156
 4635SOL    HW114804   5.035   4.356   1.068
 4635SOL    HW214805   5.156   4.293   1.157
 4636SOL     OW14806   1.731   5.239   1.037
 4636SOL    HW114807   1.693   5.227   1.128
 4636SOL    HW214808   1.688   5.175   0.973
 4637SOL     OW14809   1.691   0.980   5.218
 4637SOL    HW114810   1.606   1.010   5.174
 4637SOL    HW214811   1.669   0.918   5.293
 4638SOL     OW14812   5.491   3.581   6.457
 4638SOL    HW114813   5.505   3.651   6.386
 4638SOL    HW214814   5.412   3.606   6.513
 4639SOL     OW14815   6.615   3.232   5.257
 4639SOL    HW114816   6.538   3.262   5.313
 4639SOL    HW214817   6.649   3.144   5.292
 4640SOL     OW14818   5.979   4.156   2.688
 4640SOL    HW114819   5.952   4.223   2.618
 4640SOL    HW214820   5.987   4.202   2.776
 4641SOL     OW14821   2.837   4.736   5.558
 4641SOL    HW114822   2.876   4.665   5.616
 4641SOL    HW214823   2.910   4.789   5.515
 4642SOL     OW14824   5.618   5.670   4.484
 4642SOL    HW114825   5.667   5.653   4.399
 4642SOL    HW214826   5.658   5.614   4.557
 4643SOL     OW14827   4.052   2.912   1.243
 4643SOL    HW114828   4.110   2.975   1.191
 4643SOL    HW214829   4.109   2.844   1.290
 4644SOL     OW14830   2.419   4.958   4.770
 4644SOL    HW114831   2.409   4.889   4.842
 4644SOL    HW214832   2.406   5.049   4.809
 4645SOL     OW14833   2.000   6.063   4.718
 4645SOL    HW114834   1.959   6.148   4.683
 4645SOL    HW214835   1.931   6.011   4.768
 4646SOL     OW14836   3.725   0.458   1.805
 4646SOL    HW114837   3.785   0.401   1.862
 4646SOL    HW214838   3.688   0.533   1.860
 4647SOL     OW14839   6.759   0.450   4.344
 4647SOL    HW114840   6.726   0.359   4.368
 4647SOL    HW214841   6.771   0.505   4.427
 4648SOL     OW14842   2.074   4.718   2.739
 4648SOL    HW114843   2.169   4.705   2.710
 4648SOL    HW214844   2.022   4.635   2.717
 4649SOL     OW14845   5.433   6.297   6.419
 4649SOL    HW114846   5.427   6.354   6.501
 4649SOL    HW214847   5.484   6.345   6.348
 4650SOL     OW14848   6.923   4.986   1.977
 4650SOL    HW114849   6.896   4.958   2.069
 4650SOL    HW214850   6.934   4.906   1.919
 4651SOL     OW14851   0.217   1.974   1.346
 4651SOL    HW114852   0.199   1.905   1.416
 4651SOL    HW214853   0.311   2.007   1.354
 4652SOL     OW14854   0.360   5.914   5.629
 4652SOL    HW114855   0.387   5.993   5.575
 4652SOL    HW214856   0.322   5.844   5.568
 4653SOL     OW14857   0.916   5.702   6.444
 4653SOL    HW114858   0.980   5.752   6.386
 4653SOL    HW214859   0.832   5.683   6.392
 4654SOL     OW14860   0.833   1.628   6.671
 4654SOL    HW114861   0.917   1.619   6.724
 4654SOL    HW214862   0.841   1.576   6.586
 4655SOL     OW14863   0.409   5.502   3.390
 4655SOL    HW114864   0.496   5.511   3.343
 4655SOL    HW214865   0.370   5.592   3.408
 4656SOL     OW14866   2.324   0.306   3.002
 4656SOL    HW114867   2.394   0.234   2.997
 4656SOL    HW214868   2.233   0.264   3.000
 4657SOL     OW14869   5.678   6.919   6.817
 4657SOL    HW114870   5.698   6.978   6.739
 4657SOL    HW214871   5.755   6.922   6.881
 4658SOL     OW14872   5.177   1.104   3.274
 4658SOL    HW114873   5.192   1.023   3.331
 4658SOL    HW214874   5.261   1.157   3.268
 4659SOL     OW14875   2.300   2.259   4.268
 4659SOL    HW114876   2.273   2.305   4.184
 4659SOL    HW214877   2.229   2.273   4.338
 4660SOL     OW14878   6.603   1.143   5.644
 4660SOL    HW114879   6.612   1.050   5.608
 4660SOL    HW214880   6.549   1.141   5.729
 4661SOL     OW14881   3.970   3.130   3.599
 4661SOL    HW114882   4.020   3.194   3.541
 4661SOL    HW214883   4.014   3.123   3.688
 4662SOL     OW14884   5.414   0.219   4.216
 4662SOL    HW114885   5.327   0.228   4.266
 4662SOL    HW214886   5.441   0.123   4.215
 4663SOL     OW14887   0.227   1.610   2.234
 4663SOL    HW114888   0.181   1.696   2.255
 4663SOL    HW214889   0.159   1.536   2.233
 4664SOL     OW14890   3.052   3.172   0.437
 4664SOL    HW114891   2.960   3.207   0.454
 4664SOL    HW214892   3.047   3.101   0.366
 4665SOL     OW14893   5.459   0.616   6.909
 4665SOL    HW114894   5.500   0.525   6.900
 4665SOL    HW214895   5.455   0.641   7.006
 4666SOL     OW14896   2.693   1.598   0.114
 4666SOL    HW114897   2.696   1.609   0.015
 4666SOL    HW214898   2.749   1.520   0.141
 4667SOL     OW14899   0.619   5.456   5.590
 4667SOL    HW114900   0.611   5.550   5.622
 4667SOL    HW214901   0.561   5.397   5.646
 4668SOL     OW14902   5.608   1.878   4.969
 4668SOL    HW114903   5.592   1.815   5.045
 4668SOL    HW214904   5.705   1.901   4.965
 4669SOL     OW14905   2.820   0.588   0.954
 4669SOL    HW114906   2.796   0.491   0.960
 4669SOL    HW214907   2.755   0.642   1.008
 4670SOL     OW14908   1.677   1.132   4.356
 4670SOL    HW114909   1.665   1.044   4.308
 4670SOL    HW214910   1.689   1.115   4.454
 4671SOL     OW14911   5.428   3.412   0.858
 4671SOL    HW114912   5.331   3.439   0.857
 4671SOL    HW214913   5.464   3.412   0.765
 4672SOL     OW14914   2.429   3.393   5.828
 4672SOL    HW114915   2.340   3.349   5.814
 4672SOL    HW214916   2.474   3.405   5.739
 4673SOL     OW14917   3.401   0.425   2.360
 4673SOL    HW114918   3.442   0.387   2.444
 4673SOL    HW214919   3.385   0.523   2.373
 4674SOL     OW14920   4.348   6.136   6.321
 4674SOL    HW114921   4.432   6.084   6.335
 4674SOL    HW214922   4.350   6.218   6.378
 4675SOL     OW14923   1.438   4.120   5.805
 4675SOL    HW114924   1.394   4.121   5.894
 4675SOL    HW214925   1.425   4.209   5.761
 4676SOL     OW14926   0.911   5.580   3.817
 4676SOL    HW114927   0.907   5.617   3.725
 4676SOL    HW214928   0.852   5.500   3.824
 4677SOL     OW14929   0.742   3.197   0.703
 4677SOL    HW114930   0.724   3.208   0.800
 4677SOL    HW214931   0.841   3.190   0.688
 4678SOL     OW14932   2.354   4.346   2.083
 4678SOL    HW114933   2.370   4.444   2.072
 4678SOL    HW214934   2.416   4.296   2.023
 4679SOL     OW14935   4.489   0.349   1.414
 4679SOL    HW114936   4.582   0.334   1.382
 4679SOL    HW214937   4.482   0.441   1.455
 4680SOL     OW14938   1.674   0.662   0.829
 4680SOL    HW114939   1.676   0.692   0.924
 4680SOL    HW214940   1.757   0.611   0.807
 4681SOL     OW14941   5.001   5.668   2.114
 4681SOL    HW114942   4.942   5.587   2.110
 4681SOL    HW214943   5.068   5.664   2.040
 4682SOL     OW14944   3.535   4.134   0.038
 4682SOL    HW114945   3.615   4.144   6.999
 4682SOL    HW214946   3.523   4.038   0.062
 4683SOL     OW14947   6.196   4.399   3.970
 4683SOL    HW114948   6.187   4.300   3.981
 4683SOL    HW214949   6.123   4.445   4.021
 4684SOL     OW14950   5.827   6.407   0.107
 4684SOL    HW114951   5.913   6.457   0.106
 4684SOL    HW214952   5.753   6.468   0.076
 4685SOL     OW14953   3.417   3.762   4.996
 4685SOL    HW114954   3.440   3.664   5.001
 4685SOL    HW214955   3.397   3.787   4.901
 4686SOL     OW14956   3.425   5.987   0.484
 4686SOL    HW114957   3.347   5.924   0.481
 4686SOL    HW214958   3.507   5.940   0.451
 4687SOL     OW14959   3.078   0.652   2.882
 4687SOL    HW114960   3.069   0.738   2.831
 4687SOL    HW214961   3.070   0.671   2.980
 4688SOL     OW14962   5.825   3.282   5.556
 4688SOL    HW114963   5.739   3.299   5.604
 4688SOL    HW214964   5.835   3.184   5.539
 4689SOL     OW14965   6.250   0.784   2.591
 4689SOL    HW114966   6.289   0.835   2.667
 4689SOL    HW214967   6.210   0.848   2.525
 4690SOL     OW14968   2.122   2.078   0.845
 4690SOL    HW114969   2.114   2.063   0.747
 4690SOL    HW214970   2.198   2.140   0.864
 4691SOL     OW14971   6.773   4.179   1.968
 4691SOL    HW114972   6.834   4.145   2.040
 4691SOL    HW214973   6.703   4.237   2.010
 4692SOL     OW14974   5.269   3.129   2.039
 4692SOL    HW114975   5.186   3.088   2.002
 4692SOL    HW214976   5.299   3.204   1.980
 4693SOL     OW14977   1.374   0.683   3.222
 4693SOL    HW114978   1.397   0.601   3.273
 4693SOL    HW214979   1.421   0.762   3.262
 4694SOL     OW14980   1.677   0.661   6.820
 4694SOL    HW114981   1.601   0.600   6.799
 4694SOL    HW214982   1.755   0.638   6.762
 4695SOL     OW14983   1.260   6.390   1.591
 4695SOL    HW114984   1.209   6.434   1.665
 4695SOL    HW214985   1.237   6.293   1.588
 4696SOL     OW14986   2.098   5.309   5.564
 4696SOL    HW114987   2.018   5.368   5.560
 4696SOL    HW214988   2.180   5.364   5.582
 4697SOL     OW14989   4.210   5.475   1.454
 4697SOL    HW114990   4.125   5.426   1.436
 4697SOL    HW214991   4.192   5.556   1.510
 4698SOL     OW14992   5.253   1.205   4.453
 4698SOL    HW114993   5.249   1.141   4.530
 4698SOL    HW214994   5.312   1.282   4.476
 4699SOL     OW14995   1.441   7.000   2.315
 4699SOL    HW114996   1.355   0.013   2.275
 4699SOL    HW214997   1.511   0.050   2.307
 4700SOL     OW14998   6.388   2.128   1.997
 4700SOL    HW114999   6.448   2.205   1.974
 4700SOL    HW215000   6.359   2.082   1.913
 4701SOL     OW15001   3.120   2.157   1.825
 4701SOL    HW115002   3.202   2.208   1.803
 4701SOL    HW215003   3.045   2.220   1.847
 4702SOL     OW15004   5.432   4.799   6.446
 4702SOL    HW115005   5.465   4.861   6.516
 4702SOL    HW215006   5.444   4.841   6.356
 4703SOL     OW15007   0.865   5.410   3.392
 4703SOL    HW115008   0.815   5.324   3.404
 4703SOL    HW215009   0.843   5.449   3.302
 4704SOL     OW15010   1.305   5.325   4.967
 4704SOL    HW115011   1.396   5.366   4.960
 4704SOL    HW215012   1.271   5.305   4.875
 4705SOL     OW15013   3.509   1.892   1.748
 4705SOL    HW115014   3.449   1.887   1.668
 4705SOL    HW215015   3.469   1.954   1.816
 4706SOL     OW15016   2.773   1.115   0.469
 4706SOL    HW115017   2.805   1.210   0.464
 4706SOL    HW215018   2.837   1.056   0.419
 4707SOL     OW15019   1.694   6.160   1.528
 4707SOL    HW115020   1.639   6.105   1.590
 4707SOL    HW215021   1.656   6.252   1.522
 4708SOL     OW15022   1.375   2.761   4.399
 4708SOL    HW115023   1.277   2.760   4.383
 4708SOL    HW215024   1.396   2.821   4.476
 4709SOL     OW15025   4.899   4.015   5.440
 4709SOL    HW115026   4.974   3.960   5.478
 4709SOL    HW215027   4.913   4.111   5.464
 4710SOL     OW15028   6.391   5.955   5.302
 4710SOL    HW115029   6.441   5.875   5.334
 4710SOL    HW215030   6.443   6.038   5.323
 4711SOL     OW15031   5.290   3.625   2.521
 4711SOL    HW115032   5.354   3.553   2.494
 4711SOL    HW215033   5.321   3.712   2.483
 4712SOL     OW15034   4.709   4.370   5.583
 4712SOL    HW115035   4.611   4.388   5.578
 4712SOL    HW215036   4.734   4.345   5.676
 4713SOL     OW15037   6.160   4.120   1.192
 4713SOL    HW115038   6.113   4.032   1.190
 4713SOL    HW215039   6.107   4.187   1.140
 4714SOL     OW15040   4.255   1.240   6.655
 4714SOL    HW115041   4.310   1.270   6.733
 4714SOL    HW215042   4.170   1.198   6.689
 4715SOL     OW15043   6.351   1.750   2.145
 4715SOL    HW115044   6.279   1.686   2.170
 4715SOL    HW215045   6.425   1.746   2.212
 4716SOL     OW15046   3.704   5.028   5.972
 4716SOL    HW115047   3.771   5.030   5.897
 4716SOL    HW215048   3.640   5.105   5.962
 4717SOL     OW15049   2.856   5.178   5.045
 4717SOL    HW115050   2.827   5.179   5.140
 4717SOL    HW215051   2.846   5.086   5.007
 4718SOL     OW15052   4.624   4.914   0.676
 4718SOL    HW115053   4.609   4.836   0.736
 4718SOL    HW215054   4.714   4.953   0.695
 4719SOL     OW15055   0.362   4.538   3.841
 4719SOL    HW115056   0.348   4.501   3.933
 4719SOL    HW215057   0.414   4.472   3.787
 4720SOL     OW15058   1.942   2.978   6.773
 4720SOL    HW115059   2.031   3.024   6.767
 4720SOL    HW215060   1.953   2.892   6.822
 4721SOL     OW15061   0.045   2.921   2.768
 4721SOL    HW115062   0.104   2.983   2.717
 4721SOL    HW215063   6.972   2.955   2.766
 4722SOL     OW15064   1.008   5.855   6.858
 4722SOL    HW115065   1.035   5.774   6.911
 4722SOL    HW215066   0.923   5.893   6.895
 4723SOL     OW15067   3.809   4.125   0.369
 4723SOL    HW115068   3.721   4.160   0.337
 4723SOL    HW215069   3.828   4.037   0.326
 4724SOL     OW15070   0.612   6.695   5.257
 4724SOL    HW115071   0.528   6.658   5.298
 4724SOL    HW215072   0.610   6.677   5.158
 4725SOL     OW15073   5.393   6.087   1.111
 4725SOL    HW115074   5.316   6.035   1.149
 4725SOL    HW215075   5.377   6.105   1.014
 4726SOL     OW15076   1.089   3.210   5.567
 4726SOL    HW115077   1.184   3.205   5.537
 4726SOL    HW215078   1.061   3.305   5.575
 4727SOL     OW15079   6.939   4.841   1.092
 4727SOL    HW115080   6.858   4.862   1.146
 4727SOL    HW215081   6.974   4.924   1.050
 4728SOL     OW15082   6.362   1.356   4.494
 4728SOL    HW115083   6.359   1.295   4.574
 4728SOL    HW215084   6.451   1.348   4.450
 4729SOL     OW15085   6.172   1.871   1.943
 4729SOL    HW115086   6.234   1.849   2.018
 4729SOL    HW215087   6.079   1.879   1.978
 4730SOL     OW15088   3.205   6.769   4.490
 4730SOL    HW115089   3.176   6.693   4.548
 4730SOL    HW215090   3.173   6.754   4.396
 4731SOL     OW15091   3.232   6.423   0.335
 4731SOL    HW115092   3.213   6.409   0.432
 4731SOL    HW215093   3.313   6.370   0.309
 4732SOL     OW15094   0.269   4.962   4.343
 4732SOL    HW115095   0.312   5.051   4.325
 4732SOL    HW215096   0.179   4.959   4.299
 4733SOL     OW15097   2.158   3.813   3.030
 4733SOL    HW115098   2.180   3.724   2.992
 4733SOL    HW215099   2.078   3.851   2.983
 4734SOL     OW15100   5.158   3.893   6.576
 4734SOL    HW115101   5.063   3.876   6.602
 4734SOL    HW215102   5.161   3.942   6.489
 4735SOL     OW15103   0.325   0.559   4.803
 4735SOL    HW115104   0.254   0.592   4.741
 4735SOL    HW215105   0.412   0.603   4.780
 4736SOL     OW15106   6.356   2.017   3.310
 4736SOL    HW115107   6.357   2.106   3.265
 4736SOL    HW215108   6.444   2.001   3.355
 4737SOL     OW15109   2.117   4.984   6.960
 4737SOL    HW115110   2.118   4.886   6.938
 4737SOL    HW215111   2.034   5.005   7.012
 4738SOL     OW15112   0.973   6.482   3.246
 4738SOL    HW115113   1.031   6.518   3.319
 4738SOL    HW215114   0.885   6.529   3.247
 4739SOL     OW15115   6.648   2.791   3.014
 4739SOL    HW115116   6.729   2.732   3.014
 4739SOL    HW215117   6.589   2.766   2.937
 4740SOL     OW15118   0.730   0.920   1.398
 4740SOL    HW115119   0.668   0.997   1.412
 4740SOL    HW215120   0.790   0.911   1.478
 4741SOL     OW15121   4.672   4.366   1.773
 4741SOL    HW115122   4.579   4.353   1.809
 4741SOL    HW215123   4.687   4.301   1.698
 4742SOL     OW15124   2.682   5.794   2.203
 4742SOL    HW115125   2.745   5.767   2.275
 4742SOL    HW215126   2.710   5.883   2.166
 4743SOL     OW15127   2.413   2.693   0.278
 4743SOL    HW115128   2.322   2.716   0.244
 4743SOL    HW215129   2.446   2.766   0.337
 4744SOL     OW15130   1.917   2.564   4.991
 4744SOL    HW115131   1.859   2.535   5.067
 4744SOL    HW215132   1.862   2.616   4.925
 4745SOL     OW15133   3.272   5.902   5.056
 4745SOL    HW115134   3.371   5.910   5.045
 4745SOL    HW215135   3.246   5.936   5.146
 4746SOL     OW15136   5.975   0.783   0.639
 4746SOL    HW115137   5.894   0.767   0.583
 4746SOL    HW215138   5.972   0.876   0.676
 4747SOL     OW15139   6.385   2.539   1.724
 4747SOL    HW115140   6.333   2.625   1.724
 4747SOL    HW215141   6.337   2.471   1.778
 4748SOL     OW15142   1.860   0.671   1.475
 4748SOL    HW115143   1.876   0.667   1.376
 4748SOL    HW215144   1.774   0.720   1.493
 4749SOL     OW15145   2.169   0.284   6.320
 4749SOL    HW115146   2.198   0.188   6.311
 4749SOL    HW215147   2.098   0.304   6.253
 4750SOL     OW15148   0.622   1.441   4.787
 4750SOL    HW115149   0.635   1.462   4.690
 4750SOL    HW215150   0.524   1.443   4.808
 4751SOL     OW15151   1.122   3.463   5.831
 4751SOL    HW115152   1.203   3.405   5.830
 4751SOL    HW215153   1.056   3.428   5.897
 4752SOL     OW15154   2.611   6.306   1.655
 4752SOL    HW115155   2.522   6.351   1.667
 4752SOL    HW215156   2.666   6.318   1.737
 4753SOL     OW15157   0.182   0.177   5.064
 4753SOL    HW115158   0.124   0.104   5.029
 4753SOL    HW215159   0.275   0.142   5.079
 4754SOL     OW15160   0.693   0.325   5.720
 4754SOL    HW115161   0.758   0.394   5.688
 4754SOL    HW215162   0.730   0.280   5.802
 4755SOL     OW15163   2.377   1.574   0.581
 4755SOL    HW115164   2.285   1.612   0.592
 4755SOL    HW215165   2.442   1.630   0.632
 4756SOL     OW15166   4.873   3.051   1.207
 4756SOL    HW115167   4.930   2.983   1.254
 4756SOL    HW215168   4.783   3.054   1.251
 4757SOL     OW15169   1.978   1.859   1.990
 4757SOL    HW115170   1.935   1.852   1.900
 4757SOL    HW215171   1.911   1.891   2.057
 4758SOL     OW15172   5.020   4.349   5.267
 4758SOL    HW115173   5.074   4.297   5.200
 4758SOL    HW215174   4.950   4.401   5.218
 4759SOL     OW15175   5.865   4.624   5.624
 4759SOL    HW115176   5.930   4.700   5.630
 4759SOL    HW215177   5.914   4.538   5.616
 4760SOL     OW15178   1.813   2.148   0.647
 4760SOL    HW115179   1.803   2.129   0.744
 4760SOL    HW215180   1.820   2.062   0.596
 4761SOL     OW15181   1.417   5.835   5.546
 4761SOL    HW115182   1.347   5.765   5.560
 4761SOL    HW215183   1.375   5.926   5.557
 4762SOL     OW15184   3.571   0.142   2.863
 4762SOL    HW115185   3.533   0.080   2.931
 4762SOL    HW215186   3.665   0.165   2.887
 4763SOL     OW15187   6.150   5.693   4.899
 4763SOL    HW115188   6.154   5.748   4.815
 4763SOL    HW215189   6.128   5.752   4.976
 4764SOL     OW15190   4.201   3.509   5.044
 4764SOL    HW115191   4.227   3.565   4.965
 4764SOL    HW215192   4.194   3.413   5.016
 4765SOL     OW15193   6.782   5.092   5.189
 4765SOL    HW115194   6.721   5.151   5.242
 4765SOL    HW215195   6.852   5.147   5.145
 4766SOL     OW15196   3.025   0.238   3.571
 4766SOL    HW115197   3.103   0.181   3.545
 4766SOL    HW215198   2.967   0.254   3.491
 4767SOL     OW15199   4.319   5.636   6.155
 4767SOL    HW115200   4.397   5.593   6.108
 4767SOL    HW215201   4.245   5.648   6.089
 4768SOL     OW15202   0.208   1.158   4.834
 4768SOL    HW115203   0.247   1.095   4.901
 4768SOL    HW215204   0.280   1.190   4.772
 4769SOL     OW15205   3.140   0.061   2.003
 4769SOL    HW115206   3.176   0.143   2.047
 4769SOL    HW215207   3.135   0.075   1.904
 4770SOL     OW15208   2.638   0.324   3.929
 4770SOL    HW115209   2.668   0.393   3.995
 4770SOL    HW215210   2.706   0.251   3.923
 4771SOL     OW15211   3.719   4.107   5.402
 4771SOL    HW115212   3.642   4.120   5.341
 4771SOL    HW215213   3.804   4.101   5.349
 4772SOL     OW15214   2.227   2.417   1.407
 4772SOL    HW115215   2.276   2.502   1.384
 4772SOL    HW215216   2.143   2.413   1.354
 4773SOL     OW15217   6.077   5.726   3.552
 4773SOL    HW115218   6.163   5.760   3.515
 4773SOL    HW215219   6.023   5.802   3.586
 4774SOL     OW15220   1.062   4.297   0.632
 4774SOL    HW115221   1.146   4.251   0.602
 4774SOL    HW215222   0.989   4.230   0.644
 4775SOL     OW15223   2.309   1.415   2.411
 4775SOL    HW115224   2.358   1.446   2.493
 4775SOL    HW215225   2.353   1.451   2.329
 4776SOL     OW15226   4.133   5.130   1.549
 4776SOL    HW115227   4.066   5.190   1.506
 4776SOL    HW215228   4.180   5.179   1.622
 4777SOL     OW15229   2.451   4.716   1.466
 4777SOL    HW115230   2.483   4.767   1.546
 4777SOL    HW215231   2.522   4.717   1.396
 4778SOL     OW15232   5.359   3.634   1.823
 4778SOL    HW115233   5.376   3.535   1.822
 4778SOL    HW215234   5.442   3.682   1.796
 4779SOL     OW15235   5.010   0.870   3.092
 4779SOL    HW115236   4.947   0.800   3.126
 4779SOL    HW215237   4.986   0.959   3.132
 4780SOL     OW15238   1.796   6.610   5.451
 4780SOL    HW115239   1.794   6.515   5.479
 4780SOL    HW215240   1.723   6.661   5.496
 4781SOL     OW15241   1.940   5.423   2.115
 4781SOL    HW115242   1.840   5.437   2.117
 4781SOL    HW215243   1.976   5.434   2.208
 4782SOL     OW15244   5.759   5.954   6.666
 4782SOL    HW115245   5.673   5.997   6.691
 4782SOL    HW215246   5.748   5.854   6.670
 4783SOL     OW15247   6.344   4.093   2.229
 4783SOL    HW115248   6.377   4.037   2.153
 4783SOL    HW215249   6.314   4.182   2.195
 4784SOL     OW15250   6.044   4.410   5.576
 4784SOL    HW115251   6.003   4.326   5.540
 4784SOL    HW215252   6.124   4.434   5.521
 4785SOL     OW15253   5.969   0.316   0.812
 4785SOL    HW115254   6.031   0.264   0.755
 4785SOL    HW215255   5.902   0.363   0.755
 4786SOL     OW15256   1.481   3.065   2.573
 4786SOL    HW115257   1.520   2.999   2.509
 4786SOL    HW215258   1.454   3.147   2.524
 4787SOL     OW15259   3.839   2.058   2.184
 4787SOL    HW115260   3.918   2.117   2.205
 4787SOL    HW215261   3.768   2.113   2.140
 4788SOL     OW15262   0.925   6.114   5.156
 4788SOL    HW115263   0.828   6.097   5.169
 4788SOL    HW215264   0.947   6.108   5.058
 4789SOL     OW15265   6.405   0.331   0.732
 4789SOL    HW115266   6.462   0.283   0.665
 4789SOL    HW215267   6.399   0.428   0.707
 4790SOL     OW15268   4.869   0.980   0.149
 4790SOL    HW115269   4.846   0.882   0.146
 4790SOL    HW215270   4.943   0.994   0.215
 4791SOL     OW15271   4.891   0.253   2.629
 4791SOL    HW115272   4.856   0.327   2.572
 4791SOL    HW215273   4.977   0.281   2.672
 4792SOL     OW15274   2.633   2.246   1.582
 4792SOL    HW115275   2.698   2.320   1.565
 4792SOL    HW215276   2.648   2.173   1.514
 4793SOL     OW15277   0.718   6.673   6.060
 4793SOL    HW115278   0.744   6.600   5.997
 4793SOL    HW215279   0.667   6.634   6.137
 4794SOL     OW15280   3.888   0.726   2.140
 4794SOL    HW115281   3.958   0.791   2.111
 4794SOL    HW215282   3.932   0.650   2.189
 4795SOL     OW15283   6.367   3.021   4.546
 4795SOL    HW115284   6.384   3.119   4.545
 4795SOL    HW215285   6.276   3.002   4.584
 4796SOL     OW15286   5.873   4.037   1.018
 4796SOL    HW115287   5.819   4.071   1.096
 4796SOL    HW215288   5.919   3.952   1.045
 4797SOL     OW15289   0.251   4.785   4.826
 4797SOL    HW115290   0.204   4.699   4.848
 4797SOL    HW215291   0.206   4.828   4.748
 4798SOL     OW15292   6.562   4.298   4.938
 4798SOL    HW115293   6.513   4.382   4.960
 4798SOL    HW215294   6.618   4.313   4.856
 4799SOL     OW15295   4.104   1.209   4.999
 4799SOL    HW115296   4.049   1.287   4.969
 4799SOL    HW215297   4.056   1.161   5.072
 4800SOL     OW15298   1.916   1.869   4.383
 4800SOL    HW115299   1.860   1.893   4.303
 4800SOL    HW215300   1.999   1.924   4.382
 4801SOL     OW15301   0.979   2.446   0.847
 4801SOL    HW115302   1.020   2.483   0.930
 4801SOL    HW215303   1.005   2.350   0.837
 4802SOL     OW15304   1.738   0.740   2.578
 4802SOL    HW115305   1.693   0.821   2.542
 4802SOL    HW215306   1.696   0.713   2.664
 4803SOL     OW15307   0.881   0.172   1.126
 4803SOL    HW115308   0.930   0.253   1.095
 4803SOL    HW215309   0.814   0.145   1.057
 4804SOL     OW15310   4.114   5.379   0.262
 4804SOL    HW115311   4.191   5.383   0.325
 4804SOL    HW215312   4.123   5.299   0.203
 4805SOL     OW15313   0.951   1.949   0.403
 4805SOL    HW115314   1.026   1.916   0.461
 4805SOL    HW215315   0.867   1.955   0.457
 4806SOL     OW15316   0.710   2.858   3.339
 4806SOL    HW115317   0.714   2.957   3.331
 4806SOL    HW215318   0.789   2.817   3.294
 4807SOL     OW15319   0.725   0.048   0.934
 4807SOL    HW115320   0.694   0.135   0.896
 4807SOL    HW215321   0.661   6.996   0.908
 4808SOL     OW15322   5.077   3.563   1.505
 4808SOL    HW115323   5.101   3.637   1.442
 4808SOL    HW215324   5.069   3.600   1.598
 4809SOL     OW15325   4.385   5.773   6.801
 4809SOL    HW115326   4.304   5.831   6.797
 4809SOL    HW215327   4.467   5.827   6.781
 4810SOL     OW15328   0.781   0.697   0.856
 4810SOL    HW115329   0.806   0.646   0.773
 4810SOL    HW215330   0.714   0.644   0.908
 4811SOL     OW15331   5.053   6.095   2.372
 4811SOL    HW115332   5.124   6.027   2.352
 4811SOL    HW215333   4.998   6.110   2.290
 4812SOL     OW15334   6.304   5.078   4.406
 4812SOL    HW115335   6.225   5.131   4.374
 4812SOL    HW215336   6.344   5.122   4.487
 4813SOL     OW15337   5.810   2.689   2.460
 4813SOL    HW115338   5.888   2.751   2.450
 4813SOL    HW215339   5.777   2.662   2.370
 4814SOL     OW15340   6.941   3.412   1.460
 4814SOL    HW115341   0.020   3.413   1.471
 4814SOL    HW215342   6.898   3.391   1.547
 4815SOL     OW15343   3.837   6.207   2.331
 4815SOL    HW115344   3.905   6.236   2.264
 4815SOL    HW215345   3.832   6.108   2.333
 4816SOL     OW15346   5.370   5.282   3.427
 4816SOL    HW115347   5.297   5.333   3.382
 4816SOL    HW215348   5.393   5.326   3.514
 4817SOL     OW15349   6.737   1.855   6.556
 4817SOL    HW115350   6.802   1.863   6.632
 4817SOL    HW215351   6.655   1.909   6.577
 4818SOL     OW15352   0.135   6.251   4.227
 4818SOL    HW115353   0.075   6.179   4.191
 4818SOL    HW215354   0.214   6.262   4.166
 4819SOL     OW15355   1.586   2.932   0.645
 4819SOL    HW115356   1.547   2.854   0.694
 4819SOL    HW215357   1.583   3.013   0.703
 4820SOL     OW15358   0.552   2.827   2.527
 4820SOL    HW115359   0.570   2.810   2.624
 4820SOL    HW215360   0.584   2.918   2.503
 4821SOL     OW15361   6.855   5.774   3.576
 4821SOL    HW115362   6.849   5.684   3.620
 4821SOL    HW215363   6.882   5.763   3.481
 4822SOL     OW15364   1.976   3.919   4.625
 4822SOL    HW115365   1.942   3.924   4.719
 4822SOL    HW215366   1.997   4.011   4.592
 4823SOL     OW15367   2.204   2.541   2.021
 4823SOL    HW115368   2.202   2.512   2.116
 4823SOL    HW215369   2.296   2.573   1.998
 4824SOL     OW15370   5.990   1.711   0.074
 4824SOL    HW115371   5.990   1.781   0.002
 4824SOL    HW215372   6.083   1.703   0.112
 4825SOL     OW15373   1.381   6.638   3.585
 4825SOL    HW115374   1.377   6.738   3.585
 4825SOL    HW215375   1.426   6.607   3.668
 4826SOL     OW15376   4.094   0.674   1.040
 4826SOL    HW115377   4.133   0.587   1.012
 4826SOL    HW215378   4.000   0.660   1.070
 4827SOL     OW15379   0.022   1.815   0.450
 4827SOL    HW115380   0.116   1.838   0.426
 4827SOL    HW215381   7.000   1.894   0.495
 4828SOL     OW15382   5.220   0.954   4.615
 4828SOL    HW115383   5.296   0.948   4.679
 4828SOL    HW215384   5.139   0.911   4.655
 4829SOL     OW15385   3.978   6.479   5.234
 4829SOL    HW115386   3.918   6.546   5.190
 4829SOL    HW215387   3.981   6.497   5.332
 4830SOL     OW15388   2.358   6.098   3.139
 4830SOL    HW115389   2.332   6.147   3.222
 4830SOL    HW215390   2.398   6.163   3.073
 4831SOL     OW15391   3.132   4.678   5.298
 4831SOL    HW115392   3.058   4.613   5.282
 4831SOL    HW215393   3.212   4.629   5.333
 4832SOL     OW15394   3.581   3.480   4.352
 4832SOL    HW115395   3.540   3.400   4.396
 4832SOL    HW215396   3.523   3.510   4.277
 4833SOL     OW15397   6.319   3.554   4.821
 4833SOL    HW115398   6.316   3.503   4.736
 4833SOL    HW215399   6.390   3.517   4.881
 4834SOL     OW15400   1.010   4.740   0.819
 4834SOL    HW115401   1.067   4.755   0.899
 4834SOL    HW215402   1.012   4.821   0.761
 4835SOL     OW15403   6.713   2.779   5.965
 4835SOL    HW115404   6.674   2.687   5.962
 4835SOL    HW215405   6.702   2.823   5.875
 4836SOL     OW15406   4.638   1.753   5.796
 4836SOL    HW115407   4.594   1.726   5.710
 4836SOL    HW215408   4.711   1.818   5.777
 4837SOL     OW15409   0.248   3.774   4.029
 4837SOL    HW115410   0.148   3.779   4.034
 4837SOL    HW215411   0.279   3.690   4.073
 4838SOL     OW15412   2.261   3.640   5.873
 4838SOL    HW115413   2.176   3.636   5.821
 4838SOL    HW215414   2.331   3.586   5.826
 4839SOL     OW15415   2.486   1.395   1.114
 4839SOL    HW115416   2.484   1.404   1.014
 4839SOL    HW215417   2.393   1.404   1.150
 4840SOL     OW15418   6.043   3.610   4.784
 4840SOL    HW115419   5.995   3.578   4.703
 4840SOL    HW215420   6.142   3.600   4.771
 4841SOL     OW15421   2.877   6.290   3.059
 4841SOL    HW115422   2.866   6.388   3.077
 4841SOL    HW215423   2.965   6.275   3.013
 4842SOL     OW15424   3.745   5.595   2.865
 4842SOL    HW115425   3.732   5.694   2.864
 4842SOL    HW215426   3.755   5.563   2.959
 4843SOL     OW15427   0.049   1.516   6.942
 4843SOL    HW115428   0.095   1.511   0.010
 4843SOL    HW215429   0.071   1.434   6.889
 4844SOL     OW15430   2.049   5.723   5.328
 4844SOL    HW115431   2.124   5.663   5.299
 4844SOL    HW215432   1.999   5.680   5.402
 4845SOL     OW15433   4.911   3.790   4.998
 4845SOL    HW115434   4.933   3.853   5.073
 4845SOL    HW215435   4.848   3.720   5.030
 4846SOL     OW15436   6.486   3.593   4.540
 4846SOL    HW115437   6.531   3.675   4.575
 4846SOL    HW215438   6.508   3.515   4.600
 4847SOL     OW15439   2.510   6.409   6.174
 4847SOL    HW115440   2.489   6.506   6.187
 4847SOL    HW215441   2.557   6.374   6.255
 4848SOL     OW15442   4.698   1.034   4.257
 4848SOL    HW115443   4.663   1.112   4.205
 4848SOL    HW215444   4.797   1.027   4.245
 4849SOL     OW15445   2.385   6.153   1.365
 4849SOL    HW115446   2.356   6.152   1.461
 4849SOL    HW215447   2.356   6.239   1.323
 4850SOL     OW15448   3.746   0.193   1.020
 4850SOL    HW115449   3.704   0.103   1.014
 4850SOL    HW215450   3.676   0.261   1.043
 4851SOL     OW15451   3.469   4.319   6.337
 4851SOL    HW115452   3.375   4.336   6.307
 4851SOL    HW215453   3.498   4.392   6.398
 4852SOL     OW15454   5.903   4.937   5.742
 4852SOL    HW115455   5.900   5.025   5.695
 4852SOL    HW215456   5.810   4.901   5.751
 4853SOL     OW15457   4.292   6.997   2.493
 4853SOL    HW115458   4.388   6.970   2.485
 4853SOL    HW215459   4.262   0.017   2.407
 4854SOL     OW15460   4.654   6.383   2.293
 4854SOL    HW115461   4.633   6.460   2.233
 4854SOL    HW215462   4.618   6.400   2.384
 4855SOL     OW15463   4.572   4.681   5.818
 4855SOL    HW115464   4.670   4.696   5.801
 4855SOL    HW215465   4.533   4.628   5.743
 4856SOL     OW15466   0.580   4.078   2.919
 4856SOL    HW115467   0.486   4.075   2.884
 4856SOL    HW215468   0.616   3.985   2.924
 4857SOL     OW15469   2.349   2.577   5.221
 4857SOL    HW115470   2.383   2.495   5.266
 4857SOL    HW215471   2.252   2.589   5.242
 4858SOL     OW15472   1.790   6.189   4.271
 4858SOL    HW115473   1.744   6.107   4.305
 4858SOL    HW215474   1.803   6.253   4.346
 4859SOL     OW15475   0.021   5.790   3.049
 4859SOL    HW115476   6.980   5.863   3.076
 4859SOL    HW215477   0.095   5.782   3.116
 4860SOL     OW15478   4.122   5.450   2.171
 4860SOL    HW115479   4.166   5.363   2.146
 4860SOL    HW215480   4.127   5.463   2.270
 4861SOL     OW15481   7.011   4.177   6.018
 4861SOL    HW115482   0.023   4.267   6.045
 4861SOL    HW215483   6.952   4.185   5.937
 4862SOL     OW15484   1.869   5.942   3.924
 4862SOL    HW115485   1.832   5.924   3.833
 4862SOL    HW215486   1.831   5.876   3.989
 4863SOL     OW15487   5.426   2.148   2.638
 4863SOL    HW115488   5.400   2.101   2.722
 4863SOL    HW215489   5.379   2.236   2.633
 4864SOL     OW15490   2.207   1.470   1.145
 4864SOL    HW115491   2.185   1.383   1.190
 4864SOL    HW215492   2.134   1.535   1.164
 4865SOL     OW15493   4.047   5.728   4.629
 4865SOL    HW115494   4.005   5.644   4.596
 4865SOL    HW215495   4.107   5.766   4.558
 4866SOL     OW15496   0.553   4.962   2.042
 4866SOL    HW115497   0.477   4.989   1.984
 4866SOL    HW215498   0.543   5.003   2.133
 4867SOL     OW15499   5.025   4.950   4.196
 4867SOL    HW115500   4.983   5.033   4.231
 4867SOL    HW215501   4.992   4.871   4.247
 4868SOL     OW15502   1.539   6.392   1.524
 4868SOL    HW115503   1.454   6.351   1.555
 4868SOL    HW215504   1.531   6.416   1.427
 4869SOL     OW15505   6.222   1.601   0.956
 4869SOL    HW115506   6.279   1.681   0.938
 4869SOL    HW215507   6.171   1.614   1.041
 4870SOL     OW15508   6.708   0.305   0.870
 4870SOL    HW115509   6.759   0.304   0.784
 4870SOL    HW215510   6.674   0.213   0.891
 4871SOL     OW15511   1.633   3.860   4.639
 4871SOL    HW115512   1.691   3.882   4.718
 4871SOL    HW215513   1.669   3.906   4.558
 4872SOL     OW15514   0.824   0.480   4.280
 4872SOL    HW115515   0.805   0.388   4.246
 4872SOL    HW215516   0.923   0.491   4.290
 4873SOL     OW15517   1.307   6.290   5.004
 4873SOL    HW115518   1.321   6.204   4.954
 4873SOL    HW215519   1.308   6.271   5.102
 4874SOL     OW15520   5.625   3.087   3.627
 4874SOL    HW115521   5.627   3.085   3.727
 4874SOL    HW215522   5.684   3.016   3.590
 4875SOL     OW15523   6.674   2.639   6.236
 4875SOL    HW115524   6.765   2.638   6.194
 4875SOL    HW215525   6.678   2.692   6.321
 4876SOL     OW15526   6.888   1.594   0.369
 4876SOL    HW115527   6.797   1.619   0.402
 4876SOL    HW215528   6.952   1.669   0.388
 4877SOL     OW15529   6.162   1.442   1.820
 4877SOL    HW115530   6.072   1.428   1.859
 4877SOL    HW215531   6.212   1.356   1.819
 4878SOL     OW15532   6.949   2.901   1.816
 4878SOL    HW115533   0.004   2.921   1.878
 4878SOL    HW215534   6.939   2.977   1.751
 4879SOL     OW15535   4.774   5.711   3.459
 4879SOL    HW115536   4.784   5.717   3.559
 4879SOL    HW215537   4.685   5.748   3.432
 4880SOL     OW15538   5.806   2.166   5.923
 4880SOL    HW115539   5.754   2.217   5.855
 4880SOL    HW215540   5.891   2.215   5.944
 4881SOL     OW15541   2.977   5.333   6.993
 4881SOL    HW115542   2.940   5.395   6.923
 4881SOL    HW215543   3.042   5.270   6.951
 4882SOL     OW15544   4.689   6.876   6.947
 4882SOL    HW115545   4.669   6.787   6.906
 4882SOL    HW215546   4.623   6.944   6.913
 4883SOL     OW15547   6.305   5.524   0.317
 4883SOL    HW115548   6.228   5.462   0.335
 4883SOL    HW215549   6.391   5.477   0.334
 4884SOL     OW15550   4.095   6.287   1.618
 4884SOL    HW115551   4.085   6.314   1.522
 4884SOL    HW215552   4.174   6.227   1.628
 4885SOL     OW15553   2.354   6.557   2.774
 4885SOL    HW115554   2.296   6.609   2.711
 4885SOL    HW215555   2.448   6.558   2.741
 4886SOL     OW15556   5.806   0.980   6.059
 4886SOL    HW115557   5.708   0.969   6.043
 4886SOL    HW215558   5.857   0.947   5.980
 4887SOL     OW15559   0.188   1.685   5.819
 4887SOL    HW115560   0.112   1.709   5.758
 4887SOL    HW215561   0.254   1.760   5.823
 4888SOL     OW15562   3.504   5.656   1.970
 4888SOL    HW115563   3.525   5.658   1.872
 4888SOL    HW215564   3.409   5.683   1.984
 4889SOL     OW15565   1.695   3.013   6.119
 4889SOL    HW115566   1.767   3.038   6.184
 4889SOL    HW215567   1.605   3.033   6.160
 4890SOL     OW15568   1.102   0.499   4.291
 4890SOL    HW115569   1.167   0.469   4.220
 4890SOL    HW215570   1.099   0.430   4.364
 4891SOL     OW15571   1.705   3.772   0.867
 4891SOL    HW115572   1.783   3.724   0.826
 4891SOL    HW215573   1.725   3.791   0.963
 4892SOL     OW15574   1.272   5.742   1.699
 4892SOL    HW115575   1.231   5.775   1.614
 4892SOL    HW215576   1.371   5.744   1.691
 4893SOL     OW15577   1.273   3.307   6.096
 4893SOL    HW115578   1.350   3.334   6.153
 4893SOL    HW215579   1.244   3.214   6.119
 4894SOL     OW15580   1.706   0.921   3.028
 4894SOL    HW115581   1.726   0.839   3.083
 4894SOL    HW215582   1.608   0.925   3.010
 4895SOL     OW15583   5.963   4.348   0.274
 4895SOL    HW115584   6.005   4.439   0.277
 4895SOL    HW215585   5.938   4.325   0.180
 4896SOL     OW15586   4.559   5.821   3.133
 4896SOL    HW115587   4.654   5.855   3.131
 4896SOL    HW215588   4.498   5.896   3.157
 4897SOL     OW15589   2.809   5.966   6.231
 4897SOL    HW115590   2.904   5.994   6.219
 4897SOL    HW215591   2.781   5.981   6.326
 4898SOL     OW15592   6.155   2.265   4.800
 4898SOL    HW115593   6.167   2.314   4.887
 4898SOL    HW215594   6.237   2.276   4.744
 4899SOL     OW15595   5.199   4.611   4.592
 4899SOL    HW115596   5.257   4.539   4.629
 4899SOL    HW215597   5.144   4.575   4.517
 4900SOL     OW15598   0.734   6.651   5.671
 4900SOL    HW115599   0.734   6.726   5.605
 4900SOL    HW215600   0.683   6.574   5.633
 4901SOL     OW15601   0.164   6.692   3.240
 4901SOL    HW115602   0.077   6.648   3.218
 4901SOL    HW215603   0.213   6.714   3.155
 4902SOL     OW15604   3.398   4.961   1.828
 4902SOL    HW115605   3.343   4.904   1.768
 4902SOL    HW215606   3.471   4.906   1.869
 4903SOL     OW15607   5.694   5.952   5.604
 4903SOL    HW115608   5.780   5.998   5.582
 4903SOL    HW215609   5.711   5.878   5.670
 4904SOL     OW15610   3.261   6.003   3.183
 4904SOL    HW115611   3.269   5.942   3.104
 4904SOL    HW215612   3.164   6.014   3.207
 4905SOL     OW15613   6.288   3.480   3.359
 4905SOL    HW115614   6.190   3.487   3.374
 4905SOL    HW215615   6.336   3.544   3.419
 4906SOL     OW15616   4.959   0.919   1.158
 4906SOL    HW115617   4.973   0.908   1.059
 4906SOL    HW215618   4.861   0.924   1.177
 4907SOL     OW15619   2.287   1.776   2.536
 4907SOL    HW115620   2.287   1.795   2.438
 4907SOL    HW215621   2.280   1.861   2.586
 4908SOL     OW15622   3.602   5.216   0.502
 4908SOL    HW115623   3.633   5.166   0.422
 4908SOL    HW215624   3.680   5.257   0.549
 4909SOL     OW15625   5.947   0.265   5.868
 4909SOL    HW115626   5.894   0.311   5.938
 4909SOL    HW215627   6.026   0.321   5.843
 4910SOL     OW15628   5.538   6.718   6.597
 4910SOL    HW115629   5.573   6.770   6.675
 4910SOL    HW215630   5.505   6.782   6.527
 4911SOL     OW15631   1.150   3.051   6.074
 4911SOL    HW115632   1.055   3.058   6.043
 4911SOL    HW215633   1.157   2.979   6.142
 4912SOL     OW15634   2.481   2.386   2.063
 4912SOL    HW115635   2.528   2.443   1.996
 4912SOL    HW215636   2.404   2.338   2.020
 4913SOL     OW15637   2.889   3.628   2.356
 4913SOL    HW115638   2.804   3.640   2.305
 4913SOL    HW215639   2.872   3.572   2.437
 4914SOL     OW15640   1.817   6.288   2.165
 4914SOL    HW115641   1.804   6.246   2.075
 4914SOL    HW215642   1.779   6.380   2.164
 4915SOL     OW15643   2.709   5.973   2.947
 4915SOL    HW115644   2.690   6.052   3.005
 4915SOL    HW215645   2.705   6.001   2.851
 4916SOL     OW15646   1.588   1.639   2.231
 4916SOL    HW115647   1.685   1.654   2.253
 4916SOL    HW215648   1.545   1.586   2.304
 4917SOL     OW15649   2.353   5.292   6.234
 4917SOL    HW115650   2.308   5.242   6.160
 4917SOL    HW215651   2.345   5.240   6.319
 4918SOL     OW15652   2.215   0.105   3.794
 4918SOL    HW115653   2.197   0.180   3.730
 4918SOL    HW215654   2.231   0.142   3.885
 4919SOL     OW15655   2.527   3.186   1.650
 4919SOL    HW115656   2.504   3.283   1.651
 4919SOL    HW215657   2.443   3.132   1.647
 4920SOL     OW15658   4.095   0.982   0.423
 4920SOL    HW115659   4.078   1.062   0.366
 4920SOL    HW215660   4.024   0.976   0.494
 4921SOL     OW15661   1.102   4.249   1.623
 4921SOL    HW115662   1.108   4.165   1.678
 4921SOL    HW215663   1.146   4.324   1.673
 4922SOL     OW15664   1.057   2.810   5.653
 4922SOL    HW115665   1.036   2.876   5.725
 4922SOL    HW215666   1.010   2.836   5.569
 4923SOL     OW15667   3.208   2.145   0.695
 4923SOL    HW115668   3.204   2.214   0.623
 4923SOL    HW215669   3.185   2.186   0.782
 4924SOL     OW15670   6.980   4.012   4.135
 4924SOL    HW115671   7.012   3.935   4.190
 4924SOL    HW215672   6.912   3.980   4.069
 4925SOL     OW15673   4.390   5.688   6.435
 4925SOL    HW115674   4.393   5.683   6.336
 4925SOL    HW215675   4.441   5.611   6.474
 4926SOL     OW15676   4.060   2.745   0.901
 4926SOL    HW115677   4.022   2.690   0.976
 4926SOL    HW215678   4.043   2.842   0.918
 4927SOL     OW15679   4.000   3.904   2.877
 4927SOL    HW115680   3.930   3.956   2.925
 4927SOL    HW215681   4.043   3.962   2.808
 4928SOL     OW15682   0.579   6.292   1.073
 4928SOL    HW115683   0.560   6.232   1.151
 4928SOL    HW215684   0.493   6.317   1.028
 4929SOL     OW15685   0.701   5.078   4.307
 4929SOL    HW115686   0.673   4.987   4.336
 4929SOL    HW215687   0.640   5.146   4.348
 4930SOL     OW15688   0.483   2.347   0.498
 4930SOL    HW115689   0.582   2.352   0.510
 4930SOL    HW215690   0.449   2.434   0.463
 4931SOL     OW15691   6.727   7.000   1.173
 4931SOL    HW115692   6.687   6.931   1.232
 4931SOL    HW215693   6.780   0.044   1.228
 4932SOL     OW15694   4.127   2.145   1.032
 4932SOL    HW115695   4.091   2.234   1.006
 4932SOL    HW215696   4.099   2.125   1.126
 4933SOL     OW15697   2.864   0.573   5.097
 4933SOL    HW115698   2.867   0.619   5.008
 4933SOL    HW215699   2.933   0.614   5.157
 4934SOL     OW15700   1.688   5.795   5.072
 4934SOL    HW115701   1.672   5.717   5.012
 4934SOL    HW215702   1.645   5.779   5.160
 4935SOL     OW15703   1.985   1.098   0.459
 4935SOL    HW115704   1.960   1.147   0.542
 4935SOL    HW215705   1.939   1.140   0.380
 4936SOL     OW15706   4.697   6.027   1.165
 4936SOL    HW115707   4.649   5.943   1.187
 4936SOL    HW215708   4.724   6.074   1.250
 4937SOL     OW15709   1.190   2.871   5.182
 4937SOL    HW115710   1.279   2.826   5.192
 4937SOL    HW215711   1.199   2.950   5.121
 4938SOL     OW15712   3.692   4.860   1.616
 4938SOL    HW115713   3.727   4.950   1.644
 4938SOL    HW215714   3.672   4.806   1.698
 4939SOL     OW15715   1.020   1.627   1.584
 4939SOL    HW115716   1.045   1.716   1.621
 4939SOL    HW215717   1.032   1.557   1.655
 4940SOL     OW15718   0.448   1.561   5.452
 4940SOL    HW115719   0.501   1.477   5.447
 4940SOL    HW215720   0.396   1.563   5.537
 4941SOL     OW15721   4.044   2.833   5.555
 4941SOL    HW115722   3.988   2.906   5.515
 4941SOL    HW215723   4.054   2.849   5.654
 4942SOL     OW15724   0.682   1.418   3.133
 4942SOL    HW115725   0.644   1.494   3.185
 4942SOL    HW215726   0.742   1.364   3.191
 4943SOL     OW15727   5.648   2.377   6.786
 4943SOL    HW115728   5.577   2.362   6.717
 4943SOL    HW215729   5.608   2.368   6.878
 4944SOL     OW15730   0.868   5.465   6.573
 4944SOL    HW115731   0.887   5.556   6.535
 4944SOL    HW215732   0.882   5.467   6.672
 4945SOL     OW15733   2.193   0.326   5.370
 4945SOL    HW115734   2.177   0.357   5.463
 4945SOL    HW215735   2.290   0.338   5.347
 4946SOL     OW15736   2.881   5.369   0.230
 4946SOL    HW115737   2.909   5.335   0.140
 4946SOL    HW215738   2.868   5.292   0.292
 4947SOL     OW15739   1.256   0.574   0.963
 4947SOL    HW115740   1.157   0.566   0.979
 4947SOL    HW215741   1.291   0.489   0.925
 4948SOL     OW15742   1.765   1.953   2.136
 4948SOL    HW115743   1.789   2.035   2.188
 4948SOL    HW215744   1.773   1.873   2.195
 4949SOL     OW15745   0.147   4.403   5.984
 4949SOL    HW115746   0.197   4.408   5.897
 4949SOL    HW215747   0.133   4.495   6.020
 4950SOL     OW15748   3.371   4.307   5.505
 4950SOL    HW115749   3.411   4.222   5.538
 4950SOL    HW215750   3.362   4.372   5.580
 4951SOL     OW15751   4.882   5.689   2.993
 4951SOL    HW115752   4.817   5.680   2.917
 4951SOL    HW215753   4.939   5.770   2.978
 4952SOL     OW15754   0.451   0.257   6.498
 4952SOL    HW115755   0.504   0.253   6.583
 4952SOL    HW215756   0.373   0.318   6.510
 4953SOL     OW15757   1.484   2.488   4.921
 4953SOL    HW115758   1.501   2.470   4.824
 4953SOL    HW215759   1.417   2.562   4.930
 4954SOL     OW15760   2.881   3.798   4.873
 4954SOL    HW115761   2.788   3.822   4.899
 4954SOL    HW215762   2.882   3.710   4.826
 4955SOL     OW15763   4.135   5.727   5.968
 4955SOL    HW115764   4.128   5.787   5.888
 4955SOL    HW215765   4.082   5.643   5.951
 4956SOL     OW15766   3.156   0.064   5.025
 4956SOL    HW115767   3.243   0.105   5.053
 4956SOL    HW215768   3.152   6.990   5.057
 4957SOL     OW15769   5.867   4.583   6.887
 4957SOL    HW115770   5.837   4.597   6.981
 4957SOL    HW215771   5.796   4.616   6.825
 4958SOL     OW15772   4.106   5.792   0.658
 4958SOL    HW115773   4.099   5.876   0.605
 4958SOL    HW215774   4.162   5.726   0.608
 4959SOL     OW15775   0.401   2.167   2.930
 4959SOL    HW115776   0.409   2.103   3.006
 4959SOL    HW215777   0.305   2.177   2.904
 4960SOL     OW15778   4.967   4.812   3.956
 4960SOL    HW115779   4.874   4.781   3.975
 4960SOL    HW215780   4.998   4.874   4.028
 4961SOL     OW15781   3.356   2.092   1.436
 4961SOL    HW115782   3.319   2.054   1.521
 4961SOL    HW215783   3.453   2.070   1.430
 4962SOL     OW15784   1.369   3.797   0.693
 4962SOL    HW115785   1.431   3.875   0.704
 4962SOL    HW215786   1.399   3.723   0.753
 4963SOL     OW15787   0.848   3.333   6.238
 4963SOL    HW115788   0.840   3.234   6.241
 4963SOL    HW215789   0.875   3.367   6.328
 4964SOL     OW15790   2.388   6.361   4.494
 4964SOL    HW115791   2.411   6.364   4.592
 4964SOL    HW215792   2.289   6.350   4.483
 4965SOL     OW15793   1.282   6.200   2.847
 4965SOL    HW115794   1.301   6.296   2.827
 4965SOL    HW215795   1.218   6.164   2.778
 4966SOL     OW15796   3.246   6.360   4.150
 4966SOL    HW115797   3.272   6.372   4.055
 4966SOL    HW215798   3.147   6.373   4.161
 4967SOL     OW15799   4.346   4.669   4.793
 4967SOL    HW115800   4.347   4.616   4.877
 4967SOL    HW215801   4.268   4.732   4.794
 4968SOL     OW15802   0.156   2.579   3.296
 4968SOL    HW115803   0.228   2.544   3.236
 4968SOL    HW215804   0.174   2.548   3.390
 4969SOL     OW15805   0.219   5.441   4.172
 4969SOL    HW115806   0.119   5.440   4.179
 4969SOL    HW215807   0.251   5.536   4.172
 4970SOL     OW15808   1.516   1.431   1.112
 4970SOL    HW115809   1.615   1.418   1.119
 4970SOL    HW215810   1.495   1.484   1.030
 4971SOL     OW15811   0.149   5.975   2.307
 4971SOL    HW115812   0.130   5.951   2.402
 4971SOL    HW215813   0.141   6.074   2.295
 4972SOL     OW15814   0.322   4.539   0.680
 4972SOL    HW115815   0.299   4.620   0.626
 4972SOL    HW215816   0.421   4.525   0.678
 4973SOL     OW15817   6.386   1.397   1.077
 4973SOL    HW115818   6.325   1.461   1.030
 4973SOL    HW215819   6.402   1.430   1.170
 4974SOL     OW15820   3.381   6.612   4.895
 4974SOL    HW115821   3.393   6.576   4.988
 4974SOL    HW215822   3.447   6.685   4.878
 4975SOL     OW15823   5.317   4.964   0.862
 4975SOL    HW115824   5.241   5.010   0.817
 4975SOL    HW215825   5.299   4.960   0.960
 4976SOL     OW15826   1.631   6.634   3.387
 4976SOL    HW115827   1.662   6.654   3.294
 4976SOL    HW215828   1.531   6.626   3.388
 4977SOL     OW15829   1.107   4.208   5.680
 4977SOL    HW115830   1.197   4.245   5.657
 4977SOL    HW215831   1.084   4.135   5.617
 4978SOL     OW15832   5.716   4.589   4.752
 4978SOL    HW115833   5.716   4.574   4.653
 4978SOL    HW215834   5.655   4.666   4.774
 4979SOL     OW15835   2.290   6.826   6.227
 4979SOL    HW115836   2.378   6.784   6.206
 4979SOL    HW215837   2.217   6.763   6.202
 4980SOL     OW15838   5.626   3.104   3.905
 4980SOL    HW115839   5.636   3.198   3.937
 4980SOL    HW215840   5.538   3.068   3.936
 4981SOL     OW15841   2.756   4.727   2.573
 4981SOL    HW115842   2.755   4.710   2.671
 4981SOL    HW215843   2.834   4.785   2.550
 4982SOL     OW15844   3.866   2.194   5.815
 4982SOL    HW115845   3.918   2.165   5.896
 4982SOL    HW215846   3.774   2.155   5.818
 4983SOL     OW15847   5.838   5.148   2.996
 4983SOL    HW115848   5.749   5.103   3.002
 4983SOL    HW215849   5.891   5.109   2.922
 4984SOL     OW15850   4.914   3.673   3.528
 4984SOL    HW115851   4.884   3.730   3.451
 4984SOL    HW215852   4.995   3.621   3.502
 4985SOL     OW15853   5.704   0.738   2.467
 4985SOL    HW115854   5.614   0.705   2.497
 4985SOL    HW215855   5.768   0.661   2.464
 4986SOL     OW15856   0.941   4.588   1.327
 4986SOL    HW115857   0.925   4.638   1.412
 4986SOL    HW215858   1.034   4.604   1.295
 4987SOL     OW15859   0.488   1.217   2.425
 4987SOL    HW115860   0.449   1.306   2.448
 4987SOL    HW215861   0.531   1.178   2.506
 4988SOL     OW15862   6.176   5.899   3.868
 4988SOL    HW115863   6.091   5.862   3.830
 4988SOL    HW215864   6.164   5.997   3.886
 4989SOL     OW15865   4.874   0.120   3.436
 4989SOL    HW115866   4.858   0.218   3.449
 4989SOL    HW215867   4.947   0.107   3.368
 4990SOL     OW15868   4.604   2.285   5.306
 4990SOL    HW115869   4.525   2.343   5.286
 4990SOL    HW215870   4.613   2.275   5.405
 4991SOL     OW15871   1.096   4.515   6.148
 4991SOL    HW115872   1.123   4.484   6.057
 4991SOL    HW215873   1.150   4.466   6.217
 4992SOL     OW15874   0.960   3.636   4.023
 4992SOL    HW115875   0.918   3.614   4.111
 4992SOL    HW215876   0.938   3.730   3.997
 4993SOL     OW15877   2.939   6.110   3.506
 4993SOL    HW115878   2.867   6.042   3.522
 4993SOL    HW215879   2.983   6.092   3.418
 4994SOL     OW15880   3.706   5.024   5.530
 4994SOL    HW115881   3.621   5.011   5.580
 4994SOL    HW215882   3.687   5.065   5.441
 4995SOL     OW15883   0.003   0.767   6.070
 4995SOL    HW115884   0.019   0.690   6.008
 4995SOL    HW215885   0.091   0.806   6.098
 4996SOL     OW15886   0.183   1.137   4.234
 4996SOL    HW115887   0.186   1.216   4.295
 4996SOL    HW215888   0.091   1.130   4.195
 4997SOL     OW15889   4.093   1.799   1.151
 4997SOL    HW115890   4.086   1.787   1.250
 4997SOL    HW215891   4.111   1.711   1.108
 4998SOL     OW15892   0.955   3.716   3.344
 4998SOL    HW115893   1.019   3.681   3.413
 4998SOL    HW215894   0.949   3.816   3.353
 4999SOL     OW15895   0.945   2.930   4.422
 4999SOL    HW115896   0.956   2.986   4.339
 4999SOL    HW215897   1.000   2.847   4.414
 5000SOL     OW15898   3.312   5.663   2.871
 5000SOL    HW115899   3.311   5.583   2.930
 5000SOL    HW215900   3.373   5.732   2.910
 5001SOL     OW15901   0.434   6.127   3.421
 5001SOL    HW115902   0.398   6.050   3.474
 5001SOL    HW215903   0.430   6.210   3.477
 5002SOL     OW15904   1.661   4.235   3.903
 5002SOL    HW115905   1.562   4.231   3.916
 5002SOL    HW215906   1.687   4.327   3.872
 5003SOL     OW15907   4.461   0.856   3.500
 5003SOL    HW115908   4.424   0.772   3.461
 5003SOL    HW215909   4.466   0.926   3.428
 5004SOL     OW15910   3.448   5.277   0.158
 5004SOL    HW115911   3.385   5.263   0.234
 5004SOL    HW215912   3.397   5.278   0.072
 5005SOL     OW15913   2.981   2.807   0.226
 5005SOL    HW115914   3.028   2.823   0.313
 5005SOL    HW215915   2.998   2.714   0.195
 5006SOL     OW15916   4.892   1.883   1.724
 5006SOL    HW115917   4.811   1.830   1.700
 5006SOL    HW215918   4.904   1.883   1.823
 5007SOL     OW15919   5.754   6.499   1.898
 5007SOL    HW115920   5.836   6.444   1.883
 5007SOL    HW215921   5.751   6.531   1.993
 5008SOL     OW15922   5.582   0.122   2.376
 5008SOL    HW115923   5.678   0.121   2.349
 5008SOL    HW215924   5.531   0.178   2.311
 5009SOL     OW15925   6.514   2.367   0.390
 5009SOL    HW115926   6.505   2.463   0.362
 5009SOL    HW215927   6.611   2.345   0.402
 5010SOL     OW15928   3.771   3.723   1.379
 5010SOL    HW115929   3.700   3.792   1.388
 5010SOL    HW215930   3.753   3.666   1.299
 5011SOL     OW15931   1.739   2.872   6.618
 5011SOL    HW115932   1.780   2.856   6.528
 5011SOL    HW215933   1.797   2.936   6.669
 5012SOL     OW15934   6.259   1.770   6.331
 5012SOL    HW115935   6.267   1.706   6.407
 5012SOL    HW215936   6.295   1.859   6.359
 5013SOL     OW15937   6.051   0.020   5.811
 5013SOL    HW115938   6.031   0.118   5.810
 5013SOL    HW215939   6.110   7.020   5.889
 5014SOL     OW15940   6.167   3.154   1.752
 5014SOL    HW115941   6.185   3.238   1.701
 5014SOL    HW215942   6.230   3.149   1.830
 5015SOL     OW15943   5.783   6.717   4.052
 5015SOL    HW115944   5.836   6.778   3.993
 5015SOL    HW215945   5.789   6.624   4.018
 5016SOL     OW15946   1.989   3.335   5.555
 5016SOL    HW115947   1.983   3.237   5.541
 5016SOL    HW215948   1.910   3.380   5.514
 5017SOL     OW15949   0.658   3.282   2.238
 5017SOL    HW115950   0.590   3.245   2.175
 5017SOL    HW215951   0.618   3.358   2.289
 5018SOL     OW15952   1.208   0.302   6.971
 5018SOL    HW115953   1.293   0.273   6.927
 5018SOL    HW215954   1.222   0.308   0.049
 5019SOL     OW15955   1.344   5.185   5.188
 5019SOL    HW115956   1.368   5.088   5.181
 5019SOL    HW215957   1.349   5.227   5.097
 5020SOL     OW15958   2.671   7.011   4.500
 5020SOL    HW115959   2.751   6.983   4.447
 5020SOL    HW215960   2.614   6.932   4.519
 5021SOL     OW15961   2.153   0.780   0.547
 5021SOL    HW115962   2.107   0.700   0.585
 5021SOL    HW215963   2.241   0.793   0.593
 5022SOL     OW15964   6.704   2.950   1.540
 5022SOL    HW115965   6.771   3.019   1.569
 5022SOL    HW215966   6.645   2.926   1.616
 5023SOL     OW15967   6.842   4.264   2.509
 5023SOL    HW115968   6.764   4.228   2.560
 5023SOL    HW215969   6.926   4.251   2.562
 5024SOL     OW15970   4.229   3.603   1.187
 5024SOL    HW115971   4.154   3.565   1.132
 5024SOL    HW215972   4.194   3.677   1.243
 5025SOL     OW15973   4.586   1.186   4.455
 5025SOL    HW115974   4.613   1.114   4.392
 5025SOL    HW215975   4.554   1.266   4.404
 5026SOL     OW15976   4.188   6.799   4.457
 5026SOL    HW115977   4.200   6.747   4.541
 5026SOL    HW215978   4.256   6.873   4.454
 5027SOL     OW15979   5.035   6.365   0.530
 5027SOL    HW115980   4.961   6.426   0.502
 5027SOL    HW215981   5.096   6.413   0.593
 5028SOL     OW15982   6.350   1.961   2.648
 5028SOL    HW115983   6.416   1.967   2.573
 5028SOL    HW215984   6.281   2.032   2.637
 5029SOL     OW15985   6.222   1.927   3.074
 5029SOL    HW115986   6.295   1.959   3.135
 5029SOL    HW215987   6.252   1.846   3.024
 5030SOL     OW15988   0.158   4.223   6.513
 5030SOL    HW115989   0.075   4.169   6.496
 5030SOL    HW215990   0.229   4.164   6.551
 5031SOL     OW15991   6.476   6.767   6.023
 5031SOL    HW115992   6.384   6.737   6.048
 5031SOL    HW215993   6.529   6.787   6.106
 5032SOL     OW15994   2.750   3.401   5.428
 5032SOL    HW115995   2.754   3.493   5.389
 5032SOL    HW215996   2.667   3.393   5.484
 5033SOL     OW15997   2.133   0.689   6.711
 5033SOL    HW115998   2.188   0.625   6.657
 5033SOL    HW215999   2.162   0.685   6.807
 5034SOL     OW16000   4.560   6.592   4.557
 5034SOL    HW116001   4.578   6.583   4.459
 5034SOL    HW216002   4.623   6.659   4.597
 5035SOL     OW16003   1.897   3.548   3.893
 5035SOL    HW116004   1.841   3.470   3.868
 5035SOL    HW216005   1.903   3.611   3.815
 5036SOL     OW16006   0.051   2.584   5.527
 5036SOL    HW116007   0.066   2.495   5.570
 5036SOL    HW216008   0.116   2.597   5.453
 5037SOL     OW16009   4.204   4.078   1.466
 5037SOL    HW116010   4.211   4.100   1.563
 5037SOL    HW216011   4.176   3.982   1.455
 5038SOL     OW16012   4.081   3.789   4.120
 5038SOL    HW116013   4.096   3.748   4.210
 5038SOL    HW216014   4.057   3.885   4.130
 5039SOL     OW16015   1.272   3.339   6.860
 5039SOL    HW116016   1.251   3.422   6.808
 5039SOL    HW216017   1.203   3.269   6.842
 5040SOL     OW16018   0.189   0.802   5.399
 5040SOL    HW116019   0.235   0.714   5.387
 5040SOL    HW216020   0.256   0.871   5.428
 5041SOL     OW16021   6.878   3.165   1.678
 5041SOL    HW116022   6.819   3.242   1.702
 5041SOL    HW216023   6.959   3.166   1.737
 5042SOL     OW16024   0.594   2.807   6.298
 5042SOL    HW116025   0.515   2.746   6.304
 5042SOL    HW216026   0.677   2.755   6.317
 5043SOL     OW16027   4.094   6.354   1.345
 5043SOL    HW116028   4.180   6.405   1.347
 5043SOL    HW216029   4.090   6.301   1.260
 5044SOL     OW16030   6.181   4.591   0.537
 5044SOL    HW116031   6.158   4.568   0.442
 5044SOL    HW216032   6.202   4.507   0.587
 5045SOL     OW16033   6.271   3.309   6.601
 5045SOL    HW116034   6.355   3.357   6.575
 5045SOL    HW216035   6.243   3.340   6.692
 5046SOL     OW16036   3.643   3.118   2.875
 5046SOL    HW116037   3.568   3.060   2.907
 5046SOL    HW216038   3.724   3.062   2.859
 5047SOL     OW16039   0.944   3.978   3.425
 5047SOL    HW116040   0.879   4.053   3.414
 5047SOL    HW216041   0.924   3.927   3.509
 5048SOL     OW16042   1.847   0.936   5.725
 5048SOL    HW116043   1.820   0.958   5.631
 5048SOL    HW216044   1.883   1.018   5.770
 5049SOL     OW16045   4.965   1.522   6.599
 5049SOL    HW116046   4.972   1.489   6.505
 5049SOL    HW216047   4.994   1.450   6.663
 5050SOL     OW16048   1.618   0.347   0.651
 5050SOL    HW116049   1.694   0.412   0.645
 5050SOL    HW216050   1.588   0.322   0.559
 5051SOL     OW16051   4.609   5.446   1.259
 5051SOL    HW116052   4.530   5.425   1.316
 5051SOL    HW216053   4.689   5.397   1.292
 5052SOL     OW16054   2.553   1.079   5.127
 5052SOL    HW116055   2.551   1.010   5.054
 5052SOL    HW216056   2.460   1.099   5.157
 5053SOL     OW16057   0.091   0.084   1.501
 5053SOL    HW116058   0.054   0.059   1.412
 5053SOL    HW216059   0.191   0.080   1.498
 5054SOL     OW16060   3.710   5.019   4.074
 5054SOL    HW116061   3.645   4.944   4.060
 5054SOL    HW216062   3.729   5.064   3.986
 5055SOL     OW16063   6.682   3.433   6.760
 5055SOL    HW116064   6.759   3.495   6.742
 5055SOL    HW216065   6.651   3.393   6.674
 5056SOL     OW16066   5.549   4.282   4.803
 5056SOL    HW116067   5.499   4.285   4.890
 5056SOL    HW216068   5.588   4.191   4.790
 5057SOL     OW16069   0.806   5.971   2.053
 5057SOL    HW116070   0.784   5.881   2.091
 5057SOL    HW216071   0.905   5.984   2.054
 5058SOL     OW16072   3.025   5.366   5.512
 5058SOL    HW116073   3.026   5.458   5.473
 5058SOL    HW216074   3.117   5.340   5.540
 5059SOL     OW16075   0.338   0.245   1.838
 5059SOL    HW116076   0.410   0.250   1.907
 5059SOL    HW216077   0.263   0.307   1.863
 5060SOL     OW16078   6.385   1.879   5.572
 5060SOL    HW116079   6.454   1.854   5.504
 5060SOL    HW216080   6.294   1.862   5.534
 5061SOL     OW16081   5.552   4.179   0.224
 5061SOL    HW116082   5.485   4.121   0.270
 5061SOL    HW216083   5.627   4.199   0.287
 5062SOL     OW16084   0.368   0.406   0.772
 5062SOL    HW116085   0.327   0.466   0.841
 5062SOL    HW216086   0.432   0.343   0.817
 5063SOL     OW16087   1.352   6.771   1.265
 5063SOL    HW116088   1.321   6.813   1.351
 5063SOL    HW216089   1.351   6.672   1.274
 5064SOL     OW16090   5.059   3.051   6.871
 5064SOL    HW116091   5.076   3.011   6.781
 5064SOL    HW216092   5.028   3.146   6.860
 5065SOL     OW16093   2.274   5.889   5.373
 5065SOL    HW116094   2.238   5.975   5.338
 5065SOL    HW216095   2.200   5.823   5.383
 5066SOL     OW16096   5.038   4.997   1.233
 5066SOL    HW116097   4.974   4.933   1.277
 5066SOL    HW216098   5.065   5.067   1.298
 5067SOL     OW16099   4.638   1.168   0.081
 5067SOL    HW116100   4.656   1.257   0.041
 5067SOL    HW216101   4.708   1.147   0.150
 5068SOL     OW16102   2.797   5.367   1.733
 5068SOL    HW116103   2.873   5.332   1.788
 5068SOL    HW216104   2.806   5.466   1.723
 5069SOL     OW16105   0.642   5.197   3.253
 5069SOL    HW116106   0.556   5.183   3.303
 5069SOL    HW216107   0.710   5.130   3.283
 5070SOL     OW16108   5.022   3.242   4.568
 5070SOL    HW116109   4.993   3.220   4.475
 5070SOL    HW216110   4.962   3.197   4.634
 5071SOL     OW16111   4.327   0.957   6.635
 5071SOL    HW116112   4.304   1.054   6.642
 5071SOL    HW216113   4.372   0.939   6.548
 5072SOL     OW16114   1.175   4.301   1.194
 5072SOL    HW116115   1.207   4.363   1.122
 5072SOL    HW216116   1.235   4.221   1.198
 5073SOL     OW16117   4.401   2.027   3.517
 5073SOL    HW116118   4.341   1.950   3.537
 5073SOL    HW216119   4.346   2.109   3.503
 5074SOL     OW16120   3.209   4.205   5.880
 5074SOL    HW116121   3.145   4.208   5.957
 5074SOL    HW216122   3.250   4.115   5.874
 5075SOL     OW16123   0.197   5.717   4.431
 5075SOL    HW116124   0.232   5.628   4.461
 5075SOL    HW216125   0.102   5.727   4.461
 5076SOL     OW16126   3.489   0.193   1.339
 5076SOL    HW116127   3.434   0.230   1.264
 5076SOL    HW216128   3.519   0.267   1.399
 5077SOL     OW16129   0.371   2.316   2.281
 5077SOL    HW116130   0.389   2.412   2.259
 5077SOL    HW216131   0.274   2.296   2.269
 5078SOL     OW16132   1.098   1.006   3.825
 5078SOL    HW116133   1.087   1.011   3.726
 5078SOL    HW216134   1.013   1.036   3.869
 5079SOL     OW16135   3.817   4.950   5.198
 5079SOL    HW116136   3.884   5.006   5.148
 5079SOL    HW216137   3.740   5.008   5.224
 5080SOL     OW16138   5.839   6.524   5.853
 5080SOL    HW116139   5.750   6.521   5.810
 5080SOL    HW216140   5.881   6.433   5.851
 5081SOL     OW16141   3.338   3.785   3.395
 5081SOL    HW116142   3.269   3.842   3.440
 5081SOL    HW216143   3.429   3.812   3.427
 5082SOL     OW16144   6.317   6.315   4.754
 5082SOL    HW116145   6.299   6.295   4.851
 5082SOL    HW216146   6.241   6.367   4.716
 5083SOL     OW16147   1.526   6.034   1.685
 5083SOL    HW116148   1.439   6.038   1.733
 5083SOL    HW216149   1.595   5.989   1.742
 5084SOL     OW16150   2.352   5.817   3.176
 5084SOL    HW116151   2.410   5.896   3.196
 5084SOL    HW216152   2.256   5.840   3.196
 5085SOL     OW16153   6.336   3.069   5.921
 5085SOL    HW116154   6.358   2.973   5.903
 5085SOL    HW216155   6.286   3.076   6.008
 5086SOL     OW16156   6.511   5.284   3.424
 5086SOL    HW116157   6.448   5.278   3.501
 5086SOL    HW216158   6.595   5.331   3.452
 5087SOL     OW16159   0.241   5.827   5.382
 5087SOL    HW116160   0.157   5.774   5.386
 5087SOL    HW216161   0.298   5.794   5.308
 5088SOL     OW16162   5.812   0.340   0.081
 5088SOL    HW116163   5.802   0.245   0.051
 5088SOL    HW216164   5.884   0.346   0.150
 5089SOL     OW16165   5.177   3.148   3.145
 5089SOL    HW116166   5.137   3.195   3.224
 5089SOL    HW216167   5.276   3.144   3.155
 5090SOL     OW16168   1.349   4.879   0.883
 5090SOL    HW116169   1.392   4.797   0.845
 5090SOL    HW216170   1.253   4.860   0.903
 5091SOL     OW16171   1.752   6.017   2.293
 5091SOL    HW116172   1.710   6.107   2.302
 5091SOL    HW216173   1.795   5.991   2.380
 5092SOL     OW16174   3.640   2.725   1.697
 5092SOL    HW116175   3.560   2.738   1.638
 5092SOL    HW216176   3.658   2.810   1.746
 5093SOL     OW16177   0.668   2.204   1.105
 5093SOL    HW116178   0.671   2.251   1.016
 5093SOL    HW216179   0.760   2.198   1.143
 5094SOL     OW16180   6.629   0.415   6.534
 5094SOL    HW116181   6.540   0.372   6.552
 5094SOL    HW216182   6.644   0.420   6.435
 5095SOL     OW16183   3.047   0.129   5.256
 5095SOL    HW116184   3.099   0.208   5.291
 5095SOL    HW216185   3.088   0.099   5.170
 5096SOL     OW16186   4.308   5.129   1.976
 5096SOL    HW116187   4.365   5.198   1.930
 5096SOL    HW216188   4.218   5.127   1.933
 5097SOL     OW16189   0.502   0.568   6.403
 5097SOL    HW116190   0.435   0.494   6.415
 5097SOL    HW216191   0.465   0.635   6.339
 5098SOL     OW16192   0.194   2.849   2.231
 5098SOL    HW116193   0.114   2.909   2.237
 5098SOL    HW216194   0.244   2.851   2.318
 5099SOL     OW16195   0.872   6.526   4.350
 5099SOL    HW116196   0.918   6.514   4.438
 5099SOL    HW216197   0.918   6.469   4.281
 5100SOL     OW16198   5.174   6.341   6.354
 5100SOL    HW116199   5.256   6.315   6.405
 5100SOL    HW216200   5.117   6.260   6.339
 5101SOL     OW16201   4.427   5.886   0.570
 5101SOL    HW116202   4.347   5.939   0.598
 5101SOL    HW216203   4.397   5.807   0.517
 5102SOL     OW16204   3.418   6.120   4.874
 5102SOL    HW116205   3.367   6.035   4.866
 5102SOL    HW216206   3.515   6.100   4.892
 5103SOL     OW16207   1.089   0.308   4.490
 5103SOL    HW116208   1.168   0.250   4.471
 5103SOL    HW216209   1.019   0.254   4.538
 5104SOL     OW16210   1.495   6.827   1.040
 5104SOL    HW116211   1.504   6.747   0.981
 5104SOL    HW216212   1.438   6.804   1.118
 5105SOL     OW16213   2.313   3.172   6.476
 5105SOL    HW116214   2.273   3.122   6.553
 5105SOL    HW216215   2.413   3.168   6.482
 5106SOL     OW16216   3.406   0.698   2.139
 5106SOL    HW116217   3.369   0.628   2.078
 5106SOL    HW216218   3.353   0.782   2.129
 5107SOL     OW16219   1.232   7.014   5.659
 5107SOL    HW116220   1.223   6.960   5.744
 5107SOL    HW216221   1.158   0.060   5.655
 5108SOL     OW16222   3.038   4.008   3.722
 5108SOL    HW116223   3.001   4.101   3.715
 5108SOL    HW216224   2.994   3.961   3.799
 5109SOL     OW16225   0.012   1.332   1.013
 5109SOL    HW116226   0.083   1.398   0.988
 5109SOL    HW216227   6.958   1.379   1.059
 5110SOL     OW16228   1.980   5.988   5.387
 5110SOL    HW116229   1.918   6.032   5.322
 5110SOL    HW216230   2.008   5.899   5.350
 5111SOL     OW16231   1.810   1.227   0.276
 5111SOL    HW116232   1.790   1.240   0.179
 5111SOL    HW216233   1.822   1.316   0.320
 5112SOL     OW16234   0.263   6.812   3.688
 5112SOL    HW116235   0.223   6.804   3.780
 5112SOL    HW216236   0.200   6.864   3.629
 5113SOL     OW16237   0.768   6.967   6.549
 5113SOL    HW116238   0.857   6.929   6.577
 5113SOL    HW216239   0.735   0.008   6.620
 5114SOL     OW16240   3.723   4.698   7.017
 5114SOL    HW116241   3.626   4.693   6.993
 5114SOL    HW216242   3.756   4.791   7.001
 5115SOL     OW16243   1.888   4.027   5.308
 5115SOL    HW116244   1.968   4.034   5.249
 5115SOL    HW216245   1.881   3.934   5.343
 5116SOL     OW16246   0.195   3.444   1.408
 5116SOL    HW116247   0.271   3.503   1.435
 5116SOL    HW216248   0.146   3.486   1.332
 5117SOL     OW16249   2.387   4.413   4.010
 5117SOL    HW116250   2.381   4.400   3.910
 5117SOL    HW216251   2.416   4.327   4.052
 5118SOL     OW16252   4.466   6.950   1.514
 5118SOL    HW116253   4.423   0.017   1.492
 5118SOL    HW216254   4.564   6.956   1.498
 5119SOL     OW16255   6.638   0.149   2.616
 5119SOL    HW116256   6.629   0.166   2.714
 5119SOL    HW216257   6.678   0.058   2.601
 5120SOL     OW16258   4.742   1.176   2.815
 5120SOL    HW116259   4.827   1.229   2.820
 5120SOL    HW216260   4.746   1.114   2.736
 5121SOL     OW16261   1.031   3.743   4.647
 5121SOL    HW116262   0.971   3.691   4.708
 5121SOL    HW216263   1.103   3.786   4.702
 5122SOL     OW16264   2.058   5.911   3.318
 5122SOL    HW116265   2.125   5.985   3.326
 5122SOL    HW216266   1.972   5.941   3.359
 5123SOL     OW16267   5.953   4.430   2.095
 5123SOL    HW116268   5.898   4.388   2.022
 5123SOL    HW216269   5.902   4.507   2.134
 5124SOL     OW16270   2.803   5.960   0.407
 5124SOL    HW116271   2.735   5.927   0.342
 5124SOL    HW216272   2.757   5.989   0.491
 5125SOL     OW16273   6.876   2.378   6.043
 5125SOL    HW116274   6.868   2.436   5.962
 5125SOL    HW216275   6.791   2.326   6.056
 5126SOL     OW16276   4.401   2.877   6.531
 5126SOL    HW116277   4.413   2.977   6.530
 5126SOL    HW216278   4.488   2.833   6.512
 5127SOL     OW16279   5.444   3.194   6.688
 5127SOL    HW116280   5.367   3.257   6.699
 5127SOL    HW216281   5.527   3.245   6.666
 5128SOL     OW16282   0.635   6.808   6.886
 5128SOL    HW116283   0.731   6.777   6.887
 5128SOL    HW216284   0.584   6.761   6.958
 5129SOL     OW16285   4.094   2.226   2.181
 5129SOL    HW116286   4.181   2.228   2.132
 5129SOL    HW216287   4.103   2.271   2.269
 5130SOL     OW16288   0.809   6.809   5.067
 5130SOL    HW116289   0.897   6.847   5.094
 5130SOL    HW216290   0.821   6.715   5.034
 5131SOL     OW16291   3.608   4.900   3.353
 5131SOL    HW116292   3.527   4.853   3.317
 5131SOL    HW216293   3.690   4.867   3.306
 5132SOL     OW16294   3.691   1.376   6.598
 5132SOL    HW116295   3.718   1.472   6.604
 5132SOL    HW216296   3.600   1.369   6.556
 5133SOL     OW16297   4.778   4.799   6.914
 5133SOL    HW116298   4.681   4.820   6.917
 5133SOL    HW216299   4.810   4.798   6.819
 5134SOL     OW16300   6.008   6.057   0.454
 5134SOL    HW116301   5.954   6.031   0.534
 5134SOL    HW216302   5.984   5.996   0.378
 5135SOL     OW16303   0.302   2.882   2.463
 5135SOL    HW116304   0.392   2.873   2.504
 5135SOL    HW216305   0.248   2.799   2.481
 5136SOL     OW16306   0.987   1.288   5.989
 5136SOL    HW116307   0.891   1.282   6.014
 5136SOL    HW216308   1.013   1.208   5.936
 5137SOL     OW16309   5.102   0.861   3.792
 5137SOL    HW116310   5.064   0.859   3.700
 5137SOL    HW216311   5.051   0.927   3.848
 5138SOL     OW16312   3.124   3.306   3.173
 5138SOL    HW116313   3.222   3.300   3.152
 5138SOL    HW216314   3.072   3.291   3.089
 5139SOL     OW16315   2.929   0.673   5.845
 5139SOL    HW116316   2.988   0.658   5.766
 5139SOL    HW216317   2.977   0.727   5.914
 5140SOL     OW16318   3.167   3.281   6.451
 5140SOL    HW116319   3.126   3.268   6.541
 5140SOL    HW216320   3.141   3.205   6.391
 5141SOL     OW16321   6.847   2.735   1.383
 5141SOL    HW116322   6.790   2.656   1.407
 5141SOL    HW216323   6.805   2.818   1.418
 5142SOL     OW16324   0.235   6.964   2.166
 5142SOL    HW116325   0.202   6.889   2.223
 5142SOL    HW216326   0.268   6.927   2.079
 5143SOL     OW16327   6.896   6.678   2.753
 5143SOL    HW116328   6.807   6.722   2.743
 5143SOL    HW216329   6.883   6.582   2.780
 5144SOL     OW16330   2.189   2.833   5.212
 5144SOL    HW116331   2.100   2.869   5.183
 5144SOL    HW216332   2.261   2.881   5.162
 5145SOL     OW16333   2.429   5.555   6.062
 5145SOL    HW116334   2.380   5.641   6.079
 5145SOL    HW216335   2.375   5.498   5.999
 5146SOL     OW16336   5.657   6.194   6.916
 5146SOL    HW116337   5.635   6.280   6.962
 5146SOL    HW216338   5.697   6.131   6.982
 5147SOL     OW16339   4.598   2.414   3.213
 5147SOL    HW116340   4.543   2.443   3.134
 5147SOL    HW216341   4.619   2.317   3.205
 5148SOL     OW16342   0.075   0.541   6.319
 5148SOL    HW116343   0.030   0.512   6.235
 5148SOL    HW216344   0.059   0.639   6.333
 5149SOL     OW16345   4.311   5.539   4.242
 5149SOL    HW116346   4.291   5.521   4.146
 5149SOL    HW216347   4.408   5.523   4.260
 5150SOL     OW16348   6.175   6.992   3.153
 5150SOL    HW116349   6.260   7.010   3.103
 5150SOL    HW216350   6.196   6.948   3.240
 5151SOL     OW16351   6.053   6.145   2.197
 5151SOL    HW116352   6.138   6.105   2.230
 5151SOL    HW216353   6.069   6.240   2.171
 5152SOL     OW16354   1.868   1.554   6.915
 5152SOL    HW116355   1.816   1.624   6.965
 5152SOL    HW216356   1.921   1.499   6.979
 5153SOL     OW16357   0.968   2.205   0.632
 5153SOL    HW116358   0.947   2.151   0.713
 5153SOL    HW216359   1.055   2.253   0.645
 5154SOL     OW16360   0.447   3.114   0.817
 5154SOL    HW116361   0.356   3.122   0.856
 5154SOL    HW216362   0.495   3.038   0.860
 5155SOL     OW16363   1.803   1.729   0.173
 5155SOL    HW116364   1.759   1.815   0.200
 5155SOL    HW216365   1.733   1.661   0.153
 5156SOL     OW16366   6.283   6.265   5.332
 5156SOL    HW116367   6.305   6.212   5.414
 5156SOL    HW216368   6.278   6.362   5.356
 5157SOL     OW16369   3.385   0.283   1.893
 5157SOL    HW116370   3.482   0.258   1.901
 5157SOL    HW216371   3.339   0.262   1.979
 5158SOL     OW16372   1.141   2.031   1.926
 5158SOL    HW116373   1.111   1.990   1.840
 5158SOL    HW216374   1.241   2.044   1.924
 5159SOL     OW16375   5.808   3.263   5.896
 5159SOL    HW116376   5.726   3.271   5.840
 5159SOL    HW216377   5.870   3.339   5.876
 5160SOL     OW16378   6.260   6.821   2.786
 5160SOL    HW116379   6.283   6.788   2.695
 5160SOL    HW216380   6.221   6.913   2.780
 5161SOL     OW16381   1.355   3.288   0.394
 5161SOL    HW116382   1.426   3.219   0.379
 5161SOL    HW216383   1.277   3.271   0.334
 5162SOL     OW16384   0.044   6.842   4.175
 5162SOL    HW116385   7.018   6.866   4.260
 5162SOL    HW216386   7.004   6.787   4.118
 5163SOL     OW16387   3.663   0.325   2.262
 5163SOL    HW116388   3.698   0.283   2.346
 5163SOL    HW216389   3.576   0.370   2.281
 5164SOL     OW16390   2.623   3.476   0.156
 5164SOL    HW116391   2.676   3.513   0.232
 5164SOL    HW216392   2.628   3.376   0.157
 5165SOL     OW16393   1.675   4.086   6.014
 5165SOL    HW116394   1.693   4.158   5.946
 5165SOL    HW216395   1.715   4.000   5.983
 5166SOL     OW16396   0.891   4.474   0.503
 5166SOL    HW116397   0.939   4.489   0.417
 5166SOL    HW216398   0.950   4.422   0.565
 5167SOL     OW16399   5.451   3.539   5.619
 5167SOL    HW116400   5.457   3.506   5.525
 5167SOL    HW216401   5.371   3.598   5.628
 5168SOL     OW16402   4.249   2.080   2.828
 5168SOL    HW116403   4.302   2.066   2.744
 5168SOL    HW216404   4.298   2.143   2.888
 5169SOL     OW16405   5.033   5.981   4.577
 5169SOL    HW116406   5.024   6.003   4.480
 5169SOL    HW216407   4.947   6.001   4.623
 5170SOL     OW16408   2.080   3.659   6.421
 5170SOL    HW116409   2.069   3.566   6.385
 5170SOL    HW216410   2.033   3.666   6.509
 5171SOL     OW16411   2.088   5.938   5.650
 5171SOL    HW116412   2.050   6.004   5.715
 5171SOL    HW216413   2.083   5.975   5.558
 5172SOL     OW16414   5.789   5.399   5.239
 5172SOL    HW116415   5.848   5.344   5.298
 5172SOL    HW216416   5.830   5.489   5.226
 5173SOL     OW16417   4.812   5.575   5.622
 5173SOL    HW116418   4.822   5.661   5.573
 5173SOL    HW216419   4.740   5.520   5.579
 5174SOL     OW16420   2.257   6.525   3.041
 5174SOL    HW116421   2.317   6.556   2.967
 5174SOL    HW216422   2.307   6.463   3.101
 5175SOL     OW16423   2.503   2.761   0.028
 5175SOL    HW116424   2.553   2.682   7.014
 5175SOL    HW216425   2.497   2.756   0.127
 5176SOL     OW16426   6.322   5.793   6.563
 5176SOL    HW116427   6.410   5.817   6.606
 5176SOL    HW216428   6.253   5.780   6.635
 5177SOL     OW16429   6.149   6.996   0.627
 5177SOL    HW116430   6.205   6.924   0.587
 5177SOL    HW216431   6.201   0.023   0.699
 5178SOL     OW16432   1.238   4.003   1.479
 5178SOL    HW116433   1.144   4.035   1.493
 5178SOL    HW216434   1.294   4.080   1.447
 5179SOL     OW16435   4.646   6.096   3.256
 5179SOL    HW116436   4.712   6.074   3.328
 5179SOL    HW216437   4.678   6.059   3.169
 5180SOL     OW16438   1.871   4.913   2.772
 5180SOL    HW116439   1.901   5.007   2.790
 5180SOL    HW216440   1.951   4.854   2.765
 5181SOL     OW16441   6.228   0.664   5.732
 5181SOL    HW116442   6.204   0.744   5.677
 5181SOL    HW216443   6.320   0.677   5.770
 5182SOL     OW16444   2.349   6.282   2.805
 5182SOL    HW116445   2.337   6.381   2.795
 5182SOL    HW216446   2.280   6.234   2.750
 5183SOL     OW16447   4.170   2.166   3.813
 5183SOL    HW116448   4.247   2.182   3.752
 5183SOL    HW216449   4.181   2.222   3.895
 5184SOL     OW16450   1.835   1.151   3.231
 5184SOL    HW116451   1.842   1.056   3.262
 5184SOL    HW216452   1.824   1.211   3.310
 5185SOL     OW16453   7.011   0.800   2.515
 5185SOL    HW116454   0.030   0.874   2.569
 5185SOL    HW216455   6.916   0.787   2.541
 5186SOL     OW16456   6.742   3.877   6.890
 5186SOL    HW116457   6.705   3.785   6.877
 5186SOL    HW216458   6.667   3.943   6.895
 5187SOL     OW16459   1.359   4.695   5.191
 5187SOL    HW116460   1.339   4.780   5.141
 5187SOL    HW216461   1.457   4.678   5.190
 5188SOL     OW16462   5.883   0.496   2.414
 5188SOL    HW116463   5.977   0.517   2.442
 5188SOL    HW216464   5.881   0.475   2.316
 5189SOL     OW16465   4.816   6.360   7.019
 5189SOL    HW116466   4.899   6.408   6.991
 5189SOL    HW216467   4.739   6.424   7.019
 5190SOL     OW16468   1.802   4.686   6.916
 5190SOL    HW116469   1.705   4.668   6.903
 5190SOL    HW216470   1.850   4.672   6.829
 5191SOL     OW16471   2.696   4.813   2.098
 5191SOL    HW116472   2.732   4.733   2.050
 5191SOL    HW216473   2.634   4.863   2.038
 5192SOL     OW16474   1.116   4.819   2.312
 5192SOL    HW116475   1.040   4.880   2.333
 5192SOL    HW216476   1.084   4.724   2.317
 5193SOL     OW16477   5.844   1.082   5.578
 5193SOL    HW116478   5.907   1.064   5.503
 5193SOL    HW216479   5.892   1.129   5.652
 5194SOL     OW16480   5.051   1.322   5.861
 5194SOL    HW116481   4.982   1.395   5.862
 5194SOL    HW216482   5.036   1.262   5.940
 5195SOL     OW16483   0.311   0.558   5.341
 5195SOL    HW116484   0.408   0.548   5.318
 5195SOL    HW216485   0.264   0.471   5.328
 5196SOL     OW16486   5.936   6.760   3.647
 5196SOL    HW116487   5.847   6.802   3.628
 5196SOL    HW216488   5.952   6.688   3.580
 5197SOL     OW16489   1.000   2.677   4.738
 5197SOL    HW116490   0.977   2.711   4.828
 5197SOL    HW216491   0.917   2.672   4.682
 5198SOL     OW16492   6.113   5.152   3.231
 5198SOL    HW116493   6.180   5.111   3.293
 5198SOL    HW216494   6.021   5.132   3.265
 5199SOL     OW16495   0.157   4.672   1.095
 5199SOL    HW116496   0.069   4.721   1.096
 5199SOL    HW216497   0.223   4.722   1.151
 5200SOL     OW16498   6.838   3.708   4.793
 5200SOL    HW116499   6.850   3.609   4.794
 5200SOL    HW216500   6.771   3.733   4.723
 5201SOL     OW16501   0.566   5.254   4.519
 5201SOL    HW116502   0.552   5.328   4.454
 5201SOL    HW216503   0.649   5.271   4.572
 5202SOL     OW16504   0.811   4.506   1.102
 5202SOL    HW116505   0.842   4.413   1.079
 5202SOL    HW216506   0.845   4.530   1.193
 5203SOL     OW16507   0.438   2.732   0.079
 5203SOL    HW116508   0.379   2.793   0.026
 5203SOL    HW216509   0.399   2.640   0.079
 5204SOL     OW16510   4.456   4.655   6.757
 5204SOL    HW116511   4.453   4.736   6.816
 5204SOL    HW216512   4.367   4.643   6.713
 5205SOL     OW16513   1.211   0.168   0.690
 5205SOL    HW116514   1.275   0.111   0.638
 5205SOL    HW216515   1.123   0.122   0.695
 5206SOL     OW16516   0.597   4.337   4.941
 5206SOL    HW116517   0.604   4.418   4.882
 5206SOL    HW216518   0.518   4.282   4.915
 5207SOL     OW16519   1.826   4.666   3.585
 5207SOL    HW116520   1.889   4.681   3.509
 5207SOL    HW216521   1.810   4.752   3.633
 5208SOL     OW16522   4.613   1.001   0.341
 5208SOL    HW116523   4.633   0.944   0.261
 5208SOL    HW216524   4.648   0.957   0.424
 5209SOL     OW16525   5.421   5.742   2.693
 5209SOL    HW116526   5.475   5.812   2.741
 5209SOL    HW216527   5.440   5.746   2.595
 5210SOL     OW16528   4.703   4.213   3.240
 5210SOL    HW116529   4.680   4.245   3.332
 5210SOL    HW216530   4.742   4.121   3.246
 5211SOL     OW16531   3.724   3.794   2.455
 5211SOL    HW116532   3.720   3.798   2.555
 5211SOL    HW216533   3.819   3.789   2.426
 5212SOL     OW16534   0.802   0.988   7.020
 5212SOL    HW116535   0.801   1.014   6.923
 5212SOL    HW216536   0.896   0.989   0.033
 5213SOL     OW16537   4.311   2.335   6.611
 5213SOL    HW116538   4.402   2.373   6.624
 5213SOL    HW216539   4.243   2.407   6.625
 5214SOL     OW16540   5.768   1.742   6.881
 5214SOL    HW116541   5.799   1.750   6.975
 5214SOL    HW216542   5.727   1.652   6.867
 5215SOL     OW16543   5.960   5.212   2.422
 5215SOL    HW116544   5.945   5.250   2.513
 5215SOL    HW216545   6.045   5.248   2.384
 5216SOL     OW16546   4.743   5.586   1.516
 5216SOL    HW116547   4.797   5.627   1.442
 5216SOL    HW216548   4.667   5.533   1.477
 5217SOL     OW16549   2.906   4.874   3.531
 5217SOL    HW116550   2.850   4.801   3.569
 5217SOL    HW216551   2.995   4.875   3.576
 5218SOL     OW16552   1.778   6.687   4.571
 5218SOL    HW116553   1.832   6.604   4.556
 5218SOL    HW216554   1.726   6.677   4.656
 5219SOL     OW16555   2.778   5.742   0.850
 5219SOL    HW116556   2.795   5.837   0.875
 5219SOL    HW216557   2.746   5.737   0.756
 5220SOL     OW16558   0.826   6.963   2.380
 5220SOL    HW116559   0.887   0.008   2.425
 5220SOL    HW216560   0.790   6.899   2.448
 5221SOL     OW16561   5.112   1.987   5.102
 5221SOL    HW116562   5.064   1.924   5.164
 5221SOL    HW216563   5.048   2.022   5.033
 5222SOL     OW16564   0.906   6.641   2.603
 5222SOL    HW116565   0.844   6.717   2.621
 5222SOL    HW216566   1.000   6.676   2.595
 5223SOL     OW16567   5.386   0.069   0.657
 5223SOL    HW116568   5.312   0.068   0.590
 5223SOL    HW216569   5.464   0.017   0.622
 5224SOL     OW16570   5.149   1.405   3.086
 5224SOL    HW116571   5.064   1.417   3.137
 5224SOL    HW216572   5.165   1.486   3.029
 5225SOL     OW16573   6.036   6.144   5.283
 5225SOL    HW116574   6.013   6.184   5.194
 5225SOL    HW216575   6.126   6.177   5.311
 5226SOL     OW16576   2.059   5.993   3.619
 5226SOL    HW116577   2.002   5.911   3.617
 5226SOL    HW216578   2.127   5.986   3.691
 5227SOL     OW16579   5.411   3.887   3.423
 5227SOL    HW116580   5.427   3.833   3.340
 5227SOL    HW216581   5.490   3.946   3.440
 5228SOL     OW16582   5.304   0.406   1.246
 5228SOL    HW116583   5.351   0.444   1.326
 5228SOL    HW216584   5.364   0.340   1.201
 5229SOL     OW16585   1.261   4.273   4.136
 5229SOL    HW116586   1.239   4.371   4.130
 5229SOL    HW216587   1.230   4.237   4.224
 5230SOL     OW16588   1.462   6.075   6.561
 5230SOL    HW116589   1.463   6.175   6.566
 5230SOL    HW216590   1.385   6.044   6.506
 5231SOL     OW16591   3.532   2.907   3.900
 5231SOL    HW116592   3.527   2.825   3.843
 5231SOL    HW216593   3.562   2.985   3.844
 5232SOL     OW16594   5.495   3.143   5.367
 5232SOL    HW116595   5.495   3.109   5.273
 5232SOL    HW216596   5.514   3.241   5.366
 5233SOL     OW16597   0.472   0.754   2.627
 5233SOL    HW116598   0.465   0.675   2.688
 5233SOL    HW216599   0.555   0.805   2.648
 5234SOL     OW16600   4.343   6.057   0.923
 5234SOL    HW116601   4.288   6.129   0.880
 5234SOL    HW216602   4.282   5.983   0.952
 5235SOL     OW16603   0.930   3.573   1.286
 5235SOL    HW116604   0.863   3.633   1.244
 5235SOL    HW216605   1.012   3.567   1.228
 5236SOL     OW16606   5.190   3.190   1.195
 5236SOL    HW116607   5.195   3.134   1.112
 5236SOL    HW216608   5.278   3.189   1.242
 5237SOL     OW16609   2.323   1.797   4.565
 5237SOL    HW116610   2.403   1.746   4.597
 5237SOL    HW216611   2.312   1.783   4.467
 5238SOL     OW16612   1.884   4.099   1.222
 5238SOL    HW116613   1.918   4.193   1.219
 5238SOL    HW216614   1.825   4.086   1.302
 5239SOL     OW16615   3.161   3.346   5.163
 5239SOL    HW116616   3.157   3.425   5.102
 5239SOL    HW216617   3.119   3.267   5.117
 5240SOL     OW16618   2.813   1.867   5.004
 5240SOL    HW116619   2.717   1.885   4.982
 5240SOL    HW216620   2.852   1.944   5.054
 5241SOL     OW16621   2.956   5.589   5.843
 5241SOL    HW116622   2.876   5.531   5.832
 5241SOL    HW216623   2.943   5.650   5.922
 5242SOL     OW16624   4.829   0.846   6.297
 5242SOL    HW116625   4.788   0.825   6.208
 5242SOL    HW216626   4.785   0.927   6.335
 5243SOL     OW16627   0.748   3.775   0.223
 5243SOL    HW116628   0.711   3.819   0.305
 5243SOL    HW216629   0.774   3.681   0.246
 5244SOL     OW16630   5.767   3.894   7.017
 5244SOL    HW116631   5.726   3.978   6.982
 5244SOL    HW216632   5.779   3.829   6.942
 5245SOL     OW16633   4.691   4.100   6.509
 5245SOL    HW116634   4.692   4.135   6.603
 5245SOL    HW216635   4.785   4.084   6.479
 5246SOL     OW16636   0.871   3.524   2.818
 5246SOL    HW116637   0.966   3.521   2.785
 5246SOL    HW216638   0.870   3.528   2.918
 5247SOL     OW16639   0.401   5.045   1.227
 5247SOL    HW116640   0.340   4.979   1.272
 5247SOL    HW216641   0.480   4.998   1.189
 5248SOL     OW16642   4.501   0.562   6.727
 5248SOL    HW116643   4.476   0.658   6.714
 5248SOL    HW216644   4.593   0.556   6.765
 5249SOL     OW16645   1.563   5.547   5.236
 5249SOL    HW116646   1.544   5.641   5.264
 5249SOL    HW216647   1.649   5.517   5.277
 5250SOL     OW16648   0.517   1.293   6.152
 5250SOL    HW116649   0.487   1.241   6.232
 5250SOL    HW216650   0.614   1.275   6.135
 5251SOL     OW16651   0.093   2.697   1.377
 5251SOL    HW116652   0.115   2.656   1.288
 5251SOL    HW216653   7.017   2.723   1.378
 5252SOL     OW16654   3.872   6.064   0.435
 5252SOL    HW116655   3.868   6.109   0.525
 5252SOL    HW216656   3.879   5.965   0.448
 5253SOL     OW16657   5.997   2.735   3.559
 5253SOL    HW116658   6.036   2.784   3.637
 5253SOL    HW216659   6.071   2.700   3.501
 5254SOL     OW16660   4.640   1.234   4.078
 5254SOL    HW116661   4.712   1.304   4.072
 5254SOL    HW216662   4.588   1.233   3.993
 5255SOL     OW16663   3.509   6.479   4.517
 5255SOL    HW116664   3.462   6.431   4.592
 5255SOL    HW216665   3.524   6.574   4.543
 5256SOL     OW16666   5.712   6.751   2.965
 5256SOL    HW116667   5.773   6.830   2.966
 5256SOL    HW216668   5.618   6.782   2.978
 5257SOL     OW16669   3.379   1.440   2.026
 5257SOL    HW116670   3.287   1.448   2.064
 5257SOL    HW216671   3.423   1.530   2.027
 5258SOL     OW16672   5.805   2.331   2.153
 5258SOL    HW116673   5.772   2.258   2.093
 5258SOL    HW216674   5.903   2.320   2.170
 5259SOL     OW16675   4.915   4.381   2.430
 5259SOL    HW116676   4.979   4.312   2.399
 5259SOL    HW216677   4.823   4.359   2.396
 5260SOL     OW16678   5.002   3.328   1.341
 5260SOL    HW116679   5.055   3.272   1.277
 5260SOL    HW216680   5.064   3.385   1.394
 5261SOL     OW16681   2.105   2.283   4.443
 5261SOL    HW116682   2.127   2.284   4.541
 5261SOL    HW216683   2.081   2.376   4.414
 5262SOL     OW16684   2.417   0.425   1.819
 5262SOL    HW116685   2.399   0.445   1.723
 5262SOL    HW216686   2.490   0.484   1.853
 5263SOL     OW16687   0.862   6.431   0.588
 5263SOL    HW116688   0.895   6.374   0.663
 5263SOL    HW216689   0.811   6.509   0.626
 5264SOL     OW16690   0.738   2.324   0.583
 5264SOL    HW116691   0.820   2.268   0.598
 5264SOL    HW216692   0.685   2.329   0.668
 5265SOL     OW16693   5.220   4.784   2.291
 5265SOL    HW116694   5.220   4.720   2.215
 5265SOL    HW216695   5.261   4.871   2.262
 5266SOL     OW16696   1.766   6.854   1.017
 5266SOL    HW116697   1.817   6.867   1.102
 5266SOL    HW216698   1.668   6.853   1.037
 5267SOL     OW16699   5.014   4.363   4.773
 5267SOL    HW116700   4.950   4.372   4.696
 5267SOL    HW216701   4.971   4.309   4.845
 5268SOL     OW16702   6.031   4.704   5.330
 5268SOL    HW116703   6.036   4.724   5.428
 5268SOL    HW216704   6.079   4.776   5.279
 5269SOL     OW16705   1.053   5.548   4.360
 5269SOL    HW116706   0.990   5.626   4.359
 5269SOL    HW216707   1.065   5.516   4.454
 5270SOL     OW16708   6.771   3.080   3.017
 5270SOL    HW116709   6.747   2.983   3.020
 5270SOL    HW216710   6.689   3.136   3.023
 5271SOL     OW16711   4.994   4.624   4.910
 5271SOL    HW116712   5.033   4.572   4.834
 5271SOL    HW216713   4.987   4.720   4.885
 5272SOL     OW16714   1.515   1.181   3.906
 5272SOL    HW116715   1.509   1.270   3.860
 5272SOL    HW216716   1.426   1.159   3.946
 5273SOL     OW16717   0.593   0.664   4.782
 5273SOL    HW116718   0.579   0.752   4.827
 5273SOL    HW216719   0.689   0.656   4.753
 5274SOL     OW16720   6.390   5.374   4.256
 5274SOL    HW116721   6.378   5.413   4.165
 5274SOL    HW216722   6.306   5.330   4.285
 5275SOL     OW16723   2.582   6.787   6.776
 5275SOL    HW116724   2.502   6.845   6.790
 5275SOL    HW216725   2.555   6.691   6.779
 5276SOL     OW16726   0.072   0.458   1.151
 5276SOL    HW116727   0.018   0.375   1.139
 5276SOL    HW216728   0.159   0.435   1.196
 5277SOL     OW16729   0.762   1.728   2.542
 5277SOL    HW116730   0.849   1.724   2.494
 5277SOL    HW216731   0.777   1.749   2.638
 5278SOL     OW16732   0.847   4.268   6.361
 5278SOL    HW116733   0.776   4.240   6.425
 5278SOL    HW216734   0.808   4.333   6.295
 5279SOL     OW16735   2.358   6.008   6.422
 5279SOL    HW116736   2.443   6.029   6.372
 5279SOL    HW216737   2.343   5.909   6.420
 5280SOL     OW16738   4.393   6.721   5.113
 5280SOL    HW116739   4.321   6.651   5.117
 5280SOL    HW216740   4.391   6.765   5.023
 5281SOL     OW16741   2.795   0.069   5.184
 5281SOL    HW116742   2.748   0.118   5.258
 5281SOL    HW216743   2.894   0.069   5.201
 5282SOL     OW16744   1.288   6.868   1.587
 5282SOL    HW116745   1.202   6.878   1.538
 5282SOL    HW216746   1.351   6.940   1.560
 5283SOL     OW16747   0.679   0.702   4.209
 5283SOL    HW116748   0.717   0.613   4.233
 5283SOL    HW216749   0.633   0.741   4.289
 5284SOL     OW16750   4.416   2.775   1.442
 5284SOL    HW116751   4.319   2.751   1.433
 5284SOL    HW216752   4.440   2.778   1.539
 5285SOL     OW16753   1.762   1.941   4.170
 5285SOL    HW116754   1.774   1.882   4.090
 5285SOL    HW216755   1.667   1.970   4.177
 5286SOL     OW16756   6.161   3.114   1.358
 5286SOL    HW116757   6.219   3.099   1.438
 5286SOL    HW216758   6.081   3.053   1.363
 5287SOL     OW16759   2.101   5.096   1.329
 5287SOL    HW116760   2.114   5.070   1.424
 5287SOL    HW216761   2.189   5.115   1.287
 5288SOL     OW16762   4.000   0.496   1.420
 5288SOL    HW116763   3.983   0.591   1.446
 5288SOL    HW216764   3.921   0.460   1.371
 5289SOL     OW16765   2.436   4.724   6.158
 5289SOL    HW116766   2.395   4.639   6.191
 5289SOL    HW216767   2.427   4.795   6.228
 5290SOL     OW16768   1.510   3.216   4.666
 5290SOL    HW116769   1.447   3.268   4.724
 5290SOL    HW216770   1.497   3.118   4.682
 5291SOL     OW16771   2.682   4.638   4.479
 5291SOL    HW116772   2.600   4.685   4.511
 5291SOL    HW216773   2.710   4.676   4.391
 5292SOL     OW16774   0.180   3.985   5.830
 5292SOL    HW116775   0.262   4.035   5.799
 5292SOL    HW216776   0.124   4.045   5.887
 5293SOL     OW16777   2.252   6.282   4.117
 5293SOL    HW116778   2.321   6.224   4.158
 5293SOL    HW216779   2.182   6.225   4.072
 5294SOL     OW16780   4.160   0.175   5.270
 5294SOL    HW116781   4.156   0.186   5.171
 5294SOL    HW216782   4.205   0.088   5.292
 5295SOL     OW16783   2.921   1.720   2.561
 5295SOL    HW116784   2.829   1.700   2.528
 5295SOL    HW216785   2.961   1.794   2.506
 5296SOL     OW16786   4.666   4.947   1.782
 5296SOL    HW116787   4.700   5.027   1.732
 5296SOL    HW216788   4.744   4.897   1.820
 5297SOL     OW16789   2.862   5.131   0.367
 5297SOL    HW116790   2.816   5.042   0.371
 5297SOL    HW216791   2.875   5.167   0.459
 5298SOL     OW16792   1.911   0.645   0.028
 5298SOL    HW116793   1.845   0.614   6.980
 5298SOL    HW216794   1.898   0.592   0.112
 5299SOL     OW16795   2.957   1.327   1.543
 5299SOL    HW116796   3.055   1.312   1.531
 5299SOL    HW216797   2.933   1.418   1.507
 5300SOL     OW16798   2.173   4.701   6.893
 5300SOL    HW116799   2.098   4.667   6.837
 5300SOL    HW216800   2.254   4.645   6.878
 5301SOL     OW16801   5.268   0.222   6.098
 5301SOL    HW116802   5.247   0.228   6.000
 5301SOL    HW216803   5.213   0.150   6.139
 5302SOL     OW16804   5.632   6.247   3.244
 5302SOL    HW116805   5.629   6.241   3.344
 5302SOL    HW216806   5.610   6.158   3.204
 5303SOL     OW16807   0.694   5.217   5.742
 5303SOL    HW116808   0.642   5.171   5.814
 5303SOL    HW216809   0.733   5.302   5.778
 5304SOL     OW16810   6.960   0.895   2.184
 5304SOL    HW116811   0.033   0.884   2.149
 5304SOL    HW216812   6.943   0.828   2.256
 5305SOL     OW16813   1.125   5.080   3.269
 5305SOL    HW116814   1.112   5.077   3.170
 5305SOL    HW216815   1.142   5.174   3.298
 5306SOL     OW16816   0.297   3.332   6.169
 5306SOL    HW116817   0.298   3.365   6.074
 5306SOL    HW216818   0.214   3.362   6.214
 5307SOL     OW16819   6.345   1.601   1.692
 5307SOL    HW116820   6.260   1.588   1.744
 5307SOL    HW216821   6.400   1.517   1.696
 5308SOL     OW16822   1.606   3.989   3.059
 5308SOL    HW116823   1.546   3.935   3.119
 5308SOL    HW216824   1.600   4.085   3.086
 5309SOL     OW16825   6.123   6.093   2.590
 5309SOL    HW116826   6.197   6.032   2.562
 5309SOL    HW216827   6.042   6.076   2.535
 5310SOL     OW16828   5.413   2.677   2.503
 5310SOL    HW116829   5.498   2.624   2.511
 5310SOL    HW216830   5.337   2.615   2.481
 5311SOL     OW16831   5.860   0.166   0.391
 5311SOL    HW116832   5.957   0.150   0.409
 5311SOL    HW216833   5.842   0.264   0.391
 5312SOL     OW16834   0.081   6.538   0.590
 5312SOL    HW116835   0.053   6.623   0.633
 5312SOL    HW216836   0.002   6.494   0.548
 5313SOL     OW16837   0.621   5.558   5.319
 5313SOL    HW116838   0.697   5.616   5.288
 5313SOL    HW216839   0.640   5.528   5.413
 5314SOL     OW16840   6.156   0.704   2.116
 5314SOL    HW116841   6.243   0.684   2.162
 5314SOL    HW216842   6.171   0.714   2.018
 5315SOL     OW16843   4.305   1.002   4.536
 5315SOL    HW116844   4.399   0.969   4.532
 5315SOL    HW216845   4.263   0.992   4.446
 5316SOL     OW16846   0.686   1.995   4.590
 5316SOL    HW116847   0.604   1.948   4.624
 5316SOL    HW216848   0.715   2.063   4.657
 5317SOL     OW16849   6.414   2.157   6.610
 5317SOL    HW116850   6.468   2.235   6.577
 5317SOL    HW216851   6.329   2.191   6.652
 5318SOL     OW16852   6.839   3.895   6.601
 5318SOL    HW116853   6.784   3.889   6.685
 5318SOL    HW216854   6.860   3.803   6.568
 5319SOL     OW16855   4.604   6.836   1.128
 5319SOL    HW116856   4.550   6.783   1.062
 5319SOL    HW216857   4.561   6.830   1.218
 5320SOL     OW16858   2.965   5.822   1.097
 5320SOL    HW116859   2.922   5.870   1.021
 5320SOL    HW216860   3.024   5.749   1.062
 5321SOL     OW16861   1.689   4.378   4.748
 5321SOL    HW116862   1.663   4.372   4.652
 5321SOL    HW216863   1.773   4.327   4.764
 5322SOL     OW16864   5.685   6.604   2.169
 5322SOL    HW116865   5.596   6.646   2.149
 5322SOL    HW216866   5.749   6.674   2.199
 5323SOL     OW16867   3.993   1.078   5.697
 5323SOL    HW116868   3.981   1.011   5.771
 5323SOL    HW216869   4.003   1.029   5.610
 5324SOL     OW16870   2.144   1.452   0.357
 5324SOL    HW116871   2.201   1.520   0.403
 5324SOL    HW216872   2.171   1.360   0.387
 5325SOL     OW16873   2.180   1.821   4.820
 5325SOL    HW116874   2.219   1.894   4.875
 5325SOL    HW216875   2.214   1.828   4.726
 5326SOL     OW16876   6.219   6.626   2.548
 5326SOL    HW116877   6.224   6.626   2.448
 5326SOL    HW216878   6.223   6.532   2.582
 5327SOL     OW16879   6.170   2.449   5.021
 5327SOL    HW116880   6.191   2.372   5.082
 5327SOL    HW216881   6.083   2.489   5.047
 5328SOL     OW16882   4.071   4.505   0.125
 5328SOL    HW116883   4.134   4.468   0.193
 5328SOL    HW216884   4.003   4.563   0.170
 5329SOL     OW16885   1.452   6.582   6.447
 5329SOL    HW116886   1.516   6.514   6.481
 5329SOL    HW216887   1.460   6.589   6.347
 5330SOL     OW16888   2.349   3.833   0.526
 5330SOL    HW116889   2.367   3.803   0.432
 5330SOL    HW216890   2.251   3.827   0.545
 5331SOL     OW16891   6.193   0.694   6.448
 5331SOL    HW116892   6.176   0.700   6.349
 5331SOL    HW216893   6.218   0.784   6.483
 5332SOL     OW16894   1.146   5.266   2.284
 5332SOL    HW116895   1.240   5.236   2.272
 5332SOL    HW216896   1.103   5.279   2.194
 5333SOL     OW16897   0.721   5.962   4.223
 5333SOL    HW116898   0.785   6.025   4.179
 5333SOL    HW216899   0.752   5.868   4.206
 5334SOL     OW16900   3.087   0.193   4.260
 5334SOL    HW116901   3.069   0.127   4.334
 5334SOL    HW216902   3.010   0.256   4.253
 5335SOL     OW16903   6.669   5.910   0.609
 5335SOL    HW116904   6.762   5.944   0.622
 5335SOL    HW216905   6.631   5.884   0.698
 5336SOL     OW16906   1.384   3.934   2.061
 5336SOL    HW116907   1.399   3.859   1.996
 5336SOL    HW216908   1.472   3.964   2.097
 5337SOL     OW16909   4.720   4.592   1.397
 5337SOL    HW116910   4.623   4.617   1.401
 5337SOL    HW216911   4.769   4.637   1.472
 5338SOL     OW16912   6.591   2.233   6.070
 5338SOL    HW116913   6.586   2.287   6.154
 5338SOL    HW216914   6.519   2.263   6.007
 5339SOL     OW16915   6.539   1.653   3.431
 5339SOL    HW116916   6.478   1.656   3.352
 5339SOL    HW216917   6.497   1.700   3.508
 5340SOL     OW16918   5.227   2.353   6.318
 5340SOL    HW116919   5.158   2.425   6.313
 5340SOL    HW216920   5.295   2.377   6.387
 5341SOL     OW16921   4.312   0.339   0.313
 5341SOL    HW116922   4.264   0.271   0.258
 5341SOL    HW216923   4.316   0.426   0.264
 5342SOL     OW16924   3.515   0.778   5.606
 5342SOL    HW116925   3.510   0.773   5.507
 5342SOL    HW216926   3.545   0.690   5.643
 5343SOL     OW16927   4.000   3.829   2.403
 5343SOL    HW116928   4.050   3.788   2.479
 5343SOL    HW216929   4.059   3.834   2.322
 5344SOL     OW16930   2.458   2.201   3.140
 5344SOL    HW116931   2.361   2.220   3.152
 5344SOL    HW216932   2.501   2.275   3.089
 5345SOL     OW16933   4.537   6.956   1.784
 5345SOL    HW116934   4.576   0.027   1.786
 5345SOL    HW216935   4.531   6.925   1.689
 5346SOL     OW16936   2.642   6.506   2.704
 5346SOL    HW116937   2.628   6.428   2.642
 5346SOL    HW216938   2.737   6.535   2.701
 5347SOL     OW16939   0.473   2.083   1.237
 5347SOL    HW116940   0.481   1.983   1.229
 5347SOL    HW216941   0.550   2.126   1.191
 5348SOL     OW16942   0.609   0.994   6.720
 5348SOL    HW116943   0.563   0.919   6.672
 5348SOL    HW216944   0.541   1.062   6.747
 5349SOL     OW16945   6.305   0.867   1.482
 5349SOL    HW116946   6.232   0.802   1.461
 5349SOL    HW216947   6.274   0.959   1.459
 5350SOL     OW16948   2.494   1.513   6.169
 5350SOL    HW116949   2.501   1.472   6.260
 5350SOL    HW216950   2.491   1.612   6.177
 5351SOL     OW16951   4.311   6.891   1.934
 5351SOL    HW116952   4.273   6.983   1.942
 5351SOL    HW216953   4.398   6.895   1.886
 5352SOL     OW16954   3.203   5.353   3.726
 5352SOL    HW116955   3.151   5.438   3.721
 5352SOL    HW216956   3.301   5.373   3.733
 5353SOL     OW16957   5.883   5.932   5.302
 5353SOL    HW116958   5.933   5.861   5.353
 5353SOL    HW216959   5.944   6.009   5.285
 5354SOL     OW16960   0.838   4.105   1.445
 5354SOL    HW116961   0.878   4.162   1.374
 5354SOL    HW216962   0.790   4.162   1.511
 5355SOL     OW16963   4.946   2.070   4.906
 5355SOL    HW116964   4.901   2.007   4.842
 5355SOL    HW216965   4.877   2.119   4.958
 5356SOL     OW16966   6.388   3.762   1.171
 5356SOL    HW116967   6.473   3.811   1.188
 5356SOL    HW216968   6.406   3.665   1.155
 5357SOL     OW16969   3.693   6.907   0.071
 5357SOL    HW116970   3.597   6.931   0.081
 5357SOL    HW216971   3.750   6.988   0.089
 5358SOL     OW16972   4.658   2.936   0.497
 5358SOL    HW116973   4.701   2.863   0.444
 5358SOL    HW216974   4.709   2.950   0.582
 5359SOL     OW16975   2.067   0.933   6.641
 5359SOL    HW116976   2.064   0.979   6.730
 5359SOL    HW216977   2.085   0.836   6.654
 5360SOL     OW16978   3.799   7.008   6.720
 5360SOL    HW116979   3.857   7.011   6.639
 5360SOL    HW216980   3.839   6.947   6.789
 5361SOL     OW16981   2.215   0.798   5.917
 5361SOL    HW116982   2.164   0.744   5.984
 5361SOL    HW216983   2.173   0.785   5.827
 5362SOL     OW16984   4.944   5.359   2.635
 5362SOL    HW116985   4.941   5.437   2.573
 5362SOL    HW216986   4.858   5.307   2.629
 5363SOL     OW16987   0.856   5.421   5.904
 5363SOL    HW116988   0.761   5.452   5.910
 5363SOL    HW216989   0.889   5.398   5.995
 5364SOL     OW16990   0.941   6.405   0.863
 5364SOL    HW116991   1.030   6.430   0.902
 5364SOL    HW216992   0.868   6.449   0.916
 5365SOL     OW16993   4.341   2.011   5.981
 5365SOL    HW116994   4.435   2.036   6.005
 5365SOL    HW216995   4.333   2.004   5.881
 5366SOL     OW16996   3.839   3.265   0.191
 5366SOL    HW116997   3.808   3.210   0.113
 5366SOL    HW216998   3.791   3.352   0.192
 5367SOL     OW16999   0.055   5.058   0.939
 5367SOL    HW117000   0.051   5.140   0.996
 5367SOL    HW217001   0.137   5.063   0.881
 5368SOL     OW17002   6.322   1.838   3.878
 5368SOL    HW117003   6.384   1.904   3.919
 5368SOL    HW217004   6.242   1.826   3.938
 5369SOL     OW17005   1.871   4.059   3.121
 5369SOL    HW117006   1.784   4.028   3.084
 5369SOL    HW217007   1.938   4.067   3.046
 5370SOL     OW17008   3.811   2.987   1.123
 5370SOL    HW117009   3.877   2.926   1.167
 5370SOL    HW217010   3.723   2.940   1.115
 5371SOL     OW17011   0.788   4.148   5.013
 5371SOL    HW117012   0.726   4.217   4.975
 5371SOL    HW217013   0.873   4.147   4.961
 5372SOL     OW17014   2.829   5.409   2.525
 5372SOL    HW117015   2.776   5.491   2.551
 5372SOL    HW217016   2.916   5.437   2.486
 5373SOL     OW17017   2.889   4.745   3.266
 5373SOL    HW117018   2.867   4.648   3.277
 5373SOL    HW217019   2.902   4.786   3.356
 5374SOL     OW17020   2.955   2.335   0.441
 5374SOL    HW117021   2.949   2.253   0.385
 5374SOL    HW217022   3.012   2.317   0.521
 5375SOL     OW17023   1.580   4.675   3.903
 5375SOL    HW117024   1.627   4.743   3.846
 5375SOL    HW217025   1.536   4.722   3.980
 5376SOL     OW17026   1.652   3.271   1.057
 5376SOL    HW117027   1.746   3.240   1.052
 5376SOL    HW217028   1.642   3.338   1.130
 5377SOL     OW17029   0.266   1.081   0.749
 5377SOL    HW117030   0.313   1.003   0.708
 5377SOL    HW217031   0.320   1.116   0.826
 5378SOL     OW17032   5.272   0.388   0.539
 5378SOL    HW117033   5.368   0.413   0.522
 5378SOL    HW217034   5.238   0.333   0.463
 5379SOL     OW17035   0.215   6.175   2.087
 5379SOL    HW117036   0.225   6.077   2.105
 5379SOL    HW217037   0.249   6.227   2.165
 5380SOL     OW17038   2.990   0.393   4.062
 5380SOL    HW117039   3.027   0.485   4.063
 5380SOL    HW217040   3.056   0.330   4.022
 5381SOL     OW17041   5.505   4.188   1.306
 5381SOL    HW117042   5.448   4.107   1.292
 5381SOL    HW217043   5.521   4.233   1.218
 5382SOL     OW17044   1.727   0.274   1.355
 5382SOL    HW117045   1.752   0.183   1.322
 5382SOL    HW217046   1.639   0.301   1.317
 5383SOL     OW17047   2.307   1.989   4.996
 5383SOL    HW117048   2.362   2.070   4.975
 5383SOL    HW217049   2.282   1.990   5.093
 5384SOL     OW17050   5.838   6.457   3.928
 5384SOL    HW117051   5.773   6.427   3.858
 5384SOL    HW217052   5.849   6.386   3.997
 5385SOL     OW17053   3.529   4.006   2.464
 5385SOL    HW117054   3.572   3.920   2.435
 5385SOL    HW217055   3.478   3.991   2.549
 5386SOL     OW17056   5.471   6.303   4.743
 5386SOL    HW117057   5.432   6.260   4.662
 5386SOL    HW217058   5.566   6.328   4.725
 5387SOL     OW17059   3.021   5.585   1.770
 5387SOL    HW117060   2.958   5.623   1.838
 5387SOL    HW217061   3.039   5.489   1.791
 5388SOL     OW17062   5.722   0.387   2.593
 5388SOL    HW117063   5.769   0.406   2.507
 5388SOL    HW217064   5.709   0.289   2.603
 5389SOL     OW17065   4.775   2.302   0.962
 5389SOL    HW117066   4.795   2.400   0.965
 5389SOL    HW217067   4.820   2.257   1.039
 5390SOL     OW17068   6.231   4.721   6.073
 5390SOL    HW117069   6.317   4.682   6.107
 5390SOL    HW217070   6.155   4.663   6.102
 5391SOL     OW17071   2.327   2.862   6.874
 5391SOL    HW117072   2.386   2.816   6.939
 5391SOL    HW217073   2.368   2.858   6.783
 5392SOL     OW17074   6.597   2.927   2.337
 5392SOL    HW117075   6.583   2.840   2.385
 5392SOL    HW217076   6.690   2.929   2.299
 5393SOL     OW17077   6.671   0.201   6.744
 5393SOL    HW117078   6.640   0.130   6.680
 5393SOL    HW217079   6.722   0.270   6.694
 5394SOL     OW17080   0.870   3.922   5.735
 5394SOL    HW117081   0.794   3.977   5.769
 5394SOL    HW217082   0.950   3.936   5.794
 5395SOL     OW17083   3.944   1.744   0.178
 5395SOL    HW117084   4.015   1.796   0.225
 5395SOL    HW217085   3.928   1.658   0.227
 5396SOL     OW17086   4.988   3.422   2.281
 5396SOL    HW117087   4.930   3.346   2.251
 5396SOL    HW217088   5.026   3.401   2.371
 5397SOL     OW17089   0.453   3.583   1.485
 5397SOL    HW117090   0.461   3.553   1.581
 5397SOL    HW217091   0.543   3.609   1.451
 5398SOL     OW17092   3.045   2.480   1.608
 5398SOL    HW117093   3.085   2.395   1.574
 5398SOL    HW217094   3.047   2.479   1.708
 5399SOL     OW17095   1.510   5.876   1.266
 5399SOL    HW117096   1.551   5.864   1.357
 5399SOL    HW217097   1.515   5.972   1.240
 5400SOL     OW17098   2.815   4.477   0.620
 5400SOL    HW117099   2.897   4.445   0.573
 5400SOL    HW217100   2.816   4.445   0.715
 5401SOL     OW17101   6.365   3.046   1.552
 5401SOL    HW117102   6.438   3.060   1.485
 5401SOL    HW217103   6.379   3.106   1.631
 5402SOL     OW17104   1.176   6.340   1.902
 5402SOL    HW117105   1.094   6.395   1.914
 5402SOL    HW217106   1.257   6.398   1.914
 5403SOL     OW17107   0.391   2.640   6.346
 5403SOL    HW117108   0.358   2.549   6.373
 5403SOL    HW217109   0.313   2.699   6.329
 5404SOL     OW17110   1.962   2.745   3.278
 5404SOL    HW117111   2.033   2.697   3.329
 5404SOL    HW217112   1.997   2.774   3.189
 5405SOL     OW17113   6.687   5.077   6.165
 5405SOL    HW117114   6.738   5.006   6.214
 5405SOL    HW217115   6.635   5.131   6.231
 5406SOL     OW17116   2.176   0.454   5.613
 5406SOL    HW117117   2.108   0.509   5.565
 5406SOL    HW217118   2.267   0.491   5.597
 5407SOL     OW17119   4.086   3.317   6.555
 5407SOL    HW117120   4.117   3.295   6.463
 5407SOL    HW217121   3.988   3.340   6.553
 5408SOL     OW17122   2.914   0.753   6.623
 5408SOL    HW117123   2.862   0.751   6.537
 5408SOL    HW217124   2.907   0.844   6.664
 5409SOL     OW17125   3.779   0.638   2.478
 5409SOL    HW117126   3.713   0.684   2.419
 5409SOL    HW217127   3.859   0.696   2.490
 5410SOL     OW17128   2.529   2.322   2.321
 5410SOL    HW117129   2.625   2.331   2.348
 5410SOL    HW217130   2.519   2.352   2.226
 5411SOL     OW17131   0.416   5.524   5.147
 5411SOL    HW117132   0.475   5.519   5.228
 5411SOL    HW217133   0.459   5.474   5.072
 5412SOL     OW17134   6.517   2.868   0.963
 5412SOL    HW117135   6.582   2.792   0.959
 5412SOL    HW217136   6.565   2.955   0.951
 5413SOL     OW17137   2.090   1.000   1.484
 5413SOL    HW117138   1.992   0.998   1.466
 5413SOL    HW217139   2.135   0.928   1.430
 5414SOL     OW17140   3.902   1.139   5.147
 5414SOL    HW117141   3.836   1.208   5.175
 5414SOL    HW217142   3.858   1.049   5.142
 5415SOL     OW17143   6.220   4.915   1.936
 5415SOL    HW117144   6.245   4.906   1.840
 5415SOL    HW217145   6.282   4.979   1.981
 5416SOL     OW17146   4.570   5.705   4.814
 5416SOL    HW117147   4.629   5.742   4.886
 5416SOL    HW217148   4.480   5.683   4.851
 5417SOL     OW17149   3.474   6.740   4.579
 5417SOL    HW117150   3.488   6.834   4.611
 5417SOL    HW217151   3.376   6.723   4.571
 5418SOL     OW17152   3.666   0.435   3.111
 5418SOL    HW117153   3.745   0.492   3.136
 5418SOL    HW217154   3.623   0.473   3.029
 5419SOL     OW17155   3.356   4.240   6.795
 5419SOL    HW117156   3.357   4.140   6.792
 5419SOL    HW217157   3.275   4.274   6.748
 5420SOL     OW17158   1.225   1.566   2.336
 5420SOL    HW117159   1.187   1.644   2.386
 5420SOL    HW217160   1.293   1.599   2.271
 5421SOL     OW17161   1.775   3.512   1.874
 5421SOL    HW117162   1.786   3.416   1.849
 5421SOL    HW217163   1.848   3.539   1.936
 5422SOL     OW17164   2.287   3.234   1.386
 5422SOL    HW117165   2.323   3.321   1.353
 5422SOL    HW217166   2.333   3.159   1.338
 5423SOL     OW17167   5.869   3.390   0.021
 5423SOL    HW117168   5.885   3.374   0.118
 5423SOL    HW217169   5.774   3.417   0.007
 5424SOL     OW17170   5.190   4.066   4.715
 5424SOL    HW117171   5.181   4.154   4.667
 5424SOL    HW217172   5.100   4.039   4.751
 5425SOL     OW17173   4.989   0.645   5.275
 5425SOL    HW117174   4.941   0.662   5.361
 5425SOL    HW217175   4.935   0.582   5.219
 5426SOL     OW17176   6.128   0.193   5.231
 5426SOL    HW117177   6.074   0.215   5.150
 5426SOL    HW217178   6.071   0.145   5.297
 5427SOL     OW17179   3.934   5.656   6.601
 5427SOL    HW117180   3.993   5.697   6.671
 5427SOL    HW217181   3.924   5.720   6.525
 5428SOL     OW17182   1.492   0.471   6.815
 5428SOL    HW117183   1.425   0.463   6.741
 5428SOL    HW217184   1.455   0.529   6.888
 5429SOL     OW17185   0.909   2.510   6.494
 5429SOL    HW117186   0.902   2.417   6.457
 5429SOL    HW217187   0.895   2.508   6.593
 5430SOL     OW17188   2.242   2.868   5.748
 5430SOL    HW117189   2.235   2.773   5.780
 5430SOL    HW217190   2.237   2.930   5.826
 5431SOL     OW17191   3.846   6.003   4.720
 5431SOL    HW117192   3.845   6.061   4.801
 5431SOL    HW217193   3.830   6.059   4.639
 5432SOL     OW17194   5.158   6.639   1.350
 5432SOL    HW117195   5.123   6.726   1.382
 5432SOL    HW217196   5.257   6.646   1.335
 5433SOL     OW17197   0.527   1.938   4.983
 5433SOL    HW117198   0.627   1.946   4.980
 5433SOL    HW217199   0.502   1.842   4.984
 5434SOL     OW17200   2.761   0.381   5.744
 5434SOL    HW117201   2.697   0.438   5.795
 5434SOL    HW217202   2.754   0.401   5.646
 5435SOL     OW17203   4.527   0.499   1.792
 5435SOL    HW117204   4.475   0.479   1.874
 5435SOL    HW217205   4.625   0.502   1.813
 5436SOL     OW17206   4.849   3.977   2.883
 5436SOL    HW117207   4.853   3.998   2.785
 5436SOL    HW217208   4.789   4.043   2.929
 5437SOL     OW17209   3.055   3.320   0.088
 5437SOL    HW117210   3.080   3.333   7.013
 5437SOL    HW217211   3.062   3.223   0.111
 5438SOL     OW17212   6.502   2.310   0.776
 5438SOL    HW117213   6.600   2.303   0.759
 5438SOL    HW217214   6.453   2.309   0.688
 5439SOL     OW17215   1.133   2.146   1.432
 5439SOL    HW117216   1.153   2.238   1.467
 5439SOL    HW217217   1.185   2.079   1.486
 5440SOL     OW17218   1.001   1.814   0.915
 5440SOL    HW117219   1.093   1.823   0.953
 5440SOL    HW217220   0.933   1.831   0.986
 5441SOL     OW17221   3.834   2.060   3.222
 5441SOL    HW117222   3.859   2.115   3.301
 5441SOL    HW217223   3.805   1.969   3.252
 5442SOL     OW17224   4.092   0.367   2.460
 5442SOL    HW117225   4.017   0.313   2.498
 5442SOL    HW217226   4.153   0.396   2.534
 5443SOL     OW17227   3.366   6.820   5.252
 5443SOL    HW117228   3.293   6.794   5.189
 5443SOL    HW217229   3.330   6.886   5.318
 5444SOL     OW17230   6.926   6.982   3.224
 5444SOL    HW117231   6.864   6.963   3.149
 5444SOL    HW217232   6.877   6.976   3.311
 5445SOL     OW17233   5.933   3.734   2.139
 5445SOL    HW117234   5.922   3.634   2.143
 5445SOL    HW217235   5.962   3.768   2.228
 5446SOL     OW17236   6.283   5.435   5.870
 5446SOL    HW117237   6.275   5.457   5.773
 5446SOL    HW217238   6.208   5.373   5.896
 5447SOL     OW17239   3.832   2.351   0.092
 5447SOL    HW117240   3.894   2.421   0.127
 5447SOL    HW217241   3.778   2.313   0.167
 5448SOL     OW17242   5.551   2.644   5.370
 5448SOL    HW117243   5.495   2.656   5.288
 5448SOL    HW217244   5.541   2.550   5.403
 5449SOL     OW17245   0.929   3.377   6.505
 5449SOL    HW117246   1.003   3.311   6.513
 5449SOL    HW217247   0.888   3.392   6.595
 5450SOL     OW17248   1.971   0.123   0.994
 5450SOL    HW117249   1.975   0.199   1.059
 5450SOL    HW217250   1.876   0.097   0.979
 5451SOL     OW17251   0.883   6.792   2.951
 5451SOL    HW117252   0.956   6.723   2.949
 5451SOL    HW217253   0.921   6.880   2.981
 5452SOL     OW17254   2.541   4.002   6.558
 5452SOL    HW117255   2.525   4.024   6.461
 5452SOL    HW217256   2.453   3.982   6.602
 5453SOL     OW17257   5.926   5.272   6.836
 5453SOL    HW117258   5.999   5.324   6.792
 5453SOL    HW217259   5.917   5.300   6.932
 5454SOL     OW17260   0.002   4.432   6.808
 5454SOL    HW117261   0.012   4.402   6.903
 5454SOL    HW217262   6.973   4.363   6.756
 5455SOL     OW17263   6.497   3.510   1.154
 5455SOL    HW117264   6.521   3.417   1.181
 5455SOL    HW217265   6.580   3.558   1.124
 5456SOL     OW17266   3.256   6.911   0.346
 5456SOL    HW117267   3.319   6.845   0.306
 5456SOL    HW217268   3.241   6.888   0.442
 5457SOL     OW17269   6.372   3.290   0.891
 5457SOL    HW117270   6.285   3.241   0.894
 5457SOL    HW217271   6.363   3.376   0.940
 5458SOL     OW17272   2.038   4.245   6.780
 5458SOL    HW117273   2.075   4.208   6.695
 5458SOL    HW217274   2.005   4.170   6.838
 5459SOL     OW17275   1.549   4.398   6.460
 5459SOL    HW117276   1.584   4.320   6.407
 5459SOL    HW217277   1.478   4.444   6.408
 5460SOL     OW17278   2.822   0.433   1.454
 5460SOL    HW117279   2.857   0.426   1.361
 5460SOL    HW217280   2.737   0.381   1.463
 5461SOL     OW17281   4.675   7.006   5.141
 5461SOL    HW117282   4.743   0.027   5.080
 5461SOL    HW217283   4.637   6.925   5.097
 5462SOL     OW17284   0.854   0.562   0.638
 5462SOL    HW117285   0.802   0.486   0.597
 5462SOL    HW217286   0.952   0.545   0.625
 5463SOL     OW17287   6.742   2.880   0.677
 5463SOL    HW117288   6.815   2.914   0.735
 5463SOL    HW217289   6.753   2.916   0.584
 5464SOL     OW17290   2.057   6.983   4.412
 5464SOL    HW117291   2.054   0.053   4.453
 5464SOL    HW217292   2.123   6.981   4.338
 5465SOL     OW17293   2.652   0.199   5.375
 5465SOL    HW117294   2.666   0.128   5.444
 5465SOL    HW217295   2.554   0.207   5.357
 5466SOL     OW17296   4.597   4.643   4.620
 5466SOL    HW117297   4.520   4.651   4.682
 5466SOL    HW217298   4.566   4.608   4.532
 5467SOL     OW17299   5.383   1.450   2.240
 5467SOL    HW117300   5.473   1.467   2.199
 5467SOL    HW217301   5.392   1.379   2.310
 5468SOL     OW17302   4.175   1.754   5.073
 5468SOL    HW117303   4.165   1.707   4.985
 5468SOL    HW217304   4.109   1.716   5.139
 5469SOL     OW17305   4.224   4.362   6.492
 5469SOL    HW117306   4.283   4.325   6.420
 5469SOL    HW217307   4.134   4.321   6.486
 5470SOL     OW17308   1.667   5.117   3.794
 5470SOL    HW117309   1.665   5.166   3.707
 5470SOL    HW217310   1.726   5.165   3.859
 5471SOL     OW17311   6.587   5.557   1.834
 5471SOL    HW117312   6.589   5.513   1.924
 5471SOL    HW217313   6.677   5.599   1.816
 5472SOL     OW17314   3.945   5.010   5.738
 5472SOL    HW117315   3.883   4.964   5.675
 5472SOL    HW217316   3.979   4.944   5.806
 5473SOL     OW17317   1.170   3.685   3.513
 5473SOL    HW117318   1.259   3.657   3.477
 5473SOL    HW217319   1.183   3.741   3.595
 5474SOL     OW17320   1.337   5.477   3.714
 5474SOL    HW117321   1.291   5.511   3.796
 5474SOL    HW217322   1.435   5.498   3.719
 5475SOL     OW17323   2.829   2.188   1.163
 5475SOL    HW117324   2.888   2.261   1.199
 5475SOL    HW217325   2.862   2.160   1.073
 5476SOL     OW17326   1.228   3.020   5.808
 5476SOL    HW117327   1.201   3.011   5.904
 5476SOL    HW217328   1.204   3.112   5.776
 5477SOL     OW17329   2.183   3.012   3.012
 5477SOL    HW117330   2.147   3.089   2.961
 5477SOL    HW217331   2.192   3.037   3.108
 5478SOL     OW17332   6.229   6.095   5.555
 5478SOL    HW117333   6.265   6.110   5.647
 5478SOL    HW217334   6.269   6.012   5.516
 5479SOL     OW17335   4.721   0.539   5.129
 5479SOL    HW117336   4.697   0.633   5.103
 5479SOL    HW217337   4.677   0.475   5.066
 5480SOL     OW17338   0.348   3.569   4.162
 5480SOL    HW117339   0.370   3.622   4.244
 5480SOL    HW217340   0.302   3.484   4.188
 5481SOL     OW17341   4.445   6.343   3.858
 5481SOL    HW117342   4.490   6.281   3.794
 5481SOL    HW217343   4.491   6.431   3.857
 5482SOL     OW17344   1.920   4.325   1.535
 5482SOL    HW117345   1.899   4.283   1.623
 5482SOL    HW217346   1.914   4.256   1.463
 5483SOL     OW17347   0.321   2.551   5.665
 5483SOL    HW117348   0.401   2.566   5.722
 5483SOL    HW217349   0.299   2.453   5.663
 5484SOL     OW17350   4.450   0.677   5.241
 5484SOL    HW117351   4.514   0.734   5.292
 5484SOL    HW217352   4.461   0.693   5.143
 5485SOL     OW17353   2.923   0.317   5.033
 5485SOL    HW117354   2.927   0.241   5.099
 5485SOL    HW217355   2.892   0.400   5.080
 5486SOL     OW17356   2.870   6.257   5.166
 5486SOL    HW117357   2.953   6.257   5.222
 5486SOL    HW217358   2.886   6.309   5.082
 5487SOL     OW17359   3.241   5.335   5.697
 5487SOL    HW117360   3.251   5.431   5.724
 5487SOL    HW217361   3.327   5.303   5.656
 5488SOL     OW17362   5.996   2.078   0.697
 5488SOL    HW117363   6.063   2.006   0.714
 5488SOL    HW217364   6.025   2.133   0.619
 5489SOL     OW17365   6.643   4.169   2.935
 5489SOL    HW117366   6.710   4.095   2.922
 5489SOL    HW217367   6.671   4.226   3.013
 5490SOL     OW17368   1.845   6.438   2.981
 5490SOL    HW117369   1.889   6.506   2.922
 5490SOL    HW217370   1.904   6.357   2.986
 5491SOL     OW17371   6.459   4.347   0.509
 5491SOL    HW117372   6.382   4.320   0.566
 5491SOL    HW217373   6.441   4.320   0.414
 5492SOL     OW17374   0.169   2.436   6.004
 5492SOL    HW117375   0.157   2.516   5.946
 5492SOL    HW217376   0.079   2.397   6.025
 5493SOL     OW17377   3.998   3.866   1.352
 5493SOL    HW117378   3.908   3.822   1.356
 5493SOL    HW217379   4.058   3.825   1.421
 5494SOL     OW17380   5.855   3.989   5.203
 5494SOL    HW117381   5.924   3.920   5.179
 5494SOL    HW217382   5.859   4.064   5.137
 5495SOL     OW17383   5.878   6.693   0.483
 5495SOL    HW117384   5.970   6.656   0.497
 5495SOL    HW217385   5.810   6.624   0.509
 5496SOL     OW17386   3.896   0.419   4.227
 5496SOL    HW117387   3.800   0.389   4.226
 5496SOL    HW217388   3.915   0.467   4.313
 5497SOL     OW17389   1.389   0.701   5.860
 5497SOL    HW117390   1.453   0.690   5.936
 5497SOL    HW217391   1.302   0.657   5.883
 5498SOL     OW17392   0.795   5.379   1.370
 5498SOL    HW117393   0.757   5.465   1.403
 5498SOL    HW217394   0.837   5.329   1.445
 5499SOL     OW17395   1.896   0.436   4.735
 5499SOL    HW117396   1.884   0.522   4.786
 5499SOL    HW217397   1.806   0.403   4.705
 5500SOL     OW17398   2.616   0.810   0.978
 5500SOL    HW117399   2.596   0.887   1.038
 5500SOL    HW217400   2.650   0.844   0.890
 5501SOL     OW17401   3.614   3.401   6.676
 5501SOL    HW117402   3.575   3.494   6.679
 5501SOL    HW217403   3.543   3.336   6.652
 5502SOL     OW17404   4.778   2.772   0.135
 5502SOL    HW117405   4.738   2.861   0.155
 5502SOL    HW217406   4.730   2.731   0.057
 5503SOL     OW17407   6.443   3.911   0.843
 5503SOL    HW117408   6.502   3.849   0.791
 5503SOL    HW217409   6.373   3.858   0.891
 5504SOL     OW17410   3.685   1.470   7.017
 5504SOL    HW117411   3.673   1.562   6.978
 5504SOL    HW217412   3.648   1.402   6.954
 5505SOL     OW17413   3.090   5.296   3.102
 5505SOL    HW117414   3.017   5.361   3.126
 5505SOL    HW217415   3.124   5.253   3.185
 5506SOL     OW17416   0.333   3.258   5.709
 5506SOL    HW117417   0.305   3.173   5.754
 5506SOL    HW217418   0.415   3.242   5.655
 5507SOL     OW17419   2.773   6.761   6.960
 5507SOL    HW117420   2.717   6.776   6.878
 5507SOL    HW217421   2.782   6.847   7.010
 5508SOL     OW17422   6.702   1.071   6.448
 5508SOL    HW117423   6.739   1.129   6.521
 5508SOL    HW217424   6.656   0.992   6.489
 5509SOL     OW17425   6.609   5.111   0.962
 5509SOL    HW117426   6.537   5.180   0.958
 5509SOL    HW217427   6.567   5.021   0.979
 5510SOL     OW17428   4.173   4.922   0.202
 5510SOL    HW117429   4.077   4.912   0.229
 5510SOL    HW217430   4.228   4.851   0.246
 5511SOL     OW17431   0.506   2.245   5.402
 5511SOL    HW117432   0.472   2.164   5.354
 5511SOL    HW217433   0.493   2.325   5.344
 5512SOL     OW17434   2.432   0.844   2.064
 5512SOL    HW117435   2.359   0.807   2.122
 5512SOL    HW217436   2.505   0.777   2.055
 5513SOL     OW17437   4.310   4.272   0.544
 5513SOL    HW117438   4.312   4.249   0.641
 5513SOL    HW217439   4.231   4.229   0.501
 5514SOL     OW17440   3.133   1.291   0.546
 5514SOL    HW117441   3.131   1.235   0.628
 5514SOL    HW217442   3.073   1.370   0.558
 5515SOL     OW17443   2.952   5.795   2.318
 5515SOL    HW117444   3.012   5.823   2.243
 5515SOL    HW217445   2.998   5.728   2.375
 5516SOL     OW17446   1.607   2.175   5.549
 5516SOL    HW117447   1.666   2.236   5.602
 5516SOL    HW217448   1.540   2.132   5.609
 5517SOL     OW17449   1.244   2.372   3.335
 5517SOL    HW117450   1.149   2.388   3.306
 5517SOL    HW217451   1.283   2.458   3.368
 5518SOL     OW17452   4.531   4.908   6.888
 5518SOL    HW117453   4.436   4.917   6.919
 5518SOL    HW217454   4.575   4.997   6.889
 5519SOL     OW17455   4.659   2.632   3.975
 5519SOL    HW117456   4.628   2.601   4.065
 5519SOL    HW217457   4.604   2.588   3.904
 5520SOL     OW17458   4.936   0.023   1.592
 5520SOL    HW117459   4.905   6.956   1.630
 5520SOL    HW217460   4.985   0.074   1.663
 5521SOL     OW17461   4.809   6.240   2.101
 5521SOL    HW117462   4.781   6.258   2.007
 5521SOL    HW217463   4.745   6.285   2.164
 5522SOL     OW17464   6.184   6.264   1.139
 5522SOL    HW117465   6.188   6.216   1.052
 5522SOL    HW217466   6.096   6.245   1.184
 5523SOL     OW17467   5.106   1.188   0.967
 5523SOL    HW117468   5.181   1.192   1.033
 5523SOL    HW217469   5.065   1.097   0.968
 5524SOL     OW17470   2.350   1.693   3.743
 5524SOL    HW117471   2.365   1.603   3.701
 5524SOL    HW217472   2.413   1.759   3.702
 5525SOL     OW17473   5.859   1.352   1.867
 5525SOL    HW117474   5.850   1.271   1.924
 5525SOL    HW217475   5.791   1.349   1.794
 5526SOL     OW17476   5.263   5.083   4.046
 5526SOL    HW117477   5.192   5.086   3.976
 5526SOL    HW217478   5.230   5.031   4.125
 5527SOL     OW17479   5.833   1.125   3.767
 5527SOL    HW117480   5.789   1.211   3.796
 5527SOL    HW217481   5.932   1.133   3.779
 5528SOL     OW17482   0.848   1.105   6.729
 5528SOL    HW117483   0.858   1.204   6.736
 5528SOL    HW217484   0.752   1.083   6.708
 5529SOL     OW17485   3.638   0.683   1.945
 5529SOL    HW117486   3.554   0.687   1.999
 5529SOL    HW217487   3.679   0.774   1.941
 5530SOL     OW17488   6.536   2.375   1.084
 5530SOL    HW117489   6.469   2.360   1.158
 5530SOL    HW217490   6.500   2.338   0.999
 5531SOL     OW17491   2.371   3.984   1.209
 5531SOL    HW117492   2.303   4.051   1.178
 5531SOL    HW217493   2.456   3.998   1.159
 5532SOL     OW17494   1.423   2.932   0.146
 5532SOL    HW117495   1.464   3.021   0.165
 5532SOL    HW217496   1.325   2.934   0.169
 5533SOL     OW17497   3.025   1.779   2.260
 5533SOL    HW117498   2.967   1.811   2.335
 5533SOL    HW217499   3.026   1.848   2.187
 5534SOL     OW17500   1.492   0.022   4.909
 5534SOL    HW117501   1.466   6.958   4.955
 5534SOL    HW217502   1.515   0.002   4.813
 5535SOL     OW17503   0.436   1.670   3.196
 5535SOL    HW117504   0.388   1.758   3.193
 5535SOL    HW217505   0.438   1.630   3.105
 5536SOL     OW17506   4.050   6.106   4.382
 5536SOL    HW117507   3.968   6.162   4.386
 5536SOL    HW217508   4.078   6.081   4.475
 5537SOL     OW17509   3.017   1.514   3.167
 5537SOL    HW117510   2.952   1.472   3.230
 5537SOL    HW217511   2.989   1.607   3.145
 5538SOL     OW17512   4.350   5.571   4.962
 5538SOL    HW117513   4.423   5.503   4.969
 5538SOL    HW217514   4.273   5.532   4.911
 5539SOL     OW17515   2.332   4.839   0.600
 5539SOL    HW117516   2.248   4.815   0.650
 5539SOL    HW217517   2.411   4.802   0.649
 5540SOL     OW17518   4.865   5.280   1.832
 5540SOL    HW117519   4.960   5.305   1.850
 5540SOL    HW217520   4.856   5.247   1.739
 5541SOL     OW17521   4.698   1.382   5.495
 5541SOL    HW117522   4.682   1.446   5.420
 5541SOL    HW217523   4.650   1.414   5.577
 5542SOL     OW17524   5.477   4.511   6.827
 5542SOL    HW117525   5.435   4.429   6.788
 5542SOL    HW217526   5.488   4.499   6.925
 5543SOL     OW17527   6.989   2.186   5.795
 5543SOL    HW117528   7.010   2.259   5.730
 5543SOL    HW217529   6.890   2.172   5.797
 5544SOL     OW17530   5.768   1.081   6.930
 5544SOL    HW117531   5.670   1.073   6.909
 5544SOL    HW217532   5.811   0.991   6.921
 5545SOL     OW17533   2.678   2.444   1.842
 5545SOL    HW117534   2.768   2.412   1.872
 5545SOL    HW217535   2.628   2.368   1.801
 5546SOL     OW17536   3.053   4.929   5.510
 5546SOL    HW117537   3.123   4.885   5.565
 5546SOL    HW217538   2.999   4.991   5.567
 5547SOL     OW17539   3.758   5.894   3.895
 5547SOL    HW117540   3.827   5.882   3.967
 5547SOL    HW217541   3.667   5.885   3.935
 5548SOL     OW17542   0.099   2.763   5.229
 5548SOL    HW117543   0.177   2.719   5.273
 5548SOL    HW217544   0.017   2.748   5.285
 5549SOL     OW17545   3.440   4.248   0.591
 5549SOL    HW117546   3.509   4.294   0.646
 5549SOL    HW217547   3.351   4.255   0.636
 5550SOL     OW17548   3.504   6.901   2.237
 5550SOL    HW117549   3.456   6.860   2.314
 5550SOL    HW217550   3.601   6.879   2.242
 5551SOL     OW17551   0.100   1.349   2.805
 5551SOL    HW117552   0.022   1.399   2.766
 5551SOL    HW217553   0.089   1.342   2.904
 5552SOL     OW17554   0.994   2.562   1.477
 5552SOL    HW117555   0.986   2.659   1.501
 5552SOL    HW217556   0.935   2.508   1.537
 5553SOL     OW17557   4.953   6.159   0.082
 5553SOL    HW117558   4.938   6.146   0.180
 5553SOL    HW217559   4.887   6.225   0.047
 5554SOL     OW17560   3.420   1.430   4.207
 5554SOL    HW117561   3.459   1.489   4.278
 5554SOL    HW217562   3.328   1.401   4.235
 5555SOL     OW17563   0.692   6.146   1.840
 5555SOL    HW117564   0.758   6.168   1.768
 5555SOL    HW217565   0.740   6.115   1.921
 5556SOL     OW17566   0.652   1.017   4.510
 5556SOL    HW117567   0.603   0.943   4.464
 5556SOL    HW217568   0.695   0.981   4.593
 5557SOL     OW17569   2.864   1.007   3.128
 5557SOL    HW117570   2.910   1.040   3.211
 5557SOL    HW217571   2.901   1.054   3.048
 5558SOL     OW17572   4.986   2.664   5.088
 5558SOL    HW117573   4.896   2.656   5.131
 5558SOL    HW217574   5.052   2.696   5.156
 5559SOL     OW17575   2.721   0.841   1.311
 5559SOL    HW117576   2.732   0.905   1.235
 5559SOL    HW217577   2.785   0.865   1.384
 5560SOL     OW17578   6.783   1.105   4.347
 5560SOL    HW117579   6.862   1.116   4.408
 5560SOL    HW217580   6.714   1.173   4.368
 5561SOL     OW17581   1.720   3.816   2.764
 5561SOL    HW117582   1.727   3.724   2.804
 5561SOL    HW217583   1.636   3.859   2.796
 5562SOL     OW17584   3.104   2.207   6.415
 5562SOL    HW117585   3.162   2.192   6.335
 5562SOL    HW217586   3.147   2.275   6.475
 5563SOL     OW17587   3.933   4.298   1.694
 5563SOL    HW117588   3.872   4.376   1.701
 5563SOL    HW217589   3.915   4.235   1.769
 5564SOL     OW17590   6.163   3.387   2.068
 5564SOL    HW117591   6.078   3.375   2.017
 5564SOL    HW217592   6.216   3.461   2.027
 5565SOL     OW17593   3.345   3.049   5.712
 5565SOL    HW117594   3.318   3.130   5.661
 5565SOL    HW217595   3.265   3.008   5.756
 5566SOL     OW17596   1.932   4.609   0.609
 5566SOL    HW117597   1.836   4.585   0.601
 5566SOL    HW217598   1.961   4.660   0.528
 5567SOL     OW17599   1.745   5.159   3.050
 5567SOL    HW117600   1.789   5.244   3.080
 5567SOL    HW217601   1.811   5.084   3.056
 5568SOL     OW17602   3.962   2.611   1.132
 5568SOL    HW117603   4.019   2.659   1.199
 5568SOL    HW217604   3.875   2.587   1.174
 5569SOL     OW17605   5.202   2.124   6.679
 5569SOL    HW117606   5.139   2.202   6.681
 5569SOL    HW217607   5.194   2.076   6.592
 5570SOL     OW17608   0.590   3.577   5.066
 5570SOL    HW117609   0.668   3.631   5.033
 5570SOL    HW217610   0.585   3.584   5.166
 5571SOL     OW17611   6.469   4.798   6.847
 5571SOL    HW117612   6.409   4.764   6.774
 5571SOL    HW217613   6.445   4.755   6.933
 5572SOL     OW17614   5.919   2.551   5.062
 5572SOL    HW117615   5.879   2.485   4.998
 5572SOL    HW217616   5.850   2.581   5.127
 5573SOL     OW17617   0.048   4.118   0.145
 5573SOL    HW117618   0.036   4.078   0.054
 5573SOL    HW217619   7.002   4.078   0.209
 5574SOL     OW17620   0.576   6.268   4.364
 5574SOL    HW117621   0.514   6.196   4.397
 5574SOL    HW217622   0.533   6.357   4.379
 5575SOL     OW17623   1.033   1.207   1.386
 5575SOL    HW117624   1.015   1.167   1.476
 5575SOL    HW217625   0.996   1.147   1.315
 5576SOL     OW17626   5.780   6.011   0.037
 5576SOL    HW117627   5.826   5.929   0.002
 5576SOL    HW217628   5.847   6.069   0.083
 5577SOL     OW17629   2.163   4.081   4.793
 5577SOL    HW117630   2.202   4.072   4.885
 5577SOL    HW217631   2.155   3.991   4.751
 5578SOL     OW17632   3.299   1.922   6.502
 5578SOL    HW117633   3.302   2.004   6.446
 5578SOL    HW217634   3.340   1.941   6.591
 5579SOL     OW17635   4.695   5.209   2.047
 5579SOL    HW117636   4.759   5.236   1.975
 5579SOL    HW217637   4.704   5.111   2.065
 5580SOL     OW17638   5.047   0.908   1.413
 5580SOL    HW117639   5.083   1.000   1.428
 5580SOL    HW217640   5.007   0.902   1.321
 5581SOL     OW17641   2.471   3.169   0.379
 5581SOL    HW117642   2.480   3.069   0.383
 5581SOL    HW217643   2.400   3.198   0.443
 5582SOL     OW17644   3.086   3.075   3.573
 5582SOL    HW117645   3.026   3.007   3.531
 5582SOL    HW217646   3.176   3.034   3.592
 5583SOL     OW17647   4.799   0.721   0.131
 5583SOL    HW117648   4.699   0.719   0.133
 5583SOL    HW217649   4.835   0.637   0.169
 5584SOL     OW17650   5.188   2.892   2.942
 5584SOL    HW117651   5.138   2.977   2.956
 5584SOL    HW217652   5.236   2.866   3.026
 5585SOL     OW17653   0.286   6.669   4.554
 5585SOL    HW117654   0.218   6.718   4.609
 5585SOL    HW217655   0.287   6.706   4.461
 5586SOL     OW17656   2.878   1.266   6.449
 5586SOL    HW117657   2.811   1.192   6.443
 5586SOL    HW217658   2.921   1.279   6.360
 5587SOL     OW17659   3.411   6.527   4.263
 5587SOL    HW117660   3.336   6.466   4.236
 5587SOL    HW217661   3.435   6.510   4.359
 5588SOL     OW17662   4.925   0.285   6.134
 5588SOL    HW117663   4.825   0.288   6.136
 5588SOL    HW217664   4.962   0.352   6.200
 5589SOL     OW17665   2.853   4.059   6.856
 5589SOL    HW117666   2.908   4.097   6.781
 5589SOL    HW217667   2.832   4.131   6.921
 5590SOL     OW17668   6.583   6.919   3.720
 5590SOL    HW117669   6.505   6.873   3.763
 5590SOL    HW217670   6.638   6.851   3.672
 5591SOL     OW17671   5.486   0.105   0.179
 5591SOL    HW117672   5.463   0.053   0.097
 5591SOL    HW217673   5.468   0.050   0.260
 5592SOL     OW17674   1.666   2.245   2.762
 5592SOL    HW117675   1.687   2.326   2.707
 5592SOL    HW217676   1.679   2.266   2.859
 5593SOL     OW17677   2.171   4.319   4.700
 5593SOL    HW117678   2.166   4.238   4.758
 5593SOL    HW217679   2.114   4.391   4.739
 5594SOL     OW17680   3.354   1.474   6.277
 5594SOL    HW117681   3.301   1.518   6.349
 5594SOL    HW217682   3.358   1.534   6.197
 5595SOL     OW17683   0.402   1.860   5.876
 5595SOL    HW117684   0.364   1.885   5.965
 5595SOL    HW217685   0.487   1.909   5.860
 5596SOL     OW17686   4.866   2.379   3.737
 5596SOL    HW117687   4.774   2.354   3.708
 5596SOL    HW217688   4.888   2.470   3.702
 5597SOL     OW17689   0.121   1.917   6.335
 5597SOL    HW117690   0.093   1.884   6.426
 5597SOL    HW217691   0.055   1.886   6.267
 5598SOL     OW17692   6.919   1.818   4.116
 5598SOL    HW117693   6.923   1.902   4.061
 5598SOL    HW217694   6.883   1.744   4.060
 5599SOL     OW17695   5.396   2.270   2.890
 5599SOL    HW117696   5.298   2.264   2.905
 5599SOL    HW217697   5.442   2.198   2.942
 5600SOL     OW17698   1.903   2.159   2.270
 5600SOL    HW117699   1.997   2.172   2.237
 5600SOL    HW217700   1.898   2.187   2.366
 5601SOL     OW17701   5.663   3.569   6.065
 5601SOL    HW117702   5.705   3.643   6.012
 5601SOL    HW217703   5.631   3.604   6.152
 5602SOL     OW17704   6.461   2.411   2.409
 5602SOL    HW117705   6.398   2.334   2.425
 5602SOL    HW217706   6.413   2.483   2.359
 5603SOL     OW17707   3.488   2.191   5.983
 5603SOL    HW117708   3.536   2.134   6.050
 5603SOL    HW217709   3.405   2.229   6.025
 5604SOL     OW17710   0.929   6.561   3.716
 5604SOL    HW117711   0.865   6.582   3.642
 5604SOL    HW217712   0.987   6.484   3.690
 5605SOL     OW17713   4.374   0.182   3.853
 5605SOL    HW117714   4.308   0.107   3.840
 5605SOL    HW217715   4.330   0.268   3.830
 5606SOL     OW17716   4.584   2.971   0.077
 5606SOL    HW117717   4.620   3.064   0.085
 5606SOL    HW217718   4.496   2.974   0.030
 5607SOL     OW17719   0.217   2.246   3.122
 5607SOL    HW117720   0.193   2.222   3.216
 5607SOL    HW217721   0.259   2.337   3.121
 5608SOL     OW17722   4.959   0.393   3.873
 5608SOL    HW117723   4.993   0.442   3.793
 5608SOL    HW217724   4.949   0.457   3.950
 5609SOL     OW17725   6.628   0.681   7.007
 5609SOL    HW117726   6.624   0.584   0.008
 5609SOL    HW217727   6.599   0.696   6.913
 5610SOL     OW17728   6.136   5.951   6.443
 5610SOL    HW117729   6.216   5.905   6.483
 5610SOL    HW217730   6.087   6.001   6.515
 5611SOL     OW17731   6.201   3.915   1.897
 5611SOL    HW117732   6.261   3.882   1.970
 5611SOL    HW217733   6.127   3.849   1.883
 5612SOL     OW17734   3.789   2.219   0.427
 5612SOL    HW117735   3.787   2.185   0.521
 5612SOL    HW217736   3.752   2.312   0.425
 5613SOL     OW17737   6.265   5.140   5.890
 5613SOL    HW117738   6.232   5.157   5.797
 5613SOL    HW217739   6.204   5.076   5.936
 5614SOL     OW17740   4.913   2.492   4.812
 5614SOL    HW117741   4.900   2.573   4.869
 5614SOL    HW217742   4.983   2.433   4.853
 5615SOL     OW17743   0.519   3.055   3.619
 5615SOL    HW117744   0.496   3.049   3.522
 5615SOL    HW217745   0.597   3.117   3.632
 5616SOL     OW17746   2.126   3.558   2.565
 5616SOL    HW117747   2.168   3.521   2.482
 5616SOL    HW217748   2.135   3.491   2.639
 5617SOL     OW17749   1.467   4.623   6.254
 5617SOL    HW117750   1.390   4.566   6.283
 5617SOL    HW217751   1.479   4.698   6.318
 5618SOL     OW17752   4.757   6.648   2.526
 5618SOL    HW117753   4.816   6.587   2.579
 5618SOL    HW217754   4.682   6.596   2.487
 5619SOL     OW17755   3.334   3.289   2.881
 5619SOL    HW117756   3.266   3.363   2.880
 5619SOL    HW217757   3.419   3.322   2.921
 5620SOL     OW17758   4.938   4.747   4.335
 5620SOL    HW117759   4.845   4.755   4.373
 5620SOL    HW217760   4.973   4.655   4.351
 5621SOL     OW17761   1.168   2.583   6.477
 5621SOL    HW117762   1.203   2.615   6.564
 5621SOL    HW217763   1.068   2.579   6.481
 5622SOL     OW17764   4.702   5.336   4.148
 5622SOL    HW117765   4.695   5.314   4.050
 5622SOL    HW217766   4.643   5.413   4.169
 5623SOL     OW17767   4.609   4.824   3.741
 5623SOL    HW117768   4.526   4.768   3.738
 5623SOL    HW217769   4.653   4.821   3.651
 5624SOL     OW17770   4.938   4.578   3.509
 5624SOL    HW117771   4.964   4.605   3.417
 5624SOL    HW217772   5.007   4.515   3.546
 5625SOL     OW17773   2.733   6.381   5.986
 5625SOL    HW117774   2.790   6.458   6.015
 5625SOL    HW217775   2.656   6.370   6.049
 5626SOL     OW17776   0.972   4.505   6.582
 5626SOL    HW117777   1.070   4.507   6.603
 5626SOL    HW217778   0.954   4.433   6.514
 5627SOL     OW17779   1.274   5.334   0.233
 5627SOL    HW117780   1.186   5.378   0.249
 5627SOL    HW217781   1.265   5.236   0.244
 5628SOL     OW17782   2.037   3.695   0.477
 5628SOL    HW117783   1.995   3.785   0.478
 5628SOL    HW217784   2.006   3.644   0.397
 5629SOL     OW17785   6.911   3.661   3.456
 5629SOL    HW117786   6.931   3.656   3.554
 5629SOL    HW217787   6.988   3.624   3.405
 5630SOL     OW17788   0.717   3.483   0.666
 5630SOL    HW117789   0.759   3.527   0.587
 5630SOL    HW217790   0.724   3.384   0.656
 5631SOL     OW17791   3.579   1.347   1.340
 5631SOL    HW117792   3.587   1.251   1.316
 5631SOL    HW217793   3.595   1.359   1.438
 5632SOL     OW17794   4.801   6.581   5.958
 5632SOL    HW117795   4.718   6.557   5.908
 5632SOL    HW217796   4.808   6.524   6.040
 5633SOL     OW17797   1.468   5.485   5.589
 5633SOL    HW117798   1.461   5.386   5.577
 5633SOL    HW217799   1.406   5.531   5.526
 5634SOL     OW17800   2.898   0.684   1.501
 5634SOL    HW117801   2.978   0.660   1.557
 5634SOL    HW217802   2.858   0.601   1.463
 5635SOL     OW17803   3.361   0.751   1.866
 5635SOL    HW117804   3.431   0.820   1.882
 5635SOL    HW217805   3.276   0.778   1.911
 5636SOL     OW17806   5.245   0.422   5.823
 5636SOL    HW117807   5.190   0.474   5.888
 5636SOL    HW217808   5.215   0.443   5.730
 5637SOL     OW17809   5.149   0.046   4.911
 5637SOL    HW117810   5.085   0.102   4.860
 5637SOL    HW217811   5.144   0.068   5.009
 5638SOL     OW17812   6.413   5.596   0.732
 5638SOL    HW117813   6.440   5.625   0.640
 5638SOL    HW217814   6.449   5.505   0.751
 5639SOL     OW17815   2.710   0.483   1.768
 5639SOL    HW117816   2.736   0.498   1.672
 5639SOL    HW217817   2.789   0.447   1.818
 5640SOL     OW17818   3.002   6.692   3.365
 5640SOL    HW117819   3.088   6.649   3.338
 5640SOL    HW217820   3.018   6.789   3.383
 5641SOL     OW17821   6.744   4.012   3.975
 5641SOL    HW117822   6.706   3.969   3.893
 5641SOL    HW217823   6.678   4.007   4.049
 5642SOL     OW17824   2.319   3.663   6.579
 5642SOL    HW117825   2.272   3.595   6.635
 5642SOL    HW217826   2.254   3.701   6.512
 5643SOL     OW17827   6.061   2.403   4.439
 5643SOL    HW117828   6.140   2.425   4.496
 5643SOL    HW217829   6.071   2.445   4.349
 5644SOL     OW17830   4.084   0.423   4.880
 5644SOL    HW117831   4.156   0.411   4.948
 5644SOL    HW217832   4.061   0.334   4.840
 5645SOL     OW17833   6.352   6.222   3.749
 5645SOL    HW117834   6.260   6.233   3.713
 5645SOL    HW217835   6.395   6.312   3.760
 5646SOL     OW17836   6.547   6.178   3.916
 5646SOL    HW117837   6.539   6.139   4.007
 5646SOL    HW217838   6.466   6.155   3.862
 5647SOL     OW17839   6.934   4.198   6.736
 5647SOL    HW117840   6.989   4.121   6.768
 5647SOL    HW217841   6.913   4.186   6.639
 5648SOL     OW17842   2.715   0.999   4.770
 5648SOL    HW117843   2.775   1.068   4.809
 5648SOL    HW217844   2.760   0.957   4.691
 5649SOL     OW17845   1.025   6.940   5.180
 5649SOL    HW117846   1.024   6.935   5.279
 5649SOL    HW217847   1.032   0.015   5.151
 5650SOL     OW17848   6.550   4.742   6.360
 5650SOL    HW117849   6.473   4.805   6.369
 5650SOL    HW217850   6.631   4.793   6.331
 5651SOL     OW17851   5.954   1.351   2.436
 5651SOL    HW117852   6.006   1.330   2.354
 5651SOL    HW217853   5.982   1.440   2.471
 5652SOL     OW17854   5.572   3.883   0.663
 5652SOL    HW117855   5.540   3.851   0.752
 5652SOL    HW217856   5.509   3.853   0.592
 5653SOL     OW17857   2.090   5.849   6.693
 5653SOL    HW117858   1.990   5.852   6.695
 5653SOL    HW217859   2.122   5.861   6.600
 5654SOL     OW17860   1.250   5.977   6.445
 5654SOL    HW117861   1.156   6.013   6.449
 5654SOL    HW217862   1.247   5.877   6.451
 5655SOL     OW17863   0.431   5.693   3.025
 5655SOL    HW117864   0.526   5.662   3.026
 5655SOL    HW217865   0.391   5.683   3.116
 5656SOL     OW17866   3.756   5.447   6.521
 5656SOL    HW117867   3.804   5.521   6.570
 5656SOL    HW217868   3.725   5.482   6.433
 5657SOL     OW17869   4.145   5.667   2.031
 5657SOL    HW117870   4.191   5.737   2.086
 5657SOL    HW217871   4.138   5.582   2.083
 5658SOL     OW17872   5.629   6.828   5.647
 5658SOL    HW117873   5.603   6.916   5.687
 5658SOL    HW217874   5.724   6.806   5.672
 5659SOL     OW17875   3.499   4.085   2.892
 5659SOL    HW117876   3.426   4.067   2.958
 5659SOL    HW217877   3.461   4.082   2.799
 5660SOL     OW17878   6.656   6.455   1.120
 5660SOL    HW117879   6.743   6.485   1.080
 5660SOL    HW217880   6.625   6.522   1.187
 5661SOL     OW17881   6.243   5.923   4.764
 5661SOL    HW117882   6.285   5.977   4.837
 5661SOL    HW217883   6.306   5.916   4.687
 5662SOL     OW17884   2.170   4.618   4.656
 5662SOL    HW117885   2.257   4.570   4.652
 5662SOL    HW217886   2.129   4.623   4.565
 5663SOL     OW17887   2.452   4.330   0.839
 5663SOL    HW117888   2.397   4.392   0.896
 5663SOL    HW217889   2.400   4.246   0.822
 5664SOL     OW17890   0.121   5.940   2.576
 5664SOL    HW117891   0.199   6.003   2.586
 5664SOL    HW217892   0.141   5.855   2.625
 5665SOL     OW17893   1.464   1.201   5.876
 5665SOL    HW117894   1.442   1.104   5.863
 5665SOL    HW217895   1.563   1.215   5.867
 5666SOL     OW17896   5.986   6.171   0.113
 5666SOL    HW117897   5.918   6.243   0.099
 5666SOL    HW217898   6.060   6.182   0.047
 5667SOL     OW17899   6.260   6.040   3.014
 5667SOL    HW117900   6.233   6.038   2.918
 5667SOL    HW217901   6.330   5.970   3.031
 5668SOL     OW17902   5.911   2.994   5.835
 5668SOL    HW117903   5.918   2.940   5.919
 5668SOL    HW217904   5.874   3.085   5.857
 5669SOL     OW17905   6.852   3.430   4.804
 5669SOL    HW117906   6.848   3.355   4.871
 5669SOL    HW217907   6.932   3.417   4.745
 5670SOL     OW17908   1.692   3.567   2.875
 5670SOL    HW117909   1.613   3.551   2.815
 5670SOL    HW217910   1.675   3.525   2.964
 5671SOL     OW17911   1.501   1.266   5.528
 5671SOL    HW117912   1.472   1.174   5.555
 5671SOL    HW217913   1.455   1.334   5.585
 5672SOL     OW17914   5.777   3.861   5.573
 5672SOL    HW117915   5.703   3.884   5.509
 5672SOL    HW217916   5.816   3.772   5.549
 5673SOL     OW17917   1.341   0.806   1.081
 5673SOL    HW117918   1.290   0.821   1.166
 5673SOL    HW217919   1.309   0.722   1.038
 5674SOL     OW17920   6.827   3.084   1.168
 5674SOL    HW117921   6.791   3.172   1.198
 5674SOL    HW217922   6.761   3.012   1.191
 5675SOL     OW17923   3.865   1.014   6.213
 5675SOL    HW117924   3.963   1.001   6.195
 5675SOL    HW217925   3.847   1.004   6.311
 5676SOL     OW17926   3.383   6.653   1.812
 5676SOL    HW117927   3.375   6.574   1.872
 5676SOL    HW217928   3.362   6.737   1.863
 5677SOL     OW17929   6.931   1.112   4.128
 5677SOL    HW117930   6.871   1.113   4.208
 5677SOL    HW217931   6.876   1.112   4.045
 5678SOL     OW17932   1.783   5.218   3.512
 5678SOL    HW117933   1.876   5.250   3.527
 5678SOL    HW217934   1.743   5.269   3.435
 5679SOL     OW17935   3.050   5.586   5.362
 5679SOL    HW117936   3.149   5.575   5.352
 5679SOL    HW217937   3.006   5.565   5.275
 5680SOL     OW17938   1.811   6.790   6.316
 5680SOL    HW117939   1.729   6.846   6.301
 5680SOL    HW217940   1.892   6.847   6.309
 5681SOL     OW17941   2.158   4.104   0.199
 5681SOL    HW117942   2.253   4.116   0.228
 5681SOL    HW217943   2.133   4.007   0.207
 5682SOL     OW17944   0.980   3.983   4.021
 5682SOL    HW117945   1.000   4.081   4.022
 5682SOL    HW217946   1.004   3.944   4.110
 5683SOL     OW17947   3.941   3.296   4.470
 5683SOL    HW117948   3.920   3.302   4.372
 5683SOL    HW217949   3.906   3.377   4.516
 5684SOL     OW17950   2.961   3.833   3.329
 5684SOL    HW117951   2.956   3.785   3.416
 5684SOL    HW217952   3.017   3.916   3.341
 5685SOL     OW17953   0.958   5.484   1.799
 5685SOL    HW117954   0.861   5.478   1.825
 5685SOL    HW217955   0.983   5.580   1.787
 5686SOL     OW17956   3.664   5.447   0.154
 5686SOL    HW117957   3.688   5.433   0.058
 5686SOL    HW217958   3.583   5.392   0.176
 5687SOL     OW17959   4.111   5.557   6.356
 5687SOL    HW117960   4.192   5.533   6.303
 5687SOL    HW217961   4.089   5.653   6.342
 5688SOL     OW17962   5.721   1.831   2.933
 5688SOL    HW117963   5.746   1.734   2.933
 5688SOL    HW217964   5.803   1.887   2.937
 5689SOL     OW17965   4.449   2.901   6.230
 5689SOL    HW117966   4.410   2.968   6.167
 5689SOL    HW217967   4.375   2.861   6.284
 5690SOL     OW17968   4.590   6.618   2.136
 5690SOL    HW117969   4.542   6.576   2.060
 5690SOL    HW217970   4.654   6.687   2.102
 5691SOL     OW17971   2.401   6.918   3.278
 5691SOL    HW117972   2.405   6.977   3.197
 5691SOL    HW217973   2.365   6.828   3.252
 5692SOL     OW17974   5.902   3.387   0.286
 5692SOL    HW117975   5.865   3.316   0.346
 5692SOL    HW217976   5.992   3.415   0.320
 5693SOL     OW17977   4.693   2.805   2.520
 5693SOL    HW117978   4.642   2.734   2.471
 5693SOL    HW217979   4.791   2.785   2.515
 5694SOL     OW17980   1.262   1.662   4.254
 5694SOL    HW117981   1.303   1.581   4.298
 5694SOL    HW217982   1.292   1.744   4.302
 5695SOL     OW17983   1.761   3.918   3.682
 5695SOL    HW117984   1.705   3.836   3.670
 5695SOL    HW217985   1.778   3.959   3.592
 5696SOL     OW17986   3.390   0.153   5.916
 5696SOL    HW117987   3.451   0.082   5.952
 5696SOL    HW217988   3.399   0.236   5.971
 5697SOL     OW17989   6.247   3.332   0.219
 5697SOL    HW117990   6.218   3.358   0.312
 5697SOL    HW217991   6.204   3.393   0.153
 5698SOL     OW17992   0.963   4.254   2.681
 5698SOL    HW117993   0.896   4.319   2.717
 5698SOL    HW217994   0.919   4.195   2.613
 5699SOL     OW17995   6.386   1.722   4.940
 5699SOL    HW117996   6.317   1.770   4.886
 5699SOL    HW217997   6.386   1.625   4.914
 5700SOL     OW17998   1.220   5.373   2.833
 5700SOL    HW117999   1.120   5.376   2.823
 5700SOL    HW218000   1.262   5.379   2.742
 5701SOL     OW18001   5.317   5.051   1.914
 5701SOL    HW118002   5.378   5.108   1.858
 5701SOL    HW218003   5.344   5.059   2.010
 5702SOL     OW18004   2.578   0.396   0.011
 5702SOL    HW118005   2.486   0.358   7.017
 5702SOL    HW218006   2.636   0.374   6.953
 5703SOL     OW18007   4.548   4.083   1.687
 5703SOL    HW118008   4.490   4.147   1.736
 5703SOL    HW218009   4.613   4.041   1.751
 5704SOL     OW18010   4.551   5.257   3.885
 5704SOL    HW118011   4.576   5.299   3.797
 5704SOL    HW218012   4.454   5.235   3.884
 5705SOL     OW18013   5.849   1.556   2.941
 5705SOL    HW118014   5.774   1.496   2.912
 5705SOL    HW218015   5.936   1.513   2.916
 5706SOL     OW18016   2.206   1.008   6.947
 5706SOL    HW118017   2.133   1.057   6.994
 5706SOL    HW218018   2.294   1.046   6.973
 5707SOL     OW18019   3.356   1.931   6.102
 5707SOL    HW118020   3.345   1.996   6.176
 5707SOL    HW218021   3.270   1.921   6.053
 5708SOL     OW18022   6.151   0.298   1.939
 5708SOL    HW118023   6.168   0.314   2.036
 5708SOL    HW218024   6.200   0.216   1.910
 5709SOL     OW18025   0.986   1.283   2.351
 5709SOL    HW118026   1.066   1.289   2.411
 5709SOL    HW218027   0.968   1.372   2.310
 5710SOL     OW18028   3.154   4.356   6.655
 5710SOL    HW118029   3.059   4.336   6.678
 5710SOL    HW218030   3.157   4.417   6.576
 5711SOL     OW18031   4.981   1.487   5.008
 5711SOL    HW118032   4.980   1.392   4.978
 5711SOL    HW218033   5.074   1.524   4.999
 5712SOL     OW18034   6.964   6.056   6.496
 5712SOL    HW118035   6.959   6.150   6.465
 5712SOL    HW218036   7.014   6.001   6.429
 5713SOL     OW18037   0.172   2.649   2.509
 5713SOL    HW118038   0.128   2.603   2.432
 5713SOL    HW218039   0.186   2.584   2.583
 5714SOL     OW18040   2.321   0.598   6.257
 5714SOL    HW118041   2.404   0.621   6.308
 5714SOL    HW218042   2.247   0.580   6.321
 5715SOL     OW18043   1.722   6.644   3.104
 5715SOL    HW118044   1.761   6.565   3.058
 5715SOL    HW218045   1.766   6.728   3.071
 5716SOL     OW18046   1.739   2.905   4.919
 5716SOL    HW118047   1.805   2.980   4.911
 5716SOL    HW218048   1.782   2.819   4.891
 5717SOL     OW18049   0.802   3.509   0.261
 5717SOL    HW118050   0.779   3.421   0.303
 5717SOL    HW218051   0.800   3.499   0.162
 5718SOL     OW18052   2.295   5.109   5.106
 5718SOL    HW118053   2.349   5.068   5.179
 5718SOL    HW218054   2.271   5.038   5.039
 5719SOL     OW18055   2.690   0.193   0.183
 5719SOL    HW118056   2.755   0.259   0.221
 5719SOL    HW218057   2.608   0.242   0.151
 5720SOL     OW18058   2.027   5.545   3.966
 5720SOL    HW118059   2.125   5.554   3.945
 5720SOL    HW218060   2.004   5.606   4.042
 5721SOL     OW18061   6.795   4.172   0.562
 5721SOL    HW118062   6.823   4.267   0.574
 5721SOL    HW218063   6.714   4.154   0.617
 5722SOL     OW18064   5.470   1.028   4.231
 5722SOL    HW118065   5.452   1.062   4.323
 5722SOL    HW218066   5.527   1.093   4.181
 5723SOL     OW18067   1.436   4.645   0.716
 5723SOL    HW118068   1.452   4.553   0.752
 5723SOL    HW218069   1.350   4.646   0.666
 5724SOL     OW18070   4.888   2.116   6.382
 5724SOL    HW118071   4.898   2.195   6.321
 5724SOL    HW218072   4.977   2.073   6.396
 5725SOL     OW18073   5.322   5.460   5.992
 5725SOL    HW118074   5.349   5.447   5.897
 5725SOL    HW218075   5.385   5.522   6.037
 5726SOL     OW18076   4.486   3.508   5.805
 5726SOL    HW118077   4.515   3.416   5.779
 5726SOL    HW218078   4.520   3.574   5.738
 5727SOL     OW18079   5.980   2.035   3.898
 5727SOL    HW118080   6.045   2.111   3.886
 5727SOL    HW218081   5.956   1.998   3.808
 5728SOL     OW18082   5.311   0.645   6.344
 5728SOL    HW118083   5.228   0.639   6.288
 5728SOL    HW218084   5.298   0.713   6.416
 5729SOL     OW18085   1.134   3.087   5.005
 5729SOL    HW118086   1.059   3.146   5.036
 5729SOL    HW218087   1.200   3.142   4.954
 5730SOL     OW18088   3.862   5.266   0.004
 5730SOL    HW118089   3.960   5.244   0.002
 5730SOL    HW218090   3.851   5.364   0.020
 5731SOL     OW18091   3.783   0.904   4.636
 5731SOL    HW118092   3.803   0.855   4.551
 5731SOL    HW218093   3.865   0.904   4.694
 5732SOL     OW18094   5.941   3.890   3.989
 5732SOL    HW118095   5.885   3.907   4.069
 5732SOL    HW218096   6.037   3.907   4.011
 5733SOL     OW18097   2.701   6.946   0.778
 5733SOL    HW118098   2.684   6.894   0.695
 5733SOL    HW218099   2.752   0.008   0.756
 5734SOL     OW18100   1.925   6.103   6.447
 5734SOL    HW118101   1.933   6.146   6.537
 5734SOL    HW218102   1.983   6.151   6.381
 5735SOL     OW18103   4.941   0.609   2.154
 5735SOL    HW118104   4.903   0.679   2.094
 5735SOL    HW218105   4.908   0.519   2.123
 5736SOL     OW18106   6.145   4.968   6.863
 5736SOL    HW118107   6.136   4.876   6.825
 5736SOL    HW218108   6.209   4.967   6.939
 5737SOL     OW18109   4.466   5.446   1.514
 5737SOL    HW118110   4.369   5.443   1.490
 5737SOL    HW218111   4.482   5.519   1.580
 5738SOL     OW18112   2.900   0.802   0.362
 5738SOL    HW118113   2.986   0.761   0.332
 5738SOL    HW218114   2.830   0.732   0.370
 5739SOL     OW18115   2.317   1.004   5.724
 5739SOL    HW118116   2.318   0.917   5.773
 5739SOL    HW218117   2.228   1.047   5.734
 5740SOL     OW18118   4.957   3.547   2.035
 5740SOL    HW118119   4.937   3.454   2.003
 5740SOL    HW218120   4.993   3.543   2.129
 5741SOL     OW18121   0.192   3.364   4.301
 5741SOL    HW118122   0.190   3.286   4.239
 5741SOL    HW218123   0.236   3.338   4.387
 5742SOL     OW18124   5.272   0.503   3.544
 5742SOL    HW118125   5.229   0.481   3.457
 5742SOL    HW218126   5.307   0.420   3.586
 5743SOL     OW18127   3.199   5.374   6.743
 5743SOL    HW118128   3.257   5.425   6.680
 5743SOL    HW218129   3.115   5.347   6.696
 5744SOL     OW18130   5.259   6.754   3.311
 5744SOL    HW118131   5.282   6.846   3.278
 5744SOL    HW218132   5.165   6.753   3.344
 5745SOL     OW18133   1.206   2.850   1.653
 5745SOL    HW118134   1.274   2.806   1.711
 5745SOL    HW218135   1.177   2.936   1.695
 5746SOL     OW18136   4.986   6.705   3.368
 5746SOL    HW118137   4.908   6.726   3.310
 5746SOL    HW218138   5.007   6.608   3.361
 5747SOL     OW18139   1.810   6.816   0.755
 5747SOL    HW118140   1.903   6.790   0.732
 5747SOL    HW218141   1.801   6.823   0.855
 5748SOL     OW18142   0.033   6.287   1.099
 5748SOL    HW118143   6.993   6.209   1.111
 5748SOL    HW218144   0.092   6.296   1.179
 5749SOL     OW18145   1.831   5.736   6.233
 5749SOL    HW118146   1.824   5.835   6.244
 5749SOL    HW218147   1.757   5.703   6.174
 5750SOL     OW18148   0.156   2.994   4.454
 5750SOL    HW118149   0.197   3.083   4.432
 5750SOL    HW218150   0.067   3.008   4.497
 5751SOL     OW18151   1.288   3.987   4.719
 5751SOL    HW118152   1.317   3.893   4.700
 5751SOL    HW218153   1.298   4.006   4.817
 5752SOL     OW18154   4.704   0.602   0.975
 5752SOL    HW118155   4.694   0.545   1.057
 5752SOL    HW218156   4.801   0.610   0.952
 5753SOL     OW18157   3.907   4.109   5.215
 5753SOL    HW118158   3.972   4.039   5.185
 5753SOL    HW218159   3.843   4.128   5.141
 5754SOL     OW18160   0.723   5.633   1.055
 5754SOL    HW118161   0.625   5.615   1.058
 5754SOL    HW218162   0.764   5.581   0.981
 5755SOL     OW18163   1.321   2.644   6.722
 5755SOL    HW118164   1.285   2.570   6.780
 5755SOL    HW218165   1.372   2.708   6.779
 5756SOL     OW18166   5.955   6.355   1.827
 5756SOL    HW118167   6.022   6.399   1.767
 5756SOL    HW218168   5.945   6.259   1.801
 5757SOL     OW18169   6.778   0.805   4.345
 5757SOL    HW118170   6.820   0.772   4.260
 5757SOL    HW218171   6.802   0.901   4.359
 5758SOL     OW18172   5.846   6.993   2.964
 5758SOL    HW118173   5.937   7.014   2.927
 5758SOL    HW218174   5.779   0.036   2.927
 5759SOL     OW18175   3.224   0.441   1.325
 5759SOL    HW118176   3.213   0.514   1.258
 5759SOL    HW218177   3.277   0.366   1.284
 5760SOL     OW18178   1.248   2.962   0.540
 5760SOL    HW118179   1.208   3.044   0.580
 5760SOL    HW218180   1.268   2.895   0.612
 5761SOL     OW18181   6.011   0.267   5.006
 5761SOL    HW118182   5.996   0.189   4.945
 5761SOL    HW218183   6.030   0.349   4.952
 5762SOL     OW18184   7.017   5.382   6.971
 5762SOL    HW118185   6.923   5.383   6.938
 5762SOL    HW218186   0.018   5.293   7.010
 5763SOL     OW18187   5.796   0.076   0.092
 5763SOL    HW118188   5.709   0.113   0.125
 5763SOL    HW218189   5.823   7.020   0.150
 5764SOL     OW18190   5.197   6.424   3.897
 5764SOL    HW118191   5.144   6.480   3.833
 5764SOL    HW218192   5.135   6.376   3.959
 5765SOL     OW18193   6.371   5.137   2.415
 5765SOL    HW118194   6.401   5.138   2.511
 5765SOL    HW218195   6.386   5.046   2.377
 5766SOL     OW18196   7.017   1.097   4.502
 5766SOL    HW118197   0.033   1.187   4.480
 5766SOL    HW218198   0.072   1.035   4.525
 5767SOL     OW18199   4.004   6.260   6.967
 5767SOL    HW118200   4.033   6.252   0.042
 5767SOL    HW218201   3.981   6.170   6.931
 5768SOL     OW18202   0.555   0.537   5.221
 5768SOL    HW118203   0.559   0.492   5.132
 5768SOL    HW218204   0.621   0.612   5.223
 5769SOL     OW18205   1.816   3.884   5.917
 5769SOL    HW118206   1.768   3.803   5.952
 5769SOL    HW218207   1.821   3.878   5.817
 5770SOL     OW18208   1.672   4.262   1.924
 5770SOL    HW118209   1.757   4.307   1.951
 5770SOL    HW218210   1.684   4.163   1.929
 5771SOL     OW18211   3.331   5.061   3.721
 5771SOL    HW118212   3.262   5.125   3.687
 5771SOL    HW218213   3.392   5.108   3.785
 5772SOL     OW18214   3.014   0.372   2.482
 5772SOL    HW118215   2.987   0.399   2.574
 5772SOL    HW218216   2.976   0.438   2.416
 5773SOL     OW18217   4.885   1.521   2.264
 5773SOL    HW118218   4.941   1.485   2.338
 5773SOL    HW218219   4.789   1.512   2.288
 5774SOL     OW18220   0.441   6.669   1.995
 5774SOL    HW118221   0.362   6.660   2.055
 5774SOL    HW218222   0.412   6.703   1.906
 5775SOL     OW18223   6.683   5.505   1.268
 5775SOL    HW118224   6.712   5.599   1.248
 5775SOL    HW218225   6.618   5.475   1.197
 5776SOL     OW18226   2.631   1.177   4.081
 5776SOL    HW118227   2.542   1.151   4.118
 5776SOL    HW218228   2.672   1.247   4.138
 5777SOL     OW18229   1.837   6.430   2.412
 5777SOL    HW118230   1.790   6.419   2.499
 5777SOL    HW218231   1.865   6.341   2.377
 5778SOL     OW18232   0.407   1.874   0.779
 5778SOL    HW118233   0.453   1.936   0.843
 5778SOL    HW218234   0.460   1.789   0.772
 5779SOL     OW18235   5.971   1.215   5.895
 5779SOL    HW118236   5.873   1.204   5.906
 5779SOL    HW218237   6.019   1.158   5.962
 5780SOL     OW18238   4.559   5.499   4.327
 5780SOL    HW118239   4.545   5.475   4.423
 5780SOL    HW218240   4.600   5.590   4.322
 5781SOL     OW18241   0.538   5.213   5.071
 5781SOL    HW118242   0.548   5.290   5.008
 5781SOL    HW218243   0.478   5.144   5.031
 5782SOL     OW18244   0.492   0.411   0.255
 5782SOL    HW118245   0.453   0.329   0.212
 5782SOL    HW218246   0.428   0.487   0.246
 5783SOL     OW18247   1.535   2.109   0.578
 5783SOL    HW118248   1.528   2.115   0.677
 5783SOL    HW218249   1.598   2.179   0.544
 5784SOL     OW18250   6.695   5.994   6.536
 5784SOL    HW118251   6.684   5.913   6.594
 5784SOL    HW218252   6.792   6.018   6.530
 5785SOL     OW18253   0.987   1.387   0.411
 5785SOL    HW118254   1.017   1.483   0.409
 5785SOL    HW218255   1.052   1.331   0.360
 5786SOL     OW18256   5.828   5.140   1.579
 5786SOL    HW118257   5.826   5.187   1.490
 5786SOL    HW218258   5.898   5.181   1.637
 5787SOL     OW18259   2.591   2.688   5.946
 5787SOL    HW118260   2.579   2.614   5.881
 5787SOL    HW218261   2.607   2.774   5.897
 5788SOL     OW18262   2.420   0.978   3.496
 5788SOL    HW118263   2.386   1.047   3.432
 5788SOL    HW218264   2.373   0.891   3.480
 5789SOL     OW18265   3.854   4.888   6.143
 5789SOL    HW118266   3.898   4.826   6.079
 5789SOL    HW218267   3.802   4.957   6.093
 5790SOL     OW18268   0.998   2.811   3.546
 5790SOL    HW118269   1.039   2.854   3.465
 5790SOL    HW218270   0.900   2.801   3.532
 5791SOL     OW18271   2.131   0.730   3.083
 5791SOL    HW118272   2.183   0.677   3.015
 5791SOL    HW218273   2.117   0.674   3.165
 5792SOL     OW18274   0.066   2.239   2.358
 5792SOL    HW118275   0.089   2.336   2.368
 5792SOL    HW218276   6.991   2.224   2.383
 5793SOL     OW18277   0.244   0.473   3.794
 5793SOL    HW118278   0.298   0.540   3.743
 5793SOL    HW218279   0.304   0.401   3.829
 5794SOL     OW18280   4.664   4.483   6.809
 5794SOL    HW118281   4.750   4.498   6.759
 5794SOL    HW218282   4.597   4.551   6.779
 5795SOL     OW18283   6.084   4.419   7.006
 5795SOL    HW118284   6.036   4.494   6.960
 5795SOL    HW218285   6.095   4.342   6.943
 5796SOL     OW18286   3.785   1.845   0.786
 5796SOL    HW118287   3.729   1.816   0.863
 5796SOL    HW218288   3.877   1.866   0.818
 5797SOL     OW18289   3.125   1.811   5.763
 5797SOL    HW118290   3.165   1.889   5.811
 5797SOL    HW218291   3.143   1.819   5.665
 5798SOL     OW18292   0.071   4.537   4.169
 5798SOL    HW118293   0.006   4.461   4.167
 5798SOL    HW218294   0.105   4.554   4.076
 5799SOL     OW18295   5.407   0.345   3.709
 5799SOL    HW118296   5.416   0.263   3.765
 5799SOL    HW218297   5.491   0.400   3.716
 5800SOL     OW18298   5.811   5.620   1.088
 5800SOL    HW118299   5.765   5.533   1.108
 5800SOL    HW218300   5.764   5.695   1.133
 5801SOL     OW18301   2.359   1.792   3.278
 5801SOL    HW118302   2.392   1.815   3.187
 5801SOL    HW218303   2.424   1.732   3.323
 5802SOL     OW18304   0.958   3.546   5.069
 5802SOL    HW118305   0.939   3.450   5.087
 5802SOL    HW218306   1.006   3.586   5.147
 5803SOL     OW18307   1.568   4.936   0.285
 5803SOL    HW118308   1.598   4.845   0.312
 5803SOL    HW218309   1.617   5.005   0.339
 5804SOL     OW18310   6.243   3.394   4.611
 5804SOL    HW118311   6.185   3.325   4.655
 5804SOL    HW218312   6.243   3.378   4.512
 5805SOL     OW18313   5.205   3.413   6.644
 5805SOL    HW118314   5.110   3.423   6.616
 5805SOL    HW218315   5.255   3.498   6.624
 5806SOL     OW18316   0.613   6.321   0.152
 5806SOL    HW118317   0.517   6.303   0.169
 5806SOL    HW218318   0.668   6.285   0.227
 5807SOL     OW18319   1.977   3.533   2.046
 5807SOL    HW118320   2.072   3.503   2.050
 5807SOL    HW218321   1.973   3.633   2.056
 5808SOL     OW18322   6.723   3.656   2.935
 5808SOL    HW118323   6.701   3.576   2.879
 5808SOL    HW218324   6.681   3.647   3.025
 5809SOL     OW18325   6.749   3.234   4.138
 5809SOL    HW118326   6.672   3.285   4.100
 5809SOL    HW218327   6.772   3.270   4.228
 5810SOL     OW18328   2.742   2.321   2.503
 5810SOL    HW118329   2.673   2.376   2.550
 5810SOL    HW218330   2.792   2.267   2.569
 5811SOL     OW18331   2.301   1.431   3.612
 5811SOL    HW118332   2.324   1.336   3.634
 5811SOL    HW218333   2.223   1.433   3.549
 5812SOL     OW18334   4.537   0.535   4.679
 5812SOL    HW118335   4.576   0.530   4.771
 5812SOL    HW218336   4.437   0.526   4.685
 5813SOL     OW18337   1.772   0.589   5.287
 5813SOL    HW118338   1.861   0.608   5.247
 5813SOL    HW218339   1.706   0.567   5.215
 5814SOL     OW18340   0.033   4.765   0.743
 5814SOL    HW118341   6.998   4.682   0.754
 5814SOL    HW218342   7.014   4.838   0.798
 5815SOL     OW18343   3.333   1.709   2.931
 5815SOL    HW118344   3.423   1.671   2.952
 5815SOL    HW218345   3.300   1.674   2.843
 5816SOL     OW18346   4.848   0.296   0.774
 5816SOL    HW118347   4.841   0.250   0.862
 5816SOL    HW218348   4.870   0.393   0.788
 5817SOL     OW18349   5.079   2.923   4.939
 5817SOL    HW118350   4.997   2.878   4.976
 5817SOL    HW218351   5.081   3.018   4.969
 5818SOL     OW18352   5.897   6.289   6.109
 5818SOL    HW118353   5.812   6.277   6.058
 5818SOL    HW218354   5.974   6.266   6.050
 5819SOL     OW18355   6.194   0.239   1.472
 5819SOL    HW118356   6.218   0.301   1.546
 5819SOL    HW218357   6.095   0.224   1.471
 5820SOL     OW18358   5.339   6.152   3.079
 5820SOL    HW118359   5.267   6.170   3.012
 5820SOL    HW218360   5.420   6.207   3.058
 5821SOL     OW18361   2.705   0.881   1.792
 5821SOL    HW118362   2.664   0.790   1.795
 5821SOL    HW218363   2.805   0.872   1.798
 5822SOL     OW18364   0.042   1.411   2.194
 5822SOL    HW118365   0.008   1.318   2.210
 5822SOL    HW218366   0.045   1.429   2.096
 5823SOL     OW18367   2.646   2.072   3.747
 5823SOL    HW118368   2.641   2.106   3.841
 5823SOL    HW218369   2.711   2.127   3.695
 5824SOL     OW18370   4.888   0.003   3.678
 5824SOL    HW118371   4.895   7.013   3.579
 5824SOL    HW218372   4.800   0.043   3.701
 5825SOL     OW18373   2.634   0.934   0.699
 5825SOL    HW118374   2.648   0.927   0.600
 5825SOL    HW218375   2.640   1.030   0.727
 5826SOL     OW18376   6.542   0.686   4.367
 5826SOL    HW118377   6.559   0.591   4.340
 5826SOL    HW218378   6.629   0.734   4.377
 5827SOL     OW18379   1.302   5.749   4.859
 5827SOL    HW118380   1.216   5.766   4.906
 5827SOL    HW218381   1.289   5.759   4.760
 5828SOL     OW18382   0.081   3.210   1.825
 5828SOL    HW118383   0.122   3.222   1.916
 5828SOL    HW218384   0.149   3.169   1.764
 5829SOL     OW18385   1.805   1.558   1.810
 5829SOL    HW118386   1.824   1.656   1.816
 5829SOL    HW218387   1.738   1.533   1.880
 5830SOL     OW18388   2.036   1.579   5.777
 5830SOL    HW118389   1.961   1.632   5.737
 5830SOL    HW218390   2.076   1.519   5.707
 5831SOL     OW18391   5.339   6.616   3.045
 5831SOL    HW118392   5.282   6.616   3.127
 5831SOL    HW218393   5.382   6.705   3.034
 5832SOL     OW18394   3.935   3.593   5.089
 5832SOL    HW118395   3.885   3.539   5.157
 5832SOL    HW218396   4.033   3.592   5.111
 5833SOL     OW18397   3.410   3.253   5.203
 5833SOL    HW118398   3.471   3.298   5.269
 5833SOL    HW218399   3.316   3.284   5.218
 5834SOL     OW18400   5.764   1.281   0.746
 5834SOL    HW118401   5.729   1.252   0.835
 5834SOL    HW218402   5.720   1.366   0.719
 5835SOL     OW18403   4.891   2.517   4.001
 5835SOL    HW118404   4.800   2.558   4.003
 5835SOL    HW218405   4.902   2.463   3.918
 5836SOL     OW18406   3.474   6.142   2.455
 5836SOL    HW118407   3.451   6.073   2.386
 5836SOL    HW218408   3.535   6.211   2.414
 5837SOL     OW18409   4.534   4.664   6.480
 5837SOL    HW118410   4.593   4.592   6.518
 5837SOL    HW218411   4.484   4.708   6.555
 5838SOL     OW18412   1.052   0.792   5.649
 5838SOL    HW118413   0.961   0.794   5.691
 5838SOL    HW218414   1.058   0.865   5.581
 5839SOL     OW18415   0.155   3.141   2.622
 5839SOL    HW118416   0.255   3.149   2.619
 5839SOL    HW218417   0.117   3.216   2.676
 5840SOL     OW18418   1.895   4.895   6.634
 5840SOL    HW118419   1.915   4.823   6.568
 5840SOL    HW218420   1.797   4.914   6.634
 5841SOL     OW18421   0.196   2.180   3.392
 5841SOL    HW118422   0.180   2.202   3.488
 5841SOL    HW218423   0.289   2.143   3.382
 5842SOL     OW18424   3.399   3.453   0.862
 5842SOL    HW118425   3.358   3.363   0.874
 5842SOL    HW218426   3.498   3.444   0.854
 5843SOL     OW18427   1.491   3.475   1.868
 5843SOL    HW118428   1.588   3.463   1.848
 5843SOL    HW218429   1.440   3.396   1.834
 5844SOL     OW18430   1.123   6.136   6.879
 5844SOL    HW118431   1.122   6.038   6.862
 5844SOL    HW218432   1.212   6.173   6.855
 5845SOL     OW18433   0.966   2.475   4.425
 5845SOL    HW118434   0.900   2.527   4.480
 5845SOL    HW218435   0.917   2.410   4.368
 5846SOL     OW18436   6.699   3.022   6.420
 5846SOL    HW118437   6.627   3.037   6.353
 5846SOL    HW218438   6.785   3.003   6.373
 5847SOL     OW18439   2.390   2.669   2.870
 5847SOL    HW118440   2.374   2.714   2.782
 5847SOL    HW218441   2.414   2.738   2.939
 5848SOL     OW18442   1.388   4.590   3.281
 5848SOL    HW118443   1.437   4.603   3.367
 5848SOL    HW218444   1.333   4.506   3.287
 5849SOL     OW18445   2.301   6.710   5.562
 5849SOL    HW118446   2.205   6.711   5.534
 5849SOL    HW218447   2.325   6.619   5.595
 5850SOL     OW18448   1.053   4.995   2.696
 5850SOL    HW118449   1.003   4.988   2.782
 5850SOL    HW218450   1.046   5.088   2.661
 5851SOL     OW18451   6.227   3.236   2.279
 5851SOL    HW118452   6.181   3.271   2.197
 5851SOL    HW218453   6.182   3.273   2.361
 5852SOL     OW18454   4.154   5.741   2.834
 5852SOL    HW118455   4.132   5.751   2.931
 5852SOL    HW218456   4.127   5.650   2.803
 5853SOL     OW18457   3.749   4.761   5.768
 5853SOL    HW118458   3.830   4.753   5.710
 5853SOL    HW218459   3.762   4.706   5.850
 5854SOL     OW18460   6.847   1.353   6.177
 5854SOL    HW118461   6.895   1.382   6.260
 5854SOL    HW218462   6.914   1.334   6.105
 5855SOL     OW18463   1.490   0.703   4.891
 5855SOL    HW118464   1.550   0.759   4.835
 5855SOL    HW218465   1.509   0.606   4.874
 5856SOL     OW18466   2.069   4.694   3.859
 5856SOL    HW118467   2.078   4.615   3.798
 5856SOL    HW218468   2.033   4.664   3.947
 5857SOL     OW18469   6.662   2.985   5.325
 5857SOL    HW118470   6.753   2.963   5.362
 5857SOL    HW218471   6.641   2.921   5.251
 5858SOL     OW18472   4.008   0.828   2.514
 5858SOL    HW118473   4.078   0.873   2.569
 5858SOL    HW218474   3.959   0.896   2.460
 5859SOL     OW18475   6.202   6.765   0.916
 5859SOL    HW118476   6.249   6.688   0.872
 5859SOL    HW218477   6.119   6.787   0.864
 5860SOL     OW18478   1.606   3.633   1.253
 5860SOL    HW118479   1.679   3.566   1.266
 5860SOL    HW218480   1.518   3.586   1.245
 5861SOL     OW18481   6.308   2.563   4.185
 5861SOL    HW118482   6.209   2.547   4.177
 5861SOL    HW218483   6.335   2.637   4.124
 5862SOL     OW18484   4.667   4.221   2.950
 5862SOL    HW118485   4.665   4.209   3.049
 5862SOL    HW218486   4.613   4.301   2.925
 5863SOL     OW18487   2.208   1.444   6.945
 5863SOL    HW118488   2.209   1.373   6.874
 5863SOL    HW218489   2.215   1.401   0.015
 5864SOL     OW18490   4.792   4.821   1.200
 5864SOL    HW118491   4.789   4.733   1.247
 5864SOL    HW218492   4.784   4.806   1.101
 5865SOL     OW18493   4.255   0.683   3.118
 5865SOL    HW118494   4.218   0.593   3.095
 5865SOL    HW218495   4.316   0.713   3.044
 5866SOL     OW18496   4.225   0.256   6.538
 5866SOL    HW118497   4.262   0.347   6.520
 5866SOL    HW218498   4.270   0.189   6.479
 5867SOL     OW18499   0.240   2.800   1.594
 5867SOL    HW118500   0.195   2.798   1.504
 5867SOL    HW218501   0.198   2.730   1.653
 5868SOL     OW18502   1.723   6.857   5.303
 5868SOL    HW118503   1.765   6.767   5.303
 5868SOL    HW218504   1.775   6.919   5.244
 5869SOL     OW18505   2.701   4.701   3.626
 5869SOL    HW118506   2.658   4.704   3.535
 5869SOL    HW218507   2.651   4.636   3.684
 5870SOL     OW18508   5.295   5.064   5.115
 5870SOL    HW118509   5.273   5.032   5.207
 5870SOL    HW218510   5.248   5.007   5.048
 5871SOL     OW18511   2.833   3.313   6.898
 5871SOL    HW118512   2.756   3.363   6.859
 5871SOL    HW218513   2.820   3.305   6.997
 5872SOL     OW18514   3.246   5.987   5.311
 5872SOL    HW118515   3.154   5.999   5.276
 5872SOL    HW218516   3.269   6.063   5.371
 5873SOL     OW18517   2.739   3.648   7.001
 5873SOL    HW118518   2.708   3.742   7.009
 5873SOL    HW218519   2.691   3.590   0.047
 5874SOL     OW18520   1.715   4.249   0.908
 5874SOL    HW118521   1.693   4.183   0.979
 5874SOL    HW218522   1.756   4.201   0.830
 5875SOL     OW18523   4.325   1.931   0.162
 5875SOL    HW118524   4.242   1.972   0.124
 5875SOL    HW218525   4.314   1.920   0.260
 5876SOL     OW18526   3.252   4.463   5.727
 5876SOL    HW118527   3.328   4.502   5.779
 5876SOL    HW218528   3.230   4.372   5.762
 5877SOL     OW18529   0.342   6.962   2.861
 5877SOL    HW118530   0.273   7.007   2.803
 5877SOL    HW218531   0.402   0.011   2.899
 5878SOL     OW18532   5.063   4.538   2.659
 5878SOL    HW118533   4.984   4.553   2.718
 5878SOL    HW218534   5.036   4.487   2.578
 5879SOL     OW18535   3.538   3.494   6.078
 5879SOL    HW118536   3.440   3.509   6.092
 5879SOL    HW218537   3.561   3.508   5.982
 5880SOL     OW18538   5.221   2.467   5.624
 5880SOL    HW118539   5.217   2.469   5.524
 5880SOL    HW218540   5.153   2.530   5.661
 5881SOL     OW18541   1.374   6.195   2.109
 5881SOL    HW118542   1.327   6.283   2.113
 5881SOL    HW218543   1.339   6.135   2.182
 5882SOL     OW18544   1.510   5.229   5.561
 5882SOL    HW118545   1.563   5.216   5.645
 5882SOL    HW218546   1.475   5.141   5.531
 5883SOL     OW18547   6.741   4.669   0.713
 5883SOL    HW118548   6.780   4.638   0.800
 5883SOL    HW218549   6.745   4.768   0.708
 5884SOL     OW18550   6.273   2.241   3.194
 5884SOL    HW118551   6.339   2.294   3.140
 5884SOL    HW218552   6.214   2.304   3.246
 5885SOL     OW18553   6.573   5.747   0.161
 5885SOL    HW118554   6.488   5.714   0.201
 5885SOL    HW218555   6.642   5.755   0.233
 5886SOL     OW18556   1.902   4.281   3.684
 5886SOL    HW118557   1.842   4.344   3.732
 5886SOL    HW218558   1.898   4.191   3.727
 5887SOL     OW18559   2.299   2.793   0.992
 5887SOL    HW118560   2.387   2.817   0.950
 5887SOL    HW218561   2.248   2.733   0.930
 5888SOL     OW18562   3.230   6.958   1.102
 5888SOL    HW118563   3.246   6.879   1.043
 5888SOL    HW218564   3.317   6.987   1.142
 5889SOL     OW18565   5.885   0.728   2.065
 5889SOL    HW118566   5.978   0.708   2.097
 5889SOL    HW218567   5.889   0.753   1.968
 5890SOL     OW18568   1.940   5.686   2.562
 5890SOL    HW118569   1.861   5.688   2.624
 5890SOL    HW218570   2.005   5.617   2.593
 5891SOL     OW18571   2.111   3.322   0.272
 5891SOL    HW118572   2.074   3.265   0.198
 5891SOL    HW218573   2.062   3.409   0.275
 5892SOL     OW18574   1.131   3.438   0.639
 5892SOL    HW118575   1.121   3.463   0.736
 5892SOL    HW218576   1.072   3.496   0.584
 5893SOL     OW18577   0.856   6.206   1.139
 5893SOL    HW118578   0.888   6.182   1.230
 5893SOL    HW218579   0.756   6.208   1.139
 5894SOL     OW18580   2.558   5.401   6.831
 5894SOL    HW118581   2.549   5.370   6.925
 5894SOL    HW218582   2.588   5.325   6.773
 5895SOL     OW18583   5.332   3.998   4.190
 5895SOL    HW118584   5.257   4.046   4.143
 5895SOL    HW218585   5.417   4.013   4.140
 5896SOL     OW18586   5.686   2.577   2.253
 5896SOL    HW118587   5.733   2.489   2.257
 5896SOL    HW218588   5.588   2.562   2.240
 5897SOL     OW18589   3.941   2.650   0.114
 5897SOL    HW118590   3.979   2.663   0.205
 5897SOL    HW218591   3.870   2.719   0.098
 5898SOL     OW18592   2.092   1.343   5.612
 5898SOL    HW118593   1.998   1.340   5.578
 5898SOL    HW218594   2.106   1.271   5.679
 5899SOL     OW18595   6.983   6.300   6.387
 5899SOL    HW118596   6.914   6.349   6.440
 5899SOL    HW218597   0.049   6.350   6.390
 5900SOL     OW18598   5.745   6.424   3.078
 5900SOL    HW118599   5.737   6.512   3.125
 5900SOL    HW218600   5.723   6.350   3.142
 5901SOL     OW18601   2.347   0.724   5.160
 5901SOL    HW118602   2.400   0.659   5.105
 5901SOL    HW218603   2.372   0.817   5.134
 5902SOL     OW18604   4.610   3.940   6.137
 5902SOL    HW118605   4.613   3.840   6.130
 5902SOL    HW218606   4.516   3.971   6.121
 5903SOL     OW18607   6.121   2.082   5.771
 5903SOL    HW118608   6.166   2.015   5.832
 5903SOL    HW218609   6.119   2.171   5.816
 5904SOL     OW18610   1.383   4.238   1.839
 5904SOL    HW118611   1.363   4.214   1.935
 5904SOL    HW218612   1.472   4.201   1.814
 5905SOL     OW18613   5.552   0.969   4.543
 5905SOL    HW118614   5.501   0.947   4.626
 5905SOL    HW218615   5.616   0.895   4.522
 5906SOL     OW18616   5.074   1.083   5.668
 5906SOL    HW118617   5.041   1.104   5.576
 5906SOL    HW218618   5.042   1.153   5.732
 5907SOL     OW18619   1.784   3.740   5.623
 5907SOL    HW118620   1.741   3.650   5.622
 5907SOL    HW218621   1.742   3.798   5.553
 5908SOL     OW18622   5.560   3.333   6.369
 5908SOL    HW118623   5.537   3.427   6.390
 5908SOL    HW218624   5.478   3.276   6.376
 5909SOL     OW18625   6.401   4.737   3.742
 5909SOL    HW118626   6.357   4.649   3.728
 5909SOL    HW218627   6.413   4.783   3.653
 5910SOL     OW18628   2.753   4.599   1.002
 5910SOL    HW118629   2.665   4.604   1.049
 5910SOL    HW218630   2.759   4.514   0.949
 5911SOL     OW18631   5.147   6.795   0.120
 5911SOL    HW118632   5.165   6.719   0.181
 5911SOL    HW218633   5.234   6.834   0.088
 5912SOL     OW18634   6.855   3.227   6.232
 5912SOL    HW118635   6.934   3.263   6.182
 5912SOL    HW218636   6.828   3.139   6.192
 5913SOL     OW18637   1.222   1.969   5.295
 5913SOL    HW118638   1.192   1.897   5.357
 5913SOL    HW218639   1.160   1.972   5.216
 5914SOL     OW18640   1.988   6.035   1.204
 5914SOL    HW118641   1.906   5.996   1.161
 5914SOL    HW218642   1.969   6.052   1.301
 5915SOL     OW18643   4.898   3.287   2.926
 5915SOL    HW118644   4.881   3.275   2.828
 5915SOL    HW218645   4.894   3.198   2.972
 5916SOL     OW18646   2.885   0.075   6.131
 5916SOL    HW118647   2.961   0.119   6.179
 5916SOL    HW218648   2.879   0.111   6.038
 5917SOL     OW18649   3.837   2.962   2.720
 5917SOL    HW118650   3.741   2.938   2.702
 5917SOL    HW218651   3.894   2.931   2.644
 5918SOL     OW18652   2.273   2.934   4.044
 5918SOL    HW118653   2.290   2.969   4.136
 5918SOL    HW218654   2.175   2.922   4.030
 5919SOL     OW18655   1.173   2.993   0.259
 5919SOL    HW118656   1.111   3.066   0.232
 5919SOL    HW218657   1.197   3.003   0.355
 5920SOL     OW18658   3.188   5.614   6.890
 5920SOL    HW118659   3.188   5.519   6.858
 5920SOL    HW218660   3.205   5.675   6.813
 5921SOL     OW18661   4.030   5.557   5.155
 5921SOL    HW118662   4.021   5.485   5.087
 5921SOL    HW218663   3.987   5.641   5.121
 5922SOL     OW18664   5.590   4.216   2.052
 5922SOL    HW118665   5.498   4.191   2.022
 5922SOL    HW218666   5.654   4.205   1.976
 5923SOL     OW18667   0.122   6.921   3.412
 5923SOL    HW118668   0.119   6.999   3.350
 5923SOL    HW218669   0.144   6.838   3.361
 5924SOL     OW18670   5.419   2.273   4.336
 5924SOL    HW118671   5.364   2.305   4.259
 5924SOL    HW218672   5.370   2.290   4.421
 5925SOL     OW18673   6.408   6.013   0.946
 5925SOL    HW118674   6.501   5.981   0.967
 5925SOL    HW218675   6.383   5.984   0.854
 5926SOL     OW18676   3.686   5.092   1.960
 5926SOL    HW118677   3.707   5.151   2.038
 5926SOL    HW218678   3.608   5.034   1.982
 5927SOL     OW18679   2.369   5.483   1.846
 5927SOL    HW118680   2.452   5.518   1.803
 5927SOL    HW218681   2.295   5.480   1.779
 5928SOL     OW18682   1.193   6.652   1.732
 5928SOL    HW118683   1.241   6.721   1.678
 5928SOL    HW218684   1.248   6.628   1.812
 5929SOL     OW18685   1.759   0.003   5.535
 5929SOL    HW118686   1.670   0.031   5.572
 5929SOL    HW218687   1.745   6.977   5.448
 5930SOL     OW18688   7.015   1.751   5.141
 5930SOL    HW118689   6.932   1.697   5.122
 5930SOL    HW218690   0.043   1.710   5.219
 5931SOL     OW18691   5.852   5.286   1.357
 5931SOL    HW118692   5.931   5.342   1.380
 5931SOL    HW218693   5.879   5.213   1.294
 5932SOL     OW18694   2.225   6.356   0.209
 5932SOL    HW118695   2.165   6.391   0.280
 5932SOL    HW218696   2.258   6.265   0.235
 5933SOL     OW18697   6.256   3.695   3.117
 5933SOL    HW118698   6.336   3.706   3.176
 5933SOL    HW218699   6.182   3.652   3.169
 5934SOL     OW18700   4.037   3.864   3.281
 5934SOL    HW118701   4.083   3.812   3.209
 5934SOL    HW218702   3.965   3.920   3.241
 5935SOL     OW18703   3.386   3.117   3.348
 5935SOL    HW118704   3.472   3.156   3.381
 5935SOL    HW218705   3.310   3.170   3.386
 5936SOL     OW18706   5.920   5.728   6.514
 5936SOL    HW118707   5.984   5.785   6.566
 5936SOL    HW218708   5.865   5.786   6.454
 5937SOL     OW18709   1.278   3.648   1.068
 5937SOL    HW118710   1.206   3.580   1.057
 5937SOL    HW218711   1.240   3.732   1.107
 5938SOL     OW18712   2.087   4.044   1.502
 5938SOL    HW118713   2.120   4.102   1.577
 5938SOL    HW218714   2.154   3.972   1.485
 5939SOL     OW18715   2.813   0.800   3.319
 5939SOL    HW118716   2.807   0.866   3.244
 5939SOL    HW218717   2.908   0.788   3.346
 5940SOL     OW18718   4.403   5.520   3.634
 5940SOL    HW118719   4.399   5.619   3.625
 5940SOL    HW218720   4.328   5.488   3.692
 5941SOL     OW18721   6.441   4.441   2.620
 5941SOL    HW118722   6.442   4.362   2.559
 5941SOL    HW218723   6.523   4.439   2.679
 5942SOL     OW18724   5.700   1.951   5.652
 5942SOL    HW118725   5.614   1.917   5.613
 5942SOL    HW218726   5.699   1.938   5.751
 5943SOL     OW18727   1.436   5.892   6.920
 5943SOL    HW118728   1.375   5.925   6.992
 5943SOL    HW218729   1.499   5.824   6.958
 5944SOL     OW18730   4.383   2.075   2.602
 5944SOL    HW118731   4.318   2.033   2.539
 5944SOL    HW218732   4.463   2.108   2.552
 5945SOL     OW18733   0.045   4.680   5.553
 5945SOL    HW118734   0.130   4.720   5.520
 5945SOL    HW218735   0.063   4.625   5.634
 5946SOL     OW18736   3.846   3.002   5.483
 5946SOL    HW118737   3.780   2.960   5.421
 5946SOL    HW218738   3.828   2.972   5.577
 5947SOL     OW18739   4.185   3.545   1.633
 5947SOL    HW118740   4.155   3.513   1.723
 5947SOL    HW218741   4.115   3.523   1.565
 5948SOL     OW18742   3.876   4.927   2.634
 5948SOL    HW118743   3.885   4.992   2.710
 5948SOL    HW218744   3.779   4.914   2.615
 5949SOL     OW18745   4.454   4.763   2.073
 5949SOL    HW118746   4.372   4.767   2.016
 5949SOL    HW218747   4.498   4.674   2.063
 5950SOL     OW18748   6.314   2.477   3.825
 5950SOL    HW118749   6.322   2.567   3.867
 5950SOL    HW218750   6.347   2.481   3.731
 5951SOL     OW18751   2.066   5.676   3.510
 5951SOL    HW118752   2.063   5.736   3.431
 5951SOL    HW218753   2.149   5.695   3.563
 5952SOL     OW18754   6.812   6.810   4.777
 5952SOL    HW118755   6.763   6.798   4.691
 5952SOL    HW218756   6.784   6.739   4.841
 5953SOL     OW18757   0.546   2.988   6.500
 5953SOL    HW118758   0.538   3.082   6.465
 5953SOL    HW218759   0.580   2.928   6.427
 5954SOL     OW18760   0.800   5.159   6.957
 5954SOL    HW118761   0.880   5.152   6.896
 5954SOL    HW218762   0.718   5.132   6.907
 5955SOL     OW18763   5.303   5.925   2.373
 5955SOL    HW118764   5.400   5.906   2.360
 5955SOL    HW218765   5.258   5.845   2.411
 5956SOL     OW18766   6.292   2.337   6.919
 5956SOL    HW118767   6.201   2.373   6.938
 5956SOL    HW218768   6.332   2.302   7.004
 5957SOL     OW18769   5.369   6.891   6.056
 5957SOL    HW118770   5.386   6.848   5.968
 5957SOL    HW218771   5.407   6.834   6.129
 5958SOL     OW18772   0.572   5.343   2.014
 5958SOL    HW118773   0.651   5.295   2.052
 5958SOL    HW218774   0.491   5.323   2.069
 5959SOL     OW18775   2.097   1.512   6.029
 5959SOL    HW118776   2.078   1.534   5.934
 5959SOL    HW218777   2.196   1.504   6.042
 5960SOL     OW18778   3.543   0.463   4.556
 5960SOL    HW118779   3.610   0.413   4.611
 5960SOL    HW218780   3.588   0.537   4.508
 5961SOL     OW18781   3.013   0.823   6.080
 5961SOL    HW118782   2.995   0.900   6.019
 5961SOL    HW218783   3.053   0.856   6.165
 5962SOL     OW18784   5.639   5.279   2.462
 5962SOL    HW118785   5.719   5.242   2.415
 5962SOL    HW218786   5.611   5.365   2.418
 5963SOL     OW18787   4.102   3.729   2.122
 5963SOL    HW118788   4.124   3.649   2.178
 5963SOL    HW218789   4.187   3.771   2.090
 5964SOL     OW18790   1.530   4.704   5.790
 5964SOL    HW118791   1.488   4.711   5.699
 5964SOL    HW218792   1.603   4.636   5.787
 5965SOL     OW18793   2.533   1.694   4.679
 5965SOL    HW118794   2.615   1.745   4.650
 5965SOL    HW218795   2.544   1.664   4.774
 5966SOL     OW18796   1.590   6.562   3.789
 5966SOL    HW118797   1.651   6.524   3.720
 5966SOL    HW218798   1.640   6.625   3.848
 5967SOL     OW18799   4.923   6.983   2.247
 5967SOL    HW118800   4.912   6.926   2.328
 5967SOL    HW218801   4.979   0.042   2.269
 5968SOL     OW18802   0.405   2.184   4.344
 5968SOL    HW118803   0.316   2.199   4.389
 5968SOL    HW218804   0.417   2.251   4.271
 5969SOL     OW18805   5.791   2.940   2.651
 5969SOL    HW118806   5.813   2.845   2.630
 5969SOL    HW218807   5.757   2.986   2.569
 5970SOL     OW18808   1.746   2.516   3.381
 5970SOL    HW118809   1.842   2.523   3.353
 5970SOL    HW218810   1.738   2.538   3.478
 5971SOL     OW18811   2.468   0.191   2.415
 5971SOL    HW118812   2.374   0.225   2.408
 5971SOL    HW218813   2.504   0.174   2.324
 5972SOL     OW18814   4.709   6.252   1.359
 5972SOL    HW118815   4.661   6.334   1.328
 5972SOL    HW218816   4.797   6.245   1.311
 5973SOL     OW18817   1.229   4.725   3.520
 5973SOL    HW118818   1.183   4.791   3.580
 5973SOL    HW218819   1.163   4.655   3.492
 5974SOL     OW18820   0.761   3.738   5.980
 5974SOL    HW118821   0.764   3.838   5.981
 5974SOL    HW218822   0.697   3.706   6.051
 5975SOL     OW18823   1.904   2.605   0.149
 5975SOL    HW118824   1.843   2.592   0.071
 5975SOL    HW218825   1.855   2.589   0.234
 5976SOL     OW18826   3.572   3.761   5.455
 5976SOL    HW118827   3.503   3.825   5.423
 5976SOL    HW218828   3.656   3.773   5.402
 5977SOL     OW18829   1.035   3.308   2.980
 5977SOL    HW118830   1.082   3.301   3.068
 5977SOL    HW218831   1.102   3.311   2.907
 5978SOL     OW18832   5.285   5.462   2.680
 5978SOL    HW118833   5.199   5.463   2.730
 5978SOL    HW218834   5.317   5.555   2.665
 5979SOL     OW18835   6.829   0.707   3.036
 5979SOL    HW118836   6.824   0.801   3.070
 5979SOL    HW218837   6.761   0.694   2.965
 5980SOL     OW18838   6.443   3.824   6.492
 5980SOL    HW118839   6.474   3.788   6.403
 5980SOL    HW218840   6.511   3.888   6.528
 5981SOL     OW18841   3.914   1.044   1.758
 5981SOL    HW118842   3.912   1.066   1.660
 5981SOL    HW218843   3.886   0.950   1.771
 5982SOL     OW18844   6.157   2.256   6.621
 5982SOL    HW118845   6.097   2.316   6.569
 5982SOL    HW218846   6.113   2.232   6.707
 5983SOL     OW18847   0.928   0.951   4.649
 5983SOL    HW118848   0.994   0.979   4.719
 5983SOL    HW218849   0.949   0.995   4.562
 5984SOL     OW18850   6.915   0.227   5.536
 5984SOL    HW118851   6.936   0.181   5.450
 5984SOL    HW218852   6.981   0.300   5.552
 5985SOL     OW18853   4.567   2.571   4.232
 5985SOL    HW118854   4.486   2.540   4.282
 5985SOL    HW218855   4.622   2.630   4.291
 5986SOL     OW18856   3.139   2.938   2.335
 5986SOL    HW118857   3.123   2.904   2.243
 5986SOL    HW218858   3.115   3.035   2.339
 5987SOL     OW18859   4.065   6.900   5.454
 5987SOL    HW118860   4.150   6.896   5.402
 5987SOL    HW218861   4.070   6.975   5.520
 5988SOL     OW18862   4.158   1.127   4.042
 5988SOL    HW118863   4.140   1.137   4.140
 5988SOL    HW218864   4.196   1.036   4.025
 5989SOL     OW18865   2.840   0.801   6.329
 5989SOL    HW118866   2.895   0.881   6.306
 5989SOL    HW218867   2.782   0.776   6.251
 5990SOL     OW18868   2.999   4.794   1.825
 5990SOL    HW118869   2.926   4.765   1.887
 5990SOL    HW218870   3.024   4.718   1.765
 5991SOL     OW18871   2.865   5.284   3.739
 5991SOL    HW118872   2.776   5.239   3.732
 5991SOL    HW218873   2.855   5.369   3.789
 5992SOL     OW18874   4.498   0.570   3.936
 5992SOL    HW118875   4.425   0.519   3.891
 5992SOL    HW218876   4.468   0.664   3.952
 5993SOL     OW18877   3.613   5.537   4.547
 5993SOL    HW118878   3.708   5.507   4.537
 5993SOL    HW218879   3.598   5.568   4.641
 5994SOL     OW18880   0.011   2.499   1.959
 5994SOL    HW118881   0.068   2.563   1.907
 5994SOL    HW218882   0.059   2.412   1.970
 5995SOL     OW18883   0.207   4.241   1.435
 5995SOL    HW118884   0.131   4.191   1.477
 5995SOL    HW218885   0.173   4.293   1.357
 5996SOL     OW18886   0.683   5.182   6.191
 5996SOL    HW118887   0.760   5.239   6.162
 5996SOL    HW218888   0.603   5.240   6.208
 5997SOL     OW18889   0.720   6.988   2.135
 5997SOL    HW118890   0.623   7.010   2.145
 5997SOL    HW218891   0.763   6.984   2.225
 5998SOL     OW18892   4.650   2.139   3.199
 5998SOL    HW118893   4.744   2.130   3.166
 5998SOL    HW218894   4.615   2.049   3.224
 5999SOL     OW18895   1.531   1.505   2.500
 5999SOL    HW118896   1.621   1.487   2.540
 5999SOL    HW218897   1.479   1.565   2.561
 6000SOL     OW18898   4.523   6.466   2.515
 6000SOL    HW118899   4.518   6.419   2.603
 6000SOL    HW218900   4.430   6.484   2.482
 6001SOL     OW18901   6.184   2.065   0.056
 6001SOL    HW118902   6.120   2.109   0.120
 6001SOL    HW218903   6.188   2.119   6.992
 6002SOL     OW18904   1.814   0.434   1.861
 6002SOL    HW118905   1.913   0.444   1.855
 6002SOL    HW218906   1.772   0.458   1.774
 6003SOL     OW18907   4.635   4.332   4.131
 6003SOL    HW118908   4.696   4.268   4.084
 6003SOL    HW218909   4.579   4.381   4.064
 6004SOL     OW18910   6.917   3.701   2.416
 6004SOL    HW118911   6.897   3.747   2.503
 6004SOL    HW218912   6.854   3.735   2.346
 6005SOL     OW18913   3.039   6.138   2.500
 6005SOL    HW118914   3.107   6.076   2.538
 6005SOL    HW218915   2.977   6.167   2.573
 6006SOL     OW18916   2.448   6.094   6.870
 6006SOL    HW118917   2.547   6.101   6.865
 6006SOL    HW218918   2.423   6.015   6.926
 6007SOL     OW18919   5.522   2.526   3.816
 6007SOL    HW118920   5.567   2.583   3.747
 6007SOL    HW218921   5.562   2.544   3.906
 6008SOL     OW18922   3.572   4.400   6.789
 6008SOL    HW118923   3.549   4.484   6.837
 6008SOL    HW218924   3.506   4.328   6.813
 6009SOL     OW18925   3.166   2.050   4.624
 6009SOL    HW118926   3.149   1.969   4.680
 6009SOL    HW218927   3.080   2.098   4.608
 6010SOL     OW18928   1.672   2.721   3.184
 6010SOL    HW118929   1.742   2.792   3.174
 6010SOL    HW218930   1.701   2.654   3.252
 6011SOL     OW18931   6.487   3.235   2.962
 6011SOL    HW118932   6.455   3.141   2.953
 6011SOL    HW218933   6.428   3.285   3.025
 6012SOL     OW18934   6.880   3.266   0.772
 6012SOL    HW118935   6.865   3.358   0.809
 6012SOL    HW218936   6.848   3.263   0.677
 6013SOL     OW18937   5.742   1.640   2.605
 6013SOL    HW118938   5.740   1.657   2.506
 6013SOL    HW218939   5.805   1.564   2.624
 6014SOL     OW18940   5.664   0.123   1.106
 6014SOL    HW118941   5.676   0.177   1.022
 6014SOL    HW218942   5.567   0.100   1.117
 6015SOL     OW18943   5.007   1.783   4.529
 6015SOL    HW118944   4.918   1.747   4.554
 6015SOL    HW218945   5.003   1.883   4.527
 6016SOL     OW18946   2.061   6.841   5.177
 6016SOL    HW118947   2.012   6.926   5.192
 6016SOL    HW218948   2.033   6.801   5.090
 6017SOL     OW18949   6.831   4.698   2.497
 6017SOL    HW118950   6.831   4.719   2.594
 6017SOL    HW218951   6.875   4.611   2.481
 6018SOL     OW18952   2.486   4.851   0.918
 6018SOL    HW118953   2.492   4.935   0.864
 6018SOL    HW218954   2.506   4.773   0.859
 6019SOL     OW18955   4.411   6.730   4.081
 6019SOL    HW118956   4.348   6.790   4.130
 6019SOL    HW218957   4.428   6.768   3.990
 6020SOL     OW18958   3.530   0.531   2.878
 6020SOL    HW118959   3.543   0.571   2.787
 6020SOL    HW218960   3.436   0.498   2.887
 6021SOL     OW18961   4.222   1.022   2.620
 6021SOL    HW118962   4.231   1.032   2.719
 6021SOL    HW218963   4.286   1.083   2.574
 6022SOL     OW18964   4.355   1.942   5.185
 6022SOL    HW118965   4.354   2.023   5.126
 6022SOL    HW218966   4.289   1.875   5.151
 6023SOL     OW18967   6.801   1.723   2.586
 6023SOL    HW118968   6.885   1.696   2.539
 6023SOL    HW218969   6.748   1.641   2.609
 6024SOL     OW18970   0.897   4.789   2.562
 6024SOL    HW118971   0.957   4.833   2.628
 6024SOL    HW218972   0.877   4.852   2.487
 6025SOL     OW18973   4.323   1.974   1.546
 6025SOL    HW118974   4.315   1.981   1.446
 6025SOL    HW218975   4.300   1.882   1.575
 6026SOL     OW18976   0.686   4.810   5.254
 6026SOL    HW118977   0.601   4.818   5.306
 6026SOL    HW218978   0.695   4.888   5.192
 6027SOL     OW18979   2.783   3.256   0.536
 6027SOL    HW118980   2.822   3.275   0.626
 6027SOL    HW218981   2.710   3.321   0.516
 6028SOL     OW18982   1.759   3.810   0.217
 6028SOL    HW118983   1.758   3.875   0.140
 6028SOL    HW218984   1.735   3.719   0.184
 6029SOL     OW18985   1.648   5.013   1.252
 6029SOL    HW118986   1.693   4.935   1.294
 6029SOL    HW218987   1.628   4.993   1.156
 6030SOL     OW18988   2.085   0.548   0.706
 6030SOL    HW118989   2.094   0.576   0.802
 6030SOL    HW218990   2.146   0.471   0.688
 6031SOL     OW18991   5.365   7.008   5.306
 6031SOL    HW118992   5.321   0.000   5.394
 6031SOL    HW218993   5.302   0.014   5.233
 6032SOL     OW18994   0.425   3.143   2.618
 6032SOL    HW118995   0.442   3.196   2.701
 6032SOL    HW218996   0.509   3.136   2.564
 6033SOL     OW18997   1.318   0.172   4.419
 6033SOL    HW118998   1.391   0.196   4.355
 6033SOL    HW218999   1.314   0.073   4.430
 6034SOL     OW19000   2.042   4.077   5.082
 6034SOL    HW119001   2.141   4.069   5.081
 6034SOL    HW219002   2.000   3.988   5.067
 6035SOL     OW19003   6.134   0.776   4.244
 6035SOL    HW119004   6.113   0.757   4.148
 6035SOL    HW219005   6.062   0.835   4.282
 6036SOL     OW19006   0.216   0.930   4.582
 6036SOL    HW119007   0.293   0.981   4.620
 6036SOL    HW219008   0.251   0.853   4.528
 6037SOL     OW19009   6.809   4.859   4.858
 6037SOL    HW119010   6.712   4.865   4.833
 6037SOL    HW219011   6.821   4.889   4.953
 6038SOL     OW19012   4.836   3.891   6.326
 6038SOL    HW119013   4.931   3.922   6.320
 6038SOL    HW219014   4.791   3.904   6.237
 6039SOL     OW19015   3.617   3.924   3.185
 6039SOL    HW119016   3.533   3.975   3.162
 6039SOL    HW219017   3.616   3.900   3.282
 6040SOL     OW19018   0.482   1.838   0.034
 6040SOL    HW119019   0.505   1.819   0.130
 6040SOL    HW219020   0.511   1.930   0.011
 6041SOL     OW19021   0.634   2.579   0.235
 6041SOL    HW119022   0.705   2.605   0.300
 6041SOL    HW219023   0.589   2.661   0.200
 6042SOL     OW19024   5.377   5.288   3.910
 6042SOL    HW119025   5.463   5.267   3.865
 6042SOL    HW219026   5.361   5.222   3.984
 6043SOL     OW19027   0.536   4.771   3.907
 6043SOL    HW119028   0.487   4.702   3.854
 6043SOL    HW219029   0.469   4.828   3.956
 6044SOL     OW19030   0.964   0.344   1.630
 6044SOL    HW119031   0.933   0.381   1.543
 6044SOL    HW219032   0.981   0.418   1.695
 6045SOL     OW19033   0.415   4.100   1.288
 6045SOL    HW119034   0.479   4.043   1.340
 6045SOL    HW219035   0.352   4.145   1.352
 6046SOL     OW19036   2.543   2.885   0.420
 6046SOL    HW119037   2.632   2.928   0.428
 6046SOL    HW219038   2.537   2.808   0.484
 6047SOL     OW19039   0.093   6.482   4.980
 6047SOL    HW119040   0.157   6.406   4.994
 6047SOL    HW219041   0.102   6.547   5.056
 6048SOL     OW19042   4.688   6.786   4.943
 6048SOL    HW119043   4.750   6.845   4.892
 6048SOL    HW219044   4.594   6.800   4.912
 6049SOL     OW19045   6.198   5.240   1.398
 6049SOL    HW119046   6.297   5.248   1.382
 6049SOL    HW219047   6.167   5.149   1.371
 6050SOL     OW19048   4.955   4.278   5.516
 6050SOL    HW119049   4.982   4.325   5.431
 6050SOL    HW219050   4.863   4.306   5.541
 6051SOL     OW19051   1.909   2.197   3.109
 6051SOL    HW119052   1.965   2.174   3.030
 6051SOL    HW219053   1.872   2.114   3.149
 6052SOL     OW19054   6.682   1.267   0.278
 6052SOL    HW119055   6.642   1.194   0.222
 6052SOL    HW219056   6.758   1.310   0.229
 6053SOL     OW19057   2.258   0.069   6.585
 6053SOL    HW119058   2.254   0.160   6.627
 6053SOL    HW219059   2.308   0.074   6.499
 6054SOL     OW19060   2.506   5.012   0.242
 6054SOL    HW119061   2.595   4.977   0.272
 6054SOL    HW219062   2.449   5.031   0.322
 6055SOL     OW19063   5.095   0.224   4.302
 6055SOL    HW119064   5.044   0.303   4.268
 6055SOL    HW219065   5.112   0.236   4.400
 6056SOL     OW19066   4.688   2.788   6.261
 6056SOL    HW119067   4.677   2.689   6.262
 6056SOL    HW219068   4.598   2.832   6.271
 6057SOL     OW19069   3.702   0.825   6.127
 6057SOL    HW119070   3.771   0.757   6.150
 6057SOL    HW219071   3.738   0.916   6.141
 6058SOL     OW19072   5.395   1.865   4.366
 6058SOL    HW119073   5.387   1.790   4.431
 6058SOL    HW219074   5.449   1.836   4.287
 6059SOL     OW19075   7.017   5.252   6.265
 6059SOL    HW119076   6.961   5.193   6.208
 6059SOL    HW219077   0.070   5.291   6.210
 6060SOL     OW19078   3.920   6.444   6.017
 6060SOL    HW119079   4.008   6.487   6.039
 6060SOL    HW219080   3.934   6.346   6.003
 6061SOL     OW19081   2.413   2.055   6.303
 6061SOL    HW119082   2.377   1.965   6.327
 6061SOL    HW219083   2.452   2.098   6.385
 6062SOL     OW19084   2.412   0.532   4.357
 6062SOL    HW119085   2.326   0.558   4.402
 6062SOL    HW219086   2.465   0.614   4.337
 6063SOL     OW19087   4.130   0.087   0.239
 6063SOL    HW119088   4.073   0.119   0.314
 6063SOL    HW219089   4.151   7.011   0.253
 6064SOL     OW19090   1.026   6.217   3.327
 6064SOL    HW119091   1.119   6.209   3.293
 6064SOL    HW219092   0.998   6.313   3.329
 6065SOL     OW19093   6.943   0.520   0.763
 6065SOL    HW119094   6.894   0.526   0.676
 6065SOL    HW219095   6.993   0.433   0.767
 6066SOL     OW19096   4.383   2.608   6.885
 6066SOL    HW119097   4.299   2.597   6.939
 6066SOL    HW219098   4.373   2.562   6.797
 6067SOL     OW19099   5.882   2.482   6.703
 6067SOL    HW119100   5.923   2.485   6.794
 6067SOL    HW219101   5.788   2.448   6.710
 6068SOL     OW19102   4.714   2.622   5.131
 6068SOL    HW119103   4.623   2.593   5.100
 6068SOL    HW219104   4.720   2.615   5.230
 6069SOL     OW19105   6.173   3.907   4.130
 6069SOL    HW119106   6.133   3.825   4.171
 6069SOL    HW219107   6.178   3.980   4.198
 6070SOL     OW19108   3.633   2.000   6.404
 6070SOL    HW119109   3.731   2.017   6.409
 6070SOL    HW219110   3.606   1.934   6.473
 6071SOL     OW19111   4.614   6.096   5.048
 6071SOL    HW119112   4.517   6.116   5.052
 6071SOL    HW219113   4.661   6.141   5.124
 6072SOL     OW19114   0.003   2.081   0.751
 6072SOL    HW119115   7.001   2.169   0.791
 6072SOL    HW219116   6.955   2.057   0.682
 6073SOL     OW19117   6.766   2.466   1.374
 6073SOL    HW119118   6.821   2.384   1.381
 6073SOL    HW219119   6.675   2.443   1.339
 6074SOL     OW19120   0.535   6.882   4.447
 6074SOL    HW119121   0.453   6.826   4.435
 6074SOL    HW219122   0.510   6.979   4.446
 6075SOL     OW19123   5.416   4.244   6.812
 6075SOL    HW119124   5.446   4.245   6.908
 6075SOL    HW219125   5.460   4.167   6.764
 6076SOL     OW19126   2.406   6.374   3.539
 6076SOL    HW119127   2.504   6.364   3.521
 6076SOL    HW219128   2.372   6.455   3.491
 6077SOL     OW19129   5.925   5.886   2.029
 6077SOL    HW119130   5.834   5.923   2.010
 6077SOL    HW219131   5.973   5.948   2.092
 6078SOL     OW19132   2.591   4.657   3.365
 6078SOL    HW119133   2.623   4.658   3.270
 6078SOL    HW219134   2.543   4.571   3.384
 6079SOL     OW19135   2.312   1.207   0.341
 6079SOL    HW119136   2.327   1.216   0.439
 6079SOL    HW219137   2.317   1.110   0.316
 6080SOL     OW19138   5.887   2.104   2.305
 6080SOL    HW119139   5.942   2.186   2.322
 6080SOL    HW219140   5.798   2.130   2.269
 6081SOL     OW19141   0.430   4.344   3.229
 6081SOL    HW119142   0.394   4.264   3.278
 6081SOL    HW219143   0.489   4.313   3.155
 6082SOL     OW19144   3.838   1.526   4.357
 6082SOL    HW119145   3.850   1.542   4.259
 6082SOL    HW219146   3.765   1.584   4.392
 6083SOL     OW19147   1.981   6.803   0.298
 6083SOL    HW119148   1.945   6.771   0.211
 6083SOL    HW219149   1.940   6.892   0.321
 6084SOL     OW19150   0.962   5.137   5.751
 6084SOL    HW119151   0.867   5.122   5.722
 6084SOL    HW219152   1.006   5.204   5.691
 6085SOL     OW19153   4.516   4.015   1.439
 6085SOL    HW119154   4.504   4.058   1.529
 6085SOL    HW219155   4.503   3.917   1.447
 6086SOL     OW19156   2.603   1.684   3.369
 6086SOL    HW119157   2.663   1.713   3.444
 6086SOL    HW219158   2.632   1.595   3.335
 6087SOL     OW19159   4.590   6.506   0.090
 6087SOL    HW119160   4.531   6.582   0.067
 6087SOL    HW219161   4.540   6.420   0.079
 6088SOL     OW19162   0.164   6.913   4.756
 6088SOL    HW119163   0.100   6.960   4.817
 6088SOL    HW219164   0.158   6.954   4.665
 6089SOL     OW19165   0.361   2.915   0.335
 6089SOL    HW119166   0.309   2.927   0.250
 6089SOL    HW219167   0.364   3.002   0.384
 6090SOL     OW19168   0.277   5.747   4.187
 6090SOL    HW119169   0.371   5.775   4.173
 6090SOL    HW219170   0.260   5.733   4.285
 6091SOL     OW19171   5.806   2.281   1.486
 6091SOL    HW119172   5.727   2.251   1.433
 6091SOL    HW219173   5.777   2.347   1.555
 6092SOL     OW19174   1.926   2.626   1.295
 6092SOL    HW119175   1.994   2.665   1.233
 6092SOL    HW219176   1.945   2.657   1.389
 6093SOL     OW19177   1.242   3.054   1.342
 6093SOL    HW119178   1.304   3.121   1.381
 6093SOL    HW219179   1.275   2.962   1.363
 6094SOL     OW19180   1.032   1.044   0.790
 6094SOL    HW119181   1.120   1.052   0.744
 6094SOL    HW219182   1.044   1.058   0.888
 6095SOL     OW19183   0.088   3.988   5.533
 6095SOL    HW119184   0.147   4.028   5.603
 6095SOL    HW219185   0.015   3.935   5.578
 6096SOL     OW19186   4.206   1.876   2.999
 6096SOL    HW119187   4.114   1.838   2.987
 6096SOL    HW219188   4.212   1.964   2.952
 6097SOL     OW19189   2.802   2.106   1.779
 6097SOL    HW119190   2.862   2.183   1.761
 6097SOL    HW219191   2.766   2.112   1.872
 6098SOL     OW19192   1.871   1.583   5.510
 6098SOL    HW119193   1.795   1.648   5.506
 6098SOL    HW219194   1.836   1.491   5.527
 6099SOL     OW19195   6.016   5.262   4.793
 6099SOL    HW119196   6.104   5.260   4.840
 6099SOL    HW219197   5.949   5.211   4.848
 6100SOL     OW19198   6.202   3.002   0.326
 6100SOL    HW119199   6.172   2.968   0.237
 6100SOL    HW219200   6.194   2.929   0.394
 6101SOL     OW19201   5.930   1.605   4.604
 6101SOL    HW119202   5.947   1.639   4.511
 6101SOL    HW219203   5.857   1.536   4.602
 6102SOL     OW19204   3.268   0.451   5.225
 6102SOL    HW119205   3.281   0.405   5.314
 6102SOL    HW219206   3.339   0.419   5.162
 6103SOL     OW19207   6.143   0.463   6.018
 6103SOL    HW119208   6.153   0.464   5.919
 6103SOL    HW219209   6.180   0.378   6.055
 6104SOL     OW19210   1.632   2.838   0.383
 6104SOL    HW119211   1.569   2.864   0.310
 6104SOL    HW219212   1.594   2.866   0.471
 6105SOL     OW19213   3.458   5.594   4.112
 6105SOL    HW119214   3.477   5.634   4.202
 6105SOL    HW219215   3.540   5.547   4.079
 6106SOL     OW19216   3.164   5.747   4.807
 6106SOL    HW119217   3.250   5.739   4.757
 6106SOL    HW219218   3.176   5.813   4.882
 6107SOL     OW19219   2.296   4.720   5.272
 6107SOL    HW119220   2.328   4.813   5.290
 6107SOL    HW219221   2.279   4.673   5.359
 6108SOL     OW19222   0.133   1.937   4.458
 6108SOL    HW119223   0.164   1.991   4.536
 6108SOL    HW219224   0.143   1.990   4.374
 6109SOL     OW19225   6.452   4.381   1.722
 6109SOL    HW119226   6.477   4.474   1.750
 6109SOL    HW219227   6.535   4.324   1.720
 6110SOL     OW19228   3.331   2.096   4.409
 6110SOL    HW119229   3.269   2.072   4.484
 6110SOL    HW219230   3.426   2.090   4.441
 6111SOL     OW19231   0.918   5.002   2.950
 6111SOL    HW119232   0.911   4.918   3.003
 6111SOL    HW219233   0.841   5.062   2.972
 6112SOL     OW19234   0.583   1.559   2.630
 6112SOL    HW119235   0.542   1.633   2.682
 6112SOL    HW219236   0.648   1.597   2.563
 6113SOL     OW19237   1.494   5.800   5.281
 6113SOL    HW119238   1.457   5.796   5.374
 6113SOL    HW219239   1.439   5.864   5.226
 6114SOL     OW19240   5.364   5.348   0.685
 6114SOL    HW119241   5.458   5.343   0.651
 6114SOL    HW219242   5.363   5.386   0.777
 6115SOL     OW19243   5.914   4.677   2.737
 6115SOL    HW119244   5.895   4.598   2.796
 6115SOL    HW219245   5.977   4.649   2.664
 6116SOL     OW19246   3.921   1.121   1.499
 6116SOL    HW119247   3.955   1.209   1.532
 6116SOL    HW219248   3.928   1.117   1.400
 6117SOL     OW19249   5.401   7.014   4.371
 6117SOL    HW119250   5.386   6.973   4.461
 6117SOL    HW219251   5.318   7.007   4.317
 6118SOL     OW19252   5.776   0.376   3.034
 6118SOL    HW119253   5.777   0.422   3.123
 6118SOL    HW219254   5.731   0.287   3.043
 6119SOL     OW19255   6.353   5.137   3.789
 6119SOL    HW119256   6.448   5.107   3.799
 6119SOL    HW219257   6.304   5.121   3.875
 6120SOL     OW19258   2.862   1.104   2.849
 6120SOL    HW119259   2.827   1.181   2.796
 6120SOL    HW219260   2.786   1.045   2.876
 6121SOL     OW19261   6.698   2.318   4.682
 6121SOL    HW119262   6.755   2.381   4.734
 6121SOL    HW219263   6.702   2.227   4.724
 6122SOL     OW19264   4.813   5.538   3.218
 6122SOL    HW119265   4.800   5.595   3.299
 6122SOL    HW219266   4.806   5.595   3.136
 6123SOL     OW19267   6.405   1.392   2.493
 6123SOL    HW119268   6.410   1.353   2.401
 6123SOL    HW219269   6.322   1.358   2.539
 6124SOL     OW19270   3.145   0.221   5.824
 6124SOL    HW119271   3.153   0.313   5.785
 6124SOL    HW219272   3.236   0.182   5.834
 6125SOL     OW19273   1.835   5.321   1.896
 6125SOL    HW119274   1.890   5.279   1.824
 6125SOL    HW219275   1.894   5.344   1.974
 6126SOL     OW19276   5.336   5.446   2.328
 6126SOL    HW119277   5.291   5.359   2.348
 6126SOL    HW219278   5.273   5.521   2.350
 6127SOL     OW19279   1.968   4.548   1.659
 6127SOL    HW119280   1.940   4.470   1.604
 6127SOL    HW219281   2.030   4.606   1.606
 6128SOL     OW19282   5.072   2.603   1.270
 6128SOL    HW119283   5.035   2.657   1.345
 6128SOL    HW219284   4.999   2.549   1.228
 6129SOL     OW19285   5.944   4.441   4.151
 6129SOL    HW119286   5.893   4.497   4.085
 6129SOL    HW219287   5.957   4.492   4.235
 6130SOL     OW19288   5.352   3.872   2.439
 6130SOL    HW119289   5.426   3.931   2.406
 6130SOL    HW219290   5.264   3.918   2.428
 6131SOL     OW19291   6.761   0.806   4.997
 6131SOL    HW119292   6.840   0.746   4.989
 6131SOL    HW219293   6.792   0.902   4.995
 6132SOL     OW19294   6.457   2.701   0.273
 6132SOL    HW119295   6.461   2.728   0.177
 6132SOL    HW219296   6.374   2.737   0.315
 6133SOL     OW19297   1.569   4.012   0.460
 6133SOL    HW119298   1.514   3.958   0.397
 6133SOL    HW219299   1.574   4.107   0.427
 6134SOL     OW19300   4.783   2.965   6.894
 6134SOL    HW119301   4.868   2.965   6.947
 6134SOL    HW219302   4.708   2.932   6.951
 6135SOL     OW19303   5.469   0.203   1.449
 6135SOL    HW119304   5.436   0.297   1.449
 6135SOL    HW219305   5.485   0.173   1.355
 6136SOL     OW19306   6.997   1.571   1.552
 6136SOL    HW119307   7.018   1.488   1.603
 6136SOL    HW219308   6.954   1.547   1.465
 6137SOL     OW19309   2.732   6.804   5.752
 6137SOL    HW119310   2.670   6.784   5.676
 6137SOL    HW219311   2.687   6.865   5.817
 6138SOL     OW19312   4.796   0.238   2.972
 6138SOL    HW119313   4.768   0.308   2.907
 6138SOL    HW219314   4.823   0.155   2.922
 6139SOL     OW19315   1.636   4.518   4.191
 6139SOL    HW119316   1.672   4.434   4.231
 6139SOL    HW219317   1.682   4.535   4.103
 6140SOL     OW19318   2.111   6.642   1.040
 6140SOL    HW119319   2.203   6.612   1.066
 6140SOL    HW219320   2.110   6.742   1.032
 6141SOL     OW19321   6.207   6.484   5.833
 6141SOL    HW119322   6.252   6.566   5.796
 6141SOL    HW219323   6.160   6.436   5.759
 6142SOL     OW19324   0.868   4.813   3.144
 6142SOL    HW119325   0.794   4.821   3.212
 6142SOL    HW219326   0.951   4.781   3.189
 6143SOL     OW19327   6.708   4.492   6.401
 6143SOL    HW119328   6.805   4.501   6.422
 6143SOL    HW219329   6.661   4.578   6.419
 6144SOL     OW19330   6.831   5.353   3.785
 6144SOL    HW119331   6.771   5.342   3.864
 6144SOL    HW219332   6.919   5.309   3.805
 6145SOL     OW19333   5.146   5.762   3.249
 6145SOL    HW119334   5.222   5.779   3.186
 6145SOL    HW219335   5.059   5.765   3.199
 6146SOL     OW19336   5.472   1.085   3.212
 6146SOL    HW119337   5.515   1.169   3.245
 6146SOL    HW219338   5.473   1.017   3.285
 6147SOL     OW19339   1.694   3.473   3.130
 6147SOL    HW119340   1.645   3.412   3.192
 6147SOL    HW219341   1.691   3.566   3.165
 6148SOL     OW19342   6.375   5.948   3.678
 6148SOL    HW119343   6.312   5.930   3.753
 6148SOL    HW219344   6.392   6.047   3.672
 6149SOL     OW19345   1.996   6.280   3.615
 6149SOL    HW119346   2.044   6.194   3.597
 6149SOL    HW219347   1.955   6.313   3.530
 6150SOL     OW19348   4.414   5.346   6.020
 6150SOL    HW119349   4.394   5.261   6.070
 6150SOL    HW219350   4.484   5.398   6.070
 6151SOL     OW19351   4.499   1.447   5.733
 6151SOL    HW119352   4.452   1.509   5.670
 6151SOL    HW219353   4.476   1.473   5.827
 6152SOL     OW19354   6.967   4.610   6.457
 6152SOL    HW119355   6.982   4.655   6.545
 6152SOL    HW219356   0.034   4.596   6.411
 6153SOL     OW19357   4.915   3.452   0.405
 6153SOL    HW119358   4.904   3.533   0.462
 6153SOL    HW219359   4.993   3.399   0.438
 6154SOL     OW19360   5.301   3.191   2.628
 6154SOL    HW119361   5.215   3.138   2.623
 6154SOL    HW219362   5.375   3.131   2.658
 6155SOL     OW19363   1.295   3.598   4.136
 6155SOL    HW119364   1.270   3.691   4.164
 6155SOL    HW219365   1.278   3.587   4.038
 6156SOL     OW19366   6.650   0.363   3.593
 6156SOL    HW119367   6.602   0.441   3.554
 6156SOL    HW219368   6.606   0.336   3.679
 6157SOL     OW19369   1.839   1.704   3.335
 6157SOL    HW119370   1.896   1.767   3.386
 6157SOL    HW219371   1.895   1.630   3.298
 6158SOL     OW19372   4.334   0.800   0.369
 6158SOL    HW119373   4.253   0.853   0.394
 6158SOL    HW219374   4.383   0.772   0.452
 6159SOL     OW19375   5.068   3.313   6.890
 6159SOL    HW119376   4.974   3.343   6.875
 6159SOL    HW219377   5.125   3.342   6.813
 6160SOL     OW19378   6.552   5.151   2.168
 6160SOL    HW119379   6.457   5.130   2.146
 6160SOL    HW219380   6.556   5.224   2.237
 6161SOL     OW19381   5.524   0.524   6.500
 6161SOL    HW119382   5.436   0.541   6.543
 6161SOL    HW219383   5.511   0.480   6.411
 6162SOL     OW19384   5.871   5.398   3.901
 6162SOL    HW119385   5.819   5.436   3.824
 6162SOL    HW219386   5.809   5.383   3.978
 6163SOL     OW19387   6.942   4.063   2.159
 6163SOL    HW119388   7.008   4.136   2.179
 6163SOL    HW219389   6.990   3.977   2.145
 6164SOL     OW19390   4.031   2.690   0.368
 6164SOL    HW119391   3.970   2.767   0.384
 6164SOL    HW219392   4.081   2.668   0.452
 6165SOL     OW19393   4.382   6.367   0.668
 6165SOL    HW119394   4.340   6.291   0.717
 6165SOL    HW219395   4.452   6.410   0.725
 6166SOL     OW19396   3.623   1.718   6.879
 6166SOL    HW119397   3.621   1.802   6.932
 6166SOL    HW219398   3.622   1.740   6.781
 6167SOL     OW19399   6.754   4.844   3.618
 6167SOL    HW119400   6.666   4.837   3.571
 6167SOL    HW219401   6.796   4.753   3.625
 6168SOL     OW19402   1.056   2.286   1.792
 6168SOL    HW119403   1.069   2.295   1.891
 6168SOL    HW219404   1.007   2.366   1.757
 6169SOL     OW19405   1.884   3.888   2.247
 6169SOL    HW119406   1.873   3.869   2.344
 6169SOL    HW219407   1.979   3.871   2.220
 6170SOL     OW19408   0.023   2.525   4.055
 6170SOL    HW119409   0.095   2.517   4.124
 6170SOL    HW219410   7.012   2.619   4.051
 6171SOL     OW19411   6.813   0.707   6.221
 6171SOL    HW119412   6.750   0.784   6.233
 6171SOL    HW219413   6.898   0.740   6.180
 6172SOL     OW19414   1.046   4.367   3.722
 6172SOL    HW119415   0.949   4.353   3.741
 6172SOL    HW219416   1.076   4.452   3.766
 6173SOL     OW19417   5.620   5.994   3.119
 6173SOL    HW119418   5.701   5.962   3.069
 6173SOL    HW219419   5.575   5.916   3.163
 6174SOL     OW19420   6.336   3.176   1.958
 6174SOL    HW119421   6.434   3.158   1.959
 6174SOL    HW219422   6.318   3.263   2.004
 6175SOL     OW19423   3.029   2.150   5.939
 6175SOL    HW119424   2.949   2.198   5.905
 6175SOL    HW219425   3.001   2.084   6.009
 6176SOL     OW19426   4.116   4.304   6.176
 6176SOL    HW119427   4.037   4.269   6.126
 6176SOL    HW219428   4.130   4.249   6.259
 6177SOL     OW19429   5.814   0.346   1.263
 6177SOL    HW119430   5.768   0.272   1.214
 6177SOL    HW219431   5.866   0.402   1.198
 6178SOL     OW19432   4.078   4.760   1.606
 6178SOL    HW119433   4.034   4.693   1.546
 6178SOL    HW219434   4.035   4.757   1.696
 6179SOL     OW19435   5.858   4.913   4.795
 6179SOL    HW119436   5.957   4.907   4.781
 6179SOL    HW219437   5.811   4.893   4.709
 6180SOL     OW19438   2.937   4.417   6.980
 6180SOL    HW119439   2.955   4.328   0.004
 6180SOL    HW219440   2.906   4.402   6.887
 6181SOL     OW19441   6.226   6.240   7.013
 6181SOL    HW119442   6.259   6.198   6.928
 6181SOL    HW219443   6.224   6.339   7.002
 6182SOL     OW19444   3.341   2.438   0.764
 6182SOL    HW119445   3.394   2.522   0.768
 6182SOL    HW219446   3.321   2.416   0.668
 6183SOL     OW19447   0.322   6.849   0.441
 6183SOL    HW119448   0.271   6.766   0.467
 6183SOL    HW219449   0.333   6.852   0.342
 6184SOL     OW19450   2.556   6.818   5.523
 6184SOL    HW119451   2.462   6.784   5.516
 6184SOL    HW219452   2.599   6.817   5.433
 6185SOL     OW19453   3.612   3.298   4.772
 6185SOL    HW119454   3.583   3.365   4.703
 6185SOL    HW219455   3.636   3.212   4.727
 6186SOL     OW19456   0.160   1.369   1.918
 6186SOL    HW119457   0.153   1.269   1.909
 6186SOL    HW219458   0.253   1.392   1.946
 6187SOL     OW19459   3.890   0.901   5.890
 6187SOL    HW119460   3.894   0.884   5.989
 6187SOL    HW219461   3.795   0.922   5.865
 6188SOL     OW19462   1.110   1.079   5.092
 6188SOL    HW119463   1.187   1.143   5.099
 6188SOL    HW219464   1.122   1.023   5.010
 6189SOL     OW19465   6.673   6.008   1.061
 6189SOL    HW119466   6.678   6.093   1.112
 6189SOL    HW219467   6.701   5.932   1.119
 6190SOL     OW19468   0.729   3.387   4.754
 6190SOL    HW119469   0.694   3.327   4.826
 6190SOL    HW219470   0.783   3.334   4.688
 6191SOL     OW19471   3.411   3.537   0.321
 6191SOL    HW119472   3.397   3.503   0.414
 6191SOL    HW219473   3.324   3.571   0.285
 6192SOL     OW19474   3.141   1.316   0.804
 6192SOL    HW119475   3.088   1.400   0.794
 6192SOL    HW219476   3.080   1.241   0.826
 6193SOL     OW19477   4.222   5.655   6.996
 6193SOL    HW119478   4.284   5.689   6.926
 6193SOL    HW219479   4.151   5.599   6.954
 6194SOL     OW19480   5.454   6.964   6.988
 6194SOL    HW119481   5.535   6.940   6.935
 6194SOL    HW219482   5.378   6.983   6.926
 6195SOL     OW19483   5.767   6.171   6.442
 6195SOL    HW119484   5.725   6.151   6.353
 6195SOL    HW219485   5.782   6.085   6.492
 6196SOL     OW19486   5.613   3.522   2.669
 6196SOL    HW119487   5.705   3.493   2.695
 6196SOL    HW219488   5.579   3.462   2.597
 6197SOL     OW19489   1.363   5.232   1.621
 6197SOL    HW119490   1.306   5.312   1.641
 6197SOL    HW219491   1.313   5.169   1.563
 6198SOL     OW19492   5.851   1.287   6.776
 6198SOL    HW119493   5.861   1.215   6.845
 6198SOL    HW219494   5.887   1.255   6.689
 6199SOL     OW19495   2.050   0.142   6.074
 6199SOL    HW119496   2.105   0.073   6.028
 6199SOL    HW219497   2.009   0.204   6.006
 6200SOL     OW19498   1.495   0.724   2.049
 6200SOL    HW119499   1.518   0.812   2.009
 6200SOL    HW219500   1.418   0.735   2.111
 6201SOL     OW19501   0.435   4.970   2.833
 6201SOL    HW119502   0.473   4.900   2.773
 6201SOL    HW219503   0.462   4.950   2.928
 6202SOL     OW19504   5.613   1.427   2.899
 6202SOL    HW119505   5.562   1.351   2.939
 6202SOL    HW219506   5.551   1.482   2.843
 6203SOL     OW19507   6.524   0.757   1.866
 6203SOL    HW119508   6.479   0.700   1.798
 6203SOL    HW219509   6.602   0.708   1.904
 6204SOL     OW19510   1.671   6.271   4.892
 6204SOL    HW119511   1.638   6.184   4.929
 6204SOL    HW219512   1.654   6.343   4.959
 6205SOL     OW19513   5.346   4.288   3.685
 6205SOL    HW119514   5.304   4.197   3.683
 6205SOL    HW219515   5.384   4.305   3.775
 6206SOL     OW19516   5.700   1.789   3.952
 6206SOL    HW119517   5.722   1.844   3.871
 6206SOL    HW219518   5.660   1.702   3.923
 6207SOL     OW19519   1.258   5.241   4.355
 6207SOL    HW119520   1.322   5.165   4.347
 6207SOL    HW219521   1.167   5.206   4.376
 6208SOL     OW19522   4.127   4.372   5.921
 6208SOL    HW119523   4.103   4.404   6.012
 6208SOL    HW219524   4.227   4.371   5.911
 6209SOL     OW19525   3.356   2.514   1.530
 6209SOL    HW119526   3.412   2.504   1.612
 6209SOL    HW219527   3.407   2.563   1.459
 6210SOL     OW19528   5.087   2.071   4.621
 6210SOL    HW119529   5.182   2.038   4.617
 6210SOL    HW219530   5.070   2.111   4.711
 6211SOL     OW19531   5.832   4.196   5.044
 6211SOL    HW119532   5.734   4.180   5.046
 6211SOL    HW219533   5.855   4.254   4.966
 6212SOL     OW19534   4.410   5.212   5.384
 6212SOL    HW119535   4.435   5.116   5.393
 6212SOL    HW219536   4.371   5.228   5.293
 6213SOL     OW19537   4.247   5.618   0.434
 6213SOL    HW119538   4.151   5.627   0.408
 6213SOL    HW219539   4.303   5.606   0.352
 6214SOL     OW19540   5.999   6.720   6.456
 6214SOL    HW119541   5.918   6.692   6.508
 6214SOL    HW219542   6.037   6.802   6.497
 6215SOL     OW19543   5.204   2.452   5.343
 6215SOL    HW119544   5.300   2.427   5.352
 6215SOL    HW219545   5.151   2.373   5.313
 6216SOL     OW19546   4.325   1.882   4.269
 6216SOL    HW119547   4.286   1.823   4.340
 6216SOL    HW219548   4.257   1.900   4.199
 6217SOL     OW19549   0.117   4.797   3.070
 6217SOL    HW119550   0.206   4.752   3.081
 6217SOL    HW219551   0.129   4.882   3.017
 6218SOL     OW19552   4.563   6.081   0.364
 6218SOL    HW119553   4.551   6.018   0.287
 6218SOL    HW219554   4.552   6.031   0.450
 6219SOL     OW19555   2.008   1.309   6.175
 6219SOL    HW119556   2.065   1.228   6.159
 6219SOL    HW219557   2.018   1.372   6.099
 6220SOL     OW19558   3.555   6.473   0.479
 6220SOL    HW119559   3.486   6.542   0.501
 6220SOL    HW219560   3.517   6.408   0.414
 6221SOL     OW19561   5.500   6.021   6.785
 6221SOL    HW119562   5.551   6.093   6.833
 6221SOL    HW219563   5.470   5.952   6.851
 6222SOL     OW19564   6.511   1.409   2.108
 6222SOL    HW119565   6.583   1.406   2.038
 6222SOL    HW219566   6.534   1.479   2.176
 6223SOL     OW19567   0.030   4.956   4.211
 6223SOL    HW119568   6.990   5.034   4.198
 6223SOL    HW219569   0.006   4.884   4.145
 6224SOL     OW19570   3.856   0.096   0.084
 6224SOL    HW119571   3.895   0.105   7.014
 6224SOL    HW219572   3.893   0.168   0.144
 6225SOL     OW19573   4.613   5.589   6.838
 6225SOL    HW119574   4.626   5.518   6.907
 6225SOL    HW219575   4.554   5.661   6.874
 6226SOL     OW19576   1.165   0.705   4.459
 6226SOL    HW119577   1.132   0.665   4.373
 6226SOL    HW219578   1.137   0.647   4.536
 6227SOL     OW19579   2.726   4.965   5.451
 6227SOL    HW119580   2.707   4.937   5.357
 6227SOL    HW219581   2.753   4.886   5.504
 6228SOL     OW19582   0.958   3.211   3.464
 6228SOL    HW119583   0.954   3.163   3.376
 6228SOL    HW219584   0.887   3.282   3.467
 6229SOL     OW19585   0.621   2.710   3.923
 6229SOL    HW119586   0.701   2.667   3.965
 6229SOL    HW219587   0.637   2.807   3.911
 6230SOL     OW19588   6.730   0.945   1.607
 6230SOL    HW119589   6.749   0.847   1.613
 6230SOL    HW219590   6.637   0.963   1.637
 6231SOL     OW19591   2.300   4.931   6.337
 6231SOL    HW119592   2.310   4.998   6.410
 6231SOL    HW219593   2.272   4.843   6.376
 6232SOL     OW19594   4.419   0.116   6.140
 6232SOL    HW119595   4.418   0.052   6.216
 6232SOL    HW219596   4.347   0.185   6.153
 6233SOL     OW19597   0.056   3.615   1.242
 6233SOL    HW119598   6.987   3.598   1.283
 6233SOL    HW219599   0.082   3.710   1.257
 6234SOL     OW19600   4.458   5.212   4.351
 6234SOL    HW119601   4.397   5.269   4.406
 6234SOL    HW219602   4.530   5.270   4.310
 6235SOL     OW19603   0.483   0.556   2.804
 6235SOL    HW119604   0.507   0.471   2.757
 6235SOL    HW219605   0.385   0.574   2.792
 6236SOL     OW19606   6.833   5.310   1.426
 6236SOL    HW119607   6.768   5.337   1.497
 6236SOL    HW219608   6.787   5.308   1.338
 6237SOL     OW19609   3.309   1.161   2.057
 6237SOL    HW119610   3.356   1.164   2.146
 6237SOL    HW219611   3.314   1.251   2.014
 6238SOL     OW19612   2.390   0.217   3.986
 6238SOL    HW119613   2.485   0.241   3.963
 6238SOL    HW219614   2.388   0.173   4.075
 6239SOL     OW19615   4.995   1.238   4.639
 6239SOL    HW119616   5.019   1.224   4.543
 6239SOL    HW219617   4.974   1.150   4.681
 6240SOL     OW19618   3.821   2.950   3.962
 6240SOL    HW119619   3.864   2.976   3.875
 6240SOL    HW219620   3.722   2.958   3.954
 6241SOL     OW19621   3.375   0.140   3.790
 6241SOL    HW119622   3.447   0.090   3.742
 6241SOL    HW219623   3.384   0.125   3.888
 6242SOL     OW19624   2.752   1.912   3.297
 6242SOL    HW119625   2.689   1.848   3.340
 6242SOL    HW219626   2.768   1.884   3.202
 6243SOL     OW19627   4.401   1.638   6.422
 6243SOL    HW119628   4.487   1.658   6.376
 6243SOL    HW219629   4.344   1.581   6.363
 6244SOL     OW19630   4.896   2.710   1.960
 6244SOL    HW119631   4.961   2.654   1.908
 6244SOL    HW219632   4.928   2.721   2.054
 6245SOL     OW19633   0.141   5.126   2.087
 6245SOL    HW119634   0.070   5.178   2.041
 6245SOL    HW219635   0.208   5.094   2.019
 6246SOL     OW19636   6.781   6.517   3.930
 6246SOL    HW119637   6.698   6.543   3.979
 6246SOL    HW219638   6.757   6.462   3.850
 6247SOL     OW19639   6.068   6.176   3.912
 6247SOL    HW119640   5.971   6.153   3.918
 6247SOL    HW219641   6.092   6.199   3.818
 6248SOL     OW19642   4.019   3.223   5.566
 6248SOL    HW119643   3.977   3.310   5.591
 6248SOL    HW219644   3.947   3.159   5.537
 6249SOL     OW19645   5.864   3.184   2.394
 6249SOL    HW119646   5.908   3.274   2.400
 6249SOL    HW219647   5.864   3.153   2.299
 6250SOL     OW19648   5.730   0.128   6.629
 6250SOL    HW119649   5.690   0.214   6.660
 6250SOL    HW219650   5.715   0.117   6.530
 6251SOL     OW19651   2.541   0.182   4.276
 6251SOL    HW119652   2.599   0.106   4.249
 6251SOL    HW219653   2.597   0.264   4.290
 6252SOL     OW19654   2.968   5.335   6.570
 6252SOL    HW119655   2.908   5.386   6.508
 6252SOL    HW219656   2.997   5.250   6.525
 6253SOL     OW19657   3.927   5.517   3.693
 6253SOL    HW119658   3.936   5.617   3.694
 6253SOL    HW219659   3.930   5.484   3.599
 6254SOL     OW19660   0.290   0.271   1.224
 6254SOL    HW119661   0.296   0.344   1.292
 6254SOL    HW219662   0.382   0.240   1.200
 6255SOL     OW19663   1.091   1.857   0.610
 6255SOL    HW119664   1.180   1.899   0.592
 6255SOL    HW219665   1.082   1.838   0.708
 6256SOL     OW19666   5.596   5.869   2.305
 6256SOL    HW119667   5.657   5.833   2.234
 6256SOL    HW219668   5.631   5.957   2.337
 6257SOL     OW19669   3.089   4.475   0.842
 6257SOL    HW119670   3.164   4.500   0.781
 6257SOL    HW219671   3.118   4.486   0.937
 6258SOL     OW19672   4.526   5.367   4.942
 6258SOL    HW119673   4.524   5.308   4.861
 6258SOL    HW219674   4.621   5.382   4.970
 6259SOL     OW19675   3.996   0.931   4.814
 6259SOL    HW119676   4.013   1.011   4.872
 6259SOL    HW219677   4.076   0.872   4.814
 6260SOL     OW19678   1.720   1.452   6.698
 6260SOL    HW119679   1.763   1.363   6.714
 6260SOL    HW219680   1.755   1.518   6.765
 6261SOL     OW19681   3.620   0.372   0.515
 6261SOL    HW119682   3.634   0.288   0.568
 6261SOL    HW219683   3.616   0.350   0.417
 6262SOL     OW19684   5.988   1.185   2.672
 6262SOL    HW119685   5.959   1.089   2.667
 6262SOL    HW219686   5.971   1.229   2.584
 6263SOL     OW19687   5.941   6.075   5.613
 6263SOL    HW119688   6.025   6.100   5.563
 6263SOL    HW219689   5.966   6.029   5.698
 6264SOL     OW19690   2.514   6.517   6.786
 6264SOL    HW119691   2.436   6.471   6.827
 6264SOL    HW219692   2.590   6.453   6.777
 6265SOL     OW19693   4.640   6.646   6.812
 6265SOL    HW119694   4.560   6.622   6.756
 6265SOL    HW219695   4.712   6.577   6.797
 6266SOL     OW19696   3.026   5.219   2.849
 6266SOL    HW119697   3.058   5.259   2.935
 6266SOL    HW219698   3.064   5.269   2.772
 6267SOL     OW19699   1.773   6.306   4.616
 6267SOL    HW119700   1.764   6.315   4.715
 6267SOL    HW219701   1.688   6.268   4.579
 6268SOL     OW19702   3.096   1.563   0.661
 6268SOL    HW119703   3.117   1.629   0.589
 6268SOL    HW219704   3.004   1.581   0.697
 6269SOL     OW19705   6.773   5.381   6.882
 6269SOL    HW119706   6.708   5.420   6.816
 6269SOL    HW219707   6.759   5.282   6.887
 6270SOL     OW19708   2.108   6.208   1.032
 6270SOL    HW119709   2.069   6.128   1.077
 6270SOL    HW219710   2.167   6.257   1.097
 6271SOL     OW19711   6.670   3.294   5.662
 6271SOL    HW119712   6.586   3.294   5.608
 6271SOL    HW219713   6.744   3.253   5.607
 6272SOL     OW19714   6.781   0.193   0.200
 6272SOL    HW119715   6.778   0.099   0.234
 6272SOL    HW219716   6.700   0.242   0.231
 6273SOL     OW19717   0.960   6.554   2.144
 6273SOL    HW119718   1.040   6.615   2.138
 6273SOL    HW219719   0.928   6.551   2.238
 6274SOL     OW19720   2.874   5.665   3.648
 6274SOL    HW119721   2.915   5.744   3.693
 6274SOL    HW219722   2.798   5.630   3.704
 6275SOL     OW19723   3.041   5.888   6.576
 6275SOL    HW119724   3.096   5.809   6.602
 6275SOL    HW219725   3.075   5.970   6.623
 6276SOL     OW19726   1.348   5.648   2.375
 6276SOL    HW119727   1.433   5.596   2.378
 6276SOL    HW219728   1.320   5.662   2.280
 6277SOL     OW19729   5.418   2.982   1.303
 6277SOL    HW119730   5.464   2.914   1.361
 6277SOL    HW219731   5.415   2.949   1.209
 6278SOL     OW19732   4.071   2.163   0.374
 6278SOL    HW119733   4.098   2.153   0.279
 6278SOL    HW219734   3.972   2.176   0.380
 6279SOL     OW19735   3.616   6.937   1.482
 6279SOL    HW119736   3.698   6.939   1.539
 6279SOL    HW219737   3.561   6.857   1.505
 6280SOL     OW19738   5.392   2.646   6.250
 6280SOL    HW119739   5.466   2.627   6.186
 6280SOL    HW219740   5.428   2.687   6.333
 6281SOL     OW19741   5.084   4.028   6.343
 6281SOL    HW119742   5.057   4.029   6.247
 6281SOL    HW219743   5.060   4.116   6.385
 6282SOL     OW19744   0.454   3.631   6.092
 6282SOL    HW119745   0.391   3.680   6.031
 6282SOL    HW219746   0.511   3.569   6.037
 6283SOL     OW19747   2.116   6.281   4.372
 6283SOL    HW119748   2.150   6.302   4.280
 6283SOL    HW219749   2.123   6.182   4.388
 6284SOL     OW19750   1.072   3.677   5.292
 6284SOL    HW119751   1.022   3.748   5.242
 6284SOL    HW219752   1.152   3.717   5.336
 6285SOL     OW19753   1.397   3.488   3.168
 6285SOL    HW119754   1.360   3.552   3.101
 6285SOL    HW219755   1.437   3.410   3.120
 6286SOL     OW19756   0.830   2.452   6.751
 6286SOL    HW119757   0.745   2.490   6.787
 6286SOL    HW219758   0.874   2.396   6.821
 6287SOL     OW19759   4.810   4.887   5.382
 6287SOL    HW119760   4.874   4.825   5.336
 6287SOL    HW219761   4.720   4.844   5.387
 6288SOL     OW19762   2.791   3.943   6.268
 6288SOL    HW119763   2.789   3.849   6.303
 6288SOL    HW219764   2.855   3.997   6.323
 6289SOL     OW19765   2.062   4.446   5.623
 6289SOL    HW119766   2.142   4.503   5.605
 6289SOL    HW219767   2.042   4.391   5.541
 6290SOL     OW19768   5.929   6.731   4.316
 6290SOL    HW119769   5.866   6.756   4.242
 6290SOL    HW219770   5.969   6.642   4.296
 6291SOL     OW19771   3.852   3.507   2.476
 6291SOL    HW119772   3.942   3.522   2.517
 6291SOL    HW219773   3.845   3.558   2.390
 6292SOL     OW19774   1.397   4.267   3.918
 6292SOL    HW119775   1.364   4.255   4.012
 6292SOL    HW219776   1.394   4.363   3.893
 6293SOL     OW19777   2.995   1.569   6.286
 6293SOL    HW119778   2.914   1.615   6.321
 6293SOL    HW219779   3.072   1.585   6.348
 6294SOL     OW19780   1.776   1.168   2.592
 6294SOL    HW119781   1.860   1.118   2.569
 6294SOL    HW219782   1.737   1.132   2.676
 6295SOL     OW19783   4.185   3.084   6.205
 6295SOL    HW119784   4.175   3.181   6.230
 6295SOL    HW219785   4.105   3.033   6.237
 6296SOL     OW19786   0.931   3.170   0.402
 6296SOL    HW119787   0.947   3.167   0.500
 6296SOL    HW219788   0.832   3.167   0.384
 6297SOL     OW19789   6.285   1.514   4.015
 6297SOL    HW119790   6.342   1.592   4.041
 6297SOL    HW219791   6.336   1.454   3.954
 6298SOL     OW19792   0.427   6.188   0.761
 6298SOL    HW119793   0.483   6.269   0.742
 6298SOL    HW219794   0.486   6.107   0.764
 6299SOL     OW19795   3.959   1.882   3.539
 6299SOL    HW119796   3.944   1.804   3.480
 6299SOL    HW219797   3.888   1.951   3.522
 6300SOL     OW19798   2.724   1.532   6.835
 6300SOL    HW119799   2.725   1.462   6.764
 6300SOL    HW219800   2.808   1.587   6.828
 6301SOL     OW19801   4.334   6.016   0.041
 6301SOL    HW119802   4.259   6.051   0.097
 6301SOL    HW219803   4.393   5.959   0.097
 6302SOL     OW19804   2.463   2.634   6.204
 6302SOL    HW119805   2.367   2.640   6.176
 6302SOL    HW219806   2.521   2.660   6.127
 6303SOL     OW19807   0.580   5.826   4.408
 6303SOL    HW119808   0.635   5.888   4.352
 6303SOL    HW219809   0.527   5.879   4.474
 6304SOL     OW19810   3.411   0.612   4.748
 6304SOL    HW119811   3.455   0.536   4.701
 6304SOL    HW219812   3.317   0.587   4.770
 6305SOL     OW19813   1.053   5.662   5.710
 6305SOL    HW119814   1.146   5.700   5.718
 6305SOL    HW219815   1.051   5.571   5.751
 6306SOL     OW19816   0.443   4.761   4.988
 6306SOL    HW119817   0.378   4.755   4.912
 6306SOL    HW219818   0.410   4.704   5.064
 6307SOL     OW19819   3.475   2.836   2.024
 6307SOL    HW119820   3.406   2.835   2.097
 6307SOL    HW219821   3.565   2.855   2.063
 6308SOL     OW19822   0.423   2.053   0.271
 6308SOL    HW119823   0.470   2.070   0.185
 6308SOL    HW219824   0.490   2.045   0.345
 6309SOL     OW19825   2.409   6.292   5.033
 6309SOL    HW119826   2.452   6.205   5.056
 6309SOL    HW219827   2.316   6.293   5.070
 6310SOL     OW19828   1.484   0.005   2.991
 6310SOL    HW119829   1.516   6.971   3.068
 6310SOL    HW219830   1.562   0.046   2.944
 6311SOL     OW19831   6.359   0.991   6.723
 6311SOL    HW119832   6.417   1.061   6.766
 6311SOL    HW219833   6.306   1.033   6.649
 6312SOL     OW19834   3.287   5.635   0.113
 6312SOL    HW119835   3.257   5.650   0.019
 6312SOL    HW219836   3.209   5.606   0.169
 6313SOL     OW19837   6.194   4.757   4.214
 6313SOL    HW119838   6.201   4.827   4.142
 6313SOL    HW219839   6.263   4.687   4.199
 6314SOL     OW19840   1.996   6.668   2.444
 6314SOL    HW119841   2.088   6.672   2.482
 6314SOL    HW219842   1.961   6.574   2.452
 6315SOL     OW19843   1.805   1.561   3.647
 6315SOL    HW119844   1.822   1.486   3.583
 6315SOL    HW219845   1.734   1.621   3.610
 6316SOL     OW19846   4.318   0.860   4.802
 6316SOL    HW119847   4.272   0.836   4.717
 6316SOL    HW219848   4.391   0.926   4.783
 6317SOL     OW19849   5.495   4.704   2.676
 6317SOL    HW119850   5.444   4.704   2.590
 6317SOL    HW219851   5.466   4.783   2.731
 6318SOL     OW19852   6.558   6.907   0.207
 6318SOL    HW119853   6.592   6.818   0.237
 6318SOL    HW219854   6.615   6.942   0.133
 6319SOL     OW19855   5.110   1.906   4.114
 6319SOL    HW119856   5.069   1.941   4.199
 6319SOL    HW219857   5.037   1.876   4.052
 6320SOL     OW19858   6.114   1.680   5.671
 6320SOL    HW119859   6.122   1.766   5.722
 6320SOL    HW219860   6.087   1.606   5.734
 6321SOL     OW19861   0.401   2.461   0.067
 6321SOL    HW119862   0.357   2.386   0.018
 6321SOL    HW219863   0.435   2.428   0.155
 6322SOL     OW19864   1.274   1.184   2.729
 6322SOL    HW119865   1.300   1.188   2.633
 6322SOL    HW219866   1.293   1.271   2.773
 6323SOL     OW19867   2.107   4.991   0.866
 6323SOL    HW119868   2.198   5.032   0.860
 6323SOL    HW219869   2.060   5.027   0.947
 6324SOL     OW19870   4.651   3.458   1.060
 6324SOL    HW119871   4.736   3.474   1.010
 6324SOL    HW219872   4.625   3.362   1.052
 6325SOL     OW19873   1.411   2.943   3.975
 6325SOL    HW119874   1.389   2.964   3.879
 6325SOL    HW219875   1.389   3.022   4.032
 6326SOL     OW19876   5.367   5.428   5.742
 6326SOL    HW119877   5.374   5.470   5.652
 6326SOL    HW219878   5.386   5.330   5.735
 6327SOL     OW19879   0.570   1.245   3.645
 6327SOL    HW119880   0.514   1.294   3.578
 6327SOL    HW219881   0.533   1.262   3.737
 6328SOL     OW19882   4.724   3.781   5.288
 6328SOL    HW119883   4.671   3.699   5.266
 6328SOL    HW219884   4.821   3.757   5.297
 6329SOL     OW19885   0.603   2.042   5.863
 6329SOL    HW119886   0.608   2.138   5.890
 6329SOL    HW219887   0.684   1.994   5.896
 6330SOL     OW19888   4.833   1.396   3.956
 6330SOL    HW119889   4.826   1.477   4.014
 6330SOL    HW219890   4.905   1.408   3.888
 6331SOL     OW19891   1.102   3.123   3.981
 6331SOL    HW119892   1.186   3.128   4.037
 6331SOL    HW219893   1.115   3.176   3.897
 6332SOL     OW19894   3.328   1.636   6.859
 6332SOL    HW119895   3.340   1.579   6.940
 6332SOL    HW219896   3.387   1.716   6.864
 6333SOL     OW19897   6.018   1.110   1.268
 6333SOL    HW119898   6.061   1.127   1.357
 6333SOL    HW219899   5.921   1.091   1.280
 6334SOL     OW19900   1.478   1.049   1.492
 6334SOL    HW119901   1.517   1.109   1.422
 6334SOL    HW219902   1.378   1.051   1.486
 6335SOL     OW19903   6.363   3.261   6.366
 6335SOL    HW119904   6.350   3.320   6.286
 6335SOL    HW219905   6.288   3.277   6.431
 6336SOL     OW19906   0.643   3.984   5.175
 6336SOL    HW119907   0.674   3.980   5.270
 6336SOL    HW219908   0.718   4.015   5.117
 6337SOL     OW19909   5.063   6.606   5.361
 6337SOL    HW119910   5.113   6.597   5.447
 6337SOL    HW219911   5.045   6.703   5.342
 6338SOL     OW19912   0.911   0.868   3.425
 6338SOL    HW119913   0.829   0.812   3.417
 6338SOL    HW219914   0.911   0.939   3.355
 6339SOL     OW19915   0.459   4.333   3.640
 6339SOL    HW119916   0.494   4.240   3.627
 6339SOL    HW219917   0.533   4.398   3.623
 6340SOL     OW19918   2.650   4.180   0.494
 6340SOL    HW119919   2.686   4.166   0.586
 6340SOL    HW219920   2.589   4.259   0.493
 6341SOL     OW19921   0.481   5.718   1.956
 6341SOL    HW119922   0.462   5.706   1.859
 6341SOL    HW219923   0.438   5.802   1.989
 6342SOL     OW19924   1.796   1.290   1.445
 6342SOL    HW119925   1.825   1.342   1.365
 6342SOL    HW219926   1.744   1.348   1.506
 6343SOL     OW19927   1.340   5.620   0.544
 6343SOL    HW119928   1.254   5.593   0.587
 6343SOL    HW219929   1.416   5.573   0.590
 6344SOL     OW19930   0.817   1.030   3.894
 6344SOL    HW119931   0.809   0.952   3.831
 6344SOL    HW219932   0.761   1.105   3.860
 6345SOL     OW19933   5.997   2.745   2.748
 6345SOL    HW119934   5.964   2.823   2.802
 6345SOL    HW219935   5.999   2.663   2.806
 6346SOL     OW19936   0.064   4.171   5.334
 6346SOL    HW119937   0.082   4.085   5.382
 6346SOL    HW219938   0.045   4.153   5.238
 6347SOL     OW19939   2.210   2.422   3.623
 6347SOL    HW119940   2.192   2.506   3.674
 6347SOL    HW219941   2.136   2.357   3.638
 6348SOL     OW19942   1.197   2.380   6.059
 6348SOL    HW119943   1.180   2.341   5.968
 6348SOL    HW219944   1.164   2.316   6.129
 6349SOL     OW19945   6.539   1.048   0.873
 6349SOL    HW119946   6.546   1.123   0.939
 6349SOL    HW219947   6.508   0.965   0.920
 6350SOL     OW19948   1.240   6.530   1.353
 6350SOL    HW119949   1.256   6.462   1.281
 6350SOL    HW219950   1.241   6.485   1.442
 6351SOL     OW19951   5.819   4.186   1.880
 6351SOL    HW119952   5.771   4.201   1.793
 6351SOL    HW219953   5.916   4.171   1.862
 6352SOL     OW19954   3.593   1.049   4.774
 6352SOL    HW119955   3.511   1.066   4.719
 6352SOL    HW219956   3.660   0.998   4.720
 6353SOL     OW19957   3.792   6.498   5.719
 6353SOL    HW119958   3.872   6.508   5.778
 6353SOL    HW219959   3.802   6.416   5.663
 6354SOL     OW19960   4.830   5.477   2.148
 6354SOL    HW119961   4.765   5.525   2.089
 6354SOL    HW219962   4.796   5.385   2.168
 6355SOL     OW19963   3.564   5.628   0.576
 6355SOL    HW119964   3.484   5.599   0.524
 6355SOL    HW219965   3.622   5.548   0.595
 6356SOL     OW19966   0.308   5.969   5.901
 6356SOL    HW119967   0.324   5.944   5.805
 6356SOL    HW219968   0.373   6.040   5.927
 6357SOL     OW19969   5.457   0.691   2.249
 6357SOL    HW119970   5.488   0.785   2.263
 6357SOL    HW219971   5.358   0.688   2.254
 6358SOL     OW19972   1.138   2.081   4.953
 6358SOL    HW119973   1.152   2.094   4.854
 6358SOL    HW219974   1.217   2.119   5.002
 6359SOL     OW19975   5.589   6.020   1.294
 6359SOL    HW119976   5.666   5.974   1.249
 6359SOL    HW219977   5.506   6.008   1.240
 6360SOL     OW19978   1.082   1.553   1.118
 6360SOL    HW119979   1.133   1.556   1.032
 6360SOL    HW219980   1.122   1.485   1.178
 6361SOL     OW19981   0.381   1.286   0.475
 6361SOL    HW119982   0.284   1.291   0.452
 6361SOL    HW219983   0.418   1.198   0.446
 6362SOL     OW19984   1.520   5.846   0.742
 6362SOL    HW119985   1.426   5.821   0.717
 6362SOL    HW219986   1.527   5.854   0.842
 6363SOL     OW19987   2.136   3.964   2.093
 6363SOL    HW119988   2.189   3.923   2.167
 6363SOL    HW219989   2.191   3.964   2.009
 6364SOL     OW19990   2.525   2.386   4.369
 6364SOL    HW119991   2.444   2.328   4.359
 6364SOL    HW219992   2.504   2.478   4.337
 6365SOL     OW19993   5.583   0.051   3.214
 6365SOL    HW119994   5.677   0.076   3.239
 6365SOL    HW219995   5.564   6.978   3.246
 6366SOL     OW19996   6.229   1.135   5.326
 6366SOL    HW119997   6.320   1.146   5.287
 6366SOL    HW219998   6.229   1.163   5.422
 6367SOL     OW19999   1.050   2.283   3.053
 6367SOL    HW120000   1.065   2.316   2.960
 6367SOL    HW220001   1.008   2.356   3.108
 6368SOL     OW20002   4.893   3.986   4.792
 6368SOL    HW120003   4.866   4.071   4.838
 6368SOL    HW220004   4.894   3.912   4.859
 6369SOL     OW20005   4.603   5.228   0.635
 6369SOL    HW120006   4.556   5.216   0.547
 6369SOL    HW220007   4.702   5.225   0.621
 6370SOL     OW20008   5.848   3.739   4.338
 6370SOL    HW120009   5.875   3.812   4.400
 6370SOL    HW220010   5.791   3.775   4.265
 6371SOL     OW20011   5.427   4.773   1.291
 6371SOL    HW120012   5.519   4.756   1.256
 6371SOL    HW220013   5.398   4.695   1.347
 6372SOL     OW20014   6.328   1.998   1.762
 6372SOL    HW120015   6.401   1.941   1.723
 6372SOL    HW220016   6.261   1.940   1.807
 6373SOL     OW20017   4.834   3.613   1.640
 6373SOL    HW120018   4.751   3.568   1.671
 6373SOL    HW220019   4.826   3.636   1.543
 6374SOL     OW20020   4.506   3.649   6.738
 6374SOL    HW120021   4.504   3.593   6.655
 6374SOL    HW220022   4.523   3.590   6.817
 6375SOL     OW20023   4.563   1.224   2.046
 6375SOL    HW120024   4.562   1.131   2.011
 6375SOL    HW220025   4.518   1.285   1.981
 6376SOL     OW20026   2.931   0.189   0.585
 6376SOL    HW120027   2.878   0.134   0.520
 6376SOL    HW220028   2.980   0.261   0.536
 6377SOL     OW20029   0.329   0.568   6.870
 6377SOL    HW120030   0.295   0.482   6.908
 6377SOL    HW220031   0.261   0.605   6.807
 6378SOL     OW20032   5.441   4.430   2.395
 6378SOL    HW120033   5.388   4.507   2.429
 6378SOL    HW220034   5.533   4.431   2.435
 6379SOL     OW20035   2.070   5.012   6.217
 6379SOL    HW120036   2.166   4.993   6.239
 6379SOL    HW220037   2.013   4.935   6.247
 6380SOL     OW20038   0.614   4.066   5.574
 6380SOL    HW120039   0.692   4.128   5.581
 6380SOL    HW220040   0.641   3.984   5.524
 6381SOL     OW20041   4.213   3.433   0.481
 6381SOL    HW120042   4.253   3.342   0.496
 6381SOL    HW220043   4.158   3.431   0.398
 6382SOL     OW20044   1.496   1.439   0.339
 6382SOL    HW120045   1.563   1.451   0.266
 6382SOL    HW220046   1.539   1.392   0.417
 6383SOL     OW20047   2.391   2.514   2.502
 6383SOL    HW120048   2.450   2.497   2.581
 6383SOL    HW220049   2.402   2.440   2.436
 6384SOL     OW20050   6.414   2.466   2.068
 6384SOL    HW120051   6.360   2.526   2.126
 6384SOL    HW220052   6.353   2.416   2.006
 6385SOL     OW20053   6.996   3.957   6.968
 6385SOL    HW120054   6.919   3.935   6.908
 6385SOL    HW220055   0.018   3.873   6.999
 6386SOL     OW20056   2.837   2.720   0.853
 6386SOL    HW120057   2.753   2.671   0.827
 6386SOL    HW220058   2.901   2.720   0.776
 6387SOL     OW20059   0.327   6.785   0.154
 6387SOL    HW120060   0.399   6.725   0.120
 6387SOL    HW220061   0.238   6.743   0.138
 6388SOL     OW20062   5.394   5.478   2.049
 6388SOL    HW120063   5.381   5.483   2.148
 6388SOL    HW220064   5.380   5.384   2.018
 6389SOL     OW20065   6.731   6.601   0.706
 6389SOL    HW120066   6.639   6.636   0.688
 6389SOL    HW220067   6.755   6.535   0.635
 6390SOL     OW20068   5.485   0.714   0.165
 6390SOL    HW120069   5.531   0.642   0.217
 6390SOL    HW220070   5.530   0.801   0.182
 6391SOL     OW20071   1.079   1.844   5.092
 6391SOL    HW120072   1.103   1.900   5.012
 6391SOL    HW220073   1.130   1.758   5.088
 6392SOL     OW20074   4.149   6.842   3.850
 6392SOL    HW120075   4.108   6.921   3.804
 6392SOL    HW220076   4.247   6.858   3.861
 6393SOL     OW20077   1.489   5.205   0.091
 6393SOL    HW120078   1.430   5.131   0.124
 6393SOL    HW220079   1.488   5.281   0.156
 6394SOL     OW20080   1.738   4.957   1.912
 6394SOL    HW120081   1.796   4.892   1.960
 6394SOL    HW220082   1.650   4.964   1.959
 6395SOL     OW20083   2.027   3.868   4.025
 6395SOL    HW120084   1.983   3.824   4.103
 6395SOL    HW220085   1.958   3.912   3.967
 6396SOL     OW20086   1.962   3.000   5.197
 6396SOL    HW120087   1.925   2.972   5.286
 6396SOL    HW220088   2.027   3.075   5.211
 6397SOL     OW20089   5.839   3.835   4.834
 6397SOL    HW120090   5.903   3.758   4.833
 6397SOL    HW220091   5.785   3.833   4.919
 6398SOL     OW20092   2.640   0.089   2.587
 6398SOL    HW120093   2.646   7.010   2.592
 6398SOL    HW220094   2.566   0.114   2.524
 6399SOL     OW20095   3.355   6.933   6.882
 6399SOL    HW120096   3.297   7.004   6.921
 6399SOL    HW220097   3.299   6.872   6.824
 6400SOL     OW20098   0.489   6.306   3.008
 6400SOL    HW120099   0.545   6.239   3.056
 6400SOL    HW220100   0.404   6.321   3.058
 6401SOL     OW20101   4.210   5.124   2.759
 6401SOL    HW120102   4.231   5.204   2.703
 6401SOL    HW220103   4.191   5.046   2.700
 6402SOL     OW20104   2.781   4.427   5.771
 6402SOL    HW120105   2.876   4.450   5.751
 6402SOL    HW220106   2.739   4.384   5.692
 6403SOL     OW20107   5.537   5.244   5.545
 6403SOL    HW120108   5.560   5.179   5.473
 6403SOL    HW220109   5.561   5.336   5.516
 6404SOL     OW20110   4.629   6.492   1.199
 6404SOL    HW120111   4.721   6.519   1.168
 6404SOL    HW220112   4.593   6.563   1.259
 6405SOL     OW20113   4.926   1.354   2.849
 6405SOL    HW120114   5.012   1.308   2.829
 6405SOL    HW220115   4.944   1.451   2.866
 6406SOL     OW20116   0.620   3.440   3.160
 6406SOL    HW120117   0.523   3.446   3.134
 6406SOL    HW220118   0.658   3.533   3.165
 6407SOL     OW20119   0.476   6.782   2.693
 6407SOL    HW120120   0.432   6.855   2.746
 6407SOL    HW220121   0.432   6.775   2.604
 6408SOL     OW20122   6.989   1.049   1.902
 6408SOL    HW120123   0.024   0.988   1.846
 6408SOL    HW220124   6.993   1.019   1.997
 6409SOL     OW20125   5.044   4.581   3.831
 6409SOL    HW120126   4.980   4.567   3.755
 6409SOL    HW220127   5.023   4.668   3.876
 6410SOL     OW20128   2.025   1.142   0.065
 6410SOL    HW120129   2.029   1.241   0.051
 6410SOL    HW220130   1.935   1.117   0.101
 6411SOL     OW20131   0.524   2.912   2.138
 6411SOL    HW120132   0.602   2.885   2.195
 6411SOL    HW220133   0.486   2.832   2.092
 6412SOL     OW20134   3.663   1.113   6.928
 6412SOL    HW120135   3.582   1.167   6.907
 6412SOL    HW220136   3.717   1.099   6.844
 6413SOL     OW20137   4.801   6.033   3.462
 6413SOL    HW120138   4.739   5.966   3.503
 6413SOL    HW220139   4.892   5.993   3.453
 6414SOL     OW20140   2.708   0.321   0.713
 6414SOL    HW120141   2.786   0.290   0.658
 6414SOL    HW220142   2.736   0.330   0.808
 6415SOL     OW20143   0.836   2.329   4.222
 6415SOL    HW120144   0.776   2.337   4.302
 6415SOL    HW220145   0.803   2.257   4.162
 6416SOL     OW20146   2.793   5.131   0.047
 6416SOL    HW120147   2.740   5.195   0.101
 6416SOL    HW220148   2.879   5.175   0.018
 6417SOL     OW20149   4.099   2.930   6.964
 6417SOL    HW120150   4.189   2.892   6.987
 6417SOL    HW220151   4.111   3.018   6.918
 6418SOL     OW20152   5.092   4.428   0.568
 6418SOL    HW120153   5.045   4.482   0.498
 6418SOL    HW220154   5.115   4.338   0.532
 6419SOL     OW20155   1.116   6.603   6.338
 6419SOL    HW120156   1.093   6.604   6.240
 6419SOL    HW220157   1.120   6.697   6.372
 6420SOL     OW20158   2.727   4.722   4.220
 6420SOL    HW120159   2.801   4.784   4.194
 6420SOL    HW220160   2.676   4.694   4.139
 6421SOL     OW20161   4.211   0.647   2.353
 6421SOL    HW120162   4.225   0.742   2.325
 6421SOL    HW220163   4.114   0.634   2.377
 6422SOL     OW20164   6.600   2.670   4.658
 6422SOL    HW120165   6.534   2.664   4.583
 6422SOL    HW220166   6.692   2.684   4.620
 6423SOL     OW20167   1.209   4.965   4.614
 6423SOL    HW120168   1.307   4.970   4.593
 6423SOL    HW220169   1.197   4.938   4.709
 6424SOL     OW20170   6.742   4.636   5.712
 6424SOL    HW120171   6.686   4.555   5.733
 6424SOL    HW220172   6.783   4.671   5.796
 6425SOL     OW20173   6.674   6.052   4.217
 6425SOL    HW120174   6.640   6.142   4.242
 6425SOL    HW220175   6.758   6.033   4.268
 6426SOL     OW20176   4.355   4.867   4.572
 6426SOL    HW120177   4.442   4.895   4.532
 6426SOL    HW220178   4.366   4.779   4.617
 6427SOL     OW20179   3.767   2.987   3.405
 6427SOL    HW120180   3.815   3.060   3.453
 6427SOL    HW220181   3.801   2.981   3.311
 6428SOL     OW20182   5.747   2.622   0.392
 6428SOL    HW120183   5.683   2.699   0.389
 6428SOL    HW220184   5.698   2.539   0.419
 6429SOL     OW20185   2.255   1.079   5.197
 6429SOL    HW120186   2.260   1.073   5.297
 6429SOL    HW220187   2.160   1.095   5.170
 6430SOL     OW20188   6.126   0.915   5.623
 6430SOL    HW120189   6.068   0.903   5.542
 6430SOL    HW220190   6.206   0.969   5.598
 6431SOL     OW20191   3.417   4.905   2.208
 6431SOL    HW120192   3.337   4.949   2.167
 6431SOL    HW220193   3.459   4.844   2.141
 6432SOL     OW20194   5.184   3.603   6.212
 6432SOL    HW120195   5.207   3.625   6.307
 6432SOL    HW220196   5.257   3.548   6.172
 6433SOL     OW20197   3.386   4.576   5.387
 6433SOL    HW120198   3.396   4.480   5.412
 6433SOL    HW220199   3.472   4.609   5.348
 6434SOL     OW20200   5.210   5.190   6.020
 6434SOL    HW120201   5.249   5.114   5.969
 6434SOL    HW220202   5.253   5.275   5.992
 6435SOL     OW20203   4.532   1.703   1.436
 6435SOL    HW120204   4.501   1.611   1.458
 6435SOL    HW220205   4.609   1.698   1.373
 6436SOL     OW20206   6.995   3.310   3.268
 6436SOL    HW120207   7.016   3.233   3.208
 6436SOL    HW220208   6.898   3.310   3.290
 6437SOL     OW20209   1.241   2.228   5.763
 6437SOL    HW120210   1.272   2.148   5.713
 6437SOL    HW220211   1.245   2.308   5.703
 6438SOL     OW20212   0.418   4.954   0.030
 6438SOL    HW120213   0.388   5.011   0.107
 6438SOL    HW220214   0.345   4.891   0.005
 6439SOL     OW20215   5.201   6.539   2.823
 6439SOL    HW120216   5.249   6.465   2.776
 6439SOL    HW220217   5.251   6.563   2.907
 6440SOL     OW20218   3.397   1.251   6.124
 6440SOL    HW120219   3.378   1.340   6.166
 6440SOL    HW220220   3.496   1.236   6.123
 6441SOL     OW20221   6.939   1.735   2.308
 6441SOL    HW120222   6.993   1.777   2.381
 6441SOL    HW220223   6.878   1.804   2.268
 6442SOL     OW20224   2.410   2.050   4.603
 6442SOL    HW120225   2.342   2.108   4.648
 6442SOL    HW220226   2.378   1.956   4.601
 6443SOL     OW20227   3.891   3.162   6.793
 6443SOL    HW120228   3.988   3.179   6.811
 6443SOL    HW220229   3.877   3.150   6.695
 6444SOL     OW20230   6.846   4.491   5.072
 6444SOL    HW120231   6.869   4.444   4.987
 6444SOL    HW220232   6.770   4.444   5.117
 6445SOL     OW20233   2.905   3.568   3.224
 6445SOL    HW120234   2.982   3.541   3.167
 6445SOL    HW220235   2.912   3.665   3.246
 6446SOL     OW20236   1.125   1.595   6.713
 6446SOL    HW120237   1.180   1.511   6.715
 6446SOL    HW220238   1.124   1.632   6.620
 6447SOL     OW20239   5.843   3.453   2.176
 6447SOL    HW120240   5.744   3.467   2.181
 6447SOL    HW220241   5.862   3.383   2.108
 6448SOL     OW20242   3.971   4.513   1.147
 6448SOL    HW120243   3.975   4.442   1.076
 6448SOL    HW220244   3.880   4.514   1.189
 6449SOL     OW20245   3.332   5.153   0.547
 6449SOL    HW120246   3.274   5.202   0.482
 6449SOL    HW220247   3.428   5.176   0.532
 6450SOL     OW20248   6.657   4.511   6.920
 6450SOL    HW120249   6.562   4.517   6.887
 6450SOL    HW220250   6.707   4.594   6.896
 6451SOL     OW20251   3.927   3.042   1.458
 6451SOL    HW120252   3.951   3.015   1.365
 6451SOL    HW220253   4.009   3.042   1.515
 6452SOL     OW20254   3.780   1.983   4.545
 6452SOL    HW120255   3.723   2.002   4.624
 6452SOL    HW220256   3.742   2.029   4.465
 6453SOL     OW20257   2.269   0.565   2.920
 6453SOL    HW120258   2.294   0.481   2.968
 6453SOL    HW220259   2.335   0.584   2.848
 6454SOL     OW20260   5.249   2.799   3.178
 6454SOL    HW120261   5.270   2.840   3.267
 6454SOL    HW220262   5.281   2.705   3.175
 6455SOL     OW20263   6.913   2.750   4.131
 6455SOL    HW120264   6.992   2.761   4.191
 6455SOL    HW220265   6.835   2.802   4.167
 6456SOL     OW20266   5.636   1.453   2.162
 6456SOL    HW120267   5.715   1.500   2.202
 6456SOL    HW220268   5.668   1.380   2.102
 6457SOL     OW20269   3.588   6.821   2.700
 6457SOL    HW120270   3.510   6.818   2.638
 6457SOL    HW220271   3.661   6.876   2.657
 6458SOL     OW20272   6.985   6.541   4.124
 6458SOL    HW120273   0.050   6.496   4.097
 6458SOL    HW220274   6.910   6.508   4.067
 6459SOL     OW20275   0.775   3.267   3.026
 6459SOL    HW120276   0.863   3.303   2.994
 6459SOL    HW220277   0.730   3.336   3.084
 6460SOL     OW20278   0.748   5.764   6.716
 6460SOL    HW120279   0.814   5.706   6.763
 6460SOL    HW220280   0.709   5.715   6.638
 6461SOL     OW20281   1.532   6.664   0.842
 6461SOL    HW120282   1.524   6.565   0.839
 6461SOL    HW220283   1.464   6.705   0.781
 6462SOL     OW20284   1.596   3.544   5.062
 6462SOL    HW120285   1.594   3.445   5.066
 6462SOL    HW220286   1.672   3.574   5.003
 6463SOL     OW20287   4.446   2.947   0.890
 6463SOL    HW120288   4.392   2.903   0.819
 6463SOL    HW220289   4.408   2.923   0.980
 6464SOL     OW20290   0.813   4.234   3.760
 6464SOL    HW120291   0.784   4.273   3.847
 6464SOL    HW220292   0.806   4.134   3.764
 6465SOL     OW20293   3.584   0.829   3.861
 6465SOL    HW120294   3.559   0.908   3.806
 6465SOL    HW220295   3.504   0.772   3.878
 6466SOL     OW20296   6.844   4.796   0.074
 6466SOL    HW120297   6.849   4.873   0.137
 6466SOL    HW220298   6.929   4.744   0.079
 6467SOL     OW20299   1.898   2.388   6.546
 6467SOL    HW120300   1.809   2.386   6.501
 6467SOL    HW220301   1.962   2.329   6.497
 6468SOL     OW20302   2.370   0.447   1.276
 6468SOL    HW120303   2.281   0.492   1.274
 6468SOL    HW220304   2.359   0.351   1.248
 6469SOL     OW20305   2.012   1.418   1.672
 6469SOL    HW120306   1.945   1.446   1.742
 6469SOL    HW220307   2.015   1.319   1.667
 6470SOL     OW20308   6.827   1.979   6.938
 6470SOL    HW120309   6.832   1.882   6.914
 6470SOL    HW220310   6.761   2.025   6.879
 6471SOL     OW20311   0.528   6.323   5.796
 6471SOL    HW120312   0.498   6.396   5.858
 6471SOL    HW220313   0.546   6.362   5.705
 6472SOL     OW20314   6.867   6.435   2.910
 6472SOL    HW120315   6.917   6.349   2.914
 6472SOL    HW220316   6.770   6.417   2.893
 6473SOL     OW20317   2.371   1.456   3.176
 6473SOL    HW120318   2.281   1.425   3.208
 6473SOL    HW220319   2.439   1.436   3.246
 6474SOL     OW20320   3.785   6.163   4.495
 6474SOL    HW120321   3.730   6.133   4.417
 6474SOL    HW220322   3.783   6.263   4.500
 6475SOL     OW20323   5.797   5.695   2.197
 6475SOL    HW120324   5.853   5.701   2.279
 6475SOL    HW220325   5.840   5.748   2.124
 6476SOL     OW20326   3.786   2.805   6.609
 6476SOL    HW120327   3.867   2.787   6.664
 6476SOL    HW220328   3.777   2.733   6.539
 6477SOL     OW20329   0.271   6.090   1.842
 6477SOL    HW120330   0.290   6.140   1.926
 6477SOL    HW220331   0.202   6.139   1.789
 6478SOL     OW20332   2.733   5.993   0.957
 6478SOL    HW120333   2.659   5.999   1.023
 6478SOL    HW220334   2.788   6.077   0.961
 6479SOL     OW20335   4.554   5.850   3.447
 6479SOL    HW120336   4.493   5.829   3.523
 6479SOL    HW220337   4.501   5.885   3.370
 6480SOL     OW20338   4.191   1.225   6.289
 6480SOL    HW120339   4.217   1.129   6.279
 6480SOL    HW220340   4.264   1.275   6.336
 6481SOL     OW20341   3.716   2.895   2.129
 6481SOL    HW120342   3.788   2.893   2.060
 6481SOL    HW220343   3.753   2.929   2.215
 6482SOL     OW20344   4.995   4.110   6.097
 6482SOL    HW120345   5.037   4.055   6.024
 6482SOL    HW220346   4.917   4.161   6.059
 6483SOL     OW20347   2.350   5.826   4.991
 6483SOL    HW120348   2.392   5.827   4.900
 6483SOL    HW220349   2.368   5.912   5.037
 6484SOL     OW20350   3.052   1.363   2.949
 6484SOL    HW120351   2.973   1.302   2.959
 6484SOL    HW220352   3.043   1.439   3.012
 6485SOL     OW20353   2.728   6.021   5.112
 6485SOL    HW120354   2.721   6.014   5.013
 6485SOL    HW220355   2.742   6.117   5.138
 6486SOL     OW20356   0.497   5.009   2.516
 6486SOL    HW120357   0.544   4.963   2.591
 6486SOL    HW220358   0.398   5.009   2.534
 6487SOL     OW20359   6.636   4.874   3.852
 6487SOL    HW120360   6.548   4.841   3.819
 6487SOL    HW220361   6.698   4.888   3.774
 6488SOL     OW20362   3.636   5.358   4.125
 6488SOL    HW120363   3.554   5.304   4.106
 6488SOL    HW220364   3.672   5.396   4.040
 6489SOL     OW20365   5.333   2.697   5.174
 6489SOL    HW120366   5.263   2.718   5.243
 6489SOL    HW220367   5.328   2.763   5.100
 6490SOL     OW20368   2.177   2.270   0.433
 6490SOL    HW120369   2.234   2.316   0.365
 6490SOL    HW220370   2.134   2.189   0.393
 6491SOL     OW20371   1.962   0.096   1.663
 6491SOL    HW120372   1.864   0.116   1.657
 6491SOL    HW220373   1.998   0.132   1.750
 6492SOL     OW20374   4.082   3.197   4.143
 6492SOL    HW120375   4.079   3.292   4.110
 6492SOL    HW220376   4.135   3.192   4.227
 6493SOL     OW20377   1.350   4.557   4.193
 6493SOL    HW120378   1.318   4.571   4.286
 6493SOL    HW220379   1.448   4.538   4.193
 6494SOL     OW20380   6.500   1.140   1.957
 6494SOL    HW120381   6.567   1.213   1.942
 6494SOL    HW220382   6.547   1.060   1.996
 6495SOL     OW20383   6.565   0.122   2.893
 6495SOL    HW120384   6.571   0.195   2.960
 6495SOL    HW220385   6.484   0.066   2.911
 6496SOL     OW20386   3.373   2.260   1.782
 6496SOL    HW120387   3.403   2.195   1.853
 6496SOL    HW220388   3.438   2.336   1.777
 6497SOL     OW20389   0.131   1.158   0.410
 6497SOL    HW120390   0.071   1.237   0.416
 6497SOL    HW220391   0.105   1.090   0.479
 6498SOL     OW20392   2.248   4.205   4.251
 6498SOL    HW120393   2.271   4.157   4.335
 6498SOL    HW220394   2.271   4.302   4.260
 6499SOL     OW20395   4.940   2.767   3.157
 6499SOL    HW120396   4.923   2.675   3.193
 6499SOL    HW220397   5.038   2.786   3.161
 6500SOL     OW20398   1.456   3.658   3.359
 6500SOL    HW120399   1.453   3.746   3.313
 6500SOL    HW220400   1.432   3.586   3.294
 6501SOL     OW20401   5.793   2.227   2.968
 6501SOL    HW120402   5.763   2.212   2.874
 6501SOL    HW220403   5.775   2.322   2.994
 6502SOL     OW20404   0.043   3.830   2.023
 6502SOL    HW120405   0.100   3.841   1.942
 6502SOL    HW220406   7.003   3.751   2.011
 6503SOL     OW20407   0.270   3.445   5.918
 6503SOL    HW120408   0.301   3.408   5.831
 6503SOL    HW220409   0.288   3.544   5.920
 6504SOL     OW20410   3.733   6.552   6.200
 6504SOL    HW120411   3.747   6.526   6.295
 6504SOL    HW220412   3.800   6.505   6.142
 6505SOL     OW20413   0.225   6.018   0.660
 6505SOL    HW120414   0.139   6.020   0.710
 6505SOL    HW220415   0.293   6.073   0.709
 6506SOL     OW20416   0.704   3.938   2.221
 6506SOL    HW120417   0.614   3.960   2.258
 6506SOL    HW220418   0.734   3.849   2.255
 6507SOL     OW20419   4.383   5.328   0.429
 6507SOL    HW120420   4.319   5.266   0.475
 6507SOL    HW220421   4.393   5.411   0.484
 6508SOL     OW20422   0.319   0.128   3.548
 6508SOL    HW120423   0.280   0.043   3.512
 6508SOL    HW220424   0.309   0.130   3.647
 6509SOL     OW20425   2.490   1.657   6.817
 6509SOL    HW120426   2.443   1.701   6.893
 6509SOL    HW220427   2.576   1.617   6.849
 6510SOL     OW20428   3.201   6.337   5.053
 6510SOL    HW120429   3.266   6.277   5.007
 6510SOL    HW220430   3.110   6.326   5.012
 6511SOL     OW20431   3.071   2.878   0.472
 6511SOL    HW120432   3.071   2.958   0.533
 6511SOL    HW220433   3.031   2.800   0.520
 6512SOL     OW20434   4.607   1.377   0.575
 6512SOL    HW120435   4.654   1.465   0.580
 6512SOL    HW220436   4.553   1.373   0.491
 6513SOL     OW20437   2.493   4.518   2.770
 6513SOL    HW120438   2.438   4.453   2.822
 6513SOL    HW220439   2.438   4.556   2.695
 6514SOL     OW20440   5.425   6.732   5.836
 6514SOL    HW120441   5.347   6.709   5.779
 6514SOL    HW220442   5.509   6.722   5.782
 6515SOL     OW20443   1.164   5.101   2.992
 6515SOL    HW120444   1.066   5.082   2.986
 6515SOL    HW220445   1.188   5.172   2.926
 6516SOL     OW20446   6.850   2.808   2.235
 6516SOL    HW120447   6.892   2.769   2.318
 6516SOL    HW220448   6.778   2.746   2.203
 6517SOL     OW20449   6.493   3.353   0.448
 6517SOL    HW120450   6.486   3.451   0.468
 6517SOL    HW220451   6.508   3.340   0.350
 6518SOL     OW20452   0.499   1.093   2.029
 6518SOL    HW120453   0.543   1.179   2.056
 6518SOL    HW220454   0.455   1.051   2.109
 6519SOL     OW20455   1.092   0.726   3.608
 6519SOL    HW120456   1.176   0.779   3.596
 6519SOL    HW220457   1.024   0.755   3.541
 6520SOL     OW20458   0.257   5.455   0.525
 6520SOL    HW120459   0.256   5.355   0.523
 6520SOL    HW220460   0.341   5.488   0.483
 6521SOL     OW20461   1.915   4.553   4.052
 6521SOL    HW120462   1.853   4.554   3.974
 6521SOL    HW220463   1.957   4.463   4.061
 6522SOL     OW20464   2.516   2.811   5.314
 6522SOL    HW120465   2.518   2.905   5.279
 6522SOL    HW220466   2.435   2.765   5.277
 6523SOL     OW20467   6.147   6.634   0.554
 6523SOL    HW120468   6.168   6.538   0.534
 6523SOL    HW220469   6.212   6.670   0.620
 6524SOL     OW20470   2.868   3.069   1.160
 6524SOL    HW120471   2.870   3.052   1.258
 6524SOL    HW220472   2.810   3.001   1.115
 6525SOL     OW20473   0.852   5.075   3.362
 6525SOL    HW120474   0.888   5.072   3.456
 6525SOL    HW220475   0.926   5.056   3.298
 6526SOL     OW20476   1.034   5.966   0.581
 6526SOL    HW120477   1.127   5.994   0.604
 6526SOL    HW220478   0.981   5.955   0.665
 6527SOL     OW20479   5.960   1.634   0.775
 6527SOL    HW120480   5.937   1.702   0.845
 6527SOL    HW220481   6.025   1.674   0.711
 6528SOL     OW20482   4.274   6.618   0.011
 6528SOL    HW120483   4.322   6.570   0.084
 6528SOL    HW220484   4.233   6.552   6.969
 6529SOL     OW20485   5.252   6.945   2.177
 6529SOL    HW120486   5.192   0.005   2.180
 6529SOL    HW220487   5.308   6.943   2.260
 6530SOL     OW20488   0.514   2.752   3.144
 6530SOL    HW120489   0.501   2.814   3.066
 6530SOL    HW220490   0.564   2.800   3.216
 6531SOL     OW20491   3.769   3.760   4.956
 6531SOL    HW120492   3.709   3.817   5.014
 6531SOL    HW220493   3.840   3.719   5.013
 6532SOL     OW20494   1.647   6.842   0.381
 6532SOL    HW120495   1.673   6.766   0.439
 6532SOL    HW220496   1.552   6.869   0.402
 6533SOL     OW20497   4.818   4.537   1.962
 6533SOL    HW120498   4.775   4.496   1.882
 6533SOL    HW220499   4.905   4.492   1.980
 6534SOL     OW20500   7.000   4.606   3.384
 6534SOL    HW120501   6.906   4.570   3.384
 6534SOL    HW220502   0.040   4.539   3.342
 6535SOL     OW20503   5.031   3.727   5.521
 6535SOL    HW120504   5.003   3.673   5.442
 6535SOL    HW220505   5.124   3.761   5.506
 6536SOL     OW20506   0.914   4.669   5.252
 6536SOL    HW120507   0.828   4.718   5.269
 6536SOL    HW220508   0.981   4.731   5.213
 6537SOL     OW20509   6.165   5.363   3.753
 6537SOL    HW120510   6.072   5.326   3.741
 6537SOL    HW220511   6.226   5.290   3.783
 6538SOL     OW20512   1.144   2.435   4.637
 6538SOL    HW120513   1.107   2.504   4.701
 6538SOL    HW220514   1.099   2.445   4.548
 6539SOL     OW20515   4.531   6.600   6.462
 6539SOL    HW120516   4.532   6.623   6.365
 6539SOL    HW220517   4.476   6.667   6.512
 6540SOL     OW20518   6.905   2.899   5.445
 6540SOL    HW120519   7.002   2.894   5.467
 6540SOL    HW220520   6.859   2.816   5.477
 6541SOL     OW20521   5.180   1.910   5.756
 6541SOL    HW120522   5.165   1.814   5.783
 6541SOL    HW220523   5.272   1.938   5.783
 6542SOL     OW20524   1.261   3.689   2.674
 6542SOL    HW120525   1.329   3.686   2.600
 6542SOL    HW220526   1.196   3.763   2.657
 6543SOL     OW20527   3.733   1.621   4.778
 6543SOL    HW120528   3.827   1.591   4.760
 6543SOL    HW220529   3.731   1.671   4.865
 6544SOL     OW20530   0.587   6.927   0.526
 6544SOL    HW120531   0.572   7.005   0.588
 6544SOL    HW220532   0.499   6.885   0.504
 6545SOL     OW20533   4.801   6.795   1.355
 6545SOL    HW120534   4.708   6.768   1.334
 6545SOL    HW220535   4.866   6.740   1.302
 6546SOL     OW20536   5.281   4.371   6.372
 6546SOL    HW120537   5.341   4.408   6.442
 6546SOL    HW220538   5.262   4.441   6.303
 6547SOL     OW20539   0.635   6.442   5.533
 6547SOL    HW120540   0.567   6.442   5.460
 6547SOL    HW220541   0.668   6.349   5.548
 6548SOL     OW20542   0.042   1.281   5.995
 6548SOL    HW120543   7.010   1.251   5.916
 6548SOL    HW220544   0.128   1.230   5.999
 6549SOL     OW20545   4.176   1.567   2.674
 6549SOL    HW120546   4.150   1.508   2.751
 6549SOL    HW220547   4.095   1.587   2.619
 6550SOL     OW20548   5.876   6.339   2.854
 6550SOL    HW120549   5.831   6.368   2.938
 6550SOL    HW220550   5.859   6.406   2.782
 6551SOL     OW20551   2.715   4.047   0.758
 6551SOL    HW120552   2.619   4.018   0.759
 6551SOL    HW220553   2.759   4.016   0.842
 6552SOL     OW20554   1.953   5.124   0.156
 6552SOL    HW120555   1.932   5.222   0.152
 6552SOL    HW220556   1.875   5.072   0.121
 6553SOL     OW20557   0.780   1.765   3.414
 6553SOL    HW120558   0.875   1.736   3.406
 6553SOL    HW220559   0.775   1.850   3.466
 6554SOL     OW20560   1.496   2.043   4.182
 6554SOL    HW120561   1.452   1.990   4.255
 6554SOL    HW220562   1.519   2.134   4.217
 6555SOL     OW20563   0.077   4.142   3.907
 6555SOL    HW120564   0.001   4.126   3.970
 6555SOL    HW220565   0.163   4.126   3.954
 6556SOL     OW20566   4.844   2.946   2.696
 6556SOL    HW120567   4.853   2.890   2.778
 6556SOL    HW220568   4.768   2.912   2.641
 6557SOL     OW20569   1.896   0.603   2.398
 6557SOL    HW120570   1.826   0.639   2.460
 6557SOL    HW220571   1.911   0.669   2.323
 6558SOL     OW20572   5.378   6.520   6.911
 6558SOL    HW120573   5.476   6.526   6.890
 6558SOL    HW220574   5.364   6.460   6.989
 6559SOL     OW20575   6.492   3.056   6.255
 6559SOL    HW120576   6.478   3.063   6.156
 6559SOL    HW220577   6.440   3.128   6.302
 6560SOL     OW20578   6.523   4.996   0.186
 6560SOL    HW120579   6.516   4.931   0.262
 6560SOL    HW220580   6.618   5.023   0.173
 6561SOL     OW20581   2.949   4.299   0.325
 6561SOL    HW120582   2.960   4.226   0.392
 6561SOL    HW220583   2.995   4.382   0.357
 6562SOL     OW20584   5.447   2.867   1.651
 6562SOL    HW120585   5.366   2.916   1.619
 6562SOL    HW220586   5.452   2.779   1.605
 6563SOL     OW20587   6.128   5.164   5.323
 6563SOL    HW120588   6.208   5.224   5.331
 6563SOL    HW220589   6.112   5.143   5.227
 6564SOL     OW20590   5.951   3.151   2.649
 6564SOL    HW120591   5.916   3.084   2.715
 6564SOL    HW220592   5.894   3.150   2.567
 6565SOL     OW20593   5.455   6.866   3.019
 6565SOL    HW120594   5.398   6.924   2.961
 6565SOL    HW220595   5.470   6.911   3.107
 6566SOL     OW20596   5.059   5.641   3.690
 6566SOL    HW120597   5.132   5.648   3.757
 6566SOL    HW220598   5.076   5.563   3.629
 6567SOL     OW20599   3.962   0.506   2.256
 6567SOL    HW120600   3.869   0.471   2.259
 6567SOL    HW220601   4.018   0.461   2.325
 6568SOL     OW20602   4.339   1.521   0.969
 6568SOL    HW120603   4.349   1.621   0.962
 6568SOL    HW220604   4.375   1.478   0.886
 6569SOL     OW20605   0.849   4.699   4.264
 6569SOL    HW120606   0.874   4.756   4.186
 6569SOL    HW220607   0.923   4.699   4.331
 6570SOL     OW20608   4.334   6.823   2.216
 6570SOL    HW120609   4.323   6.841   2.119
 6570SOL    HW220610   4.430   6.831   2.242
 6571SOL     OW20611   2.988   6.051   3.241
 6571SOL    HW120612   2.933   5.969   3.228
 6571SOL    HW220613   2.954   6.123   3.180
 6572SOL     OW20614   1.813   5.849   3.661
 6572SOL    HW120615   1.734   5.877   3.606
 6572SOL    HW220616   1.822   5.750   3.659
 6573SOL     OW20617   0.762   2.057   3.007
 6573SOL    HW120618   0.749   2.125   3.079
 6573SOL    HW220619   0.822   1.984   3.041
 6574SOL     OW20620   1.508   4.567   2.077
 6574SOL    HW120621   1.528   4.569   1.979
 6574SOL    HW220622   1.572   4.626   2.126
 6575SOL     OW20623   0.413   1.375   3.451
 6575SOL    HW120624   0.382   1.315   3.377
 6575SOL    HW220625   0.490   1.430   3.420
 6576SOL     OW20626   4.552   6.688   1.369
 6576SOL    HW120627   4.562   6.616   1.439
 6576SOL    HW220628   4.475   6.747   1.393
 6577SOL     OW20629   3.218   1.300   3.962
 6577SOL    HW120630   3.262   1.216   3.995
 6577SOL    HW220631   3.169   1.281   3.878
 6578SOL     OW20632   0.782   4.760   0.612
 6578SOL    HW120633   0.845   4.717   0.676
 6578SOL    HW220634   0.689   4.728   0.630
 6579SOL     OW20635   0.338   0.912   4.167
 6579SOL    HW120636   0.380   0.951   4.085
 6579SOL    HW220637   0.283   0.982   4.213
 6580SOL     OW20638   2.174   1.800   0.592
 6580SOL    HW120639   2.094   1.845   0.551
 6580SOL    HW220640   2.257   1.848   0.564
 6581SOL     OW20641   0.436   2.164   0.894
 6581SOL    HW120642   0.418   2.247   0.841
 6581SOL    HW220643   0.366   2.154   0.965
 6582SOL     OW20644   5.879   1.319   3.177
 6582SOL    HW120645   5.834   1.395   3.131
 6582SOL    HW220646   5.927   1.262   3.110
 6583SOL     OW20647   3.298   4.641   0.307
 6583SOL    HW120648   3.396   4.656   0.297
 6583SOL    HW220649   3.260   4.610   0.220
 6584SOL     OW20650   4.473   2.116   6.517
 6584SOL    HW120651   4.424   2.180   6.577
 6584SOL    HW220652   4.409   2.047   6.483
 6585SOL     OW20653   5.830   0.181   2.248
 6585SOL    HW120654   5.910   0.196   2.306
 6585SOL    HW220655   5.858   0.171   2.153
 6586SOL     OW20656   6.769   1.256   6.649
 6586SOL    HW120657   6.855   1.217   6.680
 6586SOL    HW220658   6.786   1.347   6.609
 6587SOL     OW20659   2.366   4.789   5.003
 6587SOL    HW120660   2.327   4.758   5.089
 6587SOL    HW220661   2.437   4.726   4.973
 6588SOL     OW20662   0.237   2.249   0.549
 6588SOL    HW120663   0.236   2.156   0.585
 6588SOL    HW220664   0.331   2.274   0.524
 6589SOL     OW20665   0.128   6.804   2.375
 6589SOL    HW120666   0.102   6.729   2.437
 6589SOL    HW220667   0.046   6.844   2.335
 6590SOL     OW20668   0.995   6.337   4.095
 6590SOL    HW120669   1.040   6.281   4.026
 6590SOL    HW220670   1.050   6.337   4.179
 6591SOL     OW20671   6.240   4.017   3.652
 6591SOL    HW120672   6.223   3.926   3.615
 6591SOL    HW220673   6.188   4.084   3.600
 6592SOL     OW20674   6.277   6.568   3.952
 6592SOL    HW120675   6.188   6.542   3.912
 6592SOL    HW220676   6.275   6.552   4.050
 6593SOL     OW20677   1.476   1.008   1.961
 6593SOL    HW120678   1.509   1.079   1.899
 6593SOL    HW220679   1.477   1.043   2.055
 6594SOL     OW20680   4.933   6.976   6.990
 6594SOL    HW120681   5.003   6.906   7.001
 6594SOL    HW220682   4.843   6.932   6.987
 6595SOL     OW20683   0.794   1.987   5.179
 6595SOL    HW120684   0.884   1.945   5.174
 6595SOL    HW220685   0.794   2.060   5.248
 6596SOL     OW20686   5.216   0.835   2.502
 6596SOL    HW120687   5.215   0.830   2.402
 6596SOL    HW220688   5.179   0.751   2.540
 6597SOL     OW20689   0.412   4.470   1.133
 6597SOL    HW120690   0.410   4.392   1.196
 6597SOL    HW220691   0.367   4.445   1.048
 6598SOL     OW20692   2.030   4.954   3.821
 6598SOL    HW120693   2.054   4.857   3.821
 6598SOL    HW220694   1.957   4.970   3.887
 6599SOL     OW20695   0.136   5.613   6.115
 6599SOL    HW120696   0.217   5.671   6.109
 6599SOL    HW220697   0.136   5.563   6.201
 6600SOL     OW20698   4.521   0.127   5.556
 6600SOL    HW120699   4.585   0.140   5.481
 6600SOL    HW220700   4.545   0.188   5.632
 6601SOL     OW20701   1.522   2.084   1.709
 6601SOL    HW120702   1.600   2.047   1.760
 6601SOL    HW220703   1.544   2.086   1.612
 6602SOL     OW20704   0.330   5.676   1.727
 6602SOL    HW120705   0.314   5.578   1.736
 6602SOL    HW220706   0.373   5.695   1.638
 6603SOL     OW20707   0.111   3.914   2.681
 6603SOL    HW120708   0.014   3.890   2.685
 6603SOL    HW220709   0.152   3.874   2.599
 6604SOL     OW20710   1.734   5.846   3.035
 6604SOL    HW120711   1.677   5.766   3.053
 6604SOL    HW220712   1.791   5.864   3.115
 6605SOL     OW20713   6.999   5.790   1.044
 6605SOL    HW120714   0.051   5.858   1.047
 6605SOL    HW220715   6.931   5.810   1.114
 6606SOL     OW20716   1.615   3.126   2.927
 6606SOL    HW120717   1.686   3.170   2.872
 6606SOL    HW220718   1.593   3.037   2.887
 6607SOL     OW20719   5.970   3.279   3.655
 6607SOL    HW120720   5.888   3.295   3.710
 6607SOL    HW220721   5.944   3.240   3.567
 6608SOL     OW20722   1.487   6.695   5.871
 6608SOL    HW120723   1.548   6.680   5.793
 6608SOL    HW220724   1.509   6.630   5.943
 6609SOL     OW20725   4.109   1.622   6.870
 6609SOL    HW120726   4.138   1.627   6.966
 6609SOL    HW220727   4.187   1.643   6.811
 6610SOL     OW20728   2.718   5.488   1.095
 6610SOL    HW120729   2.775   5.497   1.176
 6610SOL    HW220730   2.659   5.568   1.087
 6611SOL     OW20731   3.101   1.866   4.811
 6611SOL    HW120732   3.075   1.956   4.844
 6611SOL    HW220733   3.039   1.797   4.850
 6612SOL     OW20734   0.256   0.455   6.498
 6612SOL    HW120735   0.223   0.470   6.591
 6612SOL    HW220736   0.197   0.505   6.434
 6613SOL     OW20737   4.361   0.187   0.758
 6613SOL    HW120738   4.326   0.096   0.736
 6613SOL    HW220739   4.322   0.253   0.693
 6614SOL     OW20740   4.239   5.084   0.512
 6614SOL    HW120741   4.157   5.070   0.456
 6614SOL    HW220742   4.238   5.022   0.590
 6615SOL     OW20743   3.940   5.598   5.788
 6615SOL    HW120744   3.881   5.613   5.709
 6615SOL    HW220745   3.964   5.501   5.793
 6616SOL     OW20746   4.055   1.261   0.117
 6616SOL    HW120747   4.014   1.293   0.032
 6616SOL    HW220748   3.983   1.232   0.180
 6617SOL     OW20749   3.839   0.722   3.951
 6617SOL    HW120750   3.848   0.737   4.049
 6617SOL    HW220751   3.768   0.783   3.914
 6618SOL     OW20752   6.036   2.515   4.192
 6618SOL    HW120753   6.016   2.445   4.123
 6618SOL    HW220754   5.959   2.579   4.198
 6619SOL     OW20755   4.908   5.529   3.917
 6619SOL    HW120756   4.951   5.583   3.846
 6619SOL    HW220757   4.808   5.533   3.906
 6620SOL     OW20758   1.219   2.638   3.192
 6620SOL    HW120759   1.301   2.637   3.249
 6620SOL    HW220760   1.242   2.671   3.100
 6621SOL     OW20761   3.231   3.672   4.549
 6621SOL    HW120762   3.146   3.724   4.560
 6621SOL    HW220763   3.270   3.691   4.459
 6622SOL     OW20764   0.405   5.165   0.963
 6622SOL    HW120765   0.325   5.225   0.955
 6622SOL    HW220766   0.402   5.119   1.052
 6623SOL     OW20767   3.043   3.981   4.707
 6623SOL    HW120768   3.085   4.022   4.787
 6623SOL    HW220769   2.954   3.942   4.731
 6624SOL     OW20770   2.559   2.174   2.781
 6624SOL    HW120771   2.637   2.180   2.843
 6624SOL    HW220772   2.555   2.082   2.742
 6625SOL     OW20773   6.239   4.039   5.717
 6625SOL    HW120774   6.183   3.956   5.727
 6625SOL    HW220775   6.284   4.037   5.628
 6626SOL     OW20776   3.019   6.009   5.524
 6626SOL    HW120777   2.942   5.955   5.488
 6626SOL    HW220778   3.104   5.957   5.514
 6627SOL     OW20779   2.023   6.132   4.089
 6627SOL    HW120780   1.957   6.082   4.033
 6627SOL    HW220781   1.975   6.176   4.166
 6628SOL     OW20782   3.566   5.977   3.593
 6628SOL    HW120783   3.560   5.932   3.683
 6628SOL    HW220784   3.481   5.964   3.543
 6629SOL     OW20785   5.201   5.767   5.998
 6629SOL    HW120786   5.121   5.783   5.940
 6629SOL    HW220787   5.220   5.848   6.052
 6630SOL     OW20788   1.638   1.007   0.297
 6630SOL    HW120789   1.542   1.035   0.301
 6630SOL    HW220790   1.696   1.086   0.318
 6631SOL     OW20791   2.062   3.424   5.980
 6631SOL    HW120792   2.159   3.413   5.959
 6631SOL    HW220793   2.048   3.510   6.030
 6632SOL     OW20794   1.360   0.072   0.296
 6632SOL    HW120795   1.271   0.091   0.253
 6632SOL    HW220796   1.430   0.129   0.254
 6633SOL     OW20797   4.010   5.299   6.349
 6633SOL    HW120798   4.025   5.392   6.316
 6633SOL    HW220799   4.042   5.291   6.443
 6634SOL     OW20800   3.695   2.121   4.055
 6634SOL    HW120801   3.614   2.150   4.004
 6634SOL    HW220802   3.738   2.044   4.007
 6635SOL     OW20803   4.842   5.189   4.880
 6635SOL    HW120804   4.921   5.225   4.830
 6635SOL    HW220805   4.824   5.247   4.959
 6636SOL     OW20806   4.525   0.747   0.174
 6636SOL    HW120807   4.475   0.787   0.097
 6636SOL    HW220808   4.476   0.767   0.259
 6637SOL     OW20809   0.204   1.977   0.628
 6637SOL    HW120810   0.127   1.998   0.688
 6637SOL    HW220811   0.278   1.935   0.682
 6638SOL     OW20812   3.152   4.058   4.025
 6638SOL    HW120813   3.113   4.067   3.933
 6638SOL    HW220814   3.100   3.990   4.076
 6639SOL     OW20815   4.944   2.837   0.619
 6639SOL    HW120816   4.989   2.787   0.692
 6639SOL    HW220817   4.932   2.933   0.646
 6640SOL     OW20818   1.585   4.357   4.998
 6640SOL    HW120819   1.641   4.329   5.076
 6640SOL    HW220820   1.637   4.345   4.913
 6641SOL     OW20821   5.889   2.211   0.939
 6641SOL    HW120822   5.970   2.267   0.956
 6641SOL    HW220823   5.904   2.156   0.857
 6642SOL     OW20824   1.883   5.862   0.073
 6642SOL    HW120825   1.821   5.891   0.145
 6642SOL    HW220826   1.964   5.921   0.072
 6643SOL     OW20827   3.397   5.908   6.054
 6643SOL    HW120828   3.447   5.868   5.977
 6643SOL    HW220829   3.453   5.903   6.137
 6644SOL     OW20830   1.823   6.192   3.820
 6644SOL    HW120831   1.877   6.204   3.736
 6644SOL    HW220832   1.858   6.114   3.871
 6645SOL     OW20833   6.009   3.082   6.665
 6645SOL    HW120834   5.998   3.161   6.725
 6645SOL    HW220835   6.052   3.111   6.579
 6646SOL     OW20836   4.094   6.537   5.738
 6646SOL    HW120837   4.137   6.508   5.823
 6646SOL    HW220838   4.097   6.637   5.732
 6647SOL     OW20839   4.368   5.189   1.102
 6647SOL    HW120840   4.420   5.193   1.017
 6647SOL    HW220841   4.324   5.099   1.110
 6648SOL     OW20842   3.102   6.306   5.303
 6648SOL    HW120843   3.165   6.287   5.378
 6648SOL    HW220844   3.153   6.314   5.218
 6649SOL     OW20845   4.891   2.732   6.425
 6649SOL    HW120846   4.839   2.764   6.345
 6649SOL    HW220847   4.960   2.666   6.395
 6650SOL     OW20848   1.731   1.508   5.198
 6650SOL    HW120849   1.703   1.600   5.170
 6650SOL    HW220850   1.830   1.505   5.209
 6651SOL     OW20851   6.713   2.079   5.880
 6651SOL    HW120852   6.636   2.098   5.819
 6651SOL    HW220853   6.699   2.128   5.967
 6652SOL     OW20854   6.726   4.574   0.211
 6652SOL    HW120855   6.741   4.658   0.159
 6652SOL    HW220856   6.688   4.504   0.151
 6653SOL     OW20857   5.806   4.691   0.124
 6653SOL    HW120858   5.902   4.719   0.124
 6653SOL    HW220859   5.773   4.681   0.218
 6654SOL     OW20860   6.230   3.776   3.574
 6654SOL    HW120861   6.168   3.785   3.496
 6654SOL    HW220862   6.217   3.686   3.615
 6655SOL     OW20863   0.045   5.675   1.960
 6655SOL    HW120864   0.137   5.643   1.984
 6655SOL    HW220865   0.052   5.757   1.903
 6656SOL     OW20866   4.264   1.475   3.727
 6656SOL    HW120867   4.342   1.497   3.668
 6656SOL    HW220868   4.247   1.550   3.790
 6657SOL     OW20869   5.460   2.183   3.944
 6657SOL    HW120870   5.386   2.235   3.985
 6657SOL    HW220871   5.423   2.102   3.898
 6658SOL     OW20872   6.754   5.809   5.488
 6658SOL    HW120873   6.712   5.813   5.397
 6658SOL    HW220874   6.723   5.726   5.535
 6659SOL     OW20875   0.926   4.789   1.557
 6659SOL    HW120876   0.874   4.748   1.631
 6659SOL    HW220877   0.969   4.873   1.589
 6660SOL     OW20878   6.939   6.910   4.424
 6660SOL    HW120879   6.938   6.821   4.469
 6660SOL    HW220880   6.850   6.954   4.435
 6661SOL     OW20881   4.178   5.697   3.816
 6661SOL    HW120882   4.145   5.761   3.747
 6661SOL    HW220883   4.232   5.747   3.884
 6662SOL     OW20884   3.992   6.762   2.339
 6662SOL    HW120885   3.967   6.692   2.272
 6662SOL    HW220886   4.088   6.750   2.365
 6663SOL     OW20887   0.821   4.329   5.863
 6663SOL    HW120888   0.792   4.233   5.862
 6663SOL    HW220889   0.764   4.382   5.801
 6664SOL     OW20890   2.755   0.312   1.003
 6664SOL    HW120891   2.810   0.334   1.084
 6664SOL    HW220892   2.680   0.251   1.028
 6665SOL     OW20893   2.506   0.740   6.712
 6665SOL    HW120894   2.537   0.725   6.806
 6665SOL    HW220895   2.439   0.814   6.711
 6666SOL     OW20896   3.583   6.200   5.177
 6666SOL    HW120897   3.676   6.232   5.193
 6666SOL    HW220898   3.584   6.101   5.163
 6667SOL     OW20899   0.962   5.911   6.599
 6667SOL    HW120900   0.967   5.821   6.556
 6667SOL    HW220901   0.957   5.900   6.698
 6668SOL     OW20902   0.152   4.227   0.409
 6668SOL    HW120903   0.087   4.285   0.459
 6668SOL    HW220904   0.119   4.212   0.316
 6669SOL     OW20905   1.297   1.937   2.782
 6669SOL    HW120906   1.251   2.010   2.833
 6669SOL    HW220907   1.390   1.925   2.818
 6670SOL     OW20908   3.566   2.760   0.134
 6670SOL    HW120909   3.629   2.822   0.182
 6670SOL    HW220910   3.548   2.795   0.042
 6671SOL     OW20911   4.271   4.860   6.967
 6671SOL    HW120912   4.254   4.898   0.038
 6671SOL    HW220913   4.191   4.808   6.937
 6672SOL     OW20914   1.307   2.288   1.688
 6672SOL    HW120915   1.393   2.243   1.712
 6672SOL    HW220916   1.231   2.245   1.738
 6673SOL     OW20917   6.333   2.720   3.922
 6673SOL    HW120918   6.407   2.786   3.912
 6673SOL    HW220919   6.245   2.765   3.905
 6674SOL     OW20920   0.572   1.484   0.416
 6674SOL    HW120921   0.628   1.409   0.380
 6674SOL    HW220922   0.486   1.447   0.452
 6675SOL     OW20923   4.644   0.485   6.464
 6675SOL    HW120924   4.692   0.541   6.532
 6675SOL    HW220925   4.617   0.399   6.506
 6676SOL     OW20926   0.593   3.939   4.142
 6676SOL    HW120927   0.648   4.002   4.197
 6676SOL    HW220928   0.497   3.945   4.170
 6677SOL     OW20929   0.641   1.528   6.080
 6677SOL    HW120930   0.633   1.538   5.981
 6677SOL    HW220931   0.580   1.455   6.111
 6678SOL     OW20932   2.447   4.156   6.336
 6678SOL    HW120933   2.418   4.242   6.379
 6678SOL    HW220934   2.444   4.166   6.237
 6679SOL     OW20935   1.530   0.699   3.773
 6679SOL    HW120936   1.437   0.714   3.806
 6679SOL    HW220937   1.555   0.603   3.786
 6680SOL     OW20938   6.699   6.203   1.233
 6680SOL    HW120939   6.696   6.209   1.332
 6680SOL    HW220940   6.686   6.294   1.193
 6681SOL     OW20941   3.306   6.068   1.645
 6681SOL    HW120942   3.231   6.099   1.586
 6681SOL    HW220943   3.392   6.071   1.594
 6682SOL     OW20944   3.274   5.617   6.042
 6682SOL    HW120945   3.339   5.691   6.054
 6682SOL    HW220946   3.255   5.604   5.945
 6683SOL     OW20947   0.298   4.651   6.199
 6683SOL    HW120948   0.257   4.738   6.227
 6683SOL    HW220949   0.265   4.578   6.258
 6684SOL     OW20950   3.263   6.072   0.001
 6684SOL    HW120951   3.207   6.146   0.040
 6684SOL    HW220952   3.264   5.994   0.063
 6685SOL     OW20953   5.325   2.828   0.210
 6685SOL    HW120954   5.381   2.782   0.142
 6685SOL    HW220955   5.251   2.877   0.165
 6686SOL     OW20956   5.289   5.339   5.024
 6686SOL    HW120957   5.280   5.247   5.062
 6686SOL    HW220958   5.304   5.333   4.925
 6687SOL     OW20959   6.776   1.735   1.672
 6687SOL    HW120960   6.799   1.823   1.630
 6687SOL    HW220961   6.853   1.673   1.663
 6688SOL     OW20962   4.687   5.087   1.169
 6688SOL    HW120963   4.714   4.990   1.165
 6688SOL    HW220964   4.604   5.101   1.115
 6689SOL     OW20965   2.548   4.652   5.617
 6689SOL    HW120966   2.635   4.688   5.581
 6689SOL    HW220967   2.551   4.653   5.717
 6690SOL     OW20968   0.462   0.244   6.224
 6690SOL    HW120969   0.453   0.145   6.210
 6690SOL    HW220970   0.460   0.264   6.321
 6691SOL     OW20971   3.155   2.121   2.389
 6691SOL    HW120972   3.150   2.059   2.467
 6691SOL    HW220973   3.068   2.172   2.381
 6692SOL     OW20974   4.229   5.353   2.544
 6692SOL    HW120975   4.275   5.424   2.490
 6692SOL    HW220976   4.192   5.394   2.628
 6693SOL     OW20977   3.304   1.634   5.065
 6693SOL    HW120978   3.344   1.718   5.026
 6693SOL    HW220979   3.377   1.573   5.093
 6694SOL     OW20980   3.624   4.211   1.800
 6694SOL    HW120981   3.549   4.212   1.866
 6694SOL    HW220982   3.701   4.159   1.838
 6695SOL     OW20983   2.530   1.775   0.734
 6695SOL    HW120984   2.480   1.802   0.816
 6695SOL    HW220985   2.493   1.824   0.655
 6696SOL     OW20986   3.897   3.015   4.221
 6696SOL    HW120987   3.955   3.094   4.202
 6696SOL    HW220988   3.874   2.969   4.135
 6697SOL     OW20989   4.306   2.143   1.927
 6697SOL    HW120990   4.234   2.092   1.881
 6697SOL    HW220991   4.292   2.241   1.913
 6698SOL     OW20992   3.269   4.246   1.707
 6698SOL    HW120993   3.318   4.227   1.792
 6698SOL    HW220994   3.283   4.341   1.680
 6699SOL     OW20995   1.250   3.978   5.509
 6699SOL    HW120996   1.184   3.906   5.531
 6699SOL    HW220997   1.339   3.956   5.548
 6700SOL     OW20998   5.550   0.291   0.506
 6700SOL    HW120999   5.598   0.289   0.594
 6700SOL    HW221000   5.551   0.200   0.465
 6701SOL     OW21001   6.286   0.143   1.758
 6701SOL    HW121002   6.314   0.226   1.711
 6701SOL    HW221003   6.230   0.087   1.698
 6702SOL     OW21004   3.531   3.024   1.055
 6702SOL    HW121005   3.563   3.055   0.966
 6702SOL    HW221006   3.532   3.101   1.120
 6703SOL     OW21007   7.019   1.378   0.515
 6703SOL    HW121008   6.966   1.457   0.483
 6703SOL    HW221009   6.965   1.327   0.582
 6704SOL     OW21010   3.290   6.556   5.973
 6704SOL    HW121011   3.236   6.523   5.896
 6704SOL    HW221012   3.299   6.655   5.969
 6705SOL     OW21013   0.138   4.545   2.618
 6705SOL    HW121014   0.100   4.518   2.707
 6705SOL    HW221015   0.189   4.630   2.629
 6706SOL     OW21016   0.074   6.498   1.406
 6706SOL    HW121017   0.001   6.469   1.468
 6706SOL    HW221018   0.065   6.596   1.388
 6707SOL     OW21019   5.047   1.284   2.276
 6707SOL    HW121020   5.093   1.344   2.341
 6707SOL    HW221021   5.062   1.319   2.183
 6708SOL     OW21022   1.124   3.787   0.529
 6708SOL    HW121023   1.040   3.819   0.572
 6708SOL    HW221024   1.200   3.795   0.593
 6709SOL     OW21025   2.286   4.256   2.331
 6709SOL    HW121026   2.307   4.273   2.234
 6709SOL    HW221027   2.365   4.282   2.386
 6710SOL     OW21028   4.710   1.555   1.075
 6710SOL    HW121029   4.780   1.500   1.030
 6710SOL    HW221030   4.658   1.606   1.006
 6711SOL     OW21031   3.157   6.164   6.440
 6711SOL    HW121032   3.203   6.088   6.396
 6711SOL    HW221033   3.062   6.139   6.460
 6712SOL     OW21034   5.466   4.343   1.753
 6712SOL    HW121035   5.453   4.266   1.816
 6712SOL    HW221036   5.377   4.381   1.728
 6713SOL     OW21037   1.815   5.105   4.417
 6713SOL    HW121038   1.828   5.022   4.364
 6713SOL    HW221039   1.786   5.082   4.510
 6714SOL     OW21040   5.289   1.289   1.630
 6714SOL    HW121041   5.318   1.351   1.557
 6714SOL    HW221042   5.344   1.306   1.712
 6715SOL     OW21043   1.904   0.557   6.689
 6715SOL    HW121044   1.980   0.619   6.709
 6715SOL    HW221045   1.923   0.506   6.605
 6716SOL     OW21046   6.881   5.992   2.488
 6716SOL    HW121047   6.968   5.943   2.485
 6716SOL    HW221048   6.865   6.036   2.399
 6717SOL     OW21049   5.813   1.885   5.927
 6717SOL    HW121050   5.830   1.982   5.911
 6717SOL    HW221051   5.774   1.873   6.018
 6718SOL     OW21052   4.455   1.673   0.622
 6718SOL    HW121053   4.470   1.663   0.523
 6718SOL    HW221054   4.404   1.594   0.656
 6719SOL     OW21055   1.847   1.218   6.799
 6719SOL    HW121056   1.943   1.234   6.776
 6719SOL    HW221057   1.822   1.124   6.776
 6720SOL     OW21058   1.572   0.902   6.066
 6720SOL    HW121059   1.509   0.842   6.114
 6720SOL    HW221060   1.589   0.984   6.121
 6721SOL     OW21061   5.864   0.668   0.918
 6721SOL    HW121062   5.905   0.657   0.828
 6721SOL    HW221063   5.891   0.593   0.977
 6722SOL     OW21064   5.577   3.717   0.150
 6722SOL    HW121065   5.592   3.623   0.120
 6722SOL    HW221066   5.646   3.777   0.109
 6723SOL     OW21067   1.041   2.538   5.671
 6723SOL    HW121068   1.034   2.636   5.688
 6723SOL    HW221069   0.988   2.488   5.739
 6724SOL     OW21070   2.170   3.635   4.304
 6724SOL    HW121071   2.114   3.717   4.316
 6724SOL    HW221072   2.163   3.604   4.210
 6725SOL     OW21073   5.308   2.522   3.195
 6725SOL    HW121074   5.233   2.499   3.134
 6725SOL    HW221075   5.391   2.475   3.165
 6726SOL     OW21076   0.442   0.385   5.544
 6726SOL    HW121077   0.403   0.307   5.494
 6726SOL    HW221078   0.536   0.364   5.571
 6727SOL     OW21079   1.455   5.025   5.857
 6727SOL    HW121080   1.537   5.082   5.851
 6727SOL    HW221081   1.464   4.962   5.933
 6728SOL     OW21082   3.603   1.567   2.694
 6728SOL    HW121083   3.545   1.490   2.667
 6728SOL    HW221084   3.555   1.653   2.675
 6729SOL     OW21085   4.168   1.270   2.416
 6729SOL    HW121086   4.138   1.179   2.387
 6729SOL    HW221087   4.264   1.266   2.442
 6730SOL     OW21088   0.213   1.512   0.960
 6730SOL    HW121089   0.298   1.508   1.012
 6730SOL    HW221090   0.227   1.566   0.877
 6731SOL     OW21091   3.509   0.002   6.403
 6731SOL    HW121092   3.585   0.066   6.393
 6731SOL    HW221093   3.502   6.994   6.499
 6732SOL     OW21094   6.625   5.164   5.393
 6732SOL    HW121095   6.649   5.156   5.490
 6732SOL    HW221096   6.568   5.245   5.379
 6733SOL     OW21097   4.779   4.645   6.125
 6733SOL    HW121098   4.719   4.566   6.122
 6733SOL    HW221099   4.802   4.674   6.032
 6734SOL     OW21100   6.112   1.886   4.070
 6734SOL    HW121101   6.175   1.945   4.121
 6734SOL    HW221102   6.039   1.942   4.031
 6735SOL     OW21103   6.462   2.395   3.082
 6735SOL    HW121104   6.434   2.439   2.996
 6735SOL    HW221105   6.562   2.391   3.086
 6736SOL     OW21106   3.362   3.746   0.888
 6736SOL    HW121107   3.273   3.754   0.843
 6736SOL    HW221108   3.405   3.659   0.863
 6737SOL     OW21109   6.826   3.647   0.132
 6737SOL    HW121110   6.811   3.710   0.208
 6737SOL    HW221111   6.767   3.673   0.055
 6738SOL     OW21112   1.084   6.332   3.636
 6738SOL    HW121113   1.139   6.271   3.580
 6738SOL    HW221114   1.048   6.281   3.715
 6739SOL     OW21115   6.952   0.061   4.958
 6739SOL    HW121116   6.886   7.007   4.946
 6739SOL    HW221117   6.958   0.113   4.872
 6740SOL     OW21118   0.361   6.743   3.043
 6740SOL    HW121119   0.426   6.768   3.115
 6740SOL    HW221120   0.340   6.824   2.988
 6741SOL     OW21121   3.963   1.878   6.795
 6741SOL    HW121122   3.966   1.839   6.703
 6741SOL    HW221123   3.971   1.805   6.863
 6742SOL     OW21124   5.614   4.641   3.776
 6742SOL    HW121125   5.555   4.587   3.716
 6742SOL    HW221126   5.565   4.664   3.860
 6743SOL     OW21127   4.054   3.815   0.590
 6743SOL    HW121128   4.073   3.912   0.600
 6743SOL    HW221129   4.120   3.762   0.642
 6744SOL     OW21130   6.171   6.678   6.075
 6744SOL    HW121131   6.162   6.616   6.153
 6744SOL    HW221132   6.164   6.625   5.990
 6745SOL     OW21133   0.223   4.644   5.306
 6745SOL    HW121134   0.123   4.649   5.316
 6745SOL    HW221135   0.249   4.684   5.218
 6746SOL     OW21136   0.678   1.990   2.446
 6746SOL    HW121137   0.755   2.054   2.442
 6746SOL    HW221138   0.710   1.901   2.477
 6747SOL     OW21139   1.721   6.373   5.587
 6747SOL    HW121140   1.661   6.385   5.666
 6747SOL    HW221141   1.764   6.284   5.591
 6748SOL     OW21142   2.192   1.075   4.578
 6748SOL    HW121143   2.195   1.067   4.677
 6748SOL    HW221144   2.116   1.022   4.542
 6749SOL     OW21145   4.068   5.112   1.865
 6749SOL    HW121146   4.001   5.090   1.793
 6749SOL    HW221147   4.021   5.115   1.954
 6750SOL     OW21148   3.683   1.269   5.232
 6750SOL    HW121149   3.609   1.209   5.264
 6750SOL    HW221150   3.660   1.364   5.253
 6751SOL     OW21151   4.615   6.991   4.073
 6751SOL    HW121152   4.546   0.030   4.115
 6751SOL    HW221153   4.698   0.023   4.055
 6752SOL     OW21154   1.985   4.663   2.130
 6752SOL    HW121155   1.941   4.654   2.041
 6752SOL    HW221156   2.022   4.756   2.140
 6753SOL     OW21157   3.726   3.289   5.627
 6753SOL    HW121158   3.720   3.215   5.695
 6753SOL    HW221159   3.779   3.365   5.666
 6754SOL     OW21160   6.250   1.624   0.680
 6754SOL    HW121161   6.267   1.721   0.665
 6754SOL    HW221162   6.220   1.609   0.774
 6755SOL     OW21163   2.635   5.651   6.395
 6755SOL    HW121164   2.542   5.672   6.426
 6755SOL    HW221165   2.640   5.662   6.296
 6756SOL     OW21166   2.809   1.802   5.837
 6756SOL    HW121167   2.905   1.773   5.841
 6756SOL    HW221168   2.767   1.768   5.752
 6757SOL     OW21169   4.043   6.873   0.946
 6757SOL    HW121170   4.045   6.956   1.001
 6757SOL    HW221171   3.955   6.867   0.898
 6758SOL     OW21172   5.271   1.846   3.083
 6758SOL    HW121173   5.285   1.907   3.006
 6758SOL    HW221174   5.210   1.890   3.150
 6759SOL     OW21175   0.128   2.161   2.631
 6759SOL    HW121176   0.109   2.175   2.534
 6759SOL    HW221177   0.186   2.080   2.642
 6760SOL     OW21178   5.212   2.639   4.330
 6760SOL    HW121179   5.160   2.567   4.376
 6760SOL    HW221180   5.227   2.715   4.392
 6761SOL     OW21181   4.175   1.627   4.811
 6761SOL    HW121182   4.242   1.657   4.743
 6761SOL    HW221183   4.112   1.562   4.769
 6762SOL     OW21184   6.487   5.572   3.991
 6762SOL    HW121185   6.457   5.562   3.896
 6762SOL    HW221186   6.422   5.631   4.040
 6763SOL     OW21187   5.462   5.570   5.035
 6763SOL    HW121188   5.393   5.621   4.983
 6763SOL    HW221189   5.433   5.474   5.043
 6764SOL     OW21190   1.380   5.304   0.724
 6764SOL    HW121191   1.367   5.394   0.766
 6764SOL    HW221192   1.475   5.296   0.692
 6765SOL     OW21193   0.199   5.049   2.955
 6765SOL    HW121194   0.163   5.131   2.910
 6765SOL    HW221195   0.276   5.013   2.902
 6766SOL     OW21196   5.819   0.772   1.356
 6766SOL    HW121197   5.844   0.813   1.444
 6766SOL    HW221198   5.895   0.782   1.292
 6767SOL     OW21199   3.108   0.685   0.688
 6767SOL    HW121200   3.136   0.752   0.619
 6767SOL    HW221201   3.013   0.659   0.674
 6768SOL     OW21202   1.976   0.918   0.726
 6768SOL    HW121203   2.025   0.881   0.647
 6768SOL    HW221204   1.877   0.908   0.711
 6769SOL     OW21205   4.143   3.070   1.652
 6769SOL    HW121206   4.242   3.077   1.668
 6769SOL    HW221207   4.099   3.156   1.679
 6770SOL     OW21208   0.425   0.354   1.580
 6770SOL    HW121209   0.400   0.323   1.671
 6770SOL    HW221210   0.506   0.412   1.585
 6771SOL     OW21211   4.285   2.215   3.220
 6771SOL    HW121212   4.328   2.129   3.247
 6771SOL    HW221213   4.209   2.197   3.158
 6772SOL     OW21214   3.517   1.589   3.279
 6772SOL    HW121215   3.429   1.542   3.288
 6772SOL    HW221216   3.535   1.607   3.182
 6773SOL     OW21217   0.531   4.150   1.965
 6773SOL    HW121218   0.457   4.138   1.898
 6773SOL    HW221219   0.599   4.079   1.953
 6774SOL     OW21220   0.739   1.502   6.358
 6774SOL    HW121221   0.736   1.527   6.261
 6774SOL    HW221222   0.651   1.464   6.385
 6775SOL     OW21223   2.386   4.712   0.085
 6775SOL    HW121224   2.431   4.718   0.174
 6775SOL    HW221225   2.320   4.637   0.086
 6776SOL     OW21226   5.941   5.800   6.957
 6776SOL    HW121227   6.002   5.736   7.004
 6776SOL    HW221228   5.863   5.749   6.919
 6777SOL     OW21229   4.906   4.735   6.625
 6777SOL    HW121230   4.969   4.774   6.558
 6777SOL    HW221231   4.934   4.642   6.647
 6778SOL     OW21232   0.535   6.040   2.815
 6778SOL    HW121233   0.510   5.944   2.814
 6778SOL    HW221234   0.601   6.058   2.889
 6779SOL     OW21235   0.421   4.286   0.301
 6779SOL    HW121236   0.369   4.268   0.385
 6779SOL    HW221237   0.515   4.312   0.326
 6780SOL     OW21238   0.212   2.936   1.955
 6780SOL    HW121239   0.237   2.890   2.041
 6780SOL    HW221240   0.185   3.030   1.974
 6781SOL     OW21241   6.089   4.954   6.041
 6781SOL    HW121242   5.995   4.939   6.012
 6781SOL    HW221243   6.138   4.867   6.039
 6782SOL     OW21244   6.205   1.462   3.111
 6782SOL    HW121245   6.170   1.469   3.018
 6782SOL    HW221246   6.281   1.397   3.114
 6783SOL     OW21247   0.473   6.342   6.460
 6783SOL    HW121248   0.510   6.420   6.511
 6783SOL    HW221249   0.399   6.300   6.512
 6784SOL     OW21250   3.325   2.937   0.199
 6784SOL    HW121251   3.411   2.982   0.176
 6784SOL    HW221252   3.344   2.853   0.251
 6785SOL     OW21253   5.959   6.477   2.359
 6785SOL    HW121254   5.948   6.454   2.262
 6785SOL    HW221255   5.877   6.451   2.410
 6786SOL     OW21256   2.334   2.958   6.244
 6786SOL    HW121257   2.364   3.020   6.317
 6786SOL    HW221258   2.309   3.011   6.164
 6787SOL     OW21259   1.204   3.679   2.133
 6787SOL    HW121260   1.278   3.612   2.146
 6787SOL    HW221261   1.128   3.655   2.193
 6788SOL     OW21262   2.724   3.641   0.778
 6788SOL    HW121263   2.816   3.625   0.814
 6788SOL    HW221264   2.662   3.570   0.812
 6789SOL     OW21265   0.287   6.542   2.726
 6789SOL    HW121266   0.383   6.570   2.717
 6789SOL    HW221267   0.265   6.529   2.823
 6790SOL     OW21268   1.858   2.972   0.052
 6790SOL    HW121269   1.872   2.946   0.147
 6790SOL    HW221270   1.825   2.892   0.001
 6791SOL     OW21271   4.483   3.397   6.305
 6791SOL    HW121272   4.553   3.325   6.310
 6791SOL    HW221273   4.478   3.432   6.211
 6792SOL     OW21274   0.290   5.681   0.717
 6792SOL    HW121275   0.315   5.604   0.658
 6792SOL    HW221276   0.191   5.683   0.729
 6793SOL     OW21277   6.601   1.962   1.301
 6793SOL    HW121278   6.630   1.878   1.255
 6793SOL    HW221279   6.583   2.033   1.233
 6794SOL     OW21280   4.681   1.155   5.324
 6794SOL    HW121281   4.596   1.207   5.330
 6794SOL    HW221282   4.756   1.212   5.359
 6795SOL     OW21283   3.271   5.764   6.671
 6795SOL    HW121284   3.297   5.713   6.589
 6795SOL    HW221285   3.337   5.837   6.686
 6796SOL     OW21286   4.588   1.822   2.838
 6796SOL    HW121287   4.656   1.756   2.869
 6796SOL    HW221288   4.501   1.806   2.885
 6797SOL     OW21289   6.327   3.449   2.660
 6797SOL    HW121290   6.403   3.433   2.722
 6797SOL    HW221291   6.359   3.443   2.566
 6798SOL     OW21292   6.309   6.341   2.398
 6798SOL    HW121293   6.325   6.247   2.428
 6798SOL    HW221294   6.212   6.352   2.373
 6799SOL     OW21295   5.290   6.085   0.842
 6799SOL    HW121296   5.194   6.109   0.825
 6799SOL    HW221297   5.350   6.155   0.804
 6800SOL     OW21298   2.550   4.759   6.880
 6800SOL    HW121299   2.542   4.858   6.867
 6800SOL    HW221300   2.517   4.735   6.972
 6801SOL     OW21301   1.596   2.000   2.404
 6801SOL    HW121302   1.567   1.986   2.499
 6801SOL    HW221303   1.524   1.971   2.342
 6802SOL     OW21304   2.178   6.003   2.373
 6802SOL    HW121305   2.202   6.060   2.452
 6802SOL    HW221306   2.253   6.003   2.307
 6803SOL     OW21307   5.305   2.136   0.131
 6803SOL    HW121308   5.348   2.047   0.113
 6803SOL    HW221309   5.347   2.178   0.212
 6804SOL     OW21310   1.719   6.447   3.571
 6804SOL    HW121311   1.670   6.361   3.552
 6804SOL    HW221312   1.714   6.507   3.491
 6805SOL     OW21313   5.734   0.320   4.596
 6805SOL    HW121314   5.830   0.344   4.581
 6805SOL    HW221315   5.717   0.229   4.560
 6806SOL     OW21316   4.590   0.706   5.684
 6806SOL    HW121317   4.652   0.690   5.760
 6806SOL    HW221318   4.643   0.731   5.602
 6807SOL     OW21319   2.795   2.979   0.496
 6807SOL    HW121320   2.881   2.941   0.462
 6807SOL    HW221321   2.804   3.079   0.504
 6808SOL     OW21322   1.509   2.951   5.020
 6808SOL    HW121323   1.496   3.050   5.024
 6808SOL    HW221324   1.594   2.930   4.972
 6809SOL     OW21325   2.187   3.407   6.334
 6809SOL    HW121326   2.224   3.478   6.274
 6809SOL    HW221327   2.262   3.356   6.376
 6810SOL     OW21328   6.027   1.584   2.540
 6810SOL    HW121329   5.980   1.650   2.481
 6810SOL    HW221330   6.086   1.633   2.604
 6811SOL     OW21331   5.740   5.389   1.647
 6811SOL    HW121332   5.782   5.466   1.599
 6811SOL    HW221333   5.767   5.304   1.602
 6812SOL     OW21334   3.378   3.495   3.076
 6812SOL    HW121335   3.464   3.477   3.028
 6812SOL    HW221336   3.395   3.494   3.175
 6813SOL     OW21337   4.253   3.463   0.908
 6813SOL    HW121338   4.156   3.486   0.899
 6813SOL    HW221339   4.308   3.529   0.858
 6814SOL     OW21340   2.009   3.565   0.702
 6814SOL    HW121341   2.065   3.483   0.714
 6814SOL    HW221342   2.030   3.607   0.613
 6815SOL     OW21343   2.074   0.491   1.859
 6815SOL    HW121344   2.150   0.500   1.923
 6815SOL    HW221345   2.062   0.576   1.808
 6816SOL     OW21346   6.620   4.359   1.275
 6816SOL    HW121347   6.539   4.320   1.320
 6816SOL    HW221348   6.606   4.360   1.176
 6817SOL     OW21349   0.265   1.422   6.147
 6817SOL    HW121350   0.354   1.377   6.149
 6817SOL    HW221351   0.197   1.361   6.107
 6818SOL     OW21352   3.706   6.326   2.798
 6818SOL    HW121353   3.713   6.424   2.817
 6818SOL    HW221354   3.747   6.307   2.709
 6819SOL     OW21355   2.832   1.459   3.998
 6819SOL    HW121356   2.874   1.481   3.910
 6819SOL    HW221357   2.751   1.517   4.011
 6820SOL     OW21358   0.759   4.548   3.417
 6820SOL    HW121359   0.724   4.629   3.368
 6820SOL    HW221360   0.744   4.467   3.361
 6821SOL     OW21361   2.768   1.985   4.395
 6821SOL    HW121362   2.730   2.051   4.330
 6821SOL    HW221363   2.865   1.971   4.375
 6822SOL     OW21364   5.427   2.052   5.815
 6822SOL    HW121365   5.430   2.038   5.716
 6822SOL    HW221366   5.391   2.143   5.835
 6823SOL     OW21367   3.148   3.495   2.868
 6823SOL    HW121368   3.055   3.501   2.902
 6823SOL    HW221369   3.148   3.512   2.769
 6824SOL     OW21370   1.184   3.742   6.541
 6824SOL    HW121371   1.231   3.710   6.459
 6824SOL    HW221372   1.085   3.744   6.524
 6825SOL     OW21373   4.950   0.592   2.877
 6825SOL    HW121374   4.951   0.692   2.870
 6825SOL    HW221375   4.867   0.557   2.835
 6826SOL     OW21376   1.465   2.921   2.787
 6826SOL    HW121377   1.478   2.967   2.699
 6826SOL    HW221378   1.470   2.822   2.774
 6827SOL     OW21379   5.652   5.747   5.133
 6827SOL    HW121380   5.578   5.683   5.112
 6827SOL    HW221381   5.617   5.819   5.194
 6828SOL     OW21382   1.656   2.577   1.258
 6828SOL    HW121383   1.618   2.608   1.171
 6828SOL    HW221384   1.753   2.602   1.263
 6829SOL     OW21385   4.593   5.788   4.112
 6829SOL    HW121386   4.632   5.767   4.202
 6829SOL    HW221387   4.604   5.885   4.093
 6830SOL     OW21388   5.651   2.309   4.085
 6830SOL    HW121389   5.636   2.269   4.175
 6830SOL    HW221390   5.605   2.253   4.016
 6831SOL     OW21391   0.276   1.145   6.052
 6831SOL    HW121392   0.368   1.178   6.074
 6831SOL    HW221393   0.252   1.070   6.115
 6832SOL     OW21394   2.948   5.266   2.151
 6832SOL    HW121395   2.962   5.254   2.053
 6832SOL    HW221396   2.927   5.178   2.193
 6833SOL     OW21397   3.923   4.901   0.291
 6833SOL    HW121398   3.855   4.968   0.260
 6833SOL    HW221399   3.891   4.809   0.271
 6834SOL     OW21400   3.754   5.412   2.285
 6834SOL    HW121401   3.815   5.469   2.230
 6834SOL    HW221402   3.715   5.466   2.359
 6835SOL     OW21403   3.922   6.887   4.822
 6835SOL    HW121404   3.847   6.882   4.888
 6835SOL    HW221405   3.898   6.833   4.741
 6836SOL     OW21406   3.625   6.464   0.206
 6836SOL    HW121407   3.699   6.405   0.239
 6836SOL    HW221408   3.593   6.431   0.117
 6837SOL     OW21409   1.585   3.126   2.118
 6837SOL    HW121410   1.636   3.059   2.172
 6837SOL    HW221411   1.648   3.170   2.054
 6838SOL     OW21412   2.278   1.560   6.569
 6838SOL    HW121413   2.347   1.525   6.506
 6838SOL    HW221414   2.320   1.578   6.658
 6839SOL     OW21415   4.520   1.398   1.161
 6839SOL    HW121416   4.431   1.428   1.127
 6839SOL    HW221417   4.584   1.475   1.156
 6840SOL     OW21418   0.946   1.832   6.341
 6840SOL    HW121419   1.031   1.812   6.391
 6840SOL    HW221420   0.868   1.823   6.402
 6841SOL     OW21421   6.796   3.649   6.352
 6841SOL    HW121422   6.722   3.709   6.321
 6841SOL    HW221423   6.758   3.560   6.376
 6842SOL     OW21424   2.041   4.540   2.984
 6842SOL    HW121425   2.116   4.529   2.918
 6842SOL    HW221426   2.018   4.451   3.024
 6843SOL     OW21427   4.606   6.296   6.725
 6843SOL    HW121428   4.690   6.265   6.771
 6843SOL    HW221429   4.627   6.320   6.630
 6844SOL     OW21430   5.355   0.800   5.581
 6844SOL    HW121431   5.329   0.794   5.677
 6844SOL    HW221432   5.427   0.868   5.570
 6845SOL     OW21433   5.005   1.805   2.209
 6845SOL    HW121434   4.980   1.729   2.270
 6845SOL    HW221435   4.931   1.821   2.144
 6846SOL     OW21436   2.427   3.794   0.243
 6846SOL    HW121437   2.442   3.712   0.187
 6846SOL    HW221438   2.456   3.875   0.192
 6847SOL     OW21439   6.533   3.408   4.036
 6847SOL    HW121440   6.531   3.393   3.937
 6847SOL    HW221441   6.502   3.501   4.055
 6848SOL     OW21442   5.904   4.678   3.407
 6848SOL    HW121443   5.823   4.635   3.447
 6848SOL    HW221444   5.919   4.643   3.315
 6849SOL     OW21445   3.386   3.962   6.830
 6849SOL    HW121446   3.293   3.939   6.803
 6849SOL    HW221447   3.400   3.938   6.926
 6850SOL     OW21448   4.145   1.922   4.066
 6850SOL    HW121449   4.048   1.896   4.067
 6850SOL    HW221450   4.153   2.018   4.038
 6851SOL     OW21451   2.131   3.182   3.758
 6851SOL    HW121452   2.149   3.235   3.841
 6851SOL    HW221453   2.046   3.131   3.769
 6852SOL     OW21454   2.481   4.710   0.322
 6852SOL    HW121455   2.574   4.700   0.358
 6852SOL    HW221456   2.417   4.660   0.381
 6853SOL     OW21457   4.802   3.353   6.797
 6853SOL    HW121458   4.724   3.306   6.758
 6853SOL    HW221459   4.819   3.437   6.747
 6854SOL     OW21460   5.680   5.449   6.333
 6854SOL    HW121461   5.742   5.446   6.412
 6854SOL    HW221462   5.641   5.540   6.326
 6855SOL     OW21463   4.084   5.195   3.407
 6855SOL    HW121464   4.166   5.141   3.387
 6855SOL    HW221465   4.104   5.292   3.394
 6856SOL     OW21466   0.693   1.604   6.885
 6856SOL    HW121467   0.726   1.607   6.791
 6856SOL    HW221468   0.594   1.617   6.887
 6857SOL     OW21469   0.979   3.833   4.965
 6857SOL    HW121470   0.925   3.768   4.911
 6857SOL    HW221471   0.976   3.923   4.922
 6858SOL     OW21472   2.326   3.730   1.706
 6858SOL    HW121473   2.299   3.661   1.773
 6858SOL    HW221474   2.424   3.724   1.688
 6859SOL     OW21475   1.149   1.383   2.091
 6859SOL    HW121476   1.066   1.429   2.123
 6859SOL    HW221477   1.212   1.450   2.052
 6860SOL     OW21478   0.885   6.493   1.892
 6860SOL    HW121479   0.915   6.507   1.987
 6860SOL    HW221480   0.785   6.496   1.888
 6861SOL     OW21481   5.799   2.935   5.141
 6861SOL    HW121482   5.806   2.846   5.188
 6861SOL    HW221483   5.756   2.922   5.052
 6862SOL     OW21484   0.888   4.489   5.035
 6862SOL    HW121485   0.792   4.462   5.031
 6862SOL    HW221486   0.901   4.558   5.107
 6863SOL     OW21487   5.971   0.744   5.417
 6863SOL    HW121488   6.025   0.679   5.364
 6863SOL    HW221489   5.902   0.695   5.470
 6864SOL     OW21490   1.371   3.317   5.841
 6864SOL    HW121491   1.372   3.338   5.939
 6864SOL    HW221492   1.451   3.264   5.817
 6865SOL     OW21493   2.356   6.709   3.702
 6865SOL    HW121494   2.282   6.752   3.753
 6865SOL    HW221495   2.360   6.747   3.610
 6866SOL     OW21496   1.164   4.568   0.660
 6866SOL    HW121497   1.131   4.476   0.683
 6866SOL    HW221498   1.117   4.635   0.717
 6867SOL     OW21499   2.067   3.854   6.809
 6867SOL    HW121500   2.095   3.779   6.870
 6867SOL    HW221501   2.038   3.932   6.864
 6868SOL     OW21502   2.419   5.096   4.137
 6868SOL    HW121503   2.328   5.130   4.163
 6868SOL    HW221504   2.409   5.013   4.082
 6869SOL     OW21505   3.234   0.808   6.308
 6869SOL    HW121506   3.165   0.874   6.337
 6869SOL    HW221507   3.305   0.854   6.255
 6870SOL     OW21508   6.068   2.553   0.757
 6870SOL    HW121509   6.158   2.597   0.758
 6870SOL    HW221510   6.070   2.475   0.695
 6871SOL     OW21511   0.442   3.946   2.261
 6871SOL    HW121512   0.403   4.035   2.239
 6871SOL    HW221513   0.376   3.874   2.237
 6872SOL     OW21514   1.553   3.977   0.750
 6872SOL    HW121515   1.580   4.012   0.660
 6872SOL    HW221516   1.627   3.923   0.789
 6873SOL     OW21517   0.769   4.776   3.782
 6873SOL    HW121518   0.688   4.773   3.840
 6873SOL    HW221519   0.805   4.869   3.778
 6874SOL     OW21520   5.260   6.319   3.299
 6874SOL    HW121521   5.323   6.397   3.295
 6874SOL    HW221522   5.286   6.252   3.230
 6875SOL     OW21523   2.302   1.679   0.259
 6875SOL    HW121524   2.308   1.579   0.264
 6875SOL    HW221525   2.286   1.706   0.164
 6876SOL     OW21526   4.845   5.124   3.836
 6876SOL    HW121527   4.776   5.063   3.876
 6876SOL    HW221528   4.912   5.149   3.906
 6877SOL     OW21529   1.424   3.731   2.434
 6877SOL    HW121530   1.519   3.721   2.403
 6877SOL    HW221531   1.380   3.804   2.382
 6878SOL     OW21532   2.116   0.592   4.517
 6878SOL    HW121533   2.071   0.670   4.558
 6878SOL    HW221534   2.156   0.535   4.589
 6879SOL     OW21535   2.324   1.283   0.599
 6879SOL    HW121536   2.346   1.217   0.671
 6879SOL    HW221537   2.314   1.374   0.640
 6880SOL     OW21538   1.609   5.241   6.538
 6880SOL    HW121539   1.599   5.181   6.617
 6880SOL    HW221540   1.543   5.215   6.468
 6881SOL     OW21541   0.888   2.557   0.633
 6881SOL    HW121542   0.933   2.530   0.719
 6881SOL    HW221543   0.830   2.482   0.601
 6882SOL     OW21544   2.604   6.628   6.398
 6882SOL    HW121545   2.588   6.530   6.415
 6882SOL    HW221546   2.690   6.655   6.441
 6883SOL     OW21547   4.866   0.513   0.382
 6883SOL    HW121548   4.791   0.500   0.447
 6883SOL    HW221549   4.935   0.442   0.397
 6884SOL     OW21550   2.231   4.095   3.054
 6884SOL    HW121551   2.226   3.998   3.032
 6884SOL    HW221552   2.193   4.149   2.979
 6885SOL     OW21553   5.659   5.511   4.825
 6885SOL    HW121554   5.623   5.544   4.913
 6885SOL    HW221555   5.756   5.537   4.818
 6886SOL     OW21556   4.953   1.729   6.836
 6886SOL    HW121557   4.966   1.681   6.750
 6886SOL    HW221558   4.990   1.822   6.829
 6887SOL     OW21559   5.634   5.754   5.792
 6887SOL    HW121560   5.563   5.776   5.725
 6887SOL    HW221561   5.592   5.711   5.872
 6888SOL     OW21562   6.357   4.929   6.442
 6888SOL    HW121563   6.316   4.963   6.357
 6888SOL    HW221564   6.303   4.962   6.519
 6889SOL     OW21565   6.958   2.321   6.519
 6889SOL    HW121566   6.960   2.266   6.436
 6889SOL    HW221567   6.980   2.416   6.497
 6890SOL     OW21568   4.415   4.548   3.173
 6890SOL    HW121569   4.402   4.462   3.125
 6890SOL    HW221570   4.506   4.585   3.151
 6891SOL     OW21571   1.757   1.211   0.978
 6891SOL    HW121572   1.838   1.152   0.978
 6891SOL    HW221573   1.718   1.214   0.886
 6892SOL     OW21574   2.813   0.696   4.861
 6892SOL    HW121575   2.719   0.699   4.827
 6892SOL    HW221576   2.874   0.738   4.795
 6893SOL     OW21577   5.625   3.248   0.962
 6893SOL    HW121578   5.533   3.278   0.939
 6893SOL    HW221579   5.645   3.162   0.915
 6894SOL     OW21580   5.884   5.490   0.390
 6894SOL    HW121581   5.828   5.524   0.314
 6894SOL    HW221582   5.968   5.449   0.353
 6895SOL     OW21583   0.242   6.482   1.873
 6895SOL    HW121584   0.244   6.415   1.799
 6895SOL    HW221585   0.331   6.484   1.920
 6896SOL     OW21586   4.678   1.218   4.721
 6896SOL    HW121587   4.778   1.219   4.715
 6896SOL    HW221588   4.639   1.218   4.628
 6897SOL     OW21589   4.852   3.303   5.190
 6897SOL    HW121590   4.781   3.266   5.250
 6897SOL    HW221591   4.834   3.400   5.173
 6898SOL     OW21592   1.754   0.001   1.263
 6898SOL    HW121593   1.671   6.966   1.270
 6898SOL    HW221594   1.831   6.971   1.302
 6899SOL     OW21595   6.551   6.140   2.170
 6899SOL    HW121596   6.596   6.125   2.258
 6899SOL    HW221597   6.526   6.236   2.161
 6900SOL     OW21598   6.319   3.790   5.309
 6900SOL    HW121599   6.390   3.841   5.263
 6900SOL    HW221600   6.230   3.811   5.268
 6901SOL     OW21601   5.230   4.667   6.810
 6901SOL    HW121602   5.212   4.758   6.773
 6901SOL    HW221603   5.328   4.648   6.808
 6902SOL     OW21604   0.723   6.044   5.819
 6902SOL    HW121605   0.778   6.124   5.794
 6902SOL    HW221606   0.782   5.965   5.833
 6903SOL     OW21607   1.492   5.823   4.516
 6903SOL    HW121608   1.524   5.878   4.593
 6903SOL    HW221609   1.397   5.795   4.531
 6904SOL     OW21610   6.739   6.698   5.091
 6904SOL    HW121611   6.800   6.748   5.153
 6904SOL    HW221612   6.648   6.741   5.093
 6905SOL     OW21613   4.872   6.150   6.114
 6905SOL    HW121614   4.907   6.158   6.021
 6905SOL    HW221615   4.798   6.083   6.116
 6906SOL     OW21616   3.282   1.506   3.565
 6906SOL    HW121617   3.278   1.495   3.465
 6906SOL    HW221618   3.243   1.595   3.590
 6907SOL     OW21619   5.959   2.711   0.552
 6907SOL    HW121620   5.968   2.668   0.642
 6907SOL    HW221621   5.888   2.664   0.499
 6908SOL     OW21622   2.812   4.788   0.789
 6908SOL    HW121623   2.899   4.766   0.746
 6908SOL    HW221624   2.808   4.743   0.879
 6909SOL     OW21625   6.510   5.595   2.289
 6909SOL    HW121626   6.530   5.692   2.277
 6909SOL    HW221627   6.414   5.578   2.264
 6910SOL     OW21628   1.456   2.632   2.805
 6910SOL    HW121629   1.432   2.588   2.892
 6910SOL    HW221630   1.410   2.585   2.730
 6911SOL     OW21631   2.064   6.707   5.418
 6911SOL    HW121632   1.976   6.668   5.445
 6911SOL    HW221633   2.051   6.766   5.338
 6912SOL     OW21634   2.460   3.725   6.813
 6912SOL    HW121635   2.412   3.698   6.729
 6912SOL    HW221636   2.555   3.745   6.792
 6913SOL     OW21637   5.224   5.999   6.167
 6913SOL    HW121638   5.170   6.083   6.157
 6913SOL    HW221639   5.222   5.970   6.263
 6914SOL     OW21640   6.269   2.893   2.730
 6914SOL    HW121641   6.287   2.990   2.711
 6914SOL    HW221642   6.170   2.878   2.734
 6915SOL     OW21643   6.710   3.562   3.641
 6915SOL    HW121644   6.755   3.477   3.668
 6915SOL    HW221645   6.697   3.563   3.542
 6916SOL     OW21646   5.177   6.158   6.938
 6916SOL    HW121647   5.094   6.176   6.991
 6916SOL    HW221648   5.211   6.066   6.961
 6917SOL     OW21649   5.178   6.163   1.579
 6917SOL    HW121650   5.253   6.117   1.533
 6917SOL    HW221651   5.135   6.228   1.517
 6918SOL     OW21652   2.315   3.002   1.210
 6918SOL    HW121653   2.382   2.959   1.271
 6918SOL    HW221654   2.278   2.933   1.147
 6919SOL     OW21655   5.618   5.813   3.495
 6919SOL    HW121656   5.628   5.793   3.397
 6919SOL    HW221657   5.564   5.741   3.538
 6920SOL     OW21658   5.838   1.194   6.232
 6920SOL    HW121659   5.895   1.254   6.176
 6920SOL    HW221660   5.830   1.104   6.189
 6921SOL     OW21661   4.233   0.462   4.339
 6921SOL    HW121662   4.218   0.424   4.248
 6921SOL    HW221663   4.215   0.392   4.408
 6922SOL     OW21664   1.608   4.384   5.825
 6922SOL    HW121665   1.600   4.404   5.923
 6922SOL    HW221666   1.696   4.342   5.807
 6923SOL     OW21667   5.947   0.214   2.826
 6923SOL    HW121668   5.853   0.193   2.799
 6923SOL    HW221669   5.947   0.288   2.893
 6924SOL     OW21670   2.863   6.065   1.470
 6924SOL    HW121671   2.766   6.062   1.446
 6924SOL    HW221672   2.909   5.985   1.431
 6925SOL     OW21673   5.646   6.418   5.456
 6925SOL    HW121674   5.638   6.395   5.359
 6925SOL    HW221675   5.562   6.393   5.504
 6926SOL     OW21676   3.145   2.538   0.369
 6926SOL    HW121677   3.152   2.546   0.270
 6926SOL    HW221678   3.066   2.483   0.393
 6927SOL     OW21679   4.952   0.966   0.464
 6927SOL    HW121680   5.010   1.020   0.526
 6927SOL    HW221681   4.864   0.949   0.508
 6928SOL     OW21682   4.751   5.313   0.924
 6928SOL    HW121683   4.809   5.242   0.964
 6928SOL    HW221684   4.675   5.270   0.875
 6929SOL     OW21685   6.310   5.154   1.653
 6929SOL    HW121686   6.266   5.184   1.568
 6929SOL    HW221687   6.350   5.233   1.700
 6930SOL     OW21688   0.715   0.238   0.715
 6930SOL    HW121689   0.667   0.293   0.784
 6930SOL    HW221690   0.717   0.288   0.628
 6931SOL     OW21691   2.740   3.586   1.191
 6931SOL    HW121692   2.644   3.613   1.193
 6931SOL    HW221693   2.767   3.563   1.097
 6932SOL     OW21694   4.216   5.989   6.825
 6932SOL    HW121695   4.267   5.995   6.911
 6932SOL    HW221696   4.121   5.964   6.845
 6933SOL     OW21697   3.539   5.746   6.324
 6933SOL    HW121698   3.581   5.836   6.330
 6933SOL    HW221699   3.606   5.680   6.291
 6934SOL     OW21700   5.051   4.186   6.783
 6934SOL    HW121701   5.145   4.161   6.760
 6934SOL    HW221702   5.024   4.142   6.868
 6935SOL     OW21703   4.323   5.867   2.119
 6935SOL    HW121704   4.249   5.931   2.140
 6935SOL    HW221705   4.409   5.916   2.110
 6936SOL     OW21706   0.390   2.021   5.214
 6936SOL    HW121707   0.417   2.003   5.120
 6936SOL    HW221708   0.356   1.937   5.256
 6937SOL     OW21709   5.463   5.485   0.128
 6937SOL    HW121710   5.485   5.393   0.161
 6937SOL    HW221711   5.424   5.539   0.202
 6938SOL     OW21712   1.951   0.698   4.861
 6938SOL    HW121713   1.915   0.775   4.914
 6938SOL    HW221714   1.939   0.715   4.764
 6939SOL     OW21715   5.995   3.465   3.242
 6939SOL    HW121716   5.973   3.371   3.215
 6939SOL    HW221717   5.911   3.518   3.252
 6940SOL     OW21718   3.006   6.097   0.617
 6940SOL    HW121719   2.907   6.102   0.605
 6940SOL    HW221720   3.049   6.068   0.531
 6941SOL     OW21721   3.609   3.748   2.960
 6941SOL    HW121722   3.599   3.839   3.001
 6941SOL    HW221723   3.632   3.682   3.032
 6942SOL     OW21724   6.389   6.242   1.684
 6942SOL    HW121725   6.412   6.331   1.644
 6942SOL    HW221726   6.453   6.222   1.758
 6943SOL     OW21727   3.796   4.674   6.649
 6943SOL    HW121728   3.803   4.609   6.724
 6943SOL    HW221729   3.781   4.625   6.563
 6944SOL     OW21730   1.339   4.437   5.093
 6944SOL    HW121731   1.425   4.388   5.077
 6944SOL    HW221732   1.358   4.521   5.144
 6945SOL     OW21733   5.320   1.923   0.885
 6945SOL    HW121734   5.299   1.925   0.983
 6945SOL    HW221735   5.369   2.006   0.860
 6946SOL     OW21736   4.707   5.235   2.991
 6946SOL    HW121737   4.801   5.213   3.018
 6946SOL    HW221738   4.676   5.171   2.921
 6947SOL     OW21739   5.797   4.578   5.240
 6947SOL    HW121740   5.745   4.505   5.284
 6947SOL    HW221741   5.880   4.596   5.293
 6948SOL     OW21742   0.267   4.488   6.783
 6948SOL    HW121743   0.308   4.506   6.694
 6948SOL    HW221744   0.169   4.471   6.772
 6949SOL     OW21745   2.501   1.868   4.049
 6949SOL    HW121746   2.448   1.826   4.122
 6949SOL    HW221747   2.598   1.865   4.073
 6950SOL     OW21748   0.133   0.463   4.325
 6950SOL    HW121749   0.129   0.403   4.245
 6950SOL    HW221750   0.042   0.471   4.365
 6951SOL     OW21751   0.856   4.112   6.815
 6951SOL    HW121752   0.849   4.037   6.881
 6951SOL    HW221753   0.945   4.157   6.824
 6952SOL     OW21754   4.656   5.616   3.905
 6952SOL    HW121755   4.586   5.550   3.877
 6952SOL    HW221756   4.613   5.690   3.956
 6953SOL     OW21757   6.020   1.874   1.074
 6953SOL    HW121758   6.032   1.784   1.115
 6953SOL    HW221759   5.948   1.870   1.005
 6954SOL     OW21760   6.105   4.582   0.251
 6954SOL    HW121761   6.062   4.581   0.161
 6954SOL    HW221762   6.201   4.607   0.243
 6955SOL     OW21763   4.415   6.602   3.111
 6955SOL    HW121764   4.484   6.539   3.143
 6955SOL    HW221765   4.449   6.696   3.118
 6956SOL     OW21766   6.203   5.324   2.331
 6956SOL    HW121767   6.196   5.392   2.403
 6956SOL    HW221768   6.260   5.248   2.362
 6957SOL     OW21769   5.981   5.738   5.603
 6957SOL    HW121770   5.901   5.726   5.544
 6957SOL    HW221771   6.055   5.780   5.551
 6958SOL     OW21772   3.135   4.009   3.437
 6958SOL    HW121773   3.214   4.068   3.420
 6958SOL    HW221774   3.095   4.032   3.525
 6959SOL     OW21775   1.164   4.407   2.566
 6959SOL    HW121776   1.093   4.359   2.617
 6959SOL    HW221777   1.224   4.341   2.522
 6960SOL     OW21778   3.348   4.153   0.885
 6960SOL    HW121779   3.427   4.105   0.848
 6960SOL    HW221780   3.379   4.219   0.954
 6961SOL     OW21781   4.474   2.515   5.088
 6961SOL    HW121782   4.491   2.441   5.024
 6961SOL    HW221783   4.376   2.531   5.096
 6962SOL     OW21784   2.367   6.701   6.586
 6962SOL    HW121785   2.336   6.614   6.624
 6962SOL    HW221786   2.428   6.683   6.508
 6963SOL     OW21787   6.355   5.926   0.670
 6963SOL    HW121788   6.298   5.992   0.622
 6963SOL    HW221789   6.440   5.912   0.620
 6964SOL     OW21790   1.506   1.335   5.252
 6964SOL    HW121791   1.512   1.318   5.350
 6964SOL    HW221792   1.591   1.376   5.220
 6965SOL     OW21793   0.419   1.591   6.924
 6965SOL    HW121794   0.419   1.689   6.945
 6965SOL    HW221795   0.447   1.540   7.005
 6966SOL     OW21796   1.759   6.566   1.110
 6966SOL    HW121797   1.733   6.647   1.056
 6966SOL    HW221798   1.817   6.507   1.055
 6967SOL     OW21799   4.406   1.335   6.429
 6967SOL    HW121800   4.502   1.342   6.454
 6967SOL    HW221801   4.350   1.332   6.512
 6968SOL     OW21802   3.785   6.651   3.120
 6968SOL    HW121803   3.819   6.563   3.154
 6968SOL    HW221804   3.761   6.643   3.023
 6969SOL     OW21805   2.073   1.621   2.437
 6969SOL    HW121806   2.103   1.527   2.456
 6969SOL    HW221807   2.152   1.675   2.407
 6970SOL     OW21808   3.759   5.726   5.329
 6970SOL    HW121809   3.672   5.774   5.319
 6970SOL    HW221810   3.777   5.672   5.247
 6971SOL     OW21811   6.401   4.034   0.532
 6971SOL    HW121812   6.490   3.996   0.557
 6971SOL    HW221813   6.357   4.073   0.613
 6972SOL     OW21814   5.158   3.797   1.354
 6972SOL    HW121815   5.210   3.846   1.424
 6972SOL    HW221816   5.070   3.843   1.340
 6973SOL     OW21817   1.996   2.443   3.148
 6973SOL    HW121818   1.937   2.511   3.104
 6973SOL    HW221819   1.956   2.352   3.138
 6974SOL     OW21820   3.662   3.457   3.327
 6974SOL    HW121821   3.565   3.480   3.321
 6974SOL    HW221822   3.711   3.498   3.250
 6975SOL     OW21823   3.057   5.213   4.615
 6975SOL    HW121824   3.101   5.157   4.546
 6975SOL    HW221825   2.972   5.251   4.579
 6976SOL     OW21826   4.691   4.437   6.516
 6976SOL    HW121827   4.752   4.397   6.447
 6976SOL    HW221828   4.683   4.374   6.594
 6977SOL     OW21829   4.476   5.335   1.842
 6977SOL    HW121830   4.559   5.372   1.801
 6977SOL    HW221831   4.441   5.400   1.910
 6978SOL     OW21832   0.014   3.723   1.579
 6978SOL    HW121833   0.027   3.630   1.614
 6978SOL    HW221834   0.074   3.738   1.501
 6979SOL     OW21835   1.890   2.675   2.060
 6979SOL    HW121836   1.896   2.742   1.987
 6979SOL    HW221837   1.920   2.585   2.027
 6980SOL     OW21838   1.831   5.726   1.930
 6980SOL    HW121839   1.923   5.736   1.892
 6980SOL    HW221840   1.836   5.731   2.030
 6981SOL     OW21841   4.024   2.748   6.769
 6981SOL    HW121842   4.032   2.800   6.854
 6981SOL    HW221843   4.082   2.790   6.699
 6982SOL     OW21844   1.524   0.354   2.587
 6982SOL    HW121845   1.513   0.442   2.541
 6982SOL    HW221846   1.435   0.309   2.595
 6983SOL     OW21847   5.681   0.682   4.383
 6983SOL    HW121848   5.763   0.630   4.408
 6983SOL    HW221849   5.601   0.641   4.427
 6984SOL     OW21850   0.985   2.498   3.207
 6984SOL    HW121851   0.897   2.521   3.165
 6984SOL    HW221852   1.047   2.577   3.202
 6985SOL     OW21853   5.583   3.481   0.007
 6985SOL    HW121854   5.525   3.399   0.004
 6985SOL    HW221855   5.566   3.536   6.946
 6986SOL     OW21856   4.755   4.565   5.388
 6986SOL    HW121857   4.671   4.619   5.381
 6986SOL    HW221858   4.737   4.481   5.437
 6987SOL     OW21859   0.068   0.887   6.593
 6987SOL    HW121860   7.012   0.826   6.576
 6987SOL    HW221861   0.096   0.879   6.689
 6988SOL     OW21862   3.071   1.850   6.653
 6988SOL    HW121863   3.158   1.863   6.606
 6988SOL    HW221864   3.062   1.755   6.681
 6989SOL     OW21865   0.739   5.202   2.481
 6989SOL    HW121866   0.681   5.262   2.426
 6989SOL    HW221867   0.681   5.144   2.538
 6990SOL     OW21868   3.883   3.469   0.703
 6990SOL    HW121869   3.942   3.510   0.773
 6990SOL    HW221870   3.935   3.399   0.653
 6991SOL     OW21871   6.548   3.169   2.649
 6991SOL    HW121872   6.579   3.253   2.604
 6991SOL    HW221873   6.448   3.165   2.647
 6992SOL     OW21874   1.286   6.035   0.175
 6992SOL    HW121875   1.311   6.114   0.231
 6992SOL    HW221876   1.190   6.045   0.145
 6993SOL     OW21877   5.104   1.865   1.108
 6993SOL    HW121878   5.037   1.936   1.131
 6993SOL    HW221879   5.068   1.808   1.034
 6994SOL     OW21880   2.747   0.694   3.900
 6994SOL    HW121881   2.824   0.684   3.836
 6994SOL    HW221882   2.662   0.673   3.853
 6995SOL     OW21883   0.213   4.021   1.161
 6995SOL    HW121884   0.298   4.064   1.189
 6995SOL    HW221885   0.211   4.012   1.061
 6996SOL     OW21886   1.215   1.334   6.690
 6996SOL    HW121887   1.172   1.247   6.715
 6996SOL    HW221888   1.312   1.319   6.670
 6997SOL     OW21889   5.737   5.192   5.963
 6997SOL    HW121890   5.802   5.163   5.893
 6997SOL    HW221891   5.649   5.212   5.920
 6998SOL     OW21892   6.897   1.380   0.182
 6998SOL    HW121893   6.989   1.389   0.145
 6998SOL    HW221894   6.871   1.466   0.228
 6999SOL     OW21895   0.290   3.130   0.044
 6999SOL    HW121896   0.241   3.210   0.010
 6999SOL    HW221897   0.225   3.064   0.081
 7000SOL     OW21898   6.630   5.819   3.276
 7000SOL    HW121899   6.637   5.891   3.345
 7000SOL    HW221900   6.698   5.834   3.204
 7001SOL     OW21901   0.135   2.236   3.657
 7001SOL    HW121902   0.038   2.254   3.673
 7001SOL    HW221903   0.189   2.313   3.692
 7002SOL     OW21904   0.824   5.780   2.787
 7002SOL    HW121905   0.919   5.804   2.768
 7002SOL    HW221906   0.777   5.859   2.828
 7003SOL     OW21907   6.661   3.895   0.570
 7003SOL    HW121908   6.757   3.921   0.554
 7003SOL    HW221909   6.658   3.809   0.620
 7004SOL     OW21910   1.708   6.406   0.733
 7004SOL    HW121911   1.770   6.451   0.670
 7004SOL    HW221912   1.760   6.368   0.810
 7005SOL     OW21913   1.353   6.412   1.104
 7005SOL    HW121914   1.354   6.312   1.097
 7005SOL    HW221915   1.294   6.449   1.033
 7006SOL     OW21916   1.072   6.874   3.862
 7006SOL    HW121917   1.063   6.873   3.763
 7006SOL    HW221918   1.029   6.792   3.900
 7007SOL     OW21919   2.578   0.442   5.933
 7007SOL    HW121920   2.625   0.409   6.015
 7007SOL    HW221921   2.480   0.445   5.950
 7008SOL     OW21922   5.277   3.656   2.802
 7008SOL    HW121923   5.211   3.603   2.855
 7008SOL    HW221924   5.257   3.648   2.705
 7009SOL     OW21925   4.621   5.853   2.355
 7009SOL    HW121926   4.584   5.946   2.350
 7009SOL    HW221927   4.713   5.852   2.314
 7010SOL     OW21928   5.166   3.803   1.715
 7010SOL    HW121929   5.078   3.808   1.763
 7010SOL    HW221930   5.220   3.728   1.752
 7011SOL     OW21931   3.598   6.581   6.789
 7011SOL    HW121932   3.625   6.549   6.698
 7011SOL    HW221933   3.581   6.503   6.849
 7012SOL     OW21934   6.739   2.644   0.267
 7012SOL    HW121935   6.646   2.681   0.277
 7012SOL    HW221936   6.735   2.544   0.268
 7013SOL     OW21937   2.996   2.056   0.332
 7013SOL    HW121938   3.041   2.016   0.412
 7013SOL    HW221939   2.900   2.029   0.330
 7014SOL     OW21940   5.771   3.432   0.843
 7014SOL    HW121941   5.844   3.425   0.775
 7014SOL    HW221942   5.744   3.340   0.872
 7015SOL     OW21943   5.273   6.358   1.285
 7015SOL    HW121944   5.272   6.367   1.186
 7015SOL    HW221945   5.236   6.441   1.326
 7016SOL     OW21946   3.279   5.208   0.921
 7016SOL    HW121947   3.291   5.143   0.996
 7016SOL    HW221948   3.183   5.207   0.891
 7017SOL     OW21949   6.061   4.924   5.080
 7017SOL    HW121950   5.999   5.001   5.063
 7017SOL    HW221951   6.023   4.841   5.039
 7018SOL     OW21952   5.438   3.809   4.533
 7018SOL    HW121953   5.351   3.759   4.535
 7018SOL    HW221954   5.507   3.755   4.485
 7019SOL     OW21955   4.185   5.747   2.547
 7019SOL    HW121956   4.209   5.719   2.640
 7019SOL    HW221957   4.259   5.722   2.485
 7020SOL     OW21958   0.640   2.376   6.530
 7020SOL    HW121959   0.703   2.331   6.593
 7020SOL    HW221960   0.632   2.473   6.555
 7021SOL     OW21961   0.741   2.131   4.866
 7021SOL    HW121962   0.815   2.171   4.920
 7021SOL    HW221963   0.661   2.191   4.869
 7022SOL     OW21964   3.505   2.001   1.053
 7022SOL    HW121965   3.548   1.912   1.035
 7022SOL    HW221966   3.432   1.990   1.120
 7023SOL     OW21967   0.293   1.852   0.406
 7023SOL    HW121968   0.284   1.871   0.504
 7023SOL    HW221969   0.275   1.936   0.355
 7024SOL     OW21970   4.160   3.539   4.758
 7024SOL    HW121971   4.119   3.597   4.688
 7024SOL    HW221972   4.090   3.481   4.798
 7025SOL     OW21973   3.243   0.503   0.882
 7025SOL    HW121974   3.336   0.510   0.918
 7025SOL    HW221975   3.211   0.593   0.853
 7026SOL     OW21976   3.462   2.798   1.179
 7026SOL    HW121977   3.552   2.767   1.211
 7026SOL    HW221978   3.471   2.885   1.132
 7027SOL     OW21979   2.519   5.134   2.609
 7027SOL    HW121980   2.587   5.107   2.541
 7027SOL    HW221981   2.555   5.208   2.665
 7028SOL     OW21982   2.904   0.404   3.785
 7028SOL    HW121983   2.954   0.347   3.720
 7028SOL    HW221984   2.954   0.409   3.870
 7029SOL     OW21985   3.414   3.781   3.850
 7029SOL    HW121986   3.513   3.774   3.846
 7029SOL    HW221987   3.387   3.877   3.846
 7030SOL     OW21988   6.551   1.075   4.935
 7030SOL    HW121989   6.651   1.066   4.933
 7030SOL    HW221990   6.526   1.163   4.974
 7031SOL     OW21991   4.378   6.676   0.647
 7031SOL    HW121992   4.342   6.759   0.604
 7031SOL    HW221993   4.322   6.598   0.619
 7032SOL     OW21994   4.648   5.845   4.594
 7032SOL    HW121995   4.671   5.938   4.622
 7032SOL    HW221996   4.638   5.787   4.675
 7033SOL     OW21997   1.916   1.848   4.730
 7033SOL    HW121998   2.010   1.831   4.761
 7033SOL    HW221999   1.886   1.937   4.764
 7034SOL     OW22000   6.536   0.574   3.467
 7034SOL    HW122001   6.571   0.668   3.474
 7034SOL    HW222002   6.572   0.531   3.385
 7035SOL     OW22003   1.590   0.431   0.319
 7035SOL    HW122004   1.674   0.449   0.371
 7035SOL    HW222005   1.613   0.417   0.223
 7036SOL     OW22006   6.412   1.528   2.835
 7036SOL    HW122007   6.436   1.597   2.903
 7036SOL    HW222008   6.489   1.514   2.774
 7037SOL     OW22009   1.407   0.390   5.802
 7037SOL    HW122010   1.494   0.367   5.846
 7037SOL    HW222011   1.348   0.437   5.867
 7038SOL     OW22012   1.146   4.174   0.240
 7038SOL    HW122013   1.161   4.255   0.297
 7038SOL    HW222014   1.218   4.169   0.171
 7039SOL     OW22015   0.315   6.421   2.205
 7039SOL    HW122016   0.278   6.504   2.163
 7039SOL    HW222017   0.296   6.423   2.303
 7040SOL     OW22018   5.204   3.729   4.639
 7040SOL    HW122019   5.154   3.644   4.654
 7040SOL    HW222020   5.216   3.778   4.725
 7041SOL     OW22021   1.835   6.594   4.175
 7041SOL    HW122022   1.919   6.579   4.123
 7041SOL    HW222023   1.853   6.655   4.252
 7042SOL     OW22024   5.288   6.140   5.620
 7042SOL    HW122025   5.322   6.214   5.563
 7042SOL    HW222026   5.361   6.108   5.680
 7043SOL     OW22027   2.390   5.150   1.253
 7043SOL    HW122028   2.348   5.069   1.212
 7043SOL    HW222029   2.474   5.173   1.204
 7044SOL     OW22030   5.111   0.085   5.179
 7044SOL    HW122031   5.079   0.180   5.175
 7044SOL    HW222032   5.035   0.025   5.202
 7045SOL     OW22033   6.574   6.226   1.908
 7045SOL    HW122034   6.655   6.285   1.909
 7045SOL    HW222035   6.571   6.173   1.993
 7046SOL     OW22036   2.673   1.514   4.434
 7046SOL    HW122037   2.764   1.540   4.466
 7046SOL    HW222038   2.606   1.535   4.505
 7047SOL     OW22039   1.359   6.694   0.633
 7047SOL    HW122040   1.283   6.634   0.608
 7047SOL    HW222041   1.392   6.743   0.552
 7048SOL     OW22042   0.091   6.405   4.606
 7048SOL    HW122043   0.039   6.414   4.521
 7048SOL    HW222044   0.114   6.495   4.641
 7049SOL     OW22045   3.814   1.228   3.320
 7049SOL    HW122046   3.819   1.129   3.303
 7049SOL    HW222047   3.732   1.248   3.375
 7050SOL     OW22048   4.107   3.999   1.148
 7050SOL    HW122049   4.182   4.038   1.203
 7050SOL    HW222050   4.057   3.932   1.203
 7051SOL     OW22051   0.577   0.919   1.817
 7051SOL    HW122052   0.525   0.978   1.755
 7051SOL    HW222053   0.559   0.947   1.912
 7052SOL     OW22054   4.990   0.860   2.806
 7052SOL    HW122055   4.925   0.888   2.735
 7052SOL    HW222056   4.955   0.886   2.896
 7053SOL     OW22057   2.022   3.548   3.380
 7053SOL    HW122058   1.974   3.600   3.451
 7053SOL    HW222059   2.092   3.490   3.422
 7054SOL     OW22060   6.197   0.922   0.214
 7054SOL    HW122061   6.266   0.867   0.167
 7054SOL    HW222062   6.223   0.935   0.309
 7055SOL     OW22063   2.730   1.213   0.081
 7055SOL    HW122064   2.683   1.253   0.160
 7055SOL    HW222065   2.762   1.121   0.103
 7056SOL     OW22066   0.210   5.327   0.945
 7056SOL    HW122067   0.188   5.390   1.019
 7056SOL    HW222068   0.151   5.344   0.866
 7057SOL     OW22069   2.437   5.441   4.383
 7057SOL    HW122070   2.377   5.450   4.303
 7057SOL    HW222071   2.384   5.409   4.461
 7058SOL     OW22072   5.427   3.064   6.068
 7058SOL    HW122073   5.505   3.127   6.061
 7058SOL    HW222074   5.443   2.999   6.142
 7059SOL     OW22075   1.969   0.372   5.223
 7059SOL    HW122076   2.034   0.368   5.299
 7059SOL    HW222077   1.977   0.460   5.176
 7060SOL     OW22078   3.300   1.431   1.264
 7060SOL    HW122079   3.275   1.336   1.278
 7060SOL    HW222080   3.396   1.444   1.290
 7061SOL     OW22081   0.652   1.711   1.793
 7061SOL    HW122082   0.648   1.732   1.695
 7061SOL    HW222083   0.582   1.643   1.815
 7062SOL     OW22084   3.371   0.616   3.905
 7062SOL    HW122085   3.273   0.597   3.900
 7062SOL    HW222086   3.422   0.540   3.862
 7063SOL     OW22087   0.425   0.882   1.343
 7063SOL    HW122088   0.470   0.851   1.258
 7063SOL    HW222089   0.337   0.835   1.352
 7064SOL     OW22090   4.022   1.750   5.497
 7064SOL    HW122091   3.947   1.792   5.549
 7064SOL    HW222092   4.104   1.807   5.505
 7065SOL     OW22093   4.203   5.570   5.383
 7065SOL    HW122094   4.268   5.617   5.323
 7065SOL    HW222095   4.126   5.536   5.329
 7066SOL     OW22096   3.617   0.312   0.259
 7066SOL    HW122097   3.607   0.335   0.162
 7066SOL    HW222098   3.576   0.222   0.276
 7067SOL     OW22099   1.918   3.306   6.628
 7067SOL    HW122100   1.844   3.314   6.694
 7067SOL    HW222101   1.946   3.210   6.621
 7068SOL     OW22102   5.310   3.735   4.182
 7068SOL    HW122103   5.317   3.833   4.162
 7068SOL    HW222104   5.374   3.711   4.255
 7069SOL     OW22105   5.593   0.822   6.575
 7069SOL    HW122106   5.579   0.728   6.544
 7069SOL    HW222107   5.682   0.828   6.621
 7070SOL     OW22108   0.201   0.293   5.326
 7070SOL    HW122109   0.201   0.284   5.227
 7070SOL    HW222110   0.212   0.203   5.368
 7071SOL     OW22111   4.949   5.593   6.782
 7071SOL    HW122112   4.952   5.495   6.763
 7071SOL    HW222113   4.860   5.630   6.757
 7072SOL     OW22114   1.067   3.778   5.903
 7072SOL    HW122115   1.115   3.818   5.981
 7072SOL    HW222116   0.988   3.726   5.935
 7073SOL     OW22117   4.523   1.702   3.910
 7073SOL    HW122118   4.515   1.794   3.947
 7073SOL    HW222119   4.560   1.706   3.817
 7074SOL     OW22120   5.439   4.516   3.592
 7074SOL    HW122121   5.374   4.591   3.582
 7074SOL    HW222122   5.391   4.433   3.620
 7075SOL     OW22123   2.759   5.172   2.952
 7075SOL    HW122124   2.857   5.186   2.942
 7075SOL    HW222125   2.742   5.105   3.025
 7076SOL     OW22126   5.716   2.360   1.758
 7076SOL    HW122127   5.753   2.435   1.814
 7076SOL    HW222128   5.644   2.396   1.699
 7077SOL     OW22129   3.931   5.469   1.891
 7077SOL    HW122130   3.842   5.479   1.935
 7077SOL    HW222131   3.999   5.440   1.959
 7078SOL     OW22132   5.946   0.598   0.051
 7078SOL    HW122133   5.924   0.680   0.104
 7078SOL    HW222134   5.862   0.555   0.019
 7079SOL     OW22135   1.513   6.211   4.522
 7079SOL    HW122136   1.482   6.189   4.614
 7079SOL    HW222137   1.462   6.157   4.455
 7080SOL     OW22138   4.018   2.288   5.614
 7080SOL    HW122139   4.046   2.369   5.666
 7080SOL    HW222140   3.954   2.234   5.670
 7081SOL     OW22141   1.769   0.315   0.094
 7081SOL    HW122142   1.803   0.230   0.133
 7081SOL    HW222143   1.790   0.319   7.017
 7082SOL     OW22144   0.254   4.128   3.015
 7082SOL    HW122145   0.199   4.055   2.975
 7082SOL    HW222146   0.265   4.112   3.113
 7083SOL     OW22147   5.416   2.473   2.731
 7083SOL    HW122148   5.423   2.387   2.781
 7083SOL    HW222149   5.507   2.500   2.699
 7084SOL     OW22150   1.218   5.472   6.849
 7084SOL    HW122151   1.159   5.485   6.929
 7084SOL    HW222152   1.311   5.448   6.880
 7085SOL     OW22153   0.514   3.704   2.000
 7085SOL    HW122154   0.568   3.787   1.982
 7085SOL    HW222155   0.551   3.629   1.945
 7086SOL     OW22156   5.266   1.110   4.036
 7086SOL    HW122157   5.203   1.176   4.077
 7086SOL    HW222158   5.317   1.064   4.108
 7087SOL     OW22159   4.888   3.698   2.784
 7087SOL    HW122160   4.815   3.639   2.749
 7087SOL    HW222161   4.850   3.789   2.803
 7088SOL     OW22162   5.673   2.265   5.217
 7088SOL    HW122163   5.769   2.252   5.245
 7088SOL    HW222164   5.671   2.320   5.133
 7089SOL     OW22165   2.794   5.774   1.601
 7089SOL    HW122166   2.768   5.836   1.675
 7089SOL    HW222167   2.894   5.762   1.602
 7090SOL     OW22168   4.478   2.909   1.213
 7090SOL    HW122169   4.541   2.867   1.146
 7090SOL    HW222170   4.491   2.866   1.302
 7091SOL     OW22171   0.674   6.220   0.472
 7091SOL    HW122172   0.758   6.230   0.419
 7091SOL    HW222173   0.661   6.301   0.529
 7092SOL     OW22174   4.437   0.517   6.090
 7092SOL    HW122175   4.423   0.435   6.036
 7092SOL    HW222176   4.436   0.597   6.030
 7093SOL     OW22177   3.448   3.400   1.194
 7093SOL    HW122178   3.361   3.423   1.149
 7093SOL    HW222179   3.432   3.385   1.291
 7094SOL     OW22180   3.314   0.453   6.397
 7094SOL    HW122181   3.274   0.363   6.412
 7094SOL    HW222182   3.245   0.515   6.359
 7095SOL     OW22183   2.415   4.788   4.560
 7095SOL    HW122184   2.406   4.864   4.496
 7095SOL    HW222185   2.382   4.817   4.650
 7096SOL     OW22186   6.740   0.437   1.109
 7096SOL    HW122187   6.744   0.536   1.098
 7096SOL    HW222188   6.700   0.396   1.027
 7097SOL     OW22189   4.859   1.572   2.004
 7097SOL    HW122190   4.878   1.557   2.101
 7097SOL    HW222191   4.944   1.589   1.955
 7098SOL     OW22192   0.933   0.145   3.835
 7098SOL    HW122193   0.926   0.118   3.931
 7098SOL    HW222194   0.897   0.072   3.777
 7099SOL     OW22195   3.048   1.961   4.365
 7099SOL    HW122196   3.107   2.034   4.331
 7099SOL    HW222197   3.100   1.877   4.375
 7100SOL     OW22198   6.740   3.853   1.897
 7100SOL    HW122199   6.802   3.779   1.923
 7100SOL    HW222200   6.768   3.891   1.809
 7101SOL     OW22201   2.455   6.031   5.142
 7101SOL    HW122202   2.414   6.067   5.226
 7101SOL    HW222203   2.551   6.010   5.160
 7102SOL     OW22204   5.859   1.111   2.141
 7102SOL    HW122205   5.841   1.029   2.196
 7102SOL    HW222206   5.926   1.169   2.187
 7103SOL     OW22207   5.027   3.674   3.238
 7103SOL    HW122208   5.083   3.645   3.315
 7103SOL    HW222209   4.984   3.594   3.196
 7104SOL     OW22210   5.153   2.993   3.752
 7104SOL    HW122211   5.152   2.942   3.666
 7104SOL    HW222212   5.095   3.074   3.743
 7105SOL     OW22213   3.596   3.857   3.505
 7105SOL    HW122214   3.596   3.920   3.583
 7105SOL    HW222215   3.653   3.777   3.527
 7106SOL     OW22216   3.260   1.974   1.669
 7106SOL    HW122217   3.167   1.989   1.635
 7106SOL    HW222218   3.269   2.017   1.759
 7107SOL     OW22219   3.925   0.227   6.175
 7107SOL    HW122220   3.915   0.135   6.136
 7107SOL    HW222221   4.016   0.236   6.216
 7108SOL     OW22222   4.722   0.812   2.254
 7108SOL    HW122223   4.777   0.803   2.171
 7108SOL    HW222224   4.648   0.745   2.253
 7109SOL     OW22225   2.605   5.327   0.125
 7109SOL    HW122226   2.511   5.327   0.159
 7109SOL    HW222227   2.650   5.413   0.151
 7110SOL     OW22228   3.700   0.004   4.281
 7110SOL    HW122229   3.765   0.001   4.206
 7110SOL    HW222230   3.623   6.963   4.262
 7111SOL     OW22231   7.001   0.678   4.976
 7111SOL    HW122232   0.030   0.596   5.002
 7111SOL    HW222233   0.003   0.703   4.882
 7112SOL     OW22234   0.945   5.335   4.903
 7112SOL    HW122235   0.908   5.250   4.866
 7112SOL    HW222236   0.985   5.318   4.993
 7113SOL     OW22237   3.498   6.432   5.085
 7113SOL    HW122238   3.521   6.338   5.108
 7113SOL    HW222239   3.504   6.489   5.167
 7114SOL     OW22240   5.469   4.224   1.008
 7114SOL    HW122241   5.528   4.152   0.972
 7114SOL    HW222242   5.378   4.186   1.028
 7115SOL     OW22243   6.121   4.011   6.235
 7115SOL    HW122244   6.219   4.014   6.215
 7115SOL    HW222245   6.107   4.005   6.334
 7116SOL     OW22246   6.601   3.766   4.303
 7116SOL    HW122247   6.558   3.850   4.270
 7116SOL    HW222248   6.531   3.695   4.316
 7117SOL     OW22249   5.293   6.997   3.557
 7117SOL    HW122250   5.341   6.992   3.644
 7117SOL    HW222251   5.320   0.060   3.508
 7118SOL     OW22252   3.756   4.495   5.634
 7118SOL    HW122253   3.743   4.442   5.718
 7118SOL    HW222254   3.732   4.590   5.650
 7119SOL     OW22255   3.573   6.813   4.885
 7119SOL    HW122256   3.630   6.792   4.964
 7119SOL    HW222257   3.549   6.910   4.886
 7120SOL     OW22258   4.479   0.651   0.566
 7120SOL    HW122259   4.480   0.682   0.662
 7120SOL    HW222260   4.528   0.563   0.560
 7121SOL     OW22261   1.270   6.128   1.755
 7121SOL    HW122262   1.254   6.197   1.825
 7121SOL    HW222263   1.187   6.114   1.702
 7122SOL     OW22264   3.491   2.124   0.462
 7122SOL    HW122265   3.456   2.064   0.534
 7122SOL    HW222266   3.582   2.155   0.486
 7123SOL     OW22267   5.505   5.186   5.800
 7123SOL    HW122268   5.477   5.095   5.830
 7123SOL    HW222269   5.508   5.189   5.700
 7124SOL     OW22270   1.250   1.841   1.021
 7124SOL    HW122271   1.304   1.837   0.936
 7124SOL    HW222272   1.295   1.786   1.091
 7125SOL     OW22273   0.537   6.321   2.065
 7125SOL    HW122274   0.579   6.238   2.099
 7125SOL    HW222275   0.455   6.342   2.118
 7126SOL     OW22276   3.509   5.283   0.776
 7126SOL    HW122277   3.508   5.271   0.677
 7126SOL    HW222278   3.426   5.245   0.816
 7127SOL     OW22279   2.378   6.206   6.045
 7127SOL    HW122280   2.406   6.294   6.084
 7127SOL    HW222281   2.457   6.162   6.003
 7128SOL     OW22282   3.759   4.162   6.878
 7128SOL    HW122283   3.851   4.183   6.910
 7128SOL    HW222284   3.732   4.229   6.809
 7129SOL     OW22285   0.667   7.005   0.254
 7129SOL    HW122286   0.767   7.003   0.255
 7129SOL    HW222287   0.632   6.985   0.345
 7130SOL     OW22288   3.463   6.818   3.979
 7130SOL    HW122289   3.513   6.773   4.053
 7130SOL    HW222290   3.373   6.775   3.968
 7131SOL     OW22291   2.232   1.504   1.808
 7131SOL    HW122292   2.157   1.466   1.754
 7131SOL    HW222293   2.268   1.586   1.762
 7132SOL     OW22294   5.247   4.369   0.858
 7132SOL    HW122295   5.225   4.421   0.940
 7132SOL    HW222296   5.347   4.364   0.848
 7133SOL     OW22297   4.996   6.005   2.746
 7133SOL    HW122298   5.055   5.926   2.766
 7133SOL    HW222299   4.901   5.981   2.764
 7134SOL     OW22300   4.794   5.448   0.168
 7134SOL    HW122301   4.837   5.527   0.125
 7134SOL    HW222302   4.777   5.468   0.265
 7135SOL     OW22303   1.449   3.256   1.440
 7135SOL    HW122304   1.543   3.229   1.419
 7135SOL    HW222305   1.421   3.330   1.379
 7136SOL     OW22306   1.399   2.027   1.985
 7136SOL    HW122307   1.430   1.944   1.938
 7136SOL    HW222308   1.473   2.094   1.987
 7137SOL     OW22309   2.860   1.554   1.442
 7137SOL    HW122310   2.790   1.602   1.495
 7137SOL    HW222311   2.828   1.540   1.349
 7138SOL     OW22312   0.918   2.311   0.332
 7138SOL    HW122313   1.007   2.274   0.358
 7138SOL    HW222314   0.861   2.323   0.414
 7139SOL     OW22315   6.046   6.336   0.847
 7139SOL    HW122316   6.032   6.348   0.749
 7139SOL    HW222317   6.081   6.244   0.865
 7140SOL     OW22318   6.055   4.160   0.435
 7140SOL    HW122319   6.026   4.228   0.367
 7140SOL    HW222320   5.999   4.078   0.425
 7141SOL     OW22321   3.104   0.610   1.151
 7141SOL    HW122322   3.140   0.686   1.204
 7141SOL    HW222323   3.052   0.646   1.073
 7142SOL     OW22324   3.824   0.181   4.993
 7142SOL    HW122325   3.869   0.256   5.042
 7142SOL    HW222326   3.872   0.164   4.907
 7143SOL     OW22327   2.667   3.491   6.800
 7143SOL    HW122328   2.629   3.509   6.709
 7143SOL    HW222329   2.705   3.575   6.838
 7144SOL     OW22330   6.510   1.259   6.126
 7144SOL    HW122331   6.549   1.350   6.121
 7144SOL    HW222332   6.421   1.258   6.079
 7145SOL     OW22333   5.322   1.849   6.313
 7145SOL    HW122334   5.366   1.938   6.329
 7145SOL    HW222335   5.334   1.823   6.218
 7146SOL     OW22336   1.215   1.888   6.056
 7146SOL    HW122337   1.281   1.953   6.019
 7146SOL    HW222338   1.127   1.933   6.068
 7147SOL     OW22339   6.523   6.448   1.602
 7147SOL    HW122340   6.492   6.512   1.532
 7147SOL    HW222341   6.567   6.498   1.676
 7148SOL     OW22342   5.962   6.953   1.308
 7148SOL    HW122343   5.879   6.942   1.253
 7148SOL    HW222344   6.001   6.863   1.326
 7149SOL     OW22345   5.685   4.538   5.829
 7149SOL    HW122346   5.655   4.447   5.800
 7149SOL    HW222347   5.735   4.582   5.755
 7150SOL     OW22348   3.110   3.001   6.639
 7150SOL    HW122349   3.208   2.994   6.618
 7150SOL    HW222350   3.097   2.993   6.738
 7151SOL     OW22351   4.472   1.243   0.324
 7151SOL    HW122352   4.533   1.309   0.280
 7151SOL    HW222353   4.513   1.152   0.319
 7152SOL     OW22354   6.207   1.073   6.532
 7152SOL    HW122355   6.127   1.132   6.546
 7152SOL    HW222356   6.210   1.044   6.437
 7153SOL     OW22357   3.542   5.689   0.170
 7153SOL    HW122358   3.576   5.597   0.192
 7153SOL    HW222359   3.446   5.683   0.143
 7154SOL     OW22360   4.048   1.672   1.794
 7154SOL    HW122361   3.983   1.620   1.739
 7154SOL    HW222362   3.997   1.728   1.860
 7155SOL     OW22363   0.777   1.277   1.745
 7155SOL    HW122364   0.688   1.305   1.708
 7155SOL    HW222365   0.766   1.250   1.840
 7156SOL     OW22366   6.505   2.602   5.494
 7156SOL    HW122367   6.601   2.625   5.480
 7156SOL    HW222368   6.497   2.523   5.555
 7157SOL     OW22369   0.263   4.268   6.190
 7157SOL    HW122370   0.216   4.272   6.102
 7157SOL    HW222371   0.235   4.346   6.247
 7158SOL     OW22372   4.441   6.889   3.877
 7158SOL    HW122373   4.474   6.851   3.791
 7158SOL    HW222374   4.517   6.934   3.924
 7159SOL     OW22375   0.111   6.210   3.592
 7159SOL    HW122376   0.049   6.149   3.642
 7159SOL    HW222377   0.204   6.196   3.626
 7160SOL     OW22378   6.174   0.050   3.788
 7160SOL    HW122379   6.230   0.124   3.750
 7160SOL    HW222380   6.079   0.079   3.791
 7161SOL     OW22381   3.968   3.632   2.800
 7161SOL    HW122382   3.953   3.730   2.813
 7161SOL    HW222383   3.990   3.590   2.888
 7162SOL     OW22384   0.333   5.945   1.548
 7162SOL    HW122385   0.415   5.980   1.593
 7162SOL    HW222386   0.354   5.859   1.502
 7163SOL     OW22387   6.760   0.997   0.735
 7163SOL    HW122388   6.676   1.026   0.780
 7163SOL    HW222389   6.839   1.029   0.788
 7164SOL     OW22390   1.822   0.876   6.847
 7164SOL    HW122391   1.742   0.816   6.854
 7164SOL    HW222392   1.899   0.835   6.894
 7165SOL     OW22393   6.066   2.380   0.534
 7165SOL    HW122394   6.160   2.347   0.544
 7165SOL    HW222395   6.038   2.372   0.438
 7166SOL     OW22396   6.875   6.060   5.932
 7166SOL    HW122397   6.888   6.132   5.863
 7166SOL    HW222398   6.778   6.052   5.953
 7167SOL     OW22399   6.506   2.652   4.899
 7167SOL    HW122400   6.560   2.592   4.959
 7167SOL    HW222401   6.544   2.648   4.806
 7168SOL     OW22402   1.912   1.086   1.982
 7168SOL    HW122403   1.966   1.127   2.056
 7168SOL    HW222404   1.970   1.073   1.902
 7169SOL     OW22405   2.298   3.988   6.107
 7169SOL    HW122406   2.358   3.911   6.084
 7169SOL    HW222407   2.203   3.962   6.091
 7170SOL     OW22408   3.952   1.506   1.364
 7170SOL    HW122409   3.857   1.499   1.332
 7170SOL    HW222410   4.012   1.461   1.298
 7171SOL     OW22411   6.990   3.862   0.847
 7171SOL    HW122412   6.979   3.896   0.753
 7171SOL    HW222413   0.061   3.883   0.879
 7172SOL     OW22414   1.039   2.419   4.059
 7172SOL    HW122415   1.034   2.519   4.060
 7172SOL    HW222416   1.012   2.384   4.148
 7173SOL     OW22417   4.739   5.102   5.993
 7173SOL    HW122418   4.656   5.046   5.996
 7173SOL    HW222419   4.759   5.127   5.899
 7174SOL     OW22420   6.561   4.324   2.013
 7174SOL    HW122421   6.554   4.415   2.052
 7174SOL    HW222422   6.508   4.320   1.928
 7175SOL     OW22423   6.906   3.862   5.692
 7175SOL    HW122424   6.815   3.839   5.657
 7175SOL    HW222425   6.961   3.779   5.696
 7176SOL     OW22426   0.229   0.288   6.030
 7176SOL    HW122427   0.291   0.261   5.955
 7176SOL    HW222428   0.279   0.287   6.116
 7177SOL     OW22429   1.147   5.921   3.643
 7177SOL    HW122430   1.109   5.928   3.551
 7177SOL    HW222431   1.075   5.898   3.708
 7178SOL     OW22432   1.999   6.326   4.875
 7178SOL    HW122433   2.085   6.276   4.881
 7178SOL    HW222434   1.923   6.262   4.863
 7179SOL     OW22435   3.547   5.141   6.228
 7179SOL    HW122436   3.474   5.125   6.162
 7179SOL    HW222437   3.632   5.162   6.180
 7180SOL     OW22438   1.814   3.046   1.647
 7180SOL    HW122439   1.911   3.027   1.632
 7180SOL    HW222440   1.764   2.960   1.656
 7181SOL     OW22441   2.548   1.474   6.447
 7181SOL    HW122442   2.568   1.569   6.470
 7181SOL    HW222443   2.577   1.414   6.521
 7182SOL     OW22444   1.860   1.310   4.121
 7182SOL    HW122445   1.823   1.220   4.145
 7182SOL    HW222446   1.808   1.381   4.170
 7183SOL     OW22447   1.462   6.847   1.929
 7183SOL    HW122448   1.479   6.939   1.963
 7183SOL    HW222449   1.543   6.816   1.878
 7184SOL     OW22450   6.672   0.796   3.490
 7184SOL    HW122451   6.691   0.881   3.440
 7184SOL    HW222452   6.653   0.818   3.586
 7185SOL     OW22453   4.253   0.508   4.656
 7185SOL    HW122454   4.189   0.489   4.730
 7185SOL    HW222455   4.211   0.570   4.589
 7186SOL     OW22456   6.200   0.586   6.724
 7186SOL    HW122457   6.204   0.623   6.631
 7186SOL    HW222458   6.146   0.647   6.782
 7187SOL     OW22459   3.204   3.365   4.099
 7187SOL    HW122460   3.145   3.295   4.140
 7187SOL    HW222461   3.293   3.325   4.077
 7188SOL     OW22462   4.252   4.453   6.930
 7188SOL    HW122463   4.263   4.523   6.860
 7188SOL    HW222464   4.182   4.481   6.995
 7189SOL     OW22465   6.193   2.714   5.674
 7189SOL    HW122466   6.224   2.619   5.664
 7189SOL    HW222467   6.094   2.719   5.661
 7190SOL     OW22468   6.196   4.959   0.228
 7190SOL    HW122469   6.175   4.930   0.322
 7190SOL    HW222470   6.295   4.952   0.213
 7191SOL     OW22471   6.315   4.952   3.084
 7191SOL    HW122472   6.331   5.050   3.083
 7191SOL    HW222473   6.380   4.906   3.023
 7192SOL     OW22474   2.773   4.249   6.179
 7192SOL    HW122475   2.703   4.288   6.238
 7192SOL    HW222476   2.736   4.236   6.087
 7193SOL     OW22477   3.389   2.092   2.779
 7193SOL    HW122478   3.478   2.085   2.824
 7193SOL    HW222479   3.399   2.143   2.693
 7194SOL     OW22480   2.849   2.948   5.859
 7194SOL    HW122481   2.941   2.938   5.822
 7194SOL    HW222482   2.854   2.979   5.954
 7195SOL     OW22483   0.923   4.898   5.013
 7195SOL    HW122484   1.008   4.872   5.060
 7195SOL    HW222485   0.876   4.969   5.065
 7196SOL     OW22486   3.511   4.144   2.180
 7196SOL    HW122487   3.454   4.213   2.225
 7196SOL    HW222488   3.563   4.094   2.250
 7197SOL     OW22489   3.039   4.513   6.471
 7197SOL    HW122490   2.941   4.529   6.458
 7197SOL    HW222491   3.080   4.593   6.514
 7198SOL     OW22492   0.647   0.518   1.907
 7198SOL    HW122493   0.628   0.433   1.956
 7198SOL    HW222494   0.594   0.592   1.948
 7199SOL     OW22495   6.234   1.708   2.691
 7199SOL    HW122496   6.294   1.665   2.758
 7199SOL    HW222497   6.261   1.803   2.678
 7200SOL     OW22498   1.350   2.403   0.787
 7200SOL    HW122499   1.291   2.368   0.714
 7200SOL    HW222500   1.398   2.327   0.830
 7201SOL     OW22501   5.842   5.139   4.201
 7201SOL    HW122502   5.808   5.065   4.143
 7201SOL    HW222503   5.785   5.146   4.283
 7202SOL     OW22504   4.985   0.057   6.262
 7202SOL    HW122505   4.971   0.068   6.360
 7202SOL    HW222506   4.961   0.142   6.215
 7203SOL     OW22507   0.396   1.569   1.178
 7203SOL    HW122508   0.339   1.491   1.201
 7203SOL    HW222509   0.486   1.559   1.221
 7204SOL     OW22510   6.703   0.495   2.249
 7204SOL    HW122511   6.777   0.466   2.309
 7204SOL    HW222512   6.619   0.447   2.273
 7205SOL     OW22513   3.005   1.865   3.902
 7205SOL    HW122514   3.014   1.902   3.994
 7205SOL    HW222515   2.910   1.840   3.884
 7206SOL     OW22516   2.001   3.428   6.919
 7206SOL    HW122517   1.910   3.465   6.939
 7206SOL    HW222518   2.007   3.334   6.954
 7207SOL     OW22519   1.889   0.637   3.572
 7207SOL    HW122520   1.798   0.666   3.542
 7207SOL    HW222521   1.917   0.693   3.650
 7208SOL     OW22522   2.848   0.569   4.498
 7208SOL    HW122523   2.787   0.503   4.455
 7208SOL    HW222524   2.943   0.546   4.476
 7209SOL     OW22525   3.900   1.357   2.038
 7209SOL    HW122526   3.858   1.267   2.048
 7209SOL    HW222527   3.953   1.378   2.120
 7210SOL     OW22528   2.747   1.324   3.051
 7210SOL    HW122529   2.790   1.329   3.141
 7210SOL    HW222530   2.694   1.239   3.044
 7211SOL     OW22531   4.460   6.300   5.423
 7211SOL    HW122532   4.488   6.288   5.328
 7211SOL    HW222533   4.540   6.320   5.480
 7212SOL     OW22534   0.443   4.526   5.998
 7212SOL    HW122535   0.435   4.428   5.978
 7212SOL    HW222536   0.390   4.547   6.080
 7213SOL     OW22537   3.960   2.266   6.780
 7213SOL    HW122538   3.919   2.351   6.813
 7213SOL    HW222539   4.046   2.249   6.828
 7214SOL     OW22540   6.415   0.696   6.159
 7214SOL    HW122541   6.364   0.627   6.210
 7214SOL    HW222542   6.491   0.653   6.111
 7215SOL     OW22543   5.959   2.352   2.490
 7215SOL    HW122544   6.004   2.442   2.490
 7215SOL    HW222545   5.860   2.365   2.496
 7216SOL     OW22546   3.654   6.489   3.601
 7216SOL    HW122547   3.634   6.393   3.585
 7216SOL    HW222548   3.582   6.545   3.559
 7217SOL     OW22549   1.222   3.155   2.725
 7217SOL    HW122550   1.304   3.146   2.670
 7217SOL    HW222551   1.210   3.251   2.752
 7218SOL     OW22552   6.666   3.026   4.535
 7218SOL    HW122553   6.609   3.098   4.497
 7218SOL    HW222554   6.627   2.994   4.621
 7219SOL     OW22555   3.460   6.575   2.596
 7219SOL    HW122556   3.444   6.512   2.520
 7219SOL    HW222557   3.547   6.621   2.583
 7220SOL     OW22558   6.251   4.846   3.953
 7220SOL    HW122559   6.302   4.820   3.871
 7220SOL    HW222560   6.153   4.833   3.937
 7221SOL     OW22561   3.661   5.485   3.840
 7221SOL    HW122562   3.739   5.479   3.778
 7221SOL    HW222563   3.620   5.576   3.833
 7222SOL     OW22564   6.580   5.875   4.829
 7222SOL    HW122565   6.661   5.822   4.805
 7222SOL    HW222566   6.515   5.872   4.753
 7223SOL     OW22567   0.120   4.279   2.182
 7223SOL    HW122568   0.114   4.373   2.215
 7223SOL    HW222569   0.214   4.246   2.191
 7224SOL     OW22570   4.209   1.971   2.425
 7224SOL    HW122571   4.194   1.884   2.379
 7224SOL    HW222572   4.138   2.036   2.397
 7225SOL     OW22573   1.556   5.754   1.020
 7225SOL    HW122574   1.593   5.661   1.026
 7225SOL    HW222575   1.540   5.790   1.111
 7226SOL     OW22576   6.468   6.510   0.597
 7226SOL    HW122577   6.443   6.573   0.670
 7226SOL    HW222578   6.437   6.418   0.620
 7227SOL     OW22579   2.023   0.763   2.628
 7227SOL    HW122580   1.927   0.765   2.597
 7227SOL    HW222581   2.026   0.770   2.727
 7228SOL     OW22582   0.152   3.183   2.081
 7228SOL    HW122583   0.208   3.200   2.162
 7228SOL    HW222584   0.059   3.162   2.109
 7229SOL     OW22585   6.500   0.970   5.257
 7229SOL    HW122586   6.521   0.980   5.160
 7229SOL    HW222587   6.441   0.891   5.271
 7230SOL     OW22588   2.025   5.284   4.401
 7230SOL    HW122589   1.951   5.225   4.433
 7230SOL    HW222590   2.085   5.308   4.477
 7231SOL     OW22591   4.238   2.233   6.273
 7231SOL    HW122592   4.314   2.292   6.247
 7231SOL    HW222593   4.239   2.150   6.218
 7232SOL     OW22594   5.069   6.578   3.696
 7232SOL    HW122595   5.073   6.678   3.697
 7232SOL    HW222596   4.993   6.546   3.753
 7233SOL     OW22597   6.996   1.422   4.896
 7233SOL    HW122598   6.978   1.356   4.969
 7233SOL    HW222599   0.074   1.438   4.888
 7234SOL     OW22600   5.122   4.396   3.563
 7234SOL    HW122601   5.199   4.370   3.621
 7234SOL    HW222602   5.155   4.438   3.479
 7235SOL     OW22603   0.203   5.239   1.347
 7235SOL    HW122604   0.212   5.304   1.422
 7235SOL    HW222605   0.291   5.229   1.300
 7236SOL     OW22606   0.662   3.459   2.633
 7236SOL    HW122607   0.746   3.469   2.686
 7236SOL    HW222608   0.639   3.362   2.625
 7237SOL     OW22609   5.764   1.075   0.557
 7237SOL    HW122610   5.846   1.070   0.499
 7237SOL    HW222611   5.773   1.150   0.622
 7238SOL     OW22612   4.157   3.352   7.020
 7238SOL    HW122613   4.218   3.328   0.075
 7238SOL    HW222614   4.120   3.444   0.015
 7239SOL     OW22615   6.808   2.351   2.031
 7239SOL    HW122616   6.729   2.370   1.973
 7239SOL    HW222617   6.888   2.400   1.995
 7240SOL     OW22618   6.591   1.765   7.007
 7240SOL    HW122619   6.510   1.788   6.953
 7240SOL    HW222620   6.592   1.821   0.070
 7241SOL     OW22621   2.478   1.336   1.450
 7241SOL    HW122622   2.506   1.354   1.544
 7241SOL    HW222623   2.411   1.404   1.421
 7242SOL     OW22624   6.500   4.900   4.464
 7242SOL    HW122625   6.414   4.946   4.444
 7242SOL    HW222626   6.514   4.826   4.398
 7243SOL     OW22627   6.043   4.427   6.495
 7243SOL    HW122628   6.003   4.380   6.416
 7243SOL    HW222629   5.971   4.472   6.547
 7244SOL     OW22630   0.320   5.878   6.697
 7244SOL    HW122631   0.246   5.943   6.680
 7244SOL    HW222632   0.329   5.815   6.620
 7245SOL     OW22633   0.827   2.907   0.137
 7245SOL    HW122634   0.894   2.836   0.158
 7245SOL    HW222635   0.770   2.925   0.217
 7246SOL     OW22636   3.943   6.671   3.893
 7246SOL    HW122637   3.943   6.632   3.986
 7246SOL    HW222638   4.020   6.732   3.883
 7247SOL     OW22639   2.995   4.248   5.565
 7247SOL    HW122640   2.934   4.186   5.614
 7247SOL    HW222641   3.084   4.204   5.552
 7248SOL     OW22642   3.422   1.089   5.236
 7248SOL    HW122643   3.344   1.150   5.247
 7248SOL    HW222644   3.464   1.103   5.146
 7249SOL     OW22645   3.869   5.160   2.336
 7249SOL    HW122646   3.792   5.100   2.357
 7249SOL    HW222647   3.835   5.251   2.314
 7250SOL     OW22648   5.195   5.105   5.711
 7250SOL    HW122649   5.144   5.089   5.626
 7250SOL    HW222650   5.137   5.154   5.776
 7251SOL     OW22651   0.045   5.724   5.635
 7251SOL    HW122652   0.041   5.675   5.548
 7251SOL    HW222653   6.996   5.795   5.637
 7252SOL     OW22654   3.802   4.076   2.610
 7252SOL    HW122655   3.714   4.113   2.580
 7252SOL    HW222656   3.853   4.044   2.530
 7253SOL     OW22657   1.866   5.881   4.876
 7253SOL    HW122658   1.953   5.872   4.924
 7253SOL    HW222659   1.791   5.866   4.940
 7254SOL     OW22660   5.539   3.360   3.985
 7254SOL    HW122661   5.464   3.361   3.918
 7254SOL    HW222662   5.504   3.334   4.075
 7255SOL     OW22663   5.028   2.920   6.592
 7255SOL    HW122664   5.002   2.837   6.543
 7255SOL    HW222665   4.950   2.984   6.592
 7256SOL     OW22666   3.332   0.285   5.480
 7256SOL    HW122667   3.346   0.192   5.516
 7256SOL    HW222668   3.282   0.339   5.548
 7257SOL     OW22669   0.430   1.590   4.563
 7257SOL    HW122670   0.396   1.499   4.540
 7257SOL    HW222671   0.530   1.590   4.562
 7258SOL     OW22672   6.148   2.192   2.673
 7258SOL    HW122673   6.067   2.237   2.635
 7258SOL    HW222674   6.167   2.229   2.764
 7259SOL     OW22675   1.475   3.948   2.811
 7259SOL    HW122676   1.375   3.940   2.819
 7259SOL    HW222677   1.512   3.985   2.896
 7260SOL     OW22678   6.003   3.341   1.443
 7260SOL    HW122679   6.058   3.274   1.395
 7260SOL    HW222680   6.056   3.381   1.518
 7261SOL     OW22681   6.742   4.234   6.927
 7261SOL    HW122682   6.810   4.186   6.870
 7261SOL    HW222683   6.727   4.325   6.889
 7262SOL     OW22684   6.207   1.395   5.751
 7262SOL    HW122685   6.293   1.428   5.712
 7262SOL    HW222686   6.218   1.382   5.850
 7263SOL     OW22687   0.401   5.304   6.766
 7263SOL    HW122688   0.336   5.242   6.722
 7263SOL    HW222689   0.351   5.369   6.824
 7264SOL     OW22690   6.388   1.842   0.281
 7264SOL    HW122691   6.472   1.889   0.309
 7264SOL    HW222692   6.361   1.777   0.351
 7265SOL     OW22693   4.529   5.699   5.712
 7265SOL    HW122694   4.624   5.675   5.692
 7265SOL    HW222695   4.487   5.739   5.631
 7266SOL     OW22696   0.002   0.600   3.699
 7266SOL    HW122697   6.991   0.633   3.788
 7266SOL    HW222698   0.082   0.541   3.712
 7267SOL     OW22699   6.032   4.912   4.398
 7267SOL    HW122700   6.015   4.994   4.344
 7267SOL    HW222701   6.116   4.868   4.367
 7268SOL     OW22702   6.192   6.227   4.168
 7268SOL    HW122703   6.142   6.220   4.082
 7268SOL    HW222704   6.274   6.169   4.165
 7269SOL     OW22705   2.483   4.481   5.130
 7269SOL    HW122706   2.534   4.524   5.204
 7269SOL    HW222707   2.509   4.523   5.043
 7270SOL     OW22708   1.009   1.237   4.412
 7270SOL    HW122709   0.986   1.142   4.391
 7270SOL    HW222710   0.984   1.258   4.506
 7271SOL     OW22711   1.007   4.514   3.498
 7271SOL    HW122712   0.911   4.521   3.472
 7271SOL    HW222713   1.017   4.447   3.572
 7272SOL     OW22714   6.281   4.788   2.764
 7272SOL    HW122715   6.216   4.864   2.775
 7272SOL    HW222716   6.366   4.809   2.812
 7273SOL     OW22717   0.287   2.607   5.377
 7273SOL    HW122718   0.308   2.602   5.474
 7273SOL    HW222719   0.326   2.526   5.331
 7274SOL     OW22720   0.650   4.667   0.318
 7274SOL    HW122721   0.618   4.741   0.377
 7274SOL    HW222722   0.724   4.617   0.363
 7275SOL     OW22723   6.904   0.299   2.874
 7275SOL    HW122724   6.806   0.304   2.894
 7275SOL    HW222725   6.937   0.389   2.846
 7276SOL     OW22726   5.322   6.680   4.295
 7276SOL    HW122727   5.283   6.701   4.385
 7276SOL    HW222728   5.379   6.757   4.265
 7277SOL     OW22729   4.749   6.975   6.134
 7277SOL    HW122730   4.696   7.003   6.054
 7277SOL    HW222731   4.847   6.984   6.113
 7278SOL     OW22732   3.201   4.043   2.999
 7278SOL    HW122733   3.258   4.060   3.079
 7278SOL    HW222734   3.133   3.973   3.021
 7279SOL     OW22735   3.607   6.125   6.127
 7279SOL    HW122736   3.691   6.137   6.074
 7279SOL    HW222737   3.531   6.104   6.065
 7280SOL     OW22738   5.138   1.658   5.867
 7280SOL    HW122739   5.052   1.606   5.866
 7280SOL    HW222740   5.172   1.665   5.961
 7281SOL     OW22741   4.701   1.271   6.762
 7281SOL    HW122742   4.724   1.190   6.817
 7281SOL    HW222743   4.622   1.317   6.801
 7282SOL     OW22744   6.259   5.827   2.441
 7282SOL    HW122745   6.309   5.761   2.496
 7282SOL    HW222746   6.184   5.782   2.393
 7283SOL     OW22747   2.043   0.451   3.734
 7283SOL    HW122748   1.983   0.501   3.671
 7283SOL    HW222749   1.988   0.400   3.800
 7284SOL     OW22750   7.010   4.196   5.064
 7284SOL    HW122751   0.035   4.284   5.076
 7284SOL    HW222752   0.057   4.127   5.039
 7285SOL     OW22753   5.017   5.470   1.519
 7285SOL    HW122754   4.964   5.476   1.435
 7285SOL    HW222755   5.073   5.552   1.529
 7286SOL     OW22756   2.237   3.173   1.677
 7286SOL    HW122757   2.193   3.243   1.734
 7286SOL    HW222758   2.288   3.217   1.603
 7287SOL     OW22759   6.127   1.469   6.387
 7287SOL    HW122760   6.110   1.545   6.450
 7287SOL    HW222761   6.221   1.437   6.398
 7288SOL     OW22762   3.788   6.707   0.265
 7288SOL    HW122763   3.713   6.763   0.228
 7288SOL    HW222764   3.761   6.611   0.263
 7289SOL     OW22765   4.617   2.120   2.854
 7289SOL    HW122766   4.542   2.155   2.911
 7289SOL    HW222767   4.606   2.021   2.842
 7290SOL     OW22768   2.783   5.282   4.690
 7290SOL    HW122769   2.779   5.191   4.732
 7290SOL    HW222770   2.848   5.339   4.741
 7291SOL     OW22771   2.372   5.877   1.660
 7291SOL    HW122772   2.453   5.917   1.615
 7291SOL    HW222773   2.402   5.820   1.736
 7292SOL     OW22774   2.684   6.827   3.878
 7292SOL    HW122775   2.667   6.732   3.850
 7292SOL    HW222776   2.621   6.888   3.831
 7293SOL     OW22777   1.455   2.116   5.312
 7293SOL    HW122778   1.396   2.044   5.347
 7293SOL    HW222779   1.537   2.123   5.369
 7294SOL     OW22780   3.007   5.199   0.851
 7294SOL    HW122781   2.969   5.143   0.925
 7294SOL    HW222782   3.025   5.141   0.771
 7295SOL     OW22783   6.156   0.662   1.356
 7295SOL    HW122784   6.247   0.662   1.315
 7295SOL    HW222785   6.086   0.674   1.285
 7296SOL     OW22786   3.570   4.828   1.379
 7296SOL    HW122787   3.525   4.739   1.387
 7296SOL    HW222788   3.627   4.844   1.460
 7297SOL     OW22789   4.839   6.815   1.646
 7297SOL    HW122790   4.900   6.736   1.631
 7297SOL    HW222791   4.763   6.811   1.582
 7298SOL     OW22792   5.886   3.488   4.331
 7298SOL    HW122793   5.907   3.453   4.240
 7298SOL    HW222794   5.869   3.586   4.327
 7299SOL     OW22795   6.535   4.072   6.815
 7299SOL    HW122796   6.543   4.077   6.716
 7299SOL    HW222797   6.602   4.133   6.857
 7300SOL     OW22798   4.839   5.298   1.324
 7300SOL    HW122799   4.925   5.298   1.273
 7300SOL    HW222800   4.772   5.240   1.277
 7301SOL     OW22801   6.821   0.192   5.947
 7301SOL    HW122802   6.730   0.173   5.985
 7301SOL    HW222803   6.865   0.107   5.921
 7302SOL     OW22804   5.426   0.853   6.796
 7302SOL    HW122805   5.424   0.759   6.831
 7302SOL    HW222806   5.454   0.852   6.700
 7303SOL     OW22807   3.492   0.852   6.959
 7303SOL    HW122808   3.518   0.776   7.019
 7303SOL    HW222809   3.570   0.913   6.947
 7304SOL     OW22810   3.815   3.656   6.096
 7304SOL    HW122811   3.785   3.573   6.142
 7304SOL    HW222812   3.860   3.632   6.010
 7305SOL     OW22813   4.934   1.364   0.616
 7305SOL    HW122814   4.894   1.337   0.529
 7305SOL    HW222815   5.009   1.429   0.600
 7306SOL     OW22816   4.406   4.881   1.820
 7306SOL    HW122817   4.381   4.962   1.874
 7306SOL    HW222818   4.502   4.888   1.792
 7307SOL     OW22819   4.207   6.583   2.179
 7307SOL    HW122820   4.226   6.678   2.205
 7307SOL    HW222821   4.254   6.562   2.093
 7308SOL     OW22822   6.968   3.047   4.614
 7308SOL    HW122823   6.964   3.038   4.713
 7308SOL    HW222824   6.876   3.043   4.576
 7309SOL     OW22825   4.816   6.460   1.641
 7309SOL    HW122826   4.735   6.403   1.643
 7309SOL    HW222827   4.845   6.481   1.734
 7310SOL     OW22828   3.121   5.023   1.812
 7310SOL    HW122829   3.084   4.934   1.840
 7310SOL    HW222830   3.221   5.018   1.809
 7311SOL     OW22831   2.691   2.180   2.021
 7311SOL    HW122832   2.774   2.234   2.006
 7311SOL    HW222833   2.614   2.242   2.038
 7312SOL     OW22834   6.671   1.451   5.816
 7312SOL    HW122835   6.639   1.396   5.894
 7312SOL    HW222836   6.769   1.469   5.826
 7313SOL     OW22837   4.087   2.489   6.649
 7313SOL    HW122838   4.068   2.570   6.706
 7313SOL    HW222839   4.023   2.416   6.673
 7314SOL     OW22840   0.040   3.566   4.419
 7314SOL    HW122841   0.095   3.600   4.495
 7314SOL    HW222842   0.098   3.515   4.356
 7315SOL     OW22843   6.696   6.986   3.947
 7315SOL    HW122844   6.743   6.901   3.971
 7315SOL    HW222845   6.649   6.975   3.860
 7316SOL     OW22846   3.424   3.681   5.683
 7316SOL    HW122847   3.492   3.722   5.622
 7316SOL    HW222848   3.332   3.706   5.651
 7317SOL     OW22849   3.511   1.021   3.663
 7317SOL    HW122850   3.500   1.110   3.706
 7317SOL    HW222851   3.600   1.016   3.618
 7318SOL     OW22852   1.663   2.308   1.161
 7318SOL    HW122853   1.646   2.403   1.190
 7318SOL    HW222854   1.723   2.308   1.081
 7319SOL     OW22855   6.094   4.222   6.795
 7319SOL    HW122856   6.138   4.139   6.829
 7319SOL    HW222857   6.153   4.267   6.729
 7320SOL     OW22858   6.985   3.051   2.466
 7320SOL    HW122859   0.047   3.078   2.515
 7320SOL    HW222860   6.962   2.957   2.489
 7321SOL     OW22861   2.545   1.244   4.406
 7321SOL    HW122862   2.446   1.250   4.392
 7321SOL    HW222863   2.578   1.327   4.450
 7322SOL     OW22864   0.373   4.181   2.621
 7322SOL    HW122865   0.446   4.243   2.590
 7322SOL    HW222866   0.396   4.088   2.595
 7323SOL     OW22867   2.009   2.845   3.921
 7323SOL    HW122868   1.935   2.837   3.987
 7323SOL    HW222869   1.977   2.896   3.841
 7324SOL     OW22870   5.791   0.563   3.225
 7324SOL    HW122871   5.744   0.531   3.308
 7324SOL    HW222872   5.780   0.662   3.216
 7325SOL     OW22873   3.392   6.293   6.470
 7325SOL    HW122874   3.388   6.387   6.503
 7325SOL    HW222875   3.307   6.246   6.493
 7326SOL     OW22876   3.004   6.865   5.994
 7326SOL    HW122877   2.925   6.804   5.989
 7326SOL    HW222878   2.998   6.920   6.078
 7327SOL     OW22879   1.682   3.123   5.825
 7327SOL    HW122880   1.781   3.130   5.831
 7327SOL    HW222881   1.648   3.071   5.904
 7328SOL     OW22882   2.576   0.170   6.550
 7328SOL    HW122883   2.498   0.214   6.506
 7328SOL    HW222884   2.616   0.232   6.618
 7329SOL     OW22885   3.944   3.500   1.169
 7329SOL    HW122886   3.964   3.413   1.215
 7329SOL    HW222887   3.846   3.504   1.149
 7330SOL     OW22888   3.548   1.559   0.264
 7330SOL    HW122889   3.466   1.507   0.240
 7330SOL    HW222890   3.621   1.539   0.199
 7331SOL     OW22891   5.176   0.717   2.247
 7331SOL    HW122892   5.095   0.663   2.224
 7331SOL    HW222893   5.184   0.794   2.184
 7332SOL     OW22894   3.764   5.297   0.905
 7332SOL    HW122895   3.673   5.269   0.875
 7332SOL    HW222896   3.765   5.307   1.004
 7333SOL     OW22897   1.024   4.581   2.402
 7333SOL    HW122898   0.965   4.623   2.471
 7333SOL    HW222899   1.094   4.525   2.447
 7334SOL     OW22900   4.016   6.504   4.385
 7334SOL    HW122901   4.031   6.451   4.469
 7334SOL    HW222902   3.918   6.520   4.373
 7335SOL     OW22903   1.915   2.187   2.732
 7335SOL    HW122904   1.957   2.153   2.816
 7335SOL    HW222905   1.818   2.206   2.749
 7336SOL     OW22906   2.283   5.991   3.822
 7336SOL    HW122907   2.322   6.082   3.811
 7336SOL    HW222908   2.280   5.968   3.919
 7337SOL     OW22909   6.945   3.064   2.167
 7337SOL    HW122910   6.927   3.077   2.264
 7337SOL    HW222911   6.923   2.970   2.141
 7338SOL     OW22912   6.822   2.322   0.482
 7338SOL    HW122913   6.914   2.328   0.444
 7338SOL    HW222914   6.808   2.398   0.546
 7339SOL     OW22915   6.996   5.541   4.627
 7339SOL    HW122916   6.965   5.461   4.577
 7339SOL    HW222917   6.953   5.623   4.589
 7340SOL     OW22918   2.312   6.886   6.772
 7340SOL    HW122919   2.298   6.978   6.737
 7340SOL    HW222920   2.320   6.822   6.695
 7341SOL     OW22921   5.940   2.443   6.432
 7341SOL    HW122922   5.909   2.349   6.421
 7341SOL    HW222923   5.905   2.479   6.518
 7342SOL     OW22924   0.070   0.093   2.467
 7342SOL    HW122925   0.143   0.157   2.442
 7342SOL    HW222926   0.108   0.001   2.475
 7343SOL     OW22927   5.134   3.825   0.283
 7343SOL    HW122928   5.170   3.821   0.190
 7343SOL    HW222929   5.036   3.839   0.280
 7344SOL     OW22930   1.479   6.298   6.234
 7344SOL    HW122931   1.559   6.301   6.294
 7344SOL    HW222932   1.396   6.284   6.288
 7345SOL     OW22933   3.554   5.249   5.958
 7345SOL    HW122934   3.544   5.301   5.873
 7345SOL    HW222935   3.529   5.308   6.036
 7346SOL     OW22936   5.067   4.847   3.044
 7346SOL    HW122937   5.107   4.804   2.964
 7346SOL    HW222938   5.105   4.938   3.057
 7347SOL     OW22939   5.643   2.347   6.443
 7347SOL    HW122940   5.545   2.360   6.429
 7347SOL    HW222941   5.693   2.427   6.409
 7348SOL     OW22942   0.649   4.723   2.019
 7348SOL    HW122943   0.585   4.799   2.025
 7348SOL    HW222944   0.600   4.637   2.037
 7349SOL     OW22945   3.947   2.058   1.594
 7349SOL    HW122946   3.953   1.976   1.538
 7349SOL    HW222947   3.868   2.052   1.655
 7350SOL     OW22948   3.462   0.374   5.035
 7350SOL    HW122949   3.378   0.407   4.992
 7350SOL    HW222950   3.511   0.314   4.971
 7351SOL     OW22951   3.217   4.925   3.974
 7351SOL    HW122952   3.225   5.011   3.924
 7351SOL    HW222953   3.136   4.928   4.032
 7352SOL     OW22954   6.748   2.582   3.542
 7352SOL    HW122955   6.843   2.579   3.572
 7352SOL    HW222956   6.707   2.670   3.567
 7353SOL     OW22957   6.311   0.451   6.338
 7353SOL    HW122958   6.348   0.386   6.405
 7353SOL    HW222959   6.284   0.535   6.385
 7354SOL     OW22960   1.326   1.688   2.920
 7354SOL    HW122961   1.309   1.738   2.835
 7354SOL    HW222962   1.424   1.669   2.928
 7355SOL     OW22963   1.198   2.169   6.935
 7355SOL    HW122964   1.101   2.193   6.934
 7355SOL    HW222965   1.231   2.158   6.842
 7356SOL     OW22966   4.663   4.210   6.212
 7356SOL    HW122967   4.743   4.261   6.243
 7356SOL    HW222968   4.685   4.112   6.209
 7357SOL     OW22969   5.327   6.417   2.065
 7357SOL    HW122970   5.251   6.355   2.082
 7357SOL    HW222971   5.410   6.363   2.047
 7358SOL     OW22972   5.087   1.103   3.645
 7358SOL    HW122973   5.165   1.101   3.706
 7358SOL    HW222974   5.101   1.038   3.570
 7359SOL     OW22975   4.761   6.859   0.611
 7359SOL    HW122976   4.831   6.930   0.606
 7359SOL    HW222977   4.803   6.773   0.643
 7360SOL     OW22978   2.840   3.660   5.624
 7360SOL    HW122979   2.825   3.645   5.526
 7360SOL    HW222980   2.938   3.670   5.641
 7361SOL     OW22981   5.282   0.742   3.318
 7361SOL    HW122982   5.279   0.754   3.218
 7361SOL    HW222983   5.354   0.799   3.356
 7362SOL     OW22984   3.672   4.805   6.393
 7362SOL    HW122985   3.699   4.849   6.308
 7362SOL    HW222986   3.735   4.730   6.413
 7363SOL     OW22987   3.803   0.124   1.371
 7363SOL    HW122988   3.726   0.074   1.411
 7363SOL    HW222989   3.860   0.061   1.318
 7364SOL     OW22990   5.388   6.968   1.579
 7364SOL    HW122991   5.415   0.040   1.553
 7364SOL    HW222992   5.344   6.923   1.501
 7365SOL     OW22993   5.891   4.716   2.091
 7365SOL    HW122994   5.880   4.703   1.992
 7365SOL    HW222995   5.816   4.772   2.126
 7366SOL     OW22996   1.961   0.947   4.445
 7366SOL    HW122997   1.980   0.902   4.358
 7366SOL    HW222998   1.877   1.001   4.438
 7367SOL     OW22999   4.391   0.173   6.788
 7367SOL    HW123000   4.320   0.200   6.722
 7367SOL    HW223001   4.349   0.163   6.878
 7368SOL     OW23002   4.038   3.307   3.415
 7368SOL    HW123003   4.065   3.402   3.429
 7368SOL    HW223004   3.976   3.301   3.337
 7369SOL     OW23005   5.463   2.792   1.081
 7369SOL    HW123006   5.542   2.737   1.053
 7369SOL    HW223007   5.405   2.739   1.143
 7370SOL     OW23008   2.238   1.768   4.279
 7370SOL    HW123009   2.187   1.850   4.305
 7370SOL    HW223010   2.214   1.743   4.185
 7371SOL     OW23011   3.730   0.758   3.629
 7371SOL    HW123012   3.671   0.764   3.710
 7371SOL    HW223013   3.797   0.685   3.642
 7372SOL     OW23014   5.226   0.808   5.325
 7372SOL    HW123015   5.147   0.746   5.326
 7372SOL    HW223016   5.279   0.795   5.408
 7373SOL     OW23017   5.265   2.865   4.487
 7373SOL    HW123018   5.239   2.925   4.563
 7373SOL    HW223019   5.365   2.854   4.486
 7374SOL     OW23020   6.494   1.765   5.805
 7374SOL    HW123021   6.512   1.668   5.822
 7374SOL    HW223022   6.432   1.773   5.727
 7375SOL     OW23023   1.789   3.236   2.294
 7375SOL    HW123024   1.764   3.139   2.287
 7375SOL    HW223025   1.832   3.253   2.383
 7376SOL     OW23026   0.081   3.691   0.012
 7376SOL    HW123027   7.005   3.679   7.008
 7376SOL    HW223028   0.119   3.602   0.039
 7377SOL     OW23029   3.201   6.312   0.583
 7377SOL    HW123030   3.178   6.247   0.511
 7377SOL    HW223031   3.164   6.279   0.670
 7378SOL     OW23032   1.319   6.115   3.558
 7378SOL    HW123033   1.252   6.050   3.595
 7378SOL    HW223034   1.391   6.131   3.626
 7379SOL     OW23035   3.940   1.050   1.234
 7379SOL    HW123036   3.845   1.017   1.229
 7379SOL    HW223037   4.002   0.973   1.244
 7380SOL     OW23038   5.302   3.363   2.235
 7380SOL    HW123039   5.212   3.406   2.233
 7380SOL    HW223040   5.294   3.269   2.201
 7381SOL     OW23041   4.046   1.185   0.788
 7381SOL    HW123042   4.139   1.182   0.750
 7381SOL    HW223043   4.044   1.135   0.875
 7382SOL     OW23044   6.571   1.520   6.415
 7382SOL    HW123045   6.653   1.553   6.462
 7382SOL    HW223046   6.592   1.506   6.318
 7383SOL     OW23047   2.180   6.727   0.488
 7383SOL    HW123048   2.180   6.773   0.576
 7383SOL    HW223049   2.130   6.782   0.421
 7384SOL     OW23050   0.394   0.233   0.489
 7384SOL    HW123051   0.418   0.278   0.403
 7384SOL    HW223052   0.434   0.284   0.566
 7385SOL     OW23053   5.634   4.093   2.848
 7385SOL    HW123054   5.611   4.028   2.920
 7385SOL    HW223055   5.554   4.108   2.790
 7386SOL     OW23056   6.085   3.761   0.721
 7386SOL    HW123057   5.989   3.764   0.694
 7386SOL    HW223058   6.093   3.774   0.820
 7387SOL     OW23059   6.632   5.574   5.588
 7387SOL    HW123060   6.617   5.607   5.681
 7387SOL    HW223061   6.705   5.506   5.587
 7388SOL     OW23062   2.051   5.337   2.387
 7388SOL    HW123063   2.126   5.307   2.447
 7388SOL    HW223064   1.965   5.296   2.418
 7389SOL     OW23065   5.759   3.172   0.417
 7389SOL    HW123066   5.696   3.117   0.363
 7389SOL    HW223067   5.790   3.119   0.496
 7390SOL     OW23068   2.077   2.119   2.927
 7390SOL    HW123069   2.127   2.033   2.939
 7390SOL    HW223070   2.140   2.190   2.897
 7391SOL     OW23071   3.712   3.096   3.719
 7391SOL    HW123072   3.807   3.122   3.700
 7391SOL    HW223073   3.654   3.129   3.644
 7392SOL     OW23074   3.124   6.080   6.752
 7392SOL    HW123075   3.063   6.159   6.750
 7392SOL    HW223076   3.188   6.089   6.828
 7393SOL     OW23077   5.195   5.278   4.312
 7393SOL    HW123078   5.133   5.271   4.234
 7393SOL    HW223079   5.277   5.223   4.294
 7394SOL     OW23080   2.488   1.850   5.904
 7394SOL    HW123081   2.567   1.901   5.869
 7394SOL    HW223082   2.404   1.893   5.873
 7395SOL     OW23083   2.886   5.440   0.869
 7395SOL    HW123084   2.838   5.455   0.956
 7395SOL    HW223085   2.936   5.354   0.874
 7396SOL     OW23086   2.515   5.270   1.803
 7396SOL    HW123087   2.613   5.289   1.794
 7396SOL    HW223088   2.464   5.356   1.804
 7397SOL     OW23089   5.368   4.713   3.917
 7397SOL    HW123090   5.276   4.705   3.878
 7397SOL    HW223091   5.361   4.739   4.014
 7398SOL     OW23092   2.196   4.336   2.637
 7398SOL    HW123093   2.133   4.412   2.631
 7398SOL    HW223094   2.192   4.282   2.553
 7399SOL     OW23095   5.094   2.416   5.014
 7399SOL    HW123096   5.089   2.510   5.048
 7399SOL    HW223097   5.056   2.354   5.083
 7400SOL     OW23098   5.390   3.146   5.625
 7400SOL    HW123099   5.360   3.050   5.625
 7400SOL    HW223100   5.400   3.178   5.531
 7401SOL     OW23101   1.620   2.676   3.865
 7401SOL    HW123102   1.520   2.678   3.866
 7401SOL    HW223103   1.655   2.761   3.905
 7402SOL     OW23104   3.314   6.200   4.512
 7402SOL    HW123105   3.362   6.220   4.426
 7402SOL    HW223106   3.357   6.250   4.587
 7403SOL     OW23107   1.768   3.782   4.251
 7403SOL    HW123108   1.725   3.708   4.199
 7403SOL    HW223109   1.703   3.858   4.259
 7404SOL     OW23110   3.188   3.740   1.222
 7404SOL    HW123111   3.178   3.837   1.200
 7404SOL    HW223112   3.135   3.718   1.304
 7405SOL     OW23113   3.741   6.512   4.360
 7405SOL    HW123114   3.679   6.499   4.437
 7405SOL    HW223115   3.724   6.601   4.318
 7406SOL     OW23116   0.862   1.100   4.947
 7406SOL    HW123117   0.940   1.079   5.006
 7406SOL    HW223118   0.817   1.184   4.979
 7407SOL     OW23119   0.658   5.881   5.509
 7407SOL    HW123120   0.623   5.848   5.597
 7407SOL    HW223121   0.589   5.867   5.439
 7408SOL     OW23122   3.603   4.710   5.294
 7408SOL    HW123123   3.678   4.646   5.274
 7408SOL    HW223124   3.641   4.795   5.328
 7409SOL     OW23125   6.236   3.535   0.673
 7409SOL    HW123126   6.322   3.579   0.648
 7409SOL    HW223127   6.171   3.605   0.702
 7410SOL     OW23128   7.001   0.705   1.231
 7410SOL    HW123129   6.902   0.709   1.247
 7410SOL    HW223130   0.002   0.626   1.174
 7411SOL     OW23131   1.614   1.992   5.057
 7411SOL    HW123132   1.674   1.916   5.080
 7411SOL    HW223133   1.539   1.996   5.123
 7412SOL     OW23134   4.403   6.490   6.718
 7412SOL    HW123135   4.476   6.424   6.731
 7412SOL    HW223136   4.327   6.468   6.780
 7413SOL     OW23137   4.071   0.161   3.142
 7413SOL    HW123138   3.983   0.114   3.150
 7413SOL    HW223139   4.138   0.115   3.199
 7414SOL     OW23140   3.112   1.591   4.415
 7414SOL    HW123141   3.098   1.551   4.324
 7414SOL    HW223142   3.026   1.588   4.466
 7415SOL     OW23143   3.776   6.458   6.454
 7415SOL    HW123144   3.756   6.528   6.522
 7415SOL    HW223145   3.709   6.385   6.461
 7416SOL     OW23146   0.808   1.005   2.052
 7416SOL    HW123147   0.837   1.100   2.062
 7416SOL    HW223148   0.722   1.002   2.001
 7417SOL     OW23149   0.381   0.995   3.449
 7417SOL    HW123150   0.317   0.937   3.500
 7417SOL    HW223151   0.405   1.074   3.504
 7418SOL     OW23152   2.045   3.996   6.003
 7418SOL    HW123153   1.946   3.984   5.993
 7418SOL    HW223154   2.084   4.027   5.916
 7419SOL     OW23155   6.914   3.742   3.786
 7419SOL    HW123156   6.821   3.741   3.748
 7419SOL    HW223157   6.965   3.819   3.748
 7420SOL     OW23158   6.617   0.041   1.528
 7420SOL    HW123159   6.584   6.970   1.550
 7420SOL    HW223160   6.692   0.035   1.462
 7421SOL     OW23161   5.004   4.246   1.397
 7421SOL    HW123162   4.952   4.302   1.462
 7421SOL    HW223163   5.036   4.303   1.322
 7422SOL     OW23164   5.494   1.690   2.824
 7422SOL    HW123165   5.524   1.674   2.730
 7422SOL    HW223166   5.562   1.745   2.872
 7423SOL     OW23167   5.330   1.737   6.066
 7423SOL    HW123168   5.409   1.793   6.038
 7423SOL    HW223169   5.351   1.641   6.050
 7424SOL     OW23170   0.823   2.283   3.893
 7424SOL    HW123171   0.902   2.335   3.925
 7424SOL    HW223172   0.852   2.223   3.818
 7425SOL     OW23173   5.610   0.671   0.729
 7425SOL    HW123174   5.619   0.768   0.709
 7425SOL    HW223175   5.601   0.657   0.828
 7426SOL     OW23176   4.031   3.646   5.889
 7426SOL    HW123177   4.084   3.641   5.974
 7426SOL    HW223178   4.083   3.697   5.821
 7427SOL     OW23179   2.830   1.116   3.606
 7427SOL    HW123180   2.764   1.174   3.655
 7427SOL    HW223181   2.804   1.020   3.617
 7428SOL     OW23182   4.191   5.923   5.224
 7428SOL    HW123183   4.241   5.838   5.213
 7428SOL    HW223184   4.167   5.936   5.320
 7429SOL     OW23185   1.828   6.862   2.607
 7429SOL    HW123186   1.749   6.914   2.575
 7429SOL    HW223187   1.848   6.789   2.542
 7430SOL     OW23188   6.464   5.451   2.707
 7430SOL    HW123189   6.493   5.542   2.676
 7430SOL    HW223190   6.493   5.438   2.802
 7431SOL     OW23191   1.556   1.341   3.500
 7431SOL    HW123192   1.570   1.407   3.426
 7431SOL    HW223193   1.645   1.307   3.531
 7432SOL     OW23194   2.682   0.546   3.311
 7432SOL    HW123195   2.701   0.644   3.314
 7432SOL    HW223196   2.679   0.510   3.404
 7433SOL     OW23197   2.736   6.897   6.267
 7433SOL    HW123198   2.811   6.956   6.239
 7433SOL    HW223199   2.709   6.919   6.361
 7434SOL     OW23200   4.207   6.522   5.097
 7434SOL    HW123201   4.244   6.431   5.075
 7434SOL    HW223202   4.124   6.512   5.152
 7435SOL     OW23203   4.673   4.577   3.105
 7435SOL    HW123204   4.715   4.663   3.074
 7435SOL    HW223205   4.741   4.522   3.153
 7436SOL     OW23206   5.265   2.860   5.947
 7436SOL    HW123207   5.290   2.906   6.033
 7436SOL    HW223208   5.345   2.813   5.910
 7437SOL     OW23209   3.539   6.944   0.948
 7437SOL    HW123210   3.519   6.932   1.045
 7437SOL    HW223211   3.457   6.923   0.894
 7438SOL     OW23212   2.184   0.711   6.973
 7438SOL    HW123213   2.175   0.811   6.978
 7438SOL    HW223214   2.102   0.668   7.010
 7439SOL     OW23215   1.244   4.471   6.608
 7439SOL    HW123216   1.294   4.557   6.604
 7439SOL    HW223217   1.295   4.404   6.662
 7440SOL     OW23218   5.564   3.643   4.300
 7440SOL    HW123219   5.589   3.582   4.374
 7440SOL    HW223220   5.622   3.625   4.220
 7441SOL     OW23221   6.073   5.991   1.315
 7441SOL    HW123222   6.148   5.957   1.258
 7441SOL    HW223223   6.088   5.962   1.410
 7442SOL     OW23224   5.696   0.683   5.723
 7442SOL    HW123225   5.783   0.641   5.750
 7442SOL    HW223226   5.633   0.682   5.800
 7443SOL     OW23227   0.394   1.117   1.776
 7443SOL    HW123228   0.425   1.205   1.740
 7443SOL    HW223229   0.396   1.120   1.876
 7444SOL     OW23230   1.383   6.275   6.802
 7444SOL    HW123231   1.474   6.305   6.774
 7444SOL    HW223232   1.316   6.304   6.734
 7445SOL     OW23233   4.548   6.277   1.657
 7445SOL    HW123234   4.499   6.255   1.573
 7445SOL    HW223235   4.524   6.212   1.729
 7446SOL     OW23236   5.547   3.822   0.381
 7446SOL    HW123237   5.568   3.805   0.285
 7446SOL    HW223238   5.467   3.769   0.408
 7447SOL     OW23239   0.250   4.464   0.918
 7447SOL    HW123240   0.285   4.488   0.828
 7447SOL    HW223241   0.202   4.543   0.957
 7448SOL     OW23242   4.637   5.140   6.802
 7448SOL    HW123243   4.724   5.103   6.768
 7448SOL    HW223244   4.596   5.197   6.730
 7449SOL     OW23245   0.718   4.644   6.321
 7449SOL    HW123246   0.746   4.579   6.251
 7449SOL    HW223247   0.713   4.599   6.410
 7450SOL     OW23248   5.473   2.336   5.383
 7450SOL    HW123249   5.547   2.308   5.322
 7450SOL    HW223250   5.401   2.268   5.381
 7451SOL     OW23251   5.036   4.718   3.293
 7451SOL    HW123252   5.029   4.787   3.221
 7451SOL    HW223253   5.072   4.633   3.255
 7452SOL     OW23254   6.262   5.106   5.598
 7452SOL    HW123255   6.218   5.073   5.514
 7452SOL    HW223256   6.319   5.033   5.636
 7453SOL     OW23257   3.735   6.035   5.856
 7453SOL    HW123258   3.804   6.026   5.928
 7453SOL    HW223259   3.709   6.131   5.847
 7454SOL     OW23260   4.601   2.198   0.406
 7454SOL    HW123261   4.571   2.189   0.501
 7454SOL    HW223262   4.521   2.210   0.347
 7455SOL     OW23263   6.986   2.331   2.971
 7455SOL    HW123264   0.018   2.263   3.023
 7455SOL    HW223265   0.027   2.390   2.920
 7456SOL     OW23266   2.810   2.305   5.849
 7456SOL    HW123267   2.739   2.361   5.892
 7456SOL    HW223268   2.852   2.357   5.775
 7457SOL     OW23269   2.805   0.530   3.065
 7457SOL    HW123270   2.737   0.493   3.002
 7457SOL    HW223271   2.764   0.545   3.155
 7458SOL     OW23272   1.696   4.945   5.381
 7458SOL    HW123273   1.641   4.922   5.461
 7458SOL    HW223274   1.792   4.954   5.409
 7459SOL     OW23275   5.966   0.827   2.883
 7459SOL    HW123276   5.924   0.738   2.869
 7459SOL    HW223277   5.895   0.896   2.895
 7460SOL     OW23278   1.940   6.425   0.971
 7460SOL    HW123279   1.999   6.344   0.967
 7460SOL    HW223280   1.995   6.505   0.997
 7461SOL     OW23281   1.917   4.620   6.054
 7461SOL    HW123282   1.894   4.705   6.005
 7461SOL    HW223283   1.971   4.561   5.994
 7462SOL     OW23284   1.302   5.028   0.202
 7462SOL    HW123285   1.229   5.017   0.269
 7462SOL    HW223286   1.377   4.967   0.224
 7463SOL     OW23287   3.746   5.372   1.158
 7463SOL    HW123288   3.752   5.467   1.188
 7463SOL    HW223289   3.679   5.323   1.214
 7464SOL     OW23290   6.565   6.160   5.351
 7464SOL    HW123291   6.535   6.241   5.300
 7464SOL    HW223292   6.651   6.127   5.313
 7465SOL     OW23293   1.525   4.802   6.928
 7465SOL    HW123294   1.431   4.781   6.956
 7465SOL    HW223295   1.556   4.885   6.975
 7466SOL     OW23296   0.621   0.137   5.314
 7466SOL    HW123297   0.686   0.212   5.321
 7466SOL    HW223298   0.616   0.105   5.219
 7467SOL     OW23299   0.322   3.019   5.815
 7467SOL    HW123300   0.242   3.037   5.872
 7467SOL    HW223301   0.392   2.974   5.871
 7468SOL     OW23302   6.540   3.973   5.821
 7468SOL    HW123303   6.448   3.948   5.790
 7468SOL    HW223304   6.586   4.024   5.748
 7469SOL     OW23305   6.761   2.097   0.931
 7469SOL    HW123306   6.821   2.055   1.000
 7469SOL    HW223307   6.799   2.186   0.904
 7470SOL     OW23308   5.738   2.636   3.704
 7470SOL    HW123309   5.744   2.606   3.800
 7470SOL    HW223310   5.828   2.629   3.661
 7471SOL     OW23311   4.647   6.106   6.397
 7471SOL    HW123312   4.661   6.202   6.421
 7471SOL    HW223313   4.730   6.070   6.353
 7472SOL     OW23314   5.956   6.711   5.503
 7472SOL    HW123315   5.966   6.806   5.471
 7472SOL    HW223316   6.009   6.698   5.587
 7473SOL     OW23317   3.975   5.823   4.050
 7473SOL    HW123318   4.030   5.892   4.096
 7473SOL    HW223319   4.034   5.763   3.997
 7474SOL     OW23320   5.985   2.007   6.356
 7474SOL    HW123321   5.969   1.913   6.386
 7474SOL    HW223322   5.958   2.071   6.428
 7475SOL     OW23323   4.916   2.536   0.902
 7475SOL    HW123324   4.967   2.519   0.818
 7475SOL    HW223325   4.863   2.621   0.891
 7476SOL     OW23326   2.015   0.197   2.888
 7476SOL    HW123327   1.949   0.186   2.813
 7476SOL    HW223328   2.007   0.290   2.926
 7477SOL     OW23329   0.942   4.050   4.767
 7477SOL    HW123330   0.855   4.053   4.717
 7477SOL    HW223331   1.014   4.092   4.712
 7478SOL     OW23332   0.472   0.795   6.049
 7478SOL    HW123333   0.530   0.863   6.005
 7478SOL    HW223334   0.486   0.706   6.006
 7479SOL     OW23335   5.812   2.932   6.764
 7479SOL    HW123336   5.896   2.962   6.720
 7479SOL    HW223337   5.814   2.957   6.861
 7480SOL     OW23338   3.595   5.025   2.359
 7480SOL    HW123339   3.600   4.985   2.451
 7480SOL    HW223340   3.527   4.976   2.305
 7481SOL     OW23341   0.409   3.605   6.744
 7481SOL    HW123342   0.411   3.650   6.655
 7481SOL    HW223343   0.469   3.525   6.742
 7482SOL     OW23344   4.613   2.274   2.594
 7482SOL    HW123345   4.610   2.224   2.680
 7482SOL    HW223346   4.603   2.372   2.612
 7483SOL     OW23347   4.912   2.162   5.491
 7483SOL    HW123348   4.977   2.088   5.508
 7483SOL    HW223349   4.844   2.132   5.425
 7484SOL     OW23350   3.194   6.721   3.967
 7484SOL    HW123351   3.126   6.787   3.936
 7484SOL    HW223352   3.159   6.628   3.953
 7485SOL     OW23353   3.543   6.997   5.116
 7485SOL    HW123354   3.478   6.939   5.164
 7485SOL    HW223355   3.633   6.989   5.159
 7486SOL     OW23356   2.407   6.652   1.407
 7486SOL    HW123357   2.475   6.583   1.433
 7486SOL    HW223358   2.334   6.654   1.476
 7487SOL     OW23359   4.279   6.690   4.695
 7487SOL    HW123360   4.207   6.668   4.761
 7487SOL    HW223361   4.350   6.619   4.698
 7488SOL     OW23362   0.784   5.711   4.184
 7488SOL    HW123363   0.707   5.696   4.122
 7488SOL    HW223364   0.840   5.629   4.187
 7489SOL     OW23365   5.597   3.167   6.962
 7489SOL    HW123366   5.635   3.214   6.883
 7489SOL    HW223367   5.671   3.123   7.014
 7490SOL     OW23368   1.042   2.643   2.230
 7490SOL    HW123369   0.956   2.602   2.261
 7490SOL    HW223370   1.054   2.625   2.133
 7491SOL     OW23371   4.358   3.245   0.185
 7491SOL    HW123372   4.450   3.283   0.194
 7491SOL    HW223373   4.350   3.162   0.240
 7492SOL     OW23374   1.740   0.013   4.180
 7492SOL    HW123375   1.782   0.084   4.236
 7492SOL    HW223376   1.776   6.944   4.208
 7493SOL     OW23377   6.798   4.859   5.311
 7493SOL    HW123378   6.777   4.858   5.408
 7493SOL    HW223379   6.787   4.951   5.275
 7494SOL     OW23380   6.667   1.172   2.396
 7494SOL    HW123381   6.625   1.195   2.484
 7494SOL    HW223382   6.598   1.174   2.325
 7495SOL     OW23383   1.455   3.700   5.252
 7495SOL    HW123384   1.509   3.672   5.172
 7495SOL    HW223385   1.408   3.620   5.290
 7496SOL     OW23386   5.673   4.296   2.514
 7496SOL    HW123387   5.628   4.207   2.512
 7496SOL    HW223388   5.746   4.298   2.447
 7497SOL     OW23389   0.240   6.410   0.772
 7497SOL    HW123390   0.228   6.313   0.753
 7497SOL    HW223391   0.183   6.465   0.711
 7498SOL     OW23392   2.772   6.938   2.823
 7498SOL    HW123393   2.872   6.939   2.818
 7498SOL    HW223394   2.736   6.895   2.740
 7499SOL     OW23395   3.395   2.115   3.975
 7499SOL    HW123396   3.327   2.101   3.903
 7499SOL    HW223397   3.424   2.026   4.010
 7500SOL     OW23398   3.321   0.084   3.230
 7500SOL    HW123399   3.388   0.012   3.245
 7500SOL    HW223400   3.355   0.148   3.162
 7501SOL     OW23401   6.142   2.177   5.159
 7501SOL    HW123402   6.049   2.141   5.157
 7501SOL    HW223403   6.206   2.103   5.181
 7502SOL     OW23404   4.327   0.710   4.404
 7502SOL    HW123405   4.416   0.676   4.437
 7502SOL    HW223406   4.276   0.635   4.362
 7503SOL     OW23407   1.931   5.837   1.546
 7503SOL    HW123408   1.992   5.775   1.496
 7503SOL    HW223409   1.966   5.931   1.537
 7504SOL     OW23410   6.415   6.576   4.524
 7504SOL    HW123411   6.331   6.592   4.577
 7504SOL    HW223412   6.432   6.478   4.518
 7505SOL     OW23413   0.223   6.226   4.986
 7505SOL    HW123414   0.197   6.170   5.065
 7505SOL    HW223415   0.248   6.167   4.910
 7506SOL     OW23416   3.517   1.617   3.726
 7506SOL    HW123417   3.477   1.574   3.645
 7506SOL    HW223418   3.453   1.608   3.803
 7507SOL     OW23419   6.348   4.124   5.416
 7507SOL    HW123420   6.379   4.205   5.465
 7507SOL    HW223421   6.417   4.096   5.349
 7508SOL     OW23422   2.706   5.581   0.214
 7508SOL    HW123423   2.738   5.655   0.154
 7508SOL    HW223424   2.780   5.515   0.227
 7509SOL     OW23425   6.436   4.898   1.694
 7509SOL    HW123426   6.406   4.993   1.693
 7509SOL    HW223427   6.394   4.848   1.618
 7510SOL     OW23428   3.780   3.637   3.506
 7510SOL    HW123429   3.733   3.566   3.453
 7510SOL    HW223430   3.807   3.599   3.595
 7511SOL     OW23431   4.229   6.523   4.002
 7511SOL    HW123432   4.272   6.611   4.022
 7511SOL    HW223433   4.292   6.467   3.948
 7512SOL     OW23434   3.908   0.313   6.731
 7512SOL    HW123435   3.925   0.256   6.651
 7512SOL    HW223436   3.995   0.336   6.775
 7513SOL     OW23437   1.325   2.239   2.488
 7513SOL    HW123438   1.416   2.270   2.460
 7513SOL    HW223439   1.255   2.294   2.442
 7514SOL     OW23440   1.294   5.028   1.426
 7514SOL    HW123441   1.343   5.098   1.375
 7514SOL    HW223442   1.359   4.962   1.465
 7515SOL     OW23443   0.204   5.391   4.933
 7515SOL    HW123444   0.111   5.379   4.896
 7515SOL    HW223445   0.235   5.304   4.971
 7516SOL     OW23446   1.209   6.378   5.293
 7516SOL    HW123447   1.238   6.305   5.354
 7516SOL    HW223448   1.111   6.394   5.304
 7517SOL     OW23449   0.774   1.229   6.205
 7517SOL    HW123450   0.850   1.267   6.257
 7517SOL    HW223451   0.802   1.143   6.163
 7518SOL     OW23452   4.861   2.510   3.235
 7518SOL    HW123453   4.896   2.450   3.306
 7518SOL    HW223454   4.762   2.499   3.226
 7519SOL     OW23455   3.494   6.160   3.913
 7519SOL    HW123456   3.584   6.186   3.879
 7519SOL    HW223457   3.436   6.241   3.920
 7520SOL     OW23458   1.856   1.465   0.399
 7520SOL    HW123459   1.955   1.475   0.385
 7520SOL    HW223460   1.816   1.555   0.420
 7521SOL     OW23461   3.342   1.483   5.416
 7521SOL    HW123462   3.331   1.409   5.482
 7521SOL    HW223463   3.325   1.571   5.462
 7522SOL     OW23464   2.204   6.724   3.227
 7522SOL    HW123465   2.228   6.672   3.145
 7522SOL    HW223466   2.137   6.794   3.204
 7523SOL     OW23467   5.522   1.683   0.803
 7523SOL    HW123468   5.441   1.662   0.749
 7523SOL    HW223469   5.601   1.634   0.767
 7524SOL     OW23470   0.411   2.926   4.375
 7524SOL    HW123471   0.442   3.008   4.327
 7524SOL    HW223472   0.324   2.946   4.421
 7525SOL     OW23473   4.151   5.369   6.575
 7525SOL    HW123474   4.116   5.431   6.504
 7525SOL    HW223475   4.166   5.420   6.660
 7526SOL     OW23476   2.437   3.437   1.637
 7526SOL    HW123477   2.443   3.510   1.569
 7526SOL    HW223478   2.385   3.470   1.716
 7527SOL     OW23479   3.987   4.805   3.392
 7527SOL    HW123480   3.997   4.714   3.433
 7527SOL    HW223481   4.076   4.850   3.390
 7528SOL     OW23482   5.785   3.251   6.491
 7528SOL    HW123483   5.872   3.294   6.463
 7528SOL    HW223484   5.712   3.283   6.431
 7529SOL     OW23485   6.144   2.838   4.208
 7529SOL    HW123486   6.132   2.847   4.307
 7529SOL    HW223487   6.055   2.828   4.164
 7530SOL     OW23488   0.274   2.188   1.710
 7530SOL    HW123489   0.185   2.154   1.680
 7530SOL    HW223490   0.345   2.157   1.647
 7531SOL     OW23491   4.228   2.230   3.499
 7531SOL    HW123492   4.133   2.249   3.525
 7531SOL    HW223493   4.237   2.238   3.400
 7532SOL     OW23494   4.266   5.126   6.522
 7532SOL    HW123495   4.212   5.050   6.559
 7532SOL    HW223496   4.220   5.212   6.541
 7533SOL     OW23497   4.253   4.465   1.498
 7533SOL    HW123498   4.172   4.411   1.475
 7533SOL    HW223499   4.253   4.484   1.596
 7534SOL     OW23500   4.130   0.234   4.466
 7534SOL    HW123501   4.193   0.158   4.450
 7534SOL    HW223502   4.037   0.199   4.475
 7535SOL     OW23503   0.584   6.101   3.836
 7535SOL    HW123504   0.610   6.153   3.755
 7535SOL    HW223505   0.660   6.041   3.863
 7536SOL     OW23506   4.918   6.365   4.787
 7536SOL    HW123507   4.853   6.370   4.711
 7536SOL    HW223508   4.985   6.293   4.769
 7537SOL     OW23509   2.484   6.407   3.183
 7537SOL    HW123510   2.465   6.476   3.253
 7537SOL    HW223511   2.514   6.453   3.099
 7538SOL     OW23512   0.603   3.896   0.449
 7538SOL    HW123513   0.582   3.988   0.483
 7538SOL    HW223514   0.591   3.829   0.523
 7539SOL     OW23515   7.011   6.950   3.637
 7539SOL    HW123516   6.968   0.020   3.635
 7539SOL    HW223517   0.012   6.922   3.544
 7540SOL     OW23518   6.197   5.481   2.560
 7540SOL    HW123519   6.116   5.509   2.612
 7540SOL    HW223520   6.273   5.464   2.623
 7541SOL     OW23521   1.494   4.441   6.729
 7541SOL    HW123522   1.519   4.401   6.641
 7541SOL    HW223523   1.507   4.540   6.725
 7542SOL     OW23524   6.368   6.042   5.021
 7542SOL    HW123525   6.467   6.033   5.021
 7542SOL    HW223526   6.331   6.010   5.108
 7543SOL     OW23527   2.345   0.932   6.631
 7543SOL    HW123528   2.259   0.948   6.581
 7543SOL    HW223529   2.360   1.006   6.696
 7544SOL     OW23530   6.971   2.276   4.168
 7544SOL    HW123531   6.877   2.296   4.192
 7544SOL    HW223532   7.011   2.355   4.121
 7545SOL     OW23533   0.793   5.019   6.375
 7545SOL    HW123534   0.729   5.087   6.338
 7545SOL    HW223535   0.810   4.948   6.306
 7546SOL     OW23536   2.547   2.886   1.711
 7546SOL    HW123537   2.615   2.813   1.711
 7546SOL    HW223538   2.593   2.974   1.698
 7547SOL     OW23539   4.482   0.061   1.243
 7547SOL    HW123540   4.562   0.003   1.255
 7547SOL    HW223541   4.469   0.080   1.146
 7548SOL     OW23542   3.505   2.387   6.252
 7548SOL    HW123543   3.583   2.416   6.307
 7548SOL    HW223544   3.464   2.467   6.208
 7549SOL     OW23545   5.585   2.081   4.385
 7549SOL    HW123546   5.529   2.163   4.369
 7549SOL    HW223547   5.534   2.000   4.355
 7550SOL     OW23548   2.422   4.535   4.438
 7550SOL    HW123549   2.420   4.628   4.474
 7550SOL    HW223550   2.515   4.498   4.446
 7551SOL     OW23551   6.172   2.998   6.147
 7551SOL    HW123552   6.074   2.986   6.130
 7551SOL    HW223553   6.213   2.908   6.164
 7552SOL     OW23554   2.658   6.411   5.237
 7552SOL    HW123555   2.738   6.359   5.206
 7552SOL    HW223556   2.683   6.464   5.318
 7553SOL     OW23557   5.502   6.369   5.683
 7553SOL    HW123558   5.503   6.271   5.665
 7553SOL    HW223559   5.476   6.385   5.779
 7554SOL     OW23560   4.782   0.986   0.887
 7554SOL    HW123561   4.760   1.082   0.906
 7554SOL    HW223562   4.729   0.928   0.948
 7555SOL     OW23563   3.914   4.960   4.839
 7555SOL    HW123564   3.826   4.914   4.824
 7555SOL    HW223565   3.902   5.032   4.907
 7556SOL     OW23566   0.542   6.621   1.159
 7556SOL    HW123567   0.625   6.574   1.128
 7556SOL    HW223568   0.463   6.584   1.111
 7557SOL     OW23569   4.615   0.417   0.593
 7557SOL    HW123570   4.661   0.358   0.659
 7557SOL    HW223571   4.559   0.361   0.532
 7558SOL     OW23572   0.997   1.662   4.350
 7558SOL    HW123573   1.092   1.668   4.320
 7558SOL    HW223574   0.959   1.754   4.359
 7559SOL     OW23575   3.145   1.477   4.897
 7559SOL    HW123576   3.056   1.516   4.918
 7559SOL    HW223577   3.217   1.529   4.943
 7560SOL     OW23578   0.592   1.254   5.800
 7560SOL    HW123579   0.645   1.300   5.728
 7560SOL    HW223580   0.526   1.318   5.839
 7561SOL     OW23581   5.915   2.011   5.265
 7561SOL    HW123582   5.981   1.947   5.305
 7561SOL    HW223583   5.864   2.057   5.338
 7562SOL     OW23584   1.881   5.592   3.687
 7562SOL    HW123585   1.906   5.557   3.777
 7562SOL    HW223586   1.964   5.601   3.631
 7563SOL     OW23587   3.466   5.553   2.482
 7563SOL    HW123588   3.469   5.466   2.433
 7563SOL    HW223589   3.557   5.574   2.518
 7564SOL     OW23590   3.796   1.911   5.517
 7564SOL    HW123591   3.700   1.905   5.488
 7564SOL    HW223592   3.810   1.997   5.566
 7565SOL     OW23593   6.551   3.791   6.235
 7565SOL    HW123594   6.524   3.740   6.154
 7565SOL    HW223595   6.582   3.882   6.208
 7566SOL     OW23596   4.454   4.692   1.458
 7566SOL    HW123597   4.383   4.635   1.498
 7566SOL    HW223598   4.431   4.789   1.471
 7567SOL     OW23599   1.603   0.388   4.409
 7567SOL    HW123600   1.690   0.435   4.428
 7567SOL    HW223601   1.574   0.410   4.315
 7568SOL     OW23602   6.126   5.700   2.027
 7568SOL    HW123603   6.059   5.774   2.021
 7568SOL    HW223604   6.129   5.665   2.121
 7569SOL     OW23605   4.530   4.362   0.407
 7569SOL    HW123606   4.612   4.393   0.456
 7569SOL    HW223607   4.460   4.335   0.472
 7570SOL     OW23608   0.170   2.444   2.693
 7570SOL    HW123609   0.163   2.362   2.638
 7570SOL    HW223610   0.252   2.439   2.751
 7571SOL     OW23611   4.791   2.331   2.919
 7571SOL    HW123612   4.808   2.309   3.015
 7571SOL    HW223613   4.734   2.259   2.878
 7572SOL     OW23614   4.385   6.998   3.070
 7572SOL    HW123615   4.329   0.000   2.990
 7572SOL    HW223616   4.330   7.006   3.152
 7573SOL     OW23617   5.109   6.859   6.139
 7573SOL    HW123618   5.071   6.928   6.201
 7573SOL    HW223619   5.200   6.888   6.109
 7574SOL     OW23620   1.087   2.379   3.713
 7574SOL    HW123621   1.052   2.286   3.703
 7574SOL    HW223622   1.178   2.376   3.754
 7575SOL     OW23623   0.317   6.530   1.581
 7575SOL    HW123624   0.381   6.559   1.511
 7575SOL    HW223625   0.229   6.509   1.539
 7576SOL     OW23626   5.200   2.986   0.453
 7576SOL    HW123627   5.283   2.994   0.397
 7576SOL    HW223628   5.144   2.911   0.419
 7577SOL     OW23629   1.140   6.836   0.948
 7577SOL    HW123630   1.212   6.906   0.942
 7577SOL    HW223631   1.097   6.840   1.038
 7578SOL     OW23632   6.341   5.805   3.456
 7578SOL    HW123633   6.339   5.866   3.535
 7578SOL    HW223634   6.369   5.857   3.375
 7579SOL     OW23635   0.334   0.900   0.124
 7579SOL    HW123636   0.335   0.997   0.147
 7579SOL    HW223637   0.426   0.871   0.097
 7580SOL     OW23638   2.310   4.840   3.423
 7580SOL    HW123639   2.323   4.939   3.421
 7580SOL    HW223640   2.384   4.796   3.373
 7581SOL     OW23641   6.696   0.899   2.634
 7581SOL    HW123642   6.783   0.944   2.654
 7581SOL    HW223643   6.621   0.966   2.644
 7582SOL     OW23644   2.576   1.158   5.916
 7582SOL    HW123645   2.519   1.197   5.844
 7582SOL    HW223646   2.634   1.086   5.877
 7583SOL     OW23647   5.258   2.881   2.375
 7583SOL    HW123648   5.330   2.944   2.348
 7583SOL    HW223649   5.296   2.809   2.434
 7584SOL     OW23650   0.239   0.840   3.624
 7584SOL    HW123651   0.209   0.878   3.711
 7584SOL    HW223652   0.291   0.756   3.640
 7585SOL     OW23653   1.477   1.313   6.732
 7585SOL    HW123654   1.545   1.380   6.702
 7585SOL    HW223655   1.508   1.272   6.818
 7586SOL     OW23656   1.154   1.109   2.161
 7586SOL    HW123657   1.077   1.088   2.221
 7586SOL    HW223658   1.152   1.206   2.137
 7587SOL     OW23659   3.874   0.350   0.841
 7587SOL    HW123660   3.973   0.345   0.852
 7587SOL    HW223661   3.830   0.323   0.927
 7588SOL     OW23662   2.061   2.562   4.478
 7588SOL    HW123663   2.005   2.644   4.487
 7588SOL    HW223664   2.144   2.571   4.533
 7589SOL     OW23665   0.683   0.678   2.964
 7589SOL    HW123666   0.609   0.617   2.936
 7589SOL    HW223667   0.684   0.684   3.064
 7590SOL     OW23668   6.840   0.939   6.721
 7590SOL    HW123669   6.905   0.884   6.773
 7590SOL    HW223670   6.807   0.887   6.642
 7591SOL     OW23671   3.721   3.047   4.702
 7591SOL    HW123672   3.792   2.994   4.656
 7591SOL    HW223673   3.756   3.083   4.788
 7592SOL     OW23674   0.280   6.888   5.212
 7592SOL    HW123675   0.367   6.867   5.258
 7592SOL    HW223676   0.215   6.923   5.279
 7593SOL     OW23677   1.034   1.315   6.285
 7593SOL    HW123678   1.074   1.235   6.331
 7593SOL    HW223679   1.063   1.315   6.190
 7594SOL     OW23680   0.041   4.635   0.082
 7594SOL    HW123681   0.118   4.656   0.021
 7594SOL    HW223682   0.025   4.537   0.083
 7595SOL     OW23683   0.839   2.711   6.332
 7595SOL    HW123684   0.865   2.626   6.378
 7595SOL    HW223685   0.840   2.786   6.398
 7596SOL     OW23686   3.362   0.710   5.325
 7596SOL    HW123687   3.404   0.629   5.365
 7596SOL    HW223688   3.347   0.695   5.227
 7597SOL     OW23689   2.111   4.261   2.089
 7597SOL    HW123690   2.192   4.320   2.083
 7597SOL    HW223691   2.141   4.165   2.090
 7598SOL     OW23692   6.481   1.019   3.199
 7598SOL    HW123693   6.450   0.984   3.288
 7598SOL    HW223694   6.574   1.054   3.208
 7599SOL     OW23695   3.709   3.493   0.211
 7599SOL    HW123696   3.710   3.578   0.263
 7599SOL    HW223697   3.710   3.513   0.113
 7600SOL     OW23698   1.457   6.449   4.349
 7600SOL    HW123699   1.508   6.453   4.263
 7600SOL    HW223700   1.480   6.365   4.399
 7601SOL     OW23701   3.412   6.516   2.070
 7601SOL    HW123702   3.348   6.444   2.099
 7601SOL    HW223703   3.492   6.474   2.028
 7602SOL     OW23704   7.020   1.811   0.947
 7602SOL    HW123705   0.002   1.763   0.859
 7602SOL    HW223706   0.046   1.756   1.016
 7603SOL     OW23707   3.680   0.067   5.907
 7603SOL    HW123708   3.673   0.030   5.814
 7603SOL    HW223709   3.762   0.030   5.951
 7604SOL     OW23710   0.509   2.237   4.948
 7604SOL    HW123711   0.492   2.139   4.954
 7604SOL    HW223712   0.431   2.286   4.987
 7605SOL     OW23713   2.120   6.807   0.755
 7605SOL    HW123714   2.142   6.779   0.848
 7605SOL    HW223715   2.093   6.903   0.754
 7606SOL     OW23716   6.689   1.481   3.045
 7606SOL    HW123717   6.635   1.562   3.026
 7606SOL    HW223718   6.714   1.480   3.142
 7607SOL     OW23719   2.568   6.104   5.903
 7607SOL    HW123720   2.651   6.086   5.957
 7607SOL    HW223721   2.588   6.172   5.832
 7608SOL     OW23722   5.620   2.498   6.065
 7608SOL    HW123723   5.613   2.399   6.080
 7608SOL    HW223724   5.669   2.515   5.980
 7609SOL     OW23725   1.002   1.546   4.820
 7609SOL    HW123726   1.096   1.580   4.810
 7609SOL    HW223727   0.946   1.581   4.745
 7610SOL     OW23728   4.166   4.882   4.789
 7610SOL    HW123729   4.070   4.908   4.798
 7610SOL    HW223730   4.198   4.904   4.697
 7611SOL     OW23731   5.030   3.606   6.969
 7611SOL    HW123732   5.128   3.611   6.987
 7611SOL    HW223733   4.982   3.578   0.031
 7612SOL     OW23734   3.626   1.609   2.979
 7612SOL    HW123735   3.670   1.524   3.008
 7612SOL    HW223736   3.604   1.603   2.882
 7613SOL     OW23737   0.636   1.553   1.320
 7613SOL    HW123738   0.698   1.572   1.397
 7613SOL    HW223739   0.622   1.455   1.311
 7614SOL     OW23740   4.883   3.830   0.134
 7614SOL    HW123741   4.817   3.881   0.079
 7614SOL    HW223742   4.878   3.733   0.110
 7615SOL     OW23743   5.642   3.297   5.042
 7615SOL    HW123744   5.695   3.288   5.127
 7615SOL    HW223745   5.702   3.330   4.969
 7616SOL     OW23746   6.133   0.233   3.270
 7616SOL    HW123747   6.153   0.146   3.225
 7616SOL    HW223748   6.033   0.243   3.277
 7617SOL     OW23749   5.850   4.587   3.929
 7617SOL    HW123750   5.758   4.589   3.890
 7617SOL    HW223751   5.907   4.657   3.884
 7618SOL     OW23752   2.771   2.564   0.400
 7618SOL    HW123753   2.771   2.583   0.302
 7618SOL    HW223754   2.813   2.475   0.417
 7619SOL     OW23755   0.945   1.753   4.607
 7619SOL    HW123756   0.984   1.688   4.542
 7619SOL    HW223757   0.905   1.830   4.557
 7620SOL     OW23758   3.736   4.460   1.292
 7620SOL    HW123759   3.754   4.361   1.299
 7620SOL    HW223760   3.770   4.506   1.374
 7621SOL     OW23761   6.395   4.673   0.052
 7621SOL    HW123762   6.405   4.630   0.141
 7621SOL    HW223763   6.345   4.611   7.011
 7622SOL     OW23764   3.356   3.600   1.410
 7622SOL    HW123765   3.451   3.630   1.403
 7622SOL    HW223766   3.298   3.659   1.353
 7623SOL     OW23767   4.772   4.510   1.164
 7623SOL    HW123768   4.751   4.532   1.259
 7623SOL    HW223769   4.754   4.413   1.147
 7624SOL     OW23770   0.785   3.189   2.686
 7624SOL    HW123771   0.841   3.108   2.673
 7624SOL    HW223772   0.836   3.258   2.737
 7625SOL     OW23773   5.314   0.895   1.207
 7625SOL    HW123774   5.397   0.928   1.161
 7625SOL    HW223775   5.241   0.963   1.197
 7626SOL     OW23776   4.461   0.774   5.931
 7626SOL    HW123777   4.424   0.863   5.954
 7626SOL    HW223778   4.461   0.763   5.832
 7627SOL     OW23779   4.564   2.099   6.868
 7627SOL    HW123780   4.477   2.070   6.829
 7627SOL    HW223781   4.577   2.197   6.850
 7628SOL     OW23782   3.396   2.739   0.381
 7628SOL    HW123783   3.438   2.700   0.300
 7628SOL    HW223784   3.320   2.681   0.411
 7629SOL     OW23785   6.264   2.639   3.404
 7629SOL    HW123786   6.291   2.690   3.486
 7629SOL    HW223787   6.346   2.613   3.353
 7630SOL     OW23788   1.086   6.415   4.878
 7630SOL    HW123789   1.151   6.369   4.938
 7630SOL    HW223790   1.136   6.457   4.802
 7631SOL     OW23791   1.169   0.557   5.901
 7631SOL    HW123792   1.138   0.510   5.984
 7631SOL    HW223793   1.139   0.507   5.820
 7632SOL     OW23794   4.484   5.609   0.552
 7632SOL    HW123795   4.472   5.610   0.652
 7632SOL    HW223796   4.394   5.607   0.509
 7633SOL     OW23797   6.421   1.009   1.148
 7633SOL    HW123798   6.455   1.080   1.209
 7633SOL    HW223799   6.433   0.919   1.191
 7634SOL     OW23800   0.111   2.593   0.241
 7634SOL    HW123801   0.045   2.536   0.290
 7634SOL    HW223802   0.109   2.569   0.144
 7635SOL     OW23803   2.501   3.751   5.561
 7635SOL    HW123804   2.570   3.761   5.634
 7635SOL    HW223805   2.410   3.764   5.600
 7636SOL     OW23806   6.820   4.109   4.370
 7636SOL    HW123807   6.868   4.043   4.313
 7636SOL    HW223808   6.865   4.198   4.364
 7637SOL     OW23809   1.127   6.216   4.576
 7637SOL    HW123810   1.172   6.292   4.623
 7637SOL    HW223811   1.036   6.244   4.545
 7638SOL     OW23812   0.187   6.264   1.331
 7638SOL    HW123813   0.282   6.251   1.360
 7638SOL    HW223814   0.152   6.350   1.366
 7639SOL     OW23815   1.625   0.884   6.613
 7639SOL    HW123816   1.714   0.839   6.616
 7639SOL    HW223817   1.595   0.906   6.706
 7640SOL     OW23818   3.408   1.208   0.868
 7640SOL    HW123819   3.322   1.207   0.817
 7640SOL    HW223820   3.481   1.168   0.811
 7641SOL     OW23821   0.707   4.126   3.511
 7641SOL    HW123822   0.759   4.173   3.583
 7641SOL    HW223823   0.671   4.194   3.447
 7642SOL     OW23824   5.841   1.343   3.439
 7642SOL    HW123825   5.894   1.428   3.449
 7642SOL    HW223826   5.818   1.330   3.343
 7643SOL     OW23827   5.176   3.621   3.471
 7643SOL    HW123828   5.198   3.523   3.475
 7643SOL    HW223829   5.261   3.674   3.475
 7644SOL     OW23830   5.479   3.908   1.141
 7644SOL    HW123831   5.472   3.871   1.048
 7644SOL    HW223832   5.486   3.833   1.206
 7645SOL     OW23833   3.492   4.546   5.855
 7645SOL    HW123834   3.576   4.493   5.851
 7645SOL    HW223835   3.500   4.615   5.928
 7646SOL     OW23836   6.343   2.022   0.860
 7646SOL    HW123837   6.303   2.102   0.903
 7646SOL    HW223838   6.375   1.959   0.931
 7647SOL     OW23839   6.694   2.495   5.032
 7647SOL    HW123840   6.635   2.414   5.031
 7647SOL    HW223841   6.736   2.507   4.943
 7648SOL     OW23842   3.033   1.727   1.973
 7648SOL    HW123843   3.010   1.671   2.052
 7648SOL    HW223844   3.074   1.813   2.003
 7649SOL     OW23845   4.162   1.390   6.062
 7649SOL    HW123846   4.260   1.384   6.042
 7649SOL    HW223847   4.139   1.325   6.134
 7650SOL     OW23848   3.749   2.712   0.551
 7650SOL    HW123849   3.701   2.755   0.627
 7650SOL    HW223850   3.766   2.780   0.480
 7651SOL     OW23851   3.221   4.721   6.086
 7651SOL    HW123852   3.165   4.801   6.107
 7651SOL    HW223853   3.310   4.751   6.050
 7652SOL     OW23854   0.869   0.908   4.141
 7652SOL    HW123855   0.825   0.953   4.064
 7652SOL    HW223856   0.810   0.835   4.175
 7653SOL     OW23857   1.402   1.467   6.220
 7653SOL    HW123858   1.472   1.493   6.287
 7653SOL    HW223859   1.328   1.533   6.221
 7654SOL     OW23860   5.407   2.125   6.267
 7654SOL    HW123861   5.335   2.189   6.293
 7654SOL    HW223862   5.496   2.172   6.266
 7655SOL     OW23863   3.277   1.481   3.297
 7655SOL    HW123864   3.305   1.414   3.229
 7655SOL    HW223865   3.187   1.518   3.272
 7656SOL     OW23866   6.587   3.254   6.583
 7656SOL    HW123867   6.645   3.194   6.527
 7656SOL    HW223868   6.546   3.324   6.524
 7657SOL     OW23869   0.778   4.066   4.319
 7657SOL    HW123870   0.839   4.144   4.338
 7657SOL    HW223871   0.833   3.983   4.312
 7658SOL     OW23872   2.398   1.158   0.826
 7658SOL    HW123873   2.493   1.186   0.812
 7658SOL    HW223874   2.396   1.075   0.881
 7659SOL     OW23875   5.072   3.975   5.879
 7659SOL    HW123876   5.096   4.030   5.799
 7659SOL    HW223877   5.019   3.896   5.850
 7660SOL     OW23878   6.659   5.430   4.838
 7660SOL    HW123879   6.643   5.342   4.794
 7660SOL    HW223880   6.758   5.445   4.846
 7661SOL     OW23881   4.502   1.707   5.575
 7661SOL    HW123882   4.425   1.751   5.622
 7661SOL    HW223883   4.536   1.766   5.503
 7662SOL     OW23884   6.208   0.079   1.262
 7662SOL    HW123885   6.109   0.062   1.266
 7662SOL    HW223886   6.236   0.133   1.341
 7663SOL     OW23887   0.584   5.723   5.763
 7663SOL    HW123888   0.505   5.782   5.781
 7663SOL    HW223889   0.666   5.764   5.803
 7664SOL     OW23890   3.968   2.189   1.928
 7664SOL    HW123891   3.890   2.248   1.906
 7664SOL    HW223892   4.003   2.213   2.019
 7665SOL     OW23893   4.100   0.334   5.954
 7665SOL    HW123894   4.088   0.332   5.855
 7665SOL    HW223895   4.011   0.322   5.998
 7666SOL     OW23896   5.229   4.669   3.523
 7666SOL    HW123897   5.191   4.697   3.611
 7666SOL    HW223898   5.164   4.690   3.450
 7667SOL     OW23899   3.986   5.875   1.764
 7667SOL    HW123900   3.915   5.881   1.695
 7667SOL    HW223901   4.018   5.780   1.771
 7668SOL     OW23902   2.245   5.985   0.751
 7668SOL    HW123903   2.211   6.076   0.775
 7668SOL    HW223904   2.312   5.955   0.819
 7669SOL     OW23905   2.114   1.172   5.791
 7669SOL    HW123906   2.036   1.133   5.840
 7669SOL    HW223907   2.173   1.221   5.854
 7670SOL     OW23908   0.778   6.729   0.706
 7670SOL    HW123909   0.752   6.742   0.610
 7670SOL    HW223910   0.868   6.770   0.721
 7671SOL     OW23911   3.334   0.281   1.121
 7671SOL    HW123912   3.284   0.277   1.035
 7671SOL    HW223913   3.416   0.337   1.110
 7672SOL     OW23914   4.662   5.039   2.806
 7672SOL    HW123915   4.755   5.002   2.805
 7672SOL    HW223916   4.604   4.983   2.865
 7673SOL     OW23917   1.481   6.045   4.040
 7673SOL    HW123918   1.535   6.129   4.039
 7673SOL    HW223919   1.508   5.990   4.119
 7674SOL     OW23920   4.741   6.210   4.343
 7674SOL    HW123921   4.839   6.191   4.333
 7674SOL    HW223922   4.689   6.137   4.298
 7675SOL     OW23923   5.056   6.442   3.436
 7675SOL    HW123924   5.093   6.476   3.522
 7675SOL    HW223925   5.126   6.389   3.388
 7676SOL     OW23926   3.544   2.923   5.852
 7676SOL    HW123927   3.474   2.870   5.900
 7676SOL    HW223928   3.500   2.998   5.801
 7677SOL     OW23929   6.230   4.849   0.503
 7677SOL    HW123930   6.310   4.870   0.559
 7677SOL    HW223931   6.200   4.756   0.521
 7678SOL     OW23932   1.591   1.099   4.915
 7678SOL    HW123933   1.542   1.175   4.871
 7678SOL    HW223934   1.574   1.015   4.863
 7679SOL     OW23935   3.398   5.520   5.391
 7679SOL    HW123936   3.385   5.423   5.368
 7679SOL    HW223937   3.371   5.577   5.314
 7680SOL     OW23938   2.199   0.145   4.845
 7680SOL    HW123939   2.111   0.158   4.890
 7680SOL    HW223940   2.262   0.098   4.908
 7681SOL     OW23941   2.787   3.680   6.409
 7681SOL    HW123942   2.794   3.582   6.394
 7681SOL    HW223943   2.730   3.697   6.490
 7682SOL     OW23944   2.883   1.565   2.791
 7682SOL    HW123945   2.895   1.625   2.711
 7682SOL    HW223946   2.972   1.531   2.821
 7683SOL     OW23947   0.564   5.543   4.354
 7683SOL    HW123948   0.526   5.516   4.266
 7683SOL    HW223949   0.575   5.643   4.356
 7684SOL     OW23950   4.567   3.161   1.177
 7684SOL    HW123951   4.526   3.071   1.193
 7684SOL    HW223952   4.496   3.231   1.174
 7685SOL     OW23953   2.473   0.507   0.264
 7685SOL    HW123954   2.501   0.528   0.170
 7685SOL    HW223955   2.450   0.410   0.270
 7686SOL     OW23956   6.287   7.016   4.893
 7686SOL    HW123957   6.298   6.918   4.877
 7686SOL    HW223958   6.234   0.010   4.977
 7687SOL     OW23959   5.992   4.567   6.087
 7687SOL    HW123960   5.974   4.620   6.170
 7687SOL    HW223961   5.924   4.590   6.018
 7688SOL     OW23962   0.559   4.205   6.174
 7688SOL    HW123963   0.559   4.122   6.229
 7688SOL    HW223964   0.469   4.219   6.135
 7689SOL     OW23965   4.546   0.666   1.235
 7689SOL    HW123966   4.470   0.704   1.182
 7689SOL    HW223967   4.518   0.657   1.331
 7690SOL     OW23968   5.685   5.739   1.403
 7690SOL    HW123969   5.601   5.777   1.365
 7690SOL    HW223970   5.669   5.709   1.496
 7691SOL     OW23971   4.894   4.021   3.302
 7691SOL    HW123972   4.936   3.964   3.232
 7691SOL    HW223973   4.963   4.045   3.371
 7692SOL     OW23974   2.584   0.134   2.849
 7692SOL    HW123975   2.667   0.080   2.862
 7692SOL    HW223976   2.549   0.121   2.756
 7693SOL     OW23977   2.276   0.969   1.270
 7693SOL    HW123978   2.362   0.997   1.311
 7693SOL    HW223979   2.207   1.040   1.284
 7694SOL     OW23980   5.050   1.621   5.385
 7694SOL    HW123981   5.135   1.605   5.437
 7694SOL    HW223982   4.982   1.553   5.412
 7695SOL     OW23983   4.674   0.132   3.828
 7695SOL    HW123984   4.576   0.143   3.808
 7695SOL    HW223985   4.692   0.158   3.923
 7696SOL     OW23986   1.590   2.883   5.491
 7696SOL    HW123987   1.540   2.966   5.518
 7696SOL    HW223988   1.573   2.811   5.558
 7697SOL     OW23989   4.983   0.015   3.109
 7697SOL    HW123990   5.078   0.031   3.136
 7697SOL    HW223991   4.974   0.023   3.010
 7698SOL     OW23992   6.246   2.965   0.954
 7698SOL    HW123993   6.267   2.900   0.881
 7698SOL    HW223994   6.327   2.980   1.010
 7699SOL     OW23995   4.840   5.844   6.095
 7699SOL    HW123996   4.879   5.836   6.187
 7699SOL    HW223997   4.742   5.825   6.098
 7700SOL     OW23998   5.035   6.550   2.426
 7700SOL    HW123999   5.087   6.486   2.371
 7700SOL    HW224000   5.086   6.636   2.435
 7701SOL     OW24001   1.253   2.295   6.493
 7701SOL    HW124002   1.227   2.390   6.478
 7701SOL    HW224003   1.345   2.290   6.530
 7702SOL     OW24004   4.316   0.042   4.382
 7702SOL    HW124005   4.291   7.004   4.305
 7702SOL    HW224006   4.401   0.091   4.361
 7703SOL     OW24007   6.357   0.017   5.199
 7703SOL    HW124008   6.280   0.079   5.209
 7703SOL    HW224009   6.442   0.066   5.215
 7704SOL     OW24010   0.278   1.622   4.981
 7704SOL    HW124011   0.272   1.525   5.005
 7704SOL    HW224012   0.362   1.661   5.018
 7705SOL     OW24013   0.948   5.262   6.421
 7705SOL    HW124014   0.894   5.178   6.416
 7705SOL    HW224015   0.914   5.320   6.494
 7706SOL     OW24016   3.163   2.889   2.071
 7706SOL    HW124017   3.214   2.974   2.061
 7706SOL    HW224018   3.116   2.868   1.985
 7707SOL     OW24019   6.941   4.102   6.479
 7707SOL    HW124020   6.897   4.122   6.392
 7707SOL    HW224021   6.909   4.013   6.513
 7708SOL     OW24022   2.297   0.231   4.406
 7708SOL    HW124023   2.290   0.326   4.435
 7708SOL    HW224024   2.391   0.212   4.376
 7709SOL     OW24025   0.033   4.568   1.723
 7709SOL    HW124026   7.002   4.487   1.696
 7709SOL    HW224027   0.111   4.580   1.662
 7710SOL     OW24028   0.082   3.002   1.190
 7710SOL    HW124029   0.085   2.904   1.170
 7710SOL    HW224030   7.008   3.030   1.206
 7711SOL     OW24031   6.931   4.734   4.644
 7711SOL    HW124032   6.893   4.778   4.725
 7711SOL    HW224033   7.014   4.782   4.616
 7712SOL     OW24034   0.425   5.048   5.468
 7712SOL    HW124035   0.524   5.050   5.455
 7712SOL    HW224036   0.383   5.120   5.413
 7713SOL     OW24037   1.415   4.388   6.998
 7713SOL    HW124038   1.432   4.465   0.038
 7713SOL    HW224039   1.419   4.420   6.903
 7714SOL     OW24040   6.393   1.437   4.920
 7714SOL    HW124041   6.296   1.415   4.930
 7714SOL    HW224042   6.425   1.407   4.830
 7715SOL     OW24043   3.748   3.234   5.362
 7715SOL    HW124044   3.743   3.255   5.460
 7715SOL    HW224045   3.709   3.143   5.346
 7716SOL     OW24046   1.260   6.315   6.381
 7716SOL    HW124047   1.209   6.401   6.377
 7716SOL    HW224048   1.242   6.269   6.468
 7717SOL     OW24049   0.112   2.188   6.260
 7717SOL    HW124050   0.097   2.093   6.286
 7717SOL    HW224051   0.122   2.194   6.161
 7718SOL     OW24052   0.986   3.589   3.084
 7718SOL    HW124053   0.974   3.593   3.183
 7718SOL    HW224054   1.077   3.554   3.062
 7719SOL     OW24055   2.005   4.920   4.635
 7719SOL    HW124056   2.051   5.004   4.604
 7719SOL    HW224057   2.056   4.880   4.711
 7720SOL     OW24058   4.512   1.028   6.883
 7720SOL    HW124059   4.540   1.065   6.972
 7720SOL    HW224060   4.474   1.101   6.826
 7721SOL     OW24061   0.150   0.558   2.573
 7721SOL    HW124062   0.078   0.620   2.542
 7721SOL    HW224063   0.125   0.464   2.552
 7722SOL     OW24064   0.763   5.896   3.861
 7722SOL    HW124065   0.724   5.805   3.877
 7722SOL    HW224066   0.863   5.890   3.857
 7723SOL     OW24067   4.629   4.177   6.797
 7723SOL    HW124068   4.595   4.269   6.816
 7723SOL    HW224069   4.552   4.113   6.791
 7724SOL     OW24070   1.992   3.393   1.530
 7724SOL    HW124071   1.902   3.433   1.545
 7724SOL    HW224072   2.018   3.338   1.610
 7725SOL     OW24073   5.454   3.126   3.226
 7725SOL    HW124074   5.477   3.041   3.273
 7725SOL    HW224075   5.523   3.195   3.247
 7726SOL     OW24076   0.890   3.551   5.454
 7726SOL    HW124077   0.946   3.516   5.529
 7726SOL    HW224078   0.945   3.610   5.395
 7727SOL     OW24079   4.136   1.027   2.291
 7727SOL    HW124080   4.235   1.010   2.299
 7727SOL    HW224081   4.104   0.996   2.201
 7728SOL     OW24082   1.918   3.811   5.062
 7728SOL    HW124083   2.009   3.789   5.028
 7728SOL    HW224084   1.909   3.779   5.157
 7729SOL     OW24085   6.921   1.602   3.627
 7729SOL    HW124086   6.972   1.665   3.685
 7729SOL    HW224087   6.984   1.542   3.578
 7730SOL     OW24088   6.340   4.430   5.024
 7730SOL    HW124089   6.256   4.427   5.078
 7730SOL    HW224090   6.374   4.523   5.020
 7731SOL     OW24091   6.982   6.686   6.516
 7731SOL    HW124092   6.938   6.622   6.453
 7731SOL    HW224093   7.018   6.636   6.595
 7732SOL     OW24094   3.696   6.678   6.572
 7732SOL    HW124095   3.626   6.746   6.594
 7732SOL    HW224096   3.786   6.721   6.575
 7733SOL     OW24097   6.211   5.776   1.788
 7733SOL    HW124098   6.165   5.727   1.863
 7733SOL    HW224099   6.249   5.862   1.822
 7734SOL     OW24100   3.473   3.486   4.981
 7734SOL    HW124101   3.490   3.415   4.912
 7734SOL    HW224102   3.456   3.442   5.069
 7735SOL     OW24103   6.919   6.159   0.658
 7735SOL    HW124104   7.013   6.182   0.684
 7735SOL    HW224105   6.868   6.132   0.740
 7736SOL     OW24106   1.703   2.789   6.881
 7736SOL    HW124107   1.609   2.810   6.904
 7736SOL    HW224108   1.718   2.807   6.783
 7737SOL     OW24109   4.507   5.122   0.875
 7737SOL    HW124110   4.500   5.024   0.856
 7737SOL    HW224111   4.527   5.172   0.791
 7738SOL     OW24112   2.755   0.435   5.467
 7738SOL    HW124113   2.724   0.514   5.414
 7738SOL    HW224114   2.709   0.352   5.435
 7739SOL     OW24115   1.774   1.791   0.770
 7739SOL    HW124116   1.723   1.850   0.832
 7739SOL    HW224117   1.856   1.756   0.816
 7740SOL     OW24118   1.973   0.242   4.975
 7740SOL    HW124119   1.988   0.289   5.062
 7740SOL    HW224120   1.964   0.309   4.901
 7741SOL     OW24121   1.652   4.216   6.243
 7741SOL    HW124122   1.654   4.300   6.189
 7741SOL    HW224123   1.662   4.137   6.183
 7742SOL     OW24124   4.498   1.931   4.092
 7742SOL    HW124125   4.416   1.904   4.142
 7742SOL    HW224126   4.577   1.926   4.153
 7743SOL     OW24127   4.862   1.930   5.700
 7743SOL    HW124128   4.818   2.018   5.680
 7743SOL    HW224129   4.959   1.945   5.718
 7744SOL     OW24130   0.992   6.501   4.613
 7744SOL    HW124131   0.949   6.487   4.703
 7744SOL    HW224132   1.052   6.580   4.618
 7745SOL     OW24133   2.852   6.717   0.752
 7745SOL    HW124134   2.889   6.792   0.806
 7745SOL    HW224135   2.815   6.752   0.666
 7746SOL     OW24136   1.318   5.890   0.979
 7746SOL    HW124137   1.251   5.820   1.007
 7746SOL    HW224138   1.409   5.850   0.979
 7747SOL     OW24139   1.220   6.211   0.705
 7747SOL    HW124140   1.158   6.198   0.783
 7747SOL    HW224141   1.309   6.242   0.739
 7748SOL     OW24142   4.603   2.066   6.074
 7748SOL    HW124143   4.671   1.995   6.058
 7748SOL    HW224144   4.629   2.149   6.026
 7749SOL     OW24145   3.647   3.862   4.318
 7749SOL    HW124146   3.679   3.815   4.400
 7749SOL    HW224147   3.550   3.842   4.305
 7750SOL     OW24148   5.584   3.915   5.304
 7750SOL    HW124149   5.663   3.965   5.270
 7750SOL    HW224150   5.508   3.979   5.318
 7751SOL     OW24151   6.817   1.066   4.961
 7751SOL    HW124152   6.877   1.055   4.883
 7751SOL    HW224153   6.864   1.117   5.033
 7752SOL     OW24154   6.240   5.594   5.282
 7752SOL    HW124155   6.245   5.527   5.357
 7752SOL    HW224156   6.258   5.548   5.195
 7753SOL     OW24157   2.966   1.111   4.814
 7753SOL    HW124158   3.030   1.034   4.816
 7753SOL    HW224159   2.994   1.177   4.744
 7754SOL     OW24160   6.477   0.976   1.697
 7754SOL    HW124161   6.473   0.891   1.751
 7754SOL    HW224162   6.435   0.961   1.608
 7755SOL     OW24163   1.115   5.947   5.303
 7755SOL    HW124164   1.073   5.900   5.382
 7755SOL    HW224165   1.054   6.019   5.272
 7756SOL     OW24166   3.504   5.834   2.460
 7756SOL    HW124167   3.487   5.737   2.480
 7756SOL    HW224168   3.575   5.869   2.521
 7757SOL     OW24169   4.826   6.410   6.168
 7757SOL    HW124170   4.860   6.316   6.173
 7757SOL    HW224171   4.846   6.456   6.254
 7758SOL     OW24172   2.631   2.150   5.405
 7758SOL    HW124173   2.576   2.067   5.409
 7758SOL    HW224174   2.622   2.200   5.491
 7759SOL     OW24175   2.004   0.637   5.491
 7759SOL    HW124176   2.038   0.682   5.408
 7759SOL    HW224177   1.932   0.572   5.466
 7760SOL     OW24178   4.594   2.601   2.393
 7760SOL    HW124179   4.667   2.602   2.325
 7760SOL    HW224180   4.518   2.546   2.360
 7761SOL     OW24181   3.966   6.920   6.505
 7761SOL    HW124182   3.894   6.906   6.437
 7761SOL    HW224183   3.992   6.832   6.544
 7762SOL     OW24184   2.790   1.805   1.025
 7762SOL    HW124185   2.857   1.731   1.029
 7762SOL    HW224186   2.698   1.768   1.037
 7763SOL     OW24187   1.991   1.676   1.098
 7763SOL    HW124188   1.976   1.774   1.107
 7763SOL    HW224189   2.003   1.652   1.002
 7764SOL     OW24190   3.318   2.974   3.120
 7764SOL    HW124191   3.328   3.019   3.208
 7764SOL    HW224192   3.240   3.014   3.071
 7765SOL     OW24193   6.849   2.126   2.481
 7765SOL    HW124194   6.819   2.178   2.560
 7765SOL    HW224195   6.769   2.101   2.425
 7766SOL     OW24196   6.669   2.925   7.005
 7766SOL    HW124197   6.644   3.006   0.038
 7766SOL    HW224198   6.756   2.889   0.017
 7767SOL     OW24199   5.396   4.111   5.336
 7767SOL    HW124200   5.327   4.114   5.264
 7767SOL    HW224201   5.394   4.197   5.387
 7768SOL     OW24202   3.449   5.288   2.350
 7768SOL    HW124203   3.362   5.240   2.356
 7768SOL    HW224204   3.523   5.221   2.341
 7769SOL     OW24205   6.119   1.789   1.595
 7769SOL    HW124206   6.204   1.739   1.612
 7769SOL    HW224207   6.067   1.796   1.680
 7770SOL     OW24208   3.786   5.626   1.199
 7770SOL    HW124209   3.771   5.680   1.116
 7770SOL    HW224210   3.798   5.687   1.277
 7771SOL     OW24211   2.504   1.506   5.374
 7771SOL    HW124212   2.446   1.435   5.334
 7771SOL    HW224213   2.453   1.555   5.444
 7772SOL     OW24214   5.355   1.561   4.769
 7772SOL    HW124215   5.452   1.569   4.744
 7772SOL    HW224216   5.310   1.648   4.755
 7773SOL     OW24217   3.758   4.498   5.369
 7773SOL    HW124218   3.694   4.435   5.325
 7773SOL    HW224219   3.752   4.488   5.468
 7774SOL     OW24220   4.725   1.448   6.125
 7774SOL    HW124221   4.775   1.458   6.211
 7774SOL    HW224222   4.628   1.432   6.145
 7775SOL     OW24223   3.230   0.202   2.553
 7775SOL    HW124224   3.257   0.138   2.480
 7775SOL    HW224225   3.158   0.262   2.519
 7776SOL     OW24226   3.750   3.500   6.947
 7776SOL    HW124227   3.684   3.547   6.888
 7776SOL    HW224228   3.780   3.416   6.903
 7777SOL     OW24229   1.739   1.260   0.024
 7777SOL    HW124230   1.801   1.239   6.969
 7777SOL    HW224231   1.655   1.206   0.015
 7778SOL     OW24232   5.572   0.961   0.687
 7778SOL    HW124233   5.484   1.010   0.685
 7778SOL    HW224234   5.639   1.011   0.632
 7779SOL     OW24235   3.816   3.333   6.520
 7779SOL    HW124236   3.746   3.356   6.588
 7779SOL    HW224237   3.799   3.384   6.436
 7780SOL     OW24238   1.745   0.028   4.680
 7780SOL    HW124239   1.759   6.998   4.766
 7780SOL    HW224240   1.764   6.988   4.603
 7781SOL     OW24241   1.366   4.913   5.037
 7781SOL    HW124242   1.292   4.900   4.971
 7781SOL    HW224243   1.450   4.939   4.989
 7782SOL     OW24244   3.054   4.101   6.668
 7782SOL    HW124245   3.108   4.184   6.653
 7782SOL    HW224246   3.108   4.021   6.643
 7783SOL     OW24247   2.752   5.200   6.233
 7783SOL    HW124248   2.700   5.207   6.149
 7783SOL    HW224249   2.824   5.270   6.234
 7784SOL     OW24250   0.625   2.622   6.918
 7784SOL    HW124251   0.600   2.647   7.012
 7784SOL    HW224252   0.563   2.667   6.854
 7785SOL     OW24253   2.690   5.904   4.289
 7785SOL    HW124254   2.669   5.937   4.196
 7785SOL    HW224255   2.700   5.805   4.288
 7786SOL     OW24256   3.233   4.088   4.898
 7786SOL    HW124257   3.285   4.010   4.862
 7786SOL    HW224258   3.287   4.171   4.889
 7787SOL     OW24259   2.677   2.539   5.283
 7787SOL    HW124260   2.633   2.629   5.290
 7787SOL    HW224261   2.776   2.550   5.280
 7788SOL     OW24262   0.477   1.448   0.110
 7788SOL    HW124263   0.537   1.371   0.091
 7788SOL    HW224264   0.502   1.490   0.197
 7789SOL     OW24265   2.237   0.277   0.998
 7789SOL    HW124266   2.218   0.181   0.976
 7789SOL    HW224267   2.163   0.314   1.054
 7790SOL     OW24268   6.003   3.645   2.472
 7790SOL    HW124269   5.994   3.656   2.571
 7790SOL    HW224270   6.065   3.715   2.436
 7791SOL     OW24271   1.591   5.396   4.984
 7791SOL    HW124272   1.688   5.396   4.960
 7791SOL    HW224273   1.579   5.436   5.075
 7792SOL     OW24274   2.577   5.241   6.025
 7792SOL    HW124275   2.532   5.185   5.955
 7792SOL    HW224276   2.508   5.295   6.073
 7793SOL     OW24277   0.923   0.913   6.342
 7793SOL    HW124278   0.883   0.875   6.425
 7793SOL    HW224279   0.995   0.978   6.367
 7794SOL     OW24280   5.253   5.687   3.853
 7794SOL    HW124281   5.279   5.703   3.948
 7794SOL    HW224282   5.330   5.647   3.803
 7795SOL     OW24283   2.430   4.948   5.313
 7795SOL    HW124284   2.468   5.023   5.368
 7795SOL    HW224285   2.505   4.900   5.266
 7796SOL     OW24286   4.036   3.184   3.855
 7796SOL    HW124287   3.953   3.129   3.854
 7796SOL    HW224288   4.083   3.172   3.942
 7797SOL     OW24289   0.633   0.181   2.484
 7797SOL    HW124290   0.710   0.194   2.422
 7797SOL    HW224291   0.609   0.085   2.488
 7798SOL     OW24292   4.123   5.172   0.041
 7798SOL    HW124293   4.135   5.141   6.967
 7798SOL    HW224294   4.153   5.100   0.104
 7799SOL     OW24295   6.974   5.208   1.198
 7799SOL    HW124296   0.045   5.204   1.237
 7799SOL    HW224297   6.906   5.185   1.268
 7800SOL     OW24298   0.675   5.722   2.149
 7800SOL    HW124299   0.739   5.648   2.130
 7800SOL    HW224300   0.602   5.722   2.080
 7801SOL     OW24301   3.948   1.824   6.527
 7801SOL    HW124302   3.989   1.752   6.472
 7801SOL    HW224303   3.978   1.913   6.493
 7802SOL     OW24304   5.631   2.113   1.350
 7802SOL    HW124305   5.711   2.079   1.301
 7802SOL    HW224306   5.610   2.206   1.320
 7803SOL     OW24307   3.964   4.169   5.585
 7803SOL    HW124308   3.875   4.206   5.557
 7803SOL    HW224309   4.035   4.202   5.523
 7804SOL     OW24310   4.831   1.575   6.366
 7804SOL    HW124311   4.900   1.613   6.304
 7804SOL    HW224312   4.744   1.623   6.355
 7805SOL     OW24313   4.938   3.740   1.851
 7805SOL    HW124314   4.947   3.674   1.925
 7805SOL    HW224315   4.908   3.694   1.767
 7806SOL     OW24316   5.194   2.721   6.854
 7806SOL    HW124317   5.188   2.727   6.954
 7806SOL    HW224318   5.217   2.811   6.817
 7807SOL     OW24319   0.379   4.031   6.627
 7807SOL    HW124320   0.333   4.035   6.716
 7807SOL    HW224321   0.468   4.074   6.634
 7808SOL     OW24322   0.734   1.236   5.233
 7808SOL    HW124323   0.789   1.154   5.250
 7808SOL    HW224324   0.743   1.264   5.138
 7809SOL     OW24325   1.901   5.374   4.958
 7809SOL    HW124326   1.946   5.409   5.040
 7809SOL    HW224327   1.911   5.440   4.884
 7810SOL     OW24328   3.026   1.317   6.691
 7810SOL    HW124329   2.983   1.304   6.602
 7810SOL    HW224330   2.962   1.287   6.763
 7811SOL     OW24331   6.768   4.307   3.983
 7811SOL    HW124332   6.820   4.338   3.903
 7811SOL    HW224333   6.752   4.209   3.975
 7812SOL     OW24334   1.575   1.712   3.576
 7812SOL    HW124335   1.486   1.728   3.620
 7812SOL    HW224336   1.614   1.800   3.547
 7813SOL     OW24337   6.392   2.918   0.708
 7813SOL    HW124338   6.468   2.873   0.754
 7813SOL    HW224339   6.405   3.017   0.709
 7814SOL     OW24340   0.688   3.703   3.225
 7814SOL    HW124341   0.618   3.709   3.297
 7814SOL    HW224342   0.779   3.706   3.266
 7815SOL     OW24343   6.858   1.701   6.381
 7815SOL    HW124344   6.804   1.746   6.453
 7815SOL    HW224345   6.865   1.761   6.302
 7816SOL     OW24346   1.130   4.191   4.651
 7816SOL    HW124347   1.178   4.107   4.675
 7816SOL    HW224348   1.124   4.250   4.732
 7817SOL     OW24349   5.574   3.535   4.591
 7817SOL    HW124350   5.578   3.531   4.691
 7817SOL    HW224351   5.494   3.483   4.560
 7818SOL     OW24352   5.221   5.209   2.403
 7818SOL    HW124353   5.263   5.209   2.493
 7818SOL    HW224354   5.130   5.168   2.408
 7819SOL     OW24355   6.666   1.524   1.517
 7819SOL    HW124356   6.592   1.473   1.561
 7819SOL    HW224357   6.709   1.585   1.585
 7820SOL     OW24358   2.039   0.606   6.303
 7820SOL    HW124359   1.984   0.527   6.330
 7820SOL    HW224360   2.039   0.614   6.203
 7821SOL     OW24361   3.300   5.095   1.470
 7821SOL    HW124362   3.339   5.049   1.550
 7821SOL    HW224363   3.202   5.105   1.482
 7822SOL     OW24364   1.598   5.901   4.770
 7822SOL    HW124365   1.689   5.913   4.809
 7822SOL    HW224366   1.563   5.810   4.793
 7823SOL     OW24367   1.521   4.619   4.915
 7823SOL    HW124368   1.554   4.525   4.917
 7823SOL    HW224369   1.579   4.677   4.972
 7824SOL     OW24370   0.580   3.165   5.367
 7824SOL    HW124371   0.510   3.094   5.369
 7824SOL    HW224372   0.668   3.127   5.394
 7825SOL     OW24373   3.060   1.288   6.212
 7825SOL    HW124374   3.138   1.271   6.153
 7825SOL    HW224375   3.072   1.376   6.259
 7826SOL     OW24376   1.130   3.186   6.500
 7826SOL    HW124377   1.143   3.088   6.493
 7826SOL    HW224378   1.207   3.233   6.458
 7827SOL     OW24379   6.574   5.652   4.989
 7827SOL    HW124380   6.597   5.746   4.967
 7827SOL    HW224381   6.590   5.594   4.908
 7828SOL     OW24382   0.813   5.318   0.164
 7828SOL    HW124383   0.910   5.339   0.175
 7828SOL    HW224384   0.800   5.259   0.084
 7829SOL     OW24385   3.629   3.338   0.727
 7829SOL    HW124386   3.619   3.326   0.628
 7829SOL    HW224387   3.713   3.390   0.745
 7830SOL     OW24388   2.656   5.368   4.128
 7830SOL    HW124389   2.652   5.394   4.031
 7830SOL    HW224390   2.645   5.269   4.135
 7831SOL     OW24391   1.863   0.865   0.322
 7831SOL    HW124392   1.909   0.919   0.393
 7831SOL    HW224393   1.799   0.924   0.272
 7832SOL     OW24394   6.453   0.712   4.624
 7832SOL    HW124395   6.419   0.802   4.651
 7832SOL    HW224396   6.486   0.715   4.530
 7833SOL     OW24397   1.687   0.367   3.521
 7833SOL    HW124398   1.712   0.273   3.547
 7833SOL    HW224399   1.665   0.419   3.604
 7834SOL     OW24400   6.529   3.360   4.988
 7834SOL    HW124401   6.586   3.441   5.006
 7834SOL    HW224402   6.496   3.322   5.074
 7835SOL     OW24403   3.974   2.441   5.348
 7835SOL    HW124404   4.058   2.483   5.313
 7835SOL    HW224405   3.997   2.373   5.418
 7836SOL     OW24406   3.362   3.828   4.321
 7836SOL    HW124407   3.318   3.825   4.232
 7836SOL    HW224408   3.338   3.913   4.368
 7837SOL     OW24409   7.016   6.178   0.118
 7837SOL    HW124410   0.029   6.094   0.161
 7837SOL    HW224411   0.009   6.172   0.019
 7838SOL     OW24412   4.734   5.694   1.982
 7838SOL    HW124413   4.719   5.632   1.904
 7838SOL    HW224414   4.726   5.788   1.951
 7839SOL     OW24415   5.759   2.950   4.265
 7839SOL    HW124416   5.776   2.946   4.363
 7839SOL    HW224417   5.661   2.946   4.248
 7840SOL     OW24418   1.748   2.934   4.344
 7840SOL    HW124419   1.744   2.835   4.327
 7840SOL    HW224420   1.836   2.970   4.313
 7841SOL     OW24421   4.156   1.994   6.163
 7841SOL    HW124422   4.078   1.948   6.120
 7841SOL    HW224423   4.226   2.012   6.094
 7842SOL     OW24424   1.607   0.463   2.120
 7842SOL    HW124425   1.604   0.390   2.051
 7842SOL    HW224426   1.570   0.547   2.080
 7843SOL     OW24427   7.012   6.091   3.320
 7843SOL    HW124428   7.006   6.181   3.277
 7843SOL    HW224429   0.043   6.099   3.406
 7844SOL     OW24430   3.797   1.324   2.788
 7844SOL    HW124431   3.747   1.367   2.712
 7844SOL    HW224432   3.750   1.241   2.816
 7845SOL     OW24433   6.890   3.026   0.884
 7845SOL    HW124434   6.889   3.023   0.984
 7845SOL    HW224435   6.902   3.121   0.854
 7846SOL     OW24436   1.255   1.559   0.783
 7846SOL    HW124437   1.160   1.531   0.796
 7846SOL    HW224438   1.271   1.580   0.686
 7847SOL     OW24439   5.425   4.001   5.681
 7847SOL    HW124440   5.364   4.069   5.722
 7847SOL    HW224441   5.493   3.973   5.749
 7848SOL     OW24442   3.188   4.046   1.088
 7848SOL    HW124443   3.117   4.114   1.105
 7848SOL    HW224444   3.233   4.065   1.001
 7849SOL     OW24445   4.929   4.563   0.388
 7849SOL    HW124446   4.841   4.575   0.433
 7849SOL    HW224447   4.915   4.550   0.290
 7850SOL     OW24448   0.071   1.208   3.576
 7850SOL    HW124449   0.107   1.301   3.565
 7850SOL    HW224450   0.071   1.162   3.488
 7851SOL     OW24451   0.284   4.795   1.403
 7851SOL    HW124452   0.368   4.761   1.360
 7851SOL    HW224453   0.243   4.722   1.459
 7852SOL     OW24454   1.041   2.926   6.652
 7852SOL    HW124455   1.133   2.942   6.689
 7852SOL    HW224456   1.009   2.836   6.682
 7853SOL     OW24457   3.928   2.952   1.955
 7853SOL    HW124458   4.010   2.926   1.904
 7853SOL    HW224459   3.949   3.032   2.012
 7854SOL     OW24460   4.916   1.804   6.548
 7854SOL    HW124461   4.826   1.847   6.545
 7854SOL    HW224462   4.906   1.705   6.542
 7855SOL     OW24463   5.158   0.276   4.577
 7855SOL    HW124464   5.203   0.365   4.592
 7855SOL    HW224465   5.227   0.204   4.579
 7856SOL     OW24466   2.334   6.239   4.774
 7856SOL    HW124467   2.375   6.260   4.862
 7856SOL    HW224468   2.270   6.311   4.749
 7857SOL     OW24469   6.324   4.789   1.469
 7857SOL    HW124470   6.258   4.863   1.457
 7857SOL    HW224471   6.311   4.720   1.397
 7858SOL     OW24472   0.550   4.313   6.446
 7858SOL    HW124473   0.455   4.337   6.464
 7858SOL    HW224474   0.563   4.297   6.348
 7859SOL     OW24475   5.431   2.642   0.458
 7859SOL    HW124476   5.410   2.695   0.376
 7859SOL    HW224477   5.363   2.569   0.468
 7860SOL     OW24478   2.875   1.274   4.434
 7860SOL    HW124479   2.922   1.275   4.345
 7860SOL    HW224480   2.777   1.287   4.421
 7861SOL     OW24481   2.455   6.233   0.429
 7861SOL    HW124482   2.398   6.311   0.456
 7861SOL    HW224483   2.534   6.265   0.377
 7862SOL     OW24484   2.190   5.803   6.921
 7862SOL    HW124485   2.162   5.834   6.830
 7862SOL    HW224486   2.181   5.879   6.986
 7863SOL     OW24487   0.182   3.958   3.511
 7863SOL    HW124488   0.221   3.866   3.502
 7863SOL    HW224489   0.150   3.970   3.605
 7864SOL     OW24490   2.011   6.116   5.110
 7864SOL    HW124491   2.065   6.033   5.099
 7864SOL    HW224492   2.068   6.187   5.152
 7865SOL     OW24493   5.481   4.771   3.313
 7865SOL    HW124494   5.485   4.827   3.396
 7865SOL    HW224495   5.512   4.678   3.334
 7866SOL     OW24496   6.902   6.946   5.879
 7866SOL    HW124497   6.863   6.893   5.803
 7866SOL    HW224498   6.946   6.884   5.944
 7867SOL     OW24499   4.976   5.268   3.637
 7867SOL    HW124500   5.005   5.212   3.559
 7867SOL    HW224501   4.915   5.216   3.696
 7868SOL     OW24502   3.078   6.216   1.578
 7868SOL    HW124503   3.004   6.187   1.517
 7868SOL    HW224504   3.141   6.274   1.528
 7869SOL     OW24505   5.886   4.708   6.307
 7869SOL    HW124506   5.802   4.689   6.257
 7869SOL    HW224507   5.876   4.679   6.402
 7870SOL     OW24508   5.402   5.821   4.310
 7870SOL    HW124509   5.451   5.761   4.373
 7870SOL    HW224510   5.448   5.910   4.305
 7871SOL     OW24511   5.458   1.804   1.496
 7871SOL    HW124512   5.417   1.881   1.447
 7871SOL    HW224513   5.446   1.817   1.594
 7872SOL     OW24514   1.421   5.875   2.846
 7872SOL    HW124515   1.468   5.922   2.921
 7872SOL    HW224516   1.322   5.879   2.861
 7873SOL     OW24517   5.430   1.898   0.028
 7873SOL    HW124518   5.433   1.843   6.965
 7873SOL    HW224519   5.398   1.842   0.104
 7874SOL     OW24520   5.545   2.858   0.620
 7874SOL    HW124521   5.548   2.759   0.609
 7874SOL    HW224522   5.548   2.901   0.529
 7875SOL     OW24523   6.372   4.682   6.605
 7875SOL    HW124524   6.278   4.652   6.622
 7875SOL    HW224525   6.373   4.757   6.540
 7876SOL     OW24526   1.341   6.908   3.607
 7876SOL    HW124527   1.241   6.913   3.602
 7876SOL    HW224528   1.374   6.966   3.681
 7877SOL     OW24529   0.021   2.641   2.845
 7877SOL    HW124530   0.059   2.727   2.808
 7877SOL    HW224531   7.020   2.580   2.770
 7878SOL     OW24532   4.315   4.768   3.056
 7878SOL    HW124533   4.309   4.690   3.118
 7878SOL    HW224534   4.231   4.774   3.003
 7879SOL     OW24535   3.063   4.955   2.800
 7879SOL    HW124536   3.034   5.051   2.800
 7879SOL    HW224537   3.030   4.910   2.882
 7880SOL     OW24538   1.548   4.300   2.151
 7880SOL    HW124539   1.520   4.396   2.160
 7880SOL    HW224540   1.597   4.287   2.065
 7881SOL     OW24541   4.750   4.128   3.985
 7881SOL    HW124542   4.738   4.067   4.064
 7881SOL    HW224543   4.847   4.136   3.964
 7882SOL     OW24544   1.189   3.567   0.324
 7882SOL    HW124545   1.260   3.630   0.358
 7882SOL    HW224546   1.204   3.476   0.363
 7883SOL     OW24547   1.060   0.190   5.358
 7883SOL    HW124548   1.049   0.270   5.417
 7883SOL    HW224549   1.043   0.107   5.411
 7884SOL     OW24550   0.693   2.848   4.487
 7884SOL    HW124551   0.612   2.887   4.444
 7884SOL    HW224552   0.773   2.902   4.460
 7885SOL     OW24553   6.519   5.979   6.296
 7885SOL    HW124554   6.449   6.046   6.319
 7885SOL    HW224555   6.587   5.975   6.369
 7886SOL     OW24556   5.155   4.712   0.498
 7886SOL    HW124557   5.110   4.796   0.528
 7886SOL    HW224558   5.091   4.659   0.441
 7887SOL     OW24559   4.172   2.570   6.135
 7887SOL    HW124560   4.195   2.615   6.221
 7887SOL    HW224561   4.100   2.502   6.151
 7888SOL     OW24562   4.942   0.528   4.953
 7888SOL    HW124563   4.980   0.615   4.923
 7888SOL    HW224564   4.867   0.544   5.017
 7889SOL     OW24565   0.885   5.524   2.230
 7889SOL    HW124566   0.942   5.607   2.228
 7889SOL    HW224567   0.928   5.453   2.175
 7890SOL     OW24568   1.796   3.282   2.825
 7890SOL    HW124569   1.766   3.377   2.819
 7890SOL    HW224570   1.844   3.257   2.740
 7891SOL     OW24571   1.295   4.870   2.987
 7891SOL    HW124572   1.239   4.948   2.960
 7891SOL    HW224573   1.256   4.828   3.069
 7892SOL     OW24574   2.296   3.066   5.587
 7892SOL    HW124575   2.278   2.983   5.640
 7892SOL    HW224576   2.390   3.065   5.554
 7893SOL     OW24577   6.158   6.716   1.596
 7893SOL    HW124578   6.115   6.720   1.505
 7893SOL    HW224579   6.135   6.629   1.640
 7894SOL     OW24580   2.878   0.510   2.088
 7894SOL    HW124581   2.920   0.598   2.065
 7894SOL    HW224582   2.842   0.467   2.006
 7895SOL     OW24583   6.758   1.539   3.297
 7895SOL    HW124584   6.831   1.604   3.316
 7895SOL    HW224585   6.682   1.554   3.361
 7896SOL     OW24586   4.304   1.883   5.701
 7896SOL    HW124587   4.225   1.838   5.742
 7896SOL    HW224588   4.285   1.902   5.605
 7897SOL     OW24589   2.753   3.008   6.741
 7897SOL    HW124590   2.670   3.056   6.713
 7897SOL    HW224591   2.777   2.940   6.673
 7898SOL     OW24592   4.568   2.478   3.734
 7898SOL    HW124593   4.551   2.422   3.815
 7898SOL    HW224594   4.532   2.432   3.653
 7899SOL     OW24595   5.204   1.012   2.869
 7899SOL    HW124596   5.176   1.105   2.893
 7899SOL    HW224597   5.123   0.959   2.845
 7900SOL     OW24598   1.922   5.564   0.757
 7900SOL    HW124599   1.984   5.642   0.743
 7900SOL    HW224600   1.945   5.518   0.842
 7901SOL     OW24601   5.981   5.819   0.269
 7901SOL    HW124602   6.018   5.759   0.198
 7901SOL    HW224603   5.882   5.807   0.275
 7902SOL     OW24604   5.373   4.558   6.558
 7902SOL    HW124605   5.410   4.627   6.496
 7902SOL    HW224606   5.303   4.599   6.616
 7903SOL     OW24607   0.261   2.292   6.921
 7903SOL    HW124608   0.334   2.295   6.853
 7903SOL    HW224609   0.180   2.248   6.881
 7904SOL     OW24610   6.316   0.922   2.824
 7904SOL    HW124611   6.238   0.922   2.887
 7904SOL    HW224612   6.397   0.958   2.871
 7905SOL     OW24613   3.345   1.703   0.952
 7905SOL    HW124614   3.283   1.626   0.933
 7905SOL    HW224615   3.383   1.694   1.044
 7906SOL     OW24616   6.776   5.355   0.146
 7906SOL    HW124617   6.823   5.434   0.185
 7906SOL    HW224618   6.749   5.375   0.052
 7907SOL     OW24619   5.993   2.948   2.431
 7907SOL    HW124620   6.090   2.927   2.414
 7907SOL    HW224621   5.984   3.044   2.455
 7908SOL     OW24622   6.161   1.831   3.379
 7908SOL    HW124623   6.079   1.864   3.424
 7908SOL    HW224624   6.203   1.904   3.326
 7909SOL     OW24625   4.586   5.334   5.584
 7909SOL    HW124626   4.529   5.301   5.508
 7909SOL    HW224627   4.528   5.368   5.657
 7910SOL     OW24628   6.015   4.029   5.992
 7910SOL    HW124629   6.072   4.072   5.922
 7910SOL    HW224630   6.064   4.027   6.079
 7911SOL     OW24631   6.397   5.035   6.962
 7911SOL    HW124632   6.446   5.019   0.027
 7911SOL    HW224633   6.418   4.962   6.897
 7912SOL     OW24634   6.975   5.051   5.484
 7912SOL    HW124635   0.039   5.002   5.464
 7912SOL    HW224636   6.915   4.994   5.540
 7913SOL     OW24637   0.734   5.967   6.445
 7913SOL    HW124638   0.813   5.938   6.499
 7913SOL    HW224639   0.714   6.063   6.464
 7914SOL     OW24640   0.215   3.381   2.365
 7914SOL    HW124641   0.233   3.413   2.457
 7914SOL    HW224642   0.250   3.288   2.354
 7915SOL     OW24643   4.629   1.505   2.362
 7915SOL    HW124644   4.542   1.516   2.314
 7915SOL    HW224645   4.628   1.419   2.412
 7916SOL     OW24646   4.665   3.438   5.433
 7916SOL    HW124647   4.668   3.474   5.340
 7916SOL    HW224648   4.659   3.338   5.430
 7917SOL     OW24649   3.733   4.069   3.865
 7917SOL    HW124650   3.678   4.055   3.948
 7917SOL    HW224651   3.823   4.027   3.877
 7918SOL     OW24652   6.076   2.321   2.154
 7918SOL    HW124653   6.130   2.293   2.075
 7918SOL    HW224654   6.134   2.318   2.236
 7919SOL     OW24655   5.931   4.745   1.793
 7919SOL    HW124656   5.971   4.800   1.720
 7919SOL    HW224657   6.004   4.704   1.848
 7920SOL     OW24658   0.829   5.972   1.439
 7920SOL    HW124659   0.857   5.932   1.351
 7920SOL    HW224660   0.730   5.971   1.446
 7921SOL     OW24661   3.562   6.233   1.671
 7921SOL    HW124662   3.661   6.221   1.677
 7921SOL    HW224663   3.541   6.293   1.594
 7922SOL     OW24664   0.564   5.096   6.858
 7922SOL    HW124665   0.517   5.046   6.930
 7922SOL    HW224666   0.515   5.182   6.841
 7923SOL     OW24667   1.148   1.591   3.092
 7923SOL    HW124668   1.166   1.493   3.083
 7923SOL    HW224669   1.211   1.642   3.033
 7924SOL     OW24670   2.216   0.606   3.858
 7924SOL    HW124671   2.161   0.543   3.802
 7924SOL    HW224672   2.243   0.560   3.942
 7925SOL     OW24673   6.900   0.447   6.602
 7925SOL    HW124674   6.934   0.356   6.622
 7925SOL    HW224675   6.805   0.442   6.570
 7926SOL     OW24676   3.152   0.480   2.093
 7926SOL    HW124677   3.055   0.493   2.074
 7926SOL    HW224678   3.166   0.390   2.136
 7927SOL     OW24679   4.371   4.730   4.213
 7927SOL    HW124680   4.426   4.812   4.228
 7927SOL    HW224681   4.290   4.753   4.160
 7928SOL     OW24682   1.128   5.042   0.393
 7928SOL    HW124683   1.047   5.006   0.440
 7928SOL    HW224684   1.169   5.114   0.449
 7929SOL     OW24685   3.940   3.888   4.452
 7929SOL    HW124686   4.009   3.823   4.418
 7929SOL    HW224687   3.922   3.956   4.381
 7930SOL     OW24688   5.416   5.915   4.678
 7930SOL    HW124689   5.385   5.828   4.641
 7930SOL    HW224690   5.472   5.899   4.759
 7931SOL     OW24691   1.442   3.343   0.679
 7931SOL    HW124692   1.398   3.356   0.590
 7931SOL    HW224693   1.403   3.407   0.745
 7932SOL     OW24694   3.041   0.134   1.100
 7932SOL    HW124695   3.049   0.181   1.012
 7932SOL    HW224696   3.108   0.060   1.105
 7933SOL     OW24697   1.373   0.371   6.556
 7933SOL    HW124698   1.279   0.404   6.542
 7933SOL    HW224699   1.416   0.354   6.467
 7934SOL     OW24700   3.932   3.503   5.648
 7934SOL    HW124701   3.997   3.549   5.587
 7934SOL    HW224702   3.919   3.559   5.730
 7935SOL     OW24703   4.369   6.321   1.424
 7935SOL    HW124704   4.408   6.412   1.443
 7935SOL    HW224705   4.390   6.295   1.330
 7936SOL     OW24706   4.558   5.593   2.986
 7936SOL    HW124707   4.533   5.678   3.032
 7936SOL    HW224708   4.563   5.519   3.053
 7937SOL     OW24709   6.240   6.722   5.694
 7937SOL    HW124710   6.287   6.810   5.703
 7937SOL    HW224711   6.270   6.676   5.610
 7938SOL     OW24712   5.897   4.376   4.849
 7938SOL    HW124713   5.984   4.422   4.829
 7938SOL    HW224714   5.821   4.436   4.823
 7939SOL     OW24715   1.045   6.902   4.543
 7939SOL    HW124716   1.081   6.939   4.458
 7939SOL    HW224717   0.951   6.871   4.530
 7940SOL     OW24718   1.644   5.590   1.353
 7940SOL    HW124719   1.632   5.687   1.372
 7940SOL    HW224720   1.716   5.579   1.284
 7941SOL     OW24721   0.493   0.155   0.115
 7941SOL    HW124722   0.550   0.087   0.163
 7941SOL    HW224723   0.535   0.176   0.027
 7942SOL     OW24724   1.514   1.249   1.317
 7942SOL    HW124725   1.502   1.338   1.273
 7942SOL    HW224726   1.533   1.180   1.247
 7943SOL     OW24727   5.603   2.363   0.506
 7943SOL    HW124728   5.657   2.299   0.560
 7943SOL    HW224729   5.545   2.417   0.566
 7944SOL     OW24730   0.391   4.234   2.227
 7944SOL    HW124731   0.442   4.234   2.141
 7944SOL    HW224732   0.444   4.283   2.297
 7945SOL     OW24733   5.196   6.413   1.809
 7945SOL    HW124734   5.267   6.426   1.879
 7945SOL    HW224735   5.235   6.425   1.718
 7946SOL     OW24736   1.568   1.966   5.772
 7946SOL    HW124737   1.524   1.894   5.717
 7946SOL    HW224738   1.661   1.938   5.795
 7947SOL     OW24739   3.826   4.580   5.978
 7947SOL    HW124740   3.914   4.584   6.024
 7947SOL    HW224741   3.771   4.506   6.017
 7948SOL     OW24742   0.894   5.500   6.823
 7948SOL    HW124743   0.956   5.546   6.887
 7948SOL    HW224744   0.800   5.513   6.853
 7949SOL     OW24745   6.377   4.554   4.117
 7949SOL    HW124746   6.317   4.506   4.054
 7949SOL    HW224747   6.467   4.565   4.075
 7950SOL     OW24748   3.346   5.028   4.291
 7950SOL    HW124749   3.294   5.107   4.323
 7950SOL    HW224750   3.442   5.039   4.316
 7951SOL     OW24751   2.937   3.210   0.821
 7951SOL    HW124752   2.918   3.114   0.802
 7951SOL    HW224753   3.033   3.221   0.847
 7952SOL     OW24754   5.267   4.452   0.175
 7952SOL    HW124755   5.202   4.511   0.126
 7952SOL    HW224756   5.360   4.483   0.157
 7953SOL     OW24757   2.359   2.813   3.143
 7953SOL    HW124758   2.392   2.866   3.222
 7953SOL    HW224759   2.278   2.857   3.105
 7954SOL     OW24760   4.798   5.324   5.392
 7954SOL    HW124761   4.872   5.261   5.419
 7954SOL    HW224762   4.714   5.298   5.439
 7955SOL     OW24763   1.586   6.966   6.213
 7955SOL    HW124764   1.603   7.006   6.122
 7955SOL    HW224765   1.493   6.928   6.216
 7956SOL     OW24766   6.235   7.012   4.057
 7956SOL    HW124767   6.298   6.936   4.074
 7956SOL    HW224768   6.217   7.019   3.959
 7957SOL     OW24769   1.142   2.501   1.051
 7957SOL    HW124770   1.156   2.466   1.144
 7957SOL    HW224771   1.229   2.503   1.003
 7958SOL     OW24772   2.110   5.491   2.648
 7958SOL    HW124773   2.205   5.510   2.621
 7958SOL    HW224774   2.076   5.412   2.598
 7959SOL     OW24775   5.365   5.483   0.955
 7959SOL    HW124776   5.350   5.571   0.999
 7959SOL    HW224777   5.336   5.409   1.015
 7960SOL     OW24778   2.533   2.204   1.117
 7960SOL    HW124779   2.479   2.120   1.122
 7960SOL    HW224780   2.629   2.183   1.132
 7961SOL     OW24781   1.970   5.342   6.723
 7961SOL    HW124782   2.019   5.258   6.700
 7961SOL    HW224783   2.036   5.415   6.739
 7962SOL     OW24784   1.218   0.120   2.206
 7962SOL    HW124785   1.191   0.099   2.112
 7962SOL    HW224786   1.234   0.218   2.216
 7963SOL     OW24787   1.347   6.652   4.516
 7963SOL    HW124788   1.408   6.581   4.481
 7963SOL    HW224789   1.378   6.741   4.484
 7964SOL     OW24790   6.046   6.099   3.205
 7964SOL    HW124791   5.992   6.016   3.217
 7964SOL    HW224792   6.117   6.083   3.136
 7965SOL     OW24793   5.771   1.825   0.948
 7965SOL    HW124794   5.736   1.781   1.030
 7965SOL    HW224795   5.732   1.917   0.941
 7966SOL     OW24796   6.970   6.007   3.696
 7966SOL    HW124797   6.911   5.943   3.645
 7966SOL    HW224798   6.914   6.059   3.761
 7967SOL     OW24799   3.101   6.104   2.247
 7967SOL    HW124800   3.172   6.034   2.238
 7967SOL    HW224801   3.059   6.098   2.338
 7968SOL     OW24802   1.660   0.864   1.506
 7968SOL    HW124803   1.586   0.930   1.495
 7968SOL    HW224804   1.633   0.793   1.571
 7969SOL     OW24805   3.521   1.900   3.235
 7969SOL    HW124806   3.519   1.996   3.206
 7969SOL    HW224807   3.432   1.859   3.216
 7970SOL     OW24808   0.194   5.032   3.268
 7970SOL    HW124809   0.209   5.020   3.170
 7970SOL    HW224810   0.125   5.103   3.283
 7971SOL     OW24811   2.469   1.603   2.244
 7971SOL    HW124812   2.450   1.701   2.246
 7971SOL    HW224813   2.515   1.580   2.158
 7972SOL     OW24814   0.786   5.130   2.100
 7972SOL    HW124815   0.845   5.108   2.023
 7972SOL    HW224816   0.694   5.092   2.084
 7973SOL     OW24817   4.516   2.140   2.354
 7973SOL    HW124818   4.595   2.195   2.331
 7973SOL    HW224819   4.497   2.076   2.279
 7974SOL     OW24820   5.190   6.908   4.207
 7974SOL    HW124821   5.130   6.889   4.129
 7974SOL    HW224822   5.193   6.827   4.266
 7975SOL     OW24823   2.192   1.190   3.288
 7975SOL    HW124824   2.223   1.101   3.255
 7975SOL    HW224825   2.142   1.178   3.373
 7976SOL     OW24826   0.407   6.328   6.171
 7976SOL    HW124827   0.432   6.328   6.268
 7976SOL    HW224828   0.448   6.249   6.126
 7977SOL     OW24829   5.038   6.637   1.871
 7977SOL    HW124830   5.101   6.561   1.855
 7977SOL    HW224831   4.944   6.606   1.865
 7978SOL     OW24832   4.077   2.831   6.087
 7978SOL    HW124833   4.152   2.765   6.095
 7978SOL    HW224834   4.020   2.826   6.169
 7979SOL     OW24835   4.419   0.251   4.118
 7979SOL    HW124836   4.325   0.261   4.151
 7979SOL    HW224837   4.418   0.220   4.023
 7980SOL     OW24838   2.613   0.305   1.992
 7980SOL    HW124839   2.609   0.231   2.060
 7980SOL    HW224840   2.592   0.268   1.902
 7981SOL     OW24841   1.136   5.833   2.818
 7981SOL    HW124842   1.082   5.906   2.776
 7981SOL    HW224843   1.171   5.773   2.746
 7982SOL     OW24844   0.165   2.999   0.782
 7982SOL    HW124845   0.104   3.002   0.703
 7982SOL    HW224846   0.144   3.076   0.843
 7983SOL     OW24847   4.902   2.367   2.020
 7983SOL    HW124848   4.934   2.279   2.056
 7983SOL    HW224849   4.981   2.422   1.994
 7984SOL     OW24850   0.677   0.748   0.465
 7984SOL    HW124851   0.753   0.698   0.505
 7984SOL    HW224852   0.591   0.700   0.483
 7985SOL     OW24853   0.323   1.310   1.213
 7985SOL    HW124854   0.255   1.236   1.215
 7985SOL    HW224855   0.406   1.280   1.260
 7986SOL     OW24856   3.918   2.429   0.714
 7986SOL    HW124857   3.938   2.514   0.666
 7986SOL    HW224858   3.819   2.419   0.725
 7987SOL     OW24859   0.107   2.978   5.054
 7987SOL    HW124860   0.122   3.055   5.116
 7987SOL    HW224861   0.120   2.892   5.104
 7988SOL     OW24862   2.758   1.421   5.434
 7988SOL    HW124863   2.660   1.437   5.423
 7988SOL    HW224864   2.808   1.504   5.413
 7989SOL     OW24865   3.288   3.452   5.645
 7989SOL    HW124866   3.362   3.515   5.626
 7989SOL    HW224867   3.299   3.415   5.738
 7990SOL     OW24868   2.213   2.289   4.706
 7990SOL    HW124869   2.292   2.347   4.729
 7990SOL    HW224870   2.149   2.287   4.783
 7991SOL     OW24871   7.016   3.521   5.138
 7991SOL    HW124872   0.030   3.594   5.197
 7991SOL    HW224873   6.965   3.454   5.193
 7992SOL     OW24874   2.467   0.775   0.402
 7992SOL    HW124875   2.456   0.794   0.500
 7992SOL    HW224876   2.502   0.682   0.390
 7993SOL     OW24877   2.056   6.823   6.759
 7993SOL    HW124878   2.050   6.793   6.664
 7993SOL    HW224879   2.145   6.867   6.775
 7994SOL     OW24880   5.865   0.610   3.699
 7994SOL    HW124881   5.864   0.574   3.606
 7994SOL    HW224882   5.812   0.694   3.703
 7995SOL     OW24883   3.984   5.046   2.898
 7995SOL    HW124884   4.072   5.083   2.868
 7995SOL    HW224885   3.950   5.100   2.976
 7996SOL     OW24886   3.926   0.394   5.112
 7996SOL    HW124887   3.990   0.423   5.041
 7996SOL    HW224888   3.918   0.466   5.182
 7997SOL     OW24889   5.583   2.837   2.014
 7997SOL    HW124890   5.616   2.861   1.923
 7997SOL    HW224891   5.651   2.780   2.060
 7998SOL     OW24892   6.450   5.270   6.735
 7998SOL    HW124893   6.475   5.198   6.800
 7998SOL    HW224894   6.365   5.245   6.689
 7999SOL     OW24895   1.575   0.631   5.658
 7999SOL    HW124896   1.629   0.663   5.736
 7999SOL    HW224897   1.486   0.600   5.690
 8000SOL     OW24898   6.107   6.958   6.077
 8000SOL    HW124899   6.150   6.868   6.077
 8000SOL    HW224900   6.013   6.951   6.111
 8001SOL     OW24901   2.369   0.170   1.284
 8001SOL    HW124902   2.435   0.128   1.347
 8001SOL    HW224903   2.291   0.205   1.337
 8002SOL     OW24904   5.838   3.014   5.493
 8002SOL    HW124905   5.822   2.980   5.400
 8002SOL    HW224906   5.850   2.936   5.555
 8003SOL     OW24907   3.949   5.167   3.170
 8003SOL    HW124908   3.901   5.080   3.166
 8003SOL    HW224909   3.997   5.175   3.257
 8004SOL     OW24910   1.845   3.835   2.514
 8004SOL    HW124911   1.780   3.817   2.588
 8004SOL    HW224912   1.933   3.863   2.552
 8005SOL     OW24913   2.981   0.970   1.845
 8005SOL    HW124914   3.076   0.987   1.819
 8005SOL    HW224915   2.946   1.049   1.895
 8006SOL     OW24916   3.351   6.535   0.652
 8006SOL    HW124917   3.308   6.455   0.610
 8006SOL    HW224918   3.382   6.511   0.745
 8007SOL     OW24919   0.501   0.823   4.397
 8007SOL    HW124920   0.463   0.852   4.310
 8007SOL    HW224921   0.450   0.743   4.431
 8008SOL     OW24922   6.261   5.780   0.384
 8008SOL    HW124923   6.165   5.801   0.363
 8008SOL    HW224924   6.276   5.682   0.379
 8009SOL     OW24925   6.801   6.769   3.619
 8009SOL    HW124926   6.847   6.856   3.635
 8009SOL    HW224927   6.867   6.694   3.632
 8010SOL     OW24928   2.700   2.425   6.650
 8010SOL    HW124929   2.637   2.433   6.572
 8010SOL    HW224930   2.704   2.330   6.680
 8011SOL     OW24931   2.417   1.948   0.937
 8011SOL    HW124932   2.460   1.887   1.004
 8011SOL    HW224933   2.327   1.976   0.971
 8012SOL     OW24934   3.218   6.763   3.010
 8012SOL    HW124935   3.186   6.685   2.957
 8012SOL    HW224936   3.230   6.736   3.105
 8013SOL     OW24937   6.373   4.728   5.048
 8013SOL    HW124938   6.472   4.718   5.041
 8013SOL    HW224939   6.350   4.773   5.134
 8014SOL     OW24940   2.019   0.343   6.927
 8014SOL    HW124941   2.035   0.413   6.997
 8014SOL    HW224942   1.951   0.376   6.862
 8015SOL     OW24943   1.799   2.083   6.773
 8015SOL    HW124944   1.743   2.102   6.692
 8015SOL    HW224945   1.887   2.044   6.744
 8016SOL     OW24946   3.513   6.697   1.592
 8016SOL    HW124947   3.447   6.662   1.526
 8016SOL    HW224948   3.487   6.667   1.684
 8017SOL     OW24949   5.780   4.287   4.533
 8017SOL    HW124950   5.753   4.273   4.628
 8017SOL    HW224951   5.863   4.236   4.514
 8018SOL     OW24952   5.386   2.667   4.706
 8018SOL    HW124953   5.290   2.677   4.682
 8018SOL    HW224954   5.395   2.657   4.805
 8019SOL     OW24955   2.635   5.113   1.435
 8019SOL    HW124956   2.704   5.185   1.426
 8019SOL    HW224957   2.572   5.117   1.358
 8020SOL     OW24958   5.947   6.369   6.376
 8020SOL    HW124959   5.923   6.374   6.279
 8020SOL    HW224960   5.888   6.302   6.422
 8021SOL     OW24961   0.811   1.155   1.142
 8021SOL    HW124962   0.813   1.093   1.063
 8021SOL    HW224963   0.813   1.250   1.109
 8022SOL     OW24964   4.069   6.010   3.325
 8022SOL    HW124965   3.976   5.982   3.348
 8022SOL    HW224966   4.133   5.943   3.362
 8023SOL     OW24967   6.267   6.508   3.429
 8023SOL    HW124968   6.247   6.483   3.334
 8023SOL    HW224969   6.363   6.493   3.448
 8024SOL     OW24970   4.553   5.498   4.597
 8024SOL    HW124971   4.593   5.528   4.684
 8024SOL    HW224972   4.460   5.466   4.613
 8025SOL     OW24973   3.648   6.072   0.189
 8025SOL    HW124974   3.645   5.995   0.253
 8025SOL    HW224975   3.740   6.111   0.188
 8026SOL     OW24976   1.778   2.399   0.723
 8026SOL    HW124977   1.713   2.452   0.669
 8026SOL    HW224978   1.800   2.314   0.675
 8027SOL     OW24979   5.305   2.890   5.624
 8027SOL    HW124980   5.237   2.901   5.552
 8027SOL    HW224981   5.268   2.833   5.697
 8028SOL     OW24982   5.610   4.833   0.006
 8028SOL    HW124983   5.632   4.907   6.963
 8028SOL    HW224984   5.694   4.783   0.029
 8029SOL     OW24985   3.353   4.761   0.786
 8029SOL    HW124986   3.418   4.761   0.861
 8029SOL    HW224987   3.261   4.776   0.821
 8030SOL     OW24988   6.199   4.117   0.107
 8030SOL    HW124989   6.198   4.097   0.009
 8030SOL    HW224990   6.111   4.093   0.147
 8031SOL     OW24991   3.800   5.876   1.581
 8031SOL    HW124992   3.775   5.952   1.521
 8031SOL    HW224993   3.822   5.796   1.525
 8032SOL     OW24994   5.524   4.549   6.212
 8032SOL    HW124995   5.602   4.590   6.165
 8032SOL    HW224996   5.555   4.489   6.285
 8033SOL     OW24997   5.965   2.797   0.194
 8033SOL    HW124998   5.948   2.761   0.285
 8033SOL    HW224999   5.880   2.836   0.157
 8034SOL     OW25000   6.075   1.438   5.472
 8034SOL    HW125001   5.980   1.467   5.483
 8034SOL    HW225002   6.119   1.432   5.561
 8035SOL     OW25003   5.463   6.616   0.352
 8035SOL    HW125004   5.364   6.603   0.359
 8035SOL    HW225005   5.482   6.690   0.286
 8036SOL     OW25006   1.913   3.845   1.436
 8036SOL    HW125007   1.894   3.796   1.521
 8036SOL    HW225008   1.968   3.926   1.456
 8037SOL     OW25009   2.065   3.095   1.254
 8037SOL    HW125010   2.152   3.046   1.242
 8037SOL    HW225011   2.083   3.185   1.293
 8038SOL     OW25012   6.744   1.862   4.322
 8038SOL    HW125013   6.810   1.876   4.248
 8038SOL    HW225014   6.764   1.925   4.397
 8039SOL     OW25015   2.405   6.498   4.250
 8039SOL    HW125016   2.339   6.432   4.215
 8039SOL    HW225017   2.420   6.481   4.348
 8040SOL     OW25018   7.007   5.358   0.776
 8040SOL    HW125019   0.003   5.370   0.678
 8040SOL    HW225020   6.929   5.297   0.789
 8041SOL     OW25021   4.326   1.904   0.426
 8041SOL    HW125022   4.371   1.944   0.506
 8041SOL    HW225023   4.236   1.868   0.453
 8042SOL     OW25024   2.609   3.326   1.324
 8042SOL    HW125025   2.596   3.409   1.379
 8042SOL    HW225026   2.652   3.255   1.380
 8043SOL     OW25027   2.375   0.159   1.796
 8043SOL    HW125028   2.410   0.251   1.812
 8043SOL    HW225029   2.419   0.120   1.716
 8044SOL     OW25030   3.365   4.133   1.948
 8044SOL    HW125031   3.328   4.040   1.933
 8044SOL    HW225032   3.411   4.136   2.037
 8045SOL     OW25033   6.471   2.846   3.246
 8045SOL    HW125034   6.504   2.842   3.152
 8045SOL    HW225035   6.483   2.756   3.289
 8046SOL     OW25036   0.032   5.015   6.056
 8046SOL    HW125037   0.127   5.041   6.043
 8046SOL    HW225038   6.994   5.073   6.000
 8047SOL     OW25039   3.889   5.785   3.684
 8047SOL    HW125040   3.937   5.864   3.645
 8047SOL    HW225041   3.824   5.816   3.753
 8048SOL     OW25042   6.591   0.449   5.664
 8048SOL    HW125043   6.668   0.513   5.670
 8048SOL    HW225044   6.625   0.359   5.636
 8049SOL     OW25045   1.624   5.251   0.601
 8049SOL    HW125046   1.674   5.336   0.581
 8049SOL    HW225047   1.652   5.180   0.537
 8050SOL     OW25048   1.285   2.800   1.390
 8050SOL    HW125049   1.255   2.804   1.486
 8050SOL    HW225050   1.382   2.778   1.387
 8051SOL     OW25051   3.997   1.428   3.379
 8051SOL    HW125052   4.092   1.403   3.360
 8051SOL    HW225053   3.938   1.350   3.361
 8052SOL     OW25054   3.166   1.940   2.904
 8052SOL    HW125055   3.226   1.865   2.931
 8052SOL    HW225056   3.221   2.021   2.882
 8053SOL     OW25057   3.823   3.261   2.249
 8053SOL    HW125058   3.800   3.347   2.294
 8053SOL    HW225059   3.836   3.190   2.318
 8054SOL     OW25060   3.902   6.240   4.897
 8054SOL    HW125061   3.978   6.269   4.839
 8054SOL    HW225062   3.937   6.198   4.980
 8055SOL     OW25063   1.451   6.873   5.409
 8055SOL    HW125064   1.537   6.870   5.358
 8055SOL    HW225065   1.410   6.964   5.402
 8056SOL     OW25066   4.345   1.674   2.860
 8056SOL    HW125067   4.293   1.752   2.896
 8056SOL    HW225068   4.287   1.622   2.796
 8057SOL     OW25069   3.730   6.307   3.802
 8057SOL    HW125070   3.800   6.271   3.865
 8057SOL    HW225071   3.763   6.393   3.763
 8058SOL     OW25072   1.709   0.729   3.217
 8058SOL    HW125073   1.731   0.643   3.171
 8058SOL    HW225074   1.674   0.710   3.308
 8059SOL     OW25075   2.600   1.605   3.911
 8059SOL    HW125076   2.526   1.668   3.888
 8059SOL    HW225077   2.585   1.568   4.003
 8060SOL     OW25078   0.781   1.372   4.976
 8060SOL    HW125079   0.712   1.382   4.905
 8060SOL    HW225080   0.822   1.461   4.996
 8061SOL     OW25081   0.059   5.513   1.341
 8061SOL    HW125082   0.018   5.438   1.291
 8061SOL    HW225083   7.018   5.543   1.414
 8062SOL     OW25084   2.105   3.830   2.589
 8062SOL    HW125085   2.111   3.834   2.688
 8062SOL    HW225086   2.102   3.735   2.559
 8063SOL     OW25087   3.009   3.021   6.894
 8063SOL    HW125088   2.921   3.049   6.858
 8063SOL    HW225089   3.017   3.049   6.989
 8064SOL     OW25090   6.495   3.338   0.156
 8064SOL    HW125091   6.493   3.300   0.064
 8064SOL    HW225092   6.401   3.345   0.191
 8065SOL     OW25093   4.407   0.064   6.432
 8065SOL    HW125094   4.505   0.049   6.446
 8065SOL    HW225095   4.361   6.996   6.423
 8066SOL     OW25096   2.226   0.453   1.608
 8066SOL    HW125097   2.158   0.461   1.681
 8066SOL    HW225098   2.211   0.525   1.540
 8067SOL     OW25099   5.269   2.471   1.709
 8067SOL    HW125100   5.336   2.403   1.680
 8067SOL    HW225101   5.205   2.489   1.634
 8068SOL     OW25102   0.913   4.331   4.244
 8068SOL    HW125103   0.957   4.394   4.180
 8068SOL    HW225104   0.817   4.357   4.256
 8069SOL     OW25105   2.161   6.440   1.888
 8069SOL    HW125106   2.214   6.416   1.969
 8069SOL    HW225107   2.108   6.523   1.907
 8070SOL     OW25108   3.892   0.275   1.927
 8070SOL    HW125109   3.951   0.213   1.875
 8070SOL    HW225110   3.837   0.222   1.992
 8071SOL     OW25111   4.093   6.357   0.255
 8071SOL    HW125112   4.176   6.356   0.311
 8071SOL    HW225113   4.066   6.452   0.238
 8072SOL     OW25114   5.181   0.630   1.778
 8072SOL    HW125115   5.105   0.694   1.771
 8072SOL    HW225116   5.146   0.537   1.781
 8073SOL     OW25117   4.129   6.278   5.613
 8073SOL    HW125118   4.065   6.266   5.537
 8073SOL    HW225119   4.092   6.344   5.678
 8074SOL     OW25120   3.237   3.724   0.011
 8074SOL    HW125121   3.144   3.735   6.997
 8074SOL    HW225122   3.298   3.704   6.955
 8075SOL     OW25123   6.066   1.435   2.848
 8075SOL    HW125124   6.075   1.342   2.883
 8075SOL    HW225125   6.060   1.433   2.748
 8076SOL     OW25126   5.619   2.953   6.569
 8076SOL    HW125127   5.581   3.038   6.606
 8076SOL    HW225128   5.707   2.934   6.613
 8077SOL     OW25129   1.316   1.026   0.468
 8077SOL    HW125130   1.217   1.020   0.453
 8077SOL    HW225131   1.340   1.117   0.500
 8078SOL     OW25132   6.146   3.413   0.443
 8078SOL    HW125133   6.153   3.471   0.524
 8078SOL    HW225134   6.165   3.318   0.469
 8079SOL     OW25135   6.742   1.579   2.046
 8079SOL    HW125136   6.820   1.636   2.019
 8079SOL    HW225137   6.759   1.539   2.135
 8080SOL     OW25138   3.755   4.917   0.562
 8080SOL    HW125139   3.721   4.862   0.486
 8080SOL    HW225140   3.683   4.925   0.632
 8081SOL     OW25141   5.779   0.545   5.514
 8081SOL    HW125142   5.723   0.592   5.583
 8081SOL    HW225143   5.781   0.447   5.535
 8082SOL     OW25144   6.448   3.204   4.209
 8082SOL    HW125145   6.511   3.231   4.283
 8082SOL    HW225146   6.470   3.255   4.126
 8083SOL     OW25147   4.976   2.697   4.179
 8083SOL    HW125148   4.941   2.642   4.103
 8083SOL    HW225149   5.066   2.663   4.206
 8084SOL     OW25150   6.488   0.197   1.189
 8084SOL    HW125151   6.418   0.126   1.201
 8084SOL    HW225152   6.577   0.154   1.176
 8085SOL     OW25153   6.394   2.176   1.338
 8085SOL    HW125154   6.455   2.236   1.390
 8085SOL    HW225155   6.356   2.107   1.400
 8086SOL     OW25156   3.288   6.645   5.645
 8086SOL    HW125157   3.227   6.572   5.675
 8086SOL    HW225158   3.238   6.732   5.646
 8087SOL     OW25159   2.960   2.980   1.437
 8087SOL    HW125160   2.995   2.890   1.461
 8087SOL    HW225161   3.035   3.046   1.437
 8088SOL     OW25162   4.349   0.776   2.876
 8088SOL    HW125163   4.369   0.769   2.778
 8088SOL    HW225164   4.264   0.827   2.889
 8089SOL     OW25165   6.000   3.074   0.953
 8089SOL    HW125166   6.081   3.019   0.969
 8089SOL    HW225167   6.004   3.156   1.011
 8090SOL     OW25168   4.763   2.239   5.102
 8090SOL    HW125169   4.691   2.251   5.171
 8090SOL    HW225170   4.743   2.297   5.024
 8091SOL     OW25171   3.031   5.182   5.908
 8091SOL    HW125172   3.099   5.255   5.910
 8091SOL    HW225173   3.028   5.142   5.816
 8092SOL     OW25174   0.641   2.047   4.111
 8092SOL    HW125175   0.598   2.032   4.200
 8092SOL    HW225176   0.571   2.052   4.041
 8093SOL     OW25177   5.893   6.217   1.257
 8093SOL    HW125178   5.803   6.200   1.295
 8093SOL    HW225179   5.946   6.132   1.257
 8094SOL     OW25180   0.803   3.762   4.494
 8094SOL    HW125181   0.726   3.755   4.557
 8094SOL    HW225182   0.889   3.749   4.543
 8095SOL     OW25183   6.147   3.693   4.325
 8095SOL    HW125184   6.220   3.631   4.355
 8095SOL    HW225185   6.060   3.643   4.323
 8096SOL     OW25186   3.755   6.506   1.522
 8096SOL    HW125187   3.770   6.523   1.424
 8096SOL    HW225188   3.720   6.588   1.565
 8097SOL     OW25189   4.543   0.989   4.747
 8097SOL    HW125190   4.594   0.921   4.695
 8097SOL    HW225191   4.594   1.075   4.748
 8098SOL     OW25192   2.830   0.034   3.676
 8098SOL    HW125193   2.738   0.063   3.651
 8098SOL    HW225194   2.896   0.100   3.641
 8099SOL     OW25195   5.521   6.640   5.193
 8099SOL    HW125196   5.514   6.691   5.279
 8099SOL    HW225197   5.434   6.594   5.174
 8100SOL     OW25198   0.967   6.905   1.157
 8100SOL    HW125199   0.939   6.999   1.172
 8100SOL    HW225200   0.906   6.862   1.091
 8101SOL     OW25201   1.211   5.625   3.007
 8101SOL    HW125202   1.197   5.690   2.932
 8101SOL    HW225203   1.223   5.533   2.970
 8102SOL     OW25204   7.000   6.592   6.199
 8102SOL    HW125205   0.036   6.528   6.249
 8102SOL    HW225206   0.036   6.643   6.134
 8103SOL     OW25207   2.567   1.866   2.365
 8103SOL    HW125208   2.562   1.879   2.266
 8103SOL    HW225209   2.518   1.940   2.411
 8104SOL     OW25210   2.144   6.379   6.027
 8104SOL    HW125211   2.067   6.334   5.981
 8104SOL    HW225212   2.228   6.331   6.004
 8105SOL     OW25213   1.515   2.434   2.385
 8105SOL    HW125214   1.573   2.511   2.413
 8105SOL    HW225215   1.497   2.440   2.287
 8106SOL     OW25216   0.388   3.689   4.405
 8106SOL    HW125217   0.354   3.771   4.450
 8106SOL    HW225218   0.413   3.621   4.474
 8107SOL     OW25219   1.857   6.038   5.989
 8107SOL    HW125220   1.857   5.972   5.914
 8107SOL    HW225221   1.795   6.006   6.061
 8108SOL     OW25222   1.971   3.190   4.514
 8108SOL    HW125223   2.001   3.221   4.604
 8108SOL    HW225224   1.889   3.240   4.488
 8109SOL     OW25225   1.113   5.008   5.400
 8109SOL    HW125226   1.195   5.064   5.386
 8109SOL    HW225227   1.128   4.948   5.479
 8110SOL     OW25228   1.814   4.476   1.080
 8110SOL    HW125229   1.779   4.566   1.055
 8110SOL    HW225230   1.765   4.405   1.030
 8111SOL     OW25231   2.617   5.641   4.270
 8111SOL    HW125232   2.706   5.600   4.252
 8111SOL    HW225233   2.558   5.574   4.314
 8112SOL     OW25234   3.546   0.797   4.585
 8112SOL    HW125235   3.641   0.806   4.616
 8112SOL    HW225236   3.495   0.741   4.650
 8113SOL     OW25237   3.478   3.180   6.161
 8113SOL    HW125238   3.379   3.168   6.175
 8113SOL    HW225239   3.524   3.174   6.250
 8114SOL     OW25240   2.819   4.043   1.264
 8114SOL    HW125241   2.825   3.983   1.344
 8114SOL    HW225242   2.868   4.002   1.187
 8115SOL     OW25243   3.836   2.005   1.164
 8115SOL    HW125244   3.846   1.931   1.097
 8115SOL    HW225245   3.919   2.011   1.220
 8116SOL     OW25246   5.652   0.881   5.552
 8116SOL    HW125247   5.670   0.812   5.622
 8116SOL    HW225248   5.728   0.945   5.548
 8117SOL     OW25249   2.518   1.854   5.467
 8117SOL    HW125250   2.561   1.780   5.517
 8117SOL    HW225251   2.561   1.863   5.377
 8118SOL     OW25252   1.446   2.944   4.632
 8118SOL    HW125253   1.355   2.953   4.673
 8118SOL    HW225254   1.479   2.851   4.647
 8119SOL     OW25255   1.097   6.000   2.086
 8119SOL    HW125256   1.124   6.096   2.076
 8119SOL    HW225257   1.138   5.945   2.013
 8120SOL     OW25258   4.060   4.299   1.457
 8120SOL    HW125259   3.988   4.294   1.526
 8120SOL    HW225260   4.103   4.209   1.446
 8121SOL     OW25261   6.623   6.716   3.009
 8121SOL    HW125262   6.613   6.640   3.072
 8121SOL    HW225263   6.598   6.687   2.916
 8122SOL     OW25264   0.430   6.203   1.474
 8122SOL    HW125265   0.351   6.151   1.507
 8122SOL    HW225266   0.471   6.254   1.549
 8123SOL     OW25267   0.506   5.536   0.450
 8123SOL    HW125268   0.506   5.496   0.358
 8123SOL    HW225269   0.555   5.475   0.512
 8124SOL     OW25270   0.569   5.996   2.453
 8124SOL    HW125271   0.486   6.036   2.492
 8124SOL    HW225272   0.646   6.013   2.513
 8125SOL     OW25273   5.588   5.403   2.910
 8125SOL    HW125274   5.529   5.325   2.932
 8125SOL    HW225275   5.617   5.396   2.815
 8126SOL     OW25276   6.155   4.721   2.126
 8126SOL    HW125277   6.056   4.711   2.132
 8126SOL    HW225278   6.178   4.776   2.046
 8127SOL     OW25279   3.146   4.526   1.121
 8127SOL    HW125280   3.068   4.582   1.149
 8127SOL    HW225281   3.224   4.544   1.182
 8128SOL     OW25282   3.874   2.636   5.584
 8128SOL    HW125283   3.900   2.574   5.510
 8128SOL    HW225284   3.935   2.715   5.584
 8129SOL     OW25285   4.874   6.545   0.424
 8129SOL    HW125286   4.810   6.488   0.374
 8129SOL    HW225287   4.885   6.633   0.377
 8130SOL     OW25288   0.938   0.108   0.628
 8130SOL    HW125289   0.873   0.150   0.691
 8130SOL    HW225290   0.892   0.085   0.542
 8131SOL     OW25291   0.649   1.234   0.093
 8131SOL    HW125292   0.662   1.219   0.191
 8131SOL    HW225293   0.690   1.157   0.042
 8132SOL     OW25294   6.048   4.874   3.067
 8132SOL    HW125295   6.136   4.894   3.110
 8132SOL    HW225296   6.049   4.907   2.973
 8133SOL     OW25297   0.667   5.769   1.648
 8133SOL    HW125298   0.604   5.841   1.674
 8133SOL    HW225299   0.761   5.798   1.665
 8134SOL     OW25300   2.118   2.437   1.682
 8134SOL    HW125301   2.158   2.398   1.599
 8134SOL    HW225302   2.168   2.520   1.707
 8135SOL     OW25303   3.833   5.952   2.343
 8135SOL    HW125304   3.853   5.892   2.421
 8135SOL    HW225305   3.781   5.900   2.275
 8136SOL     OW25306   3.368   6.007   0.923
 8136SOL    HW125307   3.321   6.088   0.888
 8136SOL    HW225308   3.444   5.984   0.862
 8137SOL     OW25309   2.777   3.989   5.480
 8137SOL    HW125310   2.701   3.978   5.415
 8137SOL    HW225311   2.745   3.969   5.573
 8138SOL     OW25312   4.923   1.020   3.927
 8138SOL    HW125313   4.928   1.040   4.025
 8138SOL    HW225314   4.856   1.080   3.884
 8139SOL     OW25315   1.682   2.691   4.312
 8139SOL    HW125316   1.735   2.607   4.305
 8139SOL    HW225317   1.587   2.669   4.335
 8140SOL     OW25318   4.173   0.252   1.183
 8140SOL    HW125319   4.113   0.266   1.261
 8140SOL    HW225320   4.268   0.246   1.214
 8141SOL     OW25321   5.968   1.000   5.339
 8141SOL    HW125322   5.969   0.902   5.359
 8141SOL    HW225323   6.062   1.033   5.329
 8142SOL     OW25324   2.417   5.429   1.487
 8142SOL    HW125325   2.341   5.427   1.552
 8142SOL    HW225326   2.402   5.503   1.421
 8143SOL     OW25327   6.104   5.067   0.869
 8143SOL    HW125328   6.062   5.153   0.841
 8143SOL    HW225329   6.036   4.994   0.868
 8144SOL     OW25330   6.836   5.173   0.448
 8144SOL    HW125331   6.817   5.171   0.350
 8144SOL    HW225332   6.925   5.215   0.465
 8145SOL     OW25333   5.288   5.570   6.949
 8145SOL    HW125334   5.275   5.516   0.012
 8145SOL    HW225335   5.381   5.558   6.915
 8146SOL     OW25336   6.030   0.481   4.830
 8146SOL    HW125337   6.043   0.558   4.893
 8146SOL    HW225338   6.101   0.483   4.759
 8147SOL     OW25339   1.916   0.867   6.427
 8147SOL    HW125340   1.954   0.894   6.515
 8147SOL    HW225341   1.965   0.786   6.394
 8148SOL     OW25342   4.611   4.627   0.529
 8148SOL    HW125343   4.558   4.696   0.578
 8148SOL    HW225344   4.576   4.618   0.435
 8149SOL     OW25345   0.689   0.050   5.036
 8149SOL    HW125346   0.762   0.094   4.984
 8149SOL    HW225347   0.695   6.971   5.025
 8150SOL     OW25348   0.243   3.917   0.894
 8150SOL    HW125349   0.326   3.879   0.854
 8150SOL    HW225350   0.242   4.017   0.881
 8151SOL     OW25351   6.369   6.262   3.150
 8151SOL    HW125352   6.304   6.338   3.157
 8151SOL    HW225353   6.328   6.187   3.099
 8152SOL     OW25354   4.863   1.439   3.128
 8152SOL    HW125355   4.835   1.375   3.056
 8152SOL    HW225356   4.789   1.502   3.148
 8153SOL     OW25357   0.529   1.487   1.959
 8153SOL    HW125358   0.511   1.578   1.996
 8153SOL    HW225359   0.564   1.428   2.031
 8154SOL     OW25360   2.005   0.494   2.893
 8154SOL    HW125361   2.101   0.520   2.891
 8154SOL    HW225362   1.973   0.479   2.799
 8155SOL     OW25363   1.672   5.360   3.304
 8155SOL    HW125364   1.618   5.429   3.352
 8155SOL    HW225365   1.651   5.363   3.206
 8156SOL     OW25366   0.598   4.560   0.952
 8156SOL    HW125367   0.676   4.544   1.013
 8156SOL    HW225368   0.514   4.529   0.996
 8157SOL     OW25369   6.764   4.078   4.964
 8157SOL    HW125370   6.849   4.126   4.989
 8157SOL    HW225371   6.686   4.137   4.983
 8158SOL     OW25372   6.128   5.801   6.742
 8158SOL    HW125373   6.059   5.826   6.810
 8158SOL    HW225374   6.152   5.704   6.752
 8159SOL     OW25375   3.134   6.816   5.086
 8159SOL    HW125376   3.156   6.775   4.998
 8159SOL    HW225377   3.090   6.747   5.144
 8160SOL     OW25378   5.631   1.187   2.017
 8160SOL    HW125379   5.711   1.161   2.071
 8160SOL    HW225380   5.580   1.106   1.991
 8161SOL     OW25381   5.923   3.486   1.749
 8161SOL    HW125382   5.838   3.484   1.696
 8161SOL    HW225383   5.935   3.398   1.795
 8162SOL     OW25384   0.085   5.400   5.712
 8162SOL    HW125385   0.104   5.499   5.715
 8162SOL    HW225386   7.008   5.385   5.721
 8163SOL     OW25387   4.180   4.487   5.459
 8163SOL    HW125388   4.138   4.513   5.546
 8163SOL    HW225389   4.149   4.395   5.434
 8164SOL     OW25390   5.469   1.929   1.131
 8164SOL    HW125391   5.530   1.993   1.084
 8164SOL    HW225392   5.494   1.835   1.107
 8165SOL     OW25393   0.224   1.157   0.149
 8165SOL    HW125394   0.238   1.256   0.143
 8165SOL    HW225395   0.172   1.136   0.232
 8166SOL     OW25396   1.640   1.784   5.442
 8166SOL    HW125397   1.566   1.781   5.376
 8166SOL    HW225398   1.695   1.867   5.428
 8167SOL     OW25399   1.895   3.397   4.152
 8167SOL    HW125400   1.935   3.484   4.124
 8167SOL    HW225401   1.960   3.345   4.207
 8168SOL     OW25402   1.458   0.597   2.398
 8168SOL    HW125403   1.502   0.687   2.397
 8168SOL    HW225404   1.463   0.557   2.306
 8169SOL     OW25405   4.964   3.035   0.270
 8169SOL    HW125406   4.989   3.119   0.222
 8169SOL    HW225407   4.914   3.058   0.353
 8170SOL     OW25408   6.889   4.912   2.294
 8170SOL    HW125409   6.871   5.008   2.316
 8170SOL    HW225410   6.853   4.854   2.368
 8171SOL     OW25411   2.580   1.296   0.306
 8171SOL    HW125412   2.592   1.373   0.370
 8171SOL    HW225413   2.484   1.267   0.309
 8172SOL     OW25414   1.178   2.590   0.506
 8172SOL    HW125415   1.192   2.672   0.450
 8172SOL    HW225416   1.083   2.588   0.539
 8173SOL     OW25417   5.773   1.053   1.713
 8173SOL    HW125418   5.720   1.137   1.702
 8173SOL    HW225419   5.729   0.980   1.661
 8174SOL     OW25420   2.856   5.835   3.121
 8174SOL    HW125421   2.899   5.757   3.076
 8174SOL    HW225422   2.786   5.874   3.061
 8175SOL     OW25423   0.207   1.532   5.592
 8175SOL    HW125424   0.168   1.441   5.604
 8175SOL    HW225425   0.195   1.585   5.676
 8176SOL     OW25426   2.222   4.536   0.512
 8176SOL    HW125427   2.162   4.488   0.577
 8176SOL    HW225428   2.180   4.621   0.484
 8177SOL     OW25429   3.237   1.001   4.138
 8177SOL    HW125430   3.145   0.973   4.166
 8177SOL    HW225431   3.285   0.923   4.098
 8178SOL     OW25432   3.097   6.721   1.647
 8178SOL    HW125433   3.170   6.788   1.632
 8178SOL    HW225434   3.077   6.717   1.745
 8179SOL     OW25435   5.490   0.898   3.429
 8179SOL    HW125436   5.541   0.812   3.427
 8179SOL    HW225437   5.531   0.960   3.495
 8180SOL     OW25438   4.873   6.130   0.335
 8180SOL    HW125439   4.820   6.207   0.370
 8180SOL    HW225440   4.833   6.045   0.370
 8181SOL     OW25441   0.050   0.283   0.238
 8181SOL    HW125442   0.026   0.317   0.329
 8181SOL    HW225443   6.988   0.270   0.184
 8182SOL     OW25444   2.882   3.682   4.476
 8182SOL    HW125445   2.873   3.640   4.567
 8182SOL    HW225446   2.889   3.610   4.407
 8183SOL     OW25447   7.005   0.620   5.426
 8183SOL    HW125448   0.068   0.671   5.402
 8183SOL    HW225449   0.008   0.549   5.493
 8184SOL     OW25450   0.463   5.736   6.882
 8184SOL    HW125451   0.478   5.787   6.967
 8184SOL    HW225452   0.410   5.791   6.818
 8185SOL     OW25453   0.872   6.390   6.190
 8185SOL    HW125454   0.959   6.345   6.171
 8185SOL    HW225455   0.829   6.416   6.103
 8186SOL     OW25456   1.898   5.319   6.411
 8186SOL    HW125457   1.881   5.303   6.314
 8186SOL    HW225458   1.993   5.294   6.432
 8187SOL     OW25459   0.796   0.774   5.715
 8187SOL    HW125460   0.781   0.859   5.664
 8187SOL    HW225461   0.714   0.718   5.711
 8188SOL     OW25462   1.938   2.909   3.039
 8188SOL    HW125463   1.896   2.989   3.083
 8188SOL    HW225464   2.031   2.932   3.010
 8189SOL     OW25465   5.607   5.208   3.775
 8189SOL    HW125466   5.598   5.110   3.793
 8189SOL    HW225467   5.673   5.222   3.700
 8190SOL     OW25468   0.067   4.202   2.638
 8190SOL    HW125469   0.145   4.256   2.606
 8190SOL    HW225470   0.091   4.105   2.637
 8191SOL     OW25471   4.015   5.336   0.648
 8191SOL    HW125472   4.081   5.304   0.717
 8191SOL    HW225473   3.982   5.259   0.595
 8192SOL     OW25474   0.284   6.095   3.805
 8192SOL    HW125475   0.381   6.076   3.790
 8192SOL    HW225476   0.248   6.032   3.875
 8193SOL     OW25477   0.617   4.822   4.389
 8193SOL    HW125478   0.700   4.796   4.341
 8193SOL    HW225479   0.538   4.807   4.330
 8194SOL     OW25480   4.710   6.814   1.975
 8194SOL    HW125481   4.656   6.833   1.893
 8194SOL    HW225482   4.678   6.872   2.050
 8195SOL     OW25483   6.123   6.424   3.198
 8195SOL    HW125484   6.113   6.375   3.111
 8195SOL    HW225485   6.067   6.508   3.195
 8196SOL     OW25486   5.099   1.164   1.485
 8196SOL    HW125487   5.090   1.217   1.401
 8196SOL    HW225488   5.166   1.208   1.545
 8197SOL     OW25489   3.878   1.785   2.715
 8197SOL    HW125490   3.924   1.805   2.801
 8197SOL    HW225491   3.795   1.733   2.732
 8198SOL     OW25492   1.667   6.929   1.680
 8198SOL    HW125493   1.704   6.902   1.769
 8198SOL    HW225494   1.668   0.008   1.672
 8199SOL     OW25495   5.708   2.834   0.117
 8199SOL    HW125496   5.719   2.879   0.028
 8199SOL    HW225497   5.632   2.769   0.112
 8200SOL     OW25498   4.370   3.185   0.509
 8200SOL    HW125499   4.324   3.097   0.493
 8200SOL    HW225500   4.405   3.188   0.602
 8201SOL     OW25501   5.732   0.095   5.094
 8201SOL    HW125502   5.709   0.190   5.072
 8201SOL    HW225503   5.795   0.060   5.025
 8202SOL     OW25504   0.879   6.812   2.001
 8202SOL    HW125505   0.912   6.729   2.046
 8202SOL    HW225506   0.801   6.849   2.052
 8203SOL     OW25507   1.413   3.246   1.718
 8203SOL    HW125508   1.494   3.199   1.754
 8203SOL    HW225509   1.420   3.253   1.618
 8204SOL     OW25510   3.249   2.801   1.383
 8204SOL    HW125511   3.286   2.857   1.457
 8204SOL    HW225512   3.320   2.782   1.316
 8205SOL     OW25513   1.111   3.530   0.047
 8205SOL    HW125514   1.131   3.570   0.136
 8205SOL    HW225515   1.186   3.549   7.004
 8206SOL     OW25516   3.308   0.520   0.390
 8206SOL    HW125517   3.378   0.573   0.438
 8206SOL    HW225518   3.320   0.423   0.411
 8207SOL     OW25519   4.064   3.837   4.897
 8207SOL    HW125520   4.122   3.763   4.863
 8207SOL    HW225521   3.977   3.836   4.848
 8208SOL     OW25522   2.364   0.947   0.194
 8208SOL    HW125523   2.414   0.915   0.275
 8208SOL    HW225524   2.279   0.894   0.185
 8209SOL     OW25525   6.178   1.736   4.730
 8209SOL    HW125526   6.084   1.706   4.739
 8209SOL    HW225527   6.180   1.834   4.708
 8210SOL     OW25528   2.181   2.172   6.621
 8210SOL    HW125529   2.140   2.164   6.531
 8210SOL    HW225530   2.179   2.268   6.651
 8211SOL     OW25531   3.402   4.376   1.463
 8211SOL    HW125532   3.454   4.291   1.458
 8211SOL    HW225533   3.446   4.437   1.529
 8212SOL     OW25534   1.863   2.914   3.485
 8212SOL    HW125535   1.900   2.861   3.409
 8212SOL    HW225536   1.772   2.881   3.507
 8213SOL     OW25537   6.615   5.174   1.233
 8213SOL    HW125538   6.621   5.128   1.144
 8213SOL    HW225539   6.634   5.108   1.306
 8214SOL     OW25540   5.775   4.036   3.864
 8214SOL    HW125541   5.836   3.963   3.896
 8214SOL    HW225542   5.828   4.117   3.843
 8215SOL     OW25543   3.597   5.320   3.552
 8215SOL    HW125544   3.521   5.374   3.514
 8215SOL    HW225545   3.579   5.299   3.648
 8216SOL     OW25546   5.604   3.730   3.806
 8216SOL    HW125547   5.635   3.824   3.820
 8216SOL    HW225548   5.513   3.719   3.846
 8217SOL     OW25549   2.147   6.051   0.053
 8217SOL    HW125550   2.238   6.068   0.091
 8217SOL    HW225551   2.101   6.138   0.036
 8218SOL     OW25552   6.716   2.301   6.708
 8218SOL    HW125553   6.779   2.291   6.785
 8218SOL    HW225554   6.768   2.302   6.622
 8219SOL     OW25555   5.891   1.784   0.320
 8219SOL    HW125556   5.884   1.881   0.294
 8219SOL    HW225557   5.922   1.731   0.241
 8220SOL     OW25558   3.831   3.574   2.203
 8220SOL    HW125559   3.927   3.601   2.199
 8220SOL    HW225560   3.814   3.504   2.134
 8221SOL     OW25561   5.386   6.186   3.528
 8221SOL    HW125562   5.345   6.229   3.448
 8221SOL    HW225563   5.314   6.148   3.587
 8222SOL     OW25564   5.832   2.062   1.165
 8222SOL    HW125565   5.882   1.977   1.150
 8222SOL    HW225566   5.841   2.120   1.084
 8223SOL     OW25567   0.606   5.072   5.948
 8223SOL    HW125568   0.622   4.974   5.939
 8223SOL    HW225569   0.632   5.103   6.039
 8224SOL     OW25570   1.316   3.158   4.127
 8224SOL    HW125571   1.301   3.121   4.219
 8224SOL    HW225572   1.368   3.243   4.134
 8225SOL     OW25573   4.889   1.511   0.257
 8225SOL    HW125574   4.911   1.581   0.189
 8225SOL    HW225575   4.953   1.518   0.334
 8226SOL     OW25576   5.031   0.921   0.893
 8226SOL    HW125577   5.037   0.822   0.879
 8226SOL    HW225578   4.938   0.951   0.872
 8227SOL     OW25579   6.726   3.284   3.338
 8227SOL    HW125580   6.746   3.237   3.424
 8227SOL    HW225581   6.636   3.256   3.304
 8228SOL     OW25582   6.700   2.759   5.118
 8228SOL    HW125583   6.629   2.818   5.079
 8228SOL    HW225584   6.679   2.664   5.098
 8229SOL     OW25585   3.429   4.900   0.553
 8229SOL    HW125586   3.418   4.862   0.645
 8229SOL    HW225587   3.378   4.986   0.547
 8230SOL     OW25588   4.952   6.969   3.942
 8230SOL    HW125589   5.012   0.019   3.980
 8230SOL    HW225590   4.922   6.996   3.850
 8231SOL     OW25591   4.674   6.188   0.966
 8231SOL    HW125592   4.673   6.117   1.036
 8231SOL    HW225593   4.644   6.150   0.879
 8232SOL     OW25594   2.929   2.501   6.124
 8232SOL    HW125595   2.897   2.406   6.130
 8232SOL    HW225596   3.020   2.508   6.163
 8233SOL     OW25597   0.268   5.413   0.222
 8233SOL    HW125598   0.337   5.456   0.165
 8233SOL    HW225599   0.263   5.315   0.200
 8234SOL     OW25600   3.575   1.946   7.020
 8234SOL    HW125601   3.502   2.005   0.034
 8234SOL    HW225602   3.661   1.968   0.045
 8235SOL     OW25603   4.704   3.046   0.801
 8235SOL    HW125604   4.770   3.107   0.844
 8235SOL    HW225605   4.624   3.037   0.861
 8236SOL     OW25606   6.011   3.371   0.723
 8236SOL    HW125607   6.100   3.415   0.714
 8236SOL    HW225608   6.022   3.272   0.722
 8237SOL     OW25609   4.332   6.094   5.670
 8237SOL    HW125610   4.280   6.172   5.636
 8237SOL    HW225611   4.397   6.065   5.600
 8238SOL     OW25612   2.069   1.809   6.460
 8238SOL    HW125613   2.029   1.718   6.461
 8238SOL    HW225614   1.998   1.877   6.440
 8239SOL     OW25615   0.322   1.961   6.099
 8239SOL    HW125616   0.266   2.041   6.077
 8239SOL    HW225617   0.274   1.905   6.167
 8240SOL     OW25618   3.934   3.874   3.902
 8240SOL    HW125619   3.947   3.878   3.803
 8240SOL    HW225620   4.021   3.852   3.946
 8241SOL     OW25621   3.780   6.753   0.580
 8241SOL    HW125622   3.833   6.703   0.512
 8241SOL    HW225623   3.757   6.692   0.657
 8242SOL     OW25624   0.845   4.249   5.560
 8242SOL    HW125625   0.851   4.343   5.525
 8242SOL    HW225626   0.930   4.226   5.607
 8243SOL     OW25627   0.850   3.615   4.835
 8243SOL    HW125628   0.796   3.538   4.800
 8243SOL    HW225629   0.900   3.586   4.916
 8244SOL     OW25630   0.489   6.533   4.414
 8244SOL    HW125631   0.404   6.549   4.464
 8244SOL    HW225632   0.481   6.571   4.322
 8245SOL     OW25633   3.584   3.076   0.765
 8245SOL    HW125634   3.537   3.003   0.715
 8245SOL    HW225635   3.536   3.163   0.751
 8246SOL     OW25636   5.384   3.769   5.890
 8246SOL    HW125637   5.322   3.729   5.823
 8246SOL    HW225638   5.407   3.700   5.959
 8247SOL     OW25639   0.772   0.231   1.352
 8247SOL    HW125640   0.842   0.198   1.415
 8247SOL    HW225641   0.805   0.221   1.258
 8248SOL     OW25642   6.117   4.211   3.482
 8248SOL    HW125643   6.182   4.201   3.406
 8248SOL    HW225644   6.104   4.308   3.502
 8249SOL     OW25645   1.907   4.997   3.571
 8249SOL    HW125646   1.926   4.998   3.669
 8249SOL    HW225647   1.850   5.076   3.547
 8250SOL     OW25648   4.168   3.485   2.262
 8250SOL    HW125649   4.116   3.415   2.310
 8250SOL    HW225650   4.247   3.443   2.217
 8251SOL     OW25651   5.756   1.858   4.730
 8251SOL    HW125652   5.792   1.940   4.684
 8251SOL    HW225653   5.682   1.884   4.792
 8252SOL     OW25654   1.860   3.213   4.966
 8252SOL    HW125655   1.829   3.255   4.880
 8252SOL    HW225656   1.947   3.167   4.951
 8253SOL     OW25657   3.128   3.301   5.490
 8253SOL    HW125658   3.135   3.325   5.394
 8253SOL    HW225659   3.199   3.349   5.542
 8254SOL     OW25660   3.804   5.483   3.448
 8254SOL    HW125661   3.747   5.404   3.467
 8254SOL    HW225662   3.748   5.566   3.453
 8255SOL     OW25663   4.619   5.429   3.512
 8255SOL    HW125664   4.708   5.471   3.523
 8255SOL    HW225665   4.550   5.482   3.560
 8256SOL     OW25666   6.879   1.635   4.430
 8256SOL    HW125667   6.972   1.642   4.394
 8256SOL    HW225668   6.826   1.715   4.401
 8257SOL     OW25669   6.538   4.457   3.823
 8257SOL    HW125670   6.466   4.489   3.762
 8257SOL    HW225671   6.505   4.377   3.874
 8258SOL     OW25672   4.440   1.321   6.875
 8258SOL    HW125673   4.394   1.277   6.952
 8258SOL    HW225674   4.460   1.417   6.898
 8259SOL     OW25675   3.876   1.910   1.891
 8259SOL    HW125676   3.826   1.928   1.807
 8259SOL    HW225677   3.915   1.995   1.926
 8260SOL     OW25678   2.334   5.861   0.408
 8260SOL    HW125679   2.285   5.798   0.347
 8260SOL    HW225680   2.282   5.872   0.493
 8261SOL     OW25681   5.670   1.602   1.832
 8261SOL    HW125682   5.700   1.559   1.917
 8261SOL    HW225683   5.598   1.547   1.790
 8262SOL     OW25684   1.004   2.239   1.211
 8262SOL    HW125685   1.039   2.204   1.299
 8262SOL    HW225686   0.949   2.320   1.228
 8263SOL     OW25687   6.545   1.512   0.632
 8263SOL    HW125688   6.607   1.493   0.708
 8263SOL    HW225689   6.467   1.565   0.665
 8264SOL     OW25690   1.913   4.960   3.108
 8264SOL    HW125691   2.008   4.931   3.096
 8264SOL    HW225692   1.859   4.885   3.146
 8265SOL     OW25693   1.869   0.857   1.861
 8265SOL    HW125694   1.884   0.942   1.912
 8265SOL    HW225695   1.772   0.847   1.841
 8266SOL     OW25696   3.202   0.182   2.825
 8266SOL    HW125697   3.157   0.101   2.864
 8266SOL    HW225698   3.186   0.184   2.727
 8267SOL     OW25699   0.450   3.298   1.084
 8267SOL    HW125700   0.392   3.255   1.015
 8267SOL    HW225701   0.437   3.252   1.172
 8268SOL     OW25702   2.722   6.835   5.292
 8268SOL    HW125703   2.764   6.913   5.245
 8268SOL    HW225704   2.790   6.790   5.350
 8269SOL     OW25705   5.661   2.073   0.938
 8269SOL    HW125706   5.586   2.110   0.885
 8269SOL    HW225707   5.740   2.135   0.933
 8270SOL     OW25708   4.030   6.038   3.616
 8270SOL    HW125709   3.978   6.099   3.557
 8270SOL    HW225710   4.077   6.091   3.686
 8271SOL     OW25711   0.152   1.609   2.599
 8271SOL    HW125712   0.160   1.707   2.580
 8271SOL    HW225713   0.229   1.580   2.656
 8272SOL     OW25714   3.581   1.342   3.418
 8272SOL    HW125715   3.542   1.400   3.489
 8272SOL    HW225716   3.595   1.396   3.335
 8273SOL     OW25717   2.397   6.232   0.854
 8273SOL    HW125718   2.478   6.269   0.901
 8273SOL    HW225719   2.394   6.269   0.761
 8274SOL     OW25720   4.949   5.131   3.045
 8274SOL    HW125721   4.992   5.159   2.959
 8274SOL    HW225722   5.013   5.077   3.099
 8275SOL     OW25723   4.969   2.228   5.798
 8275SOL    HW125724   4.964   2.236   5.699
 8275SOL    HW225725   5.057   2.266   5.830
 8276SOL     OW25726   0.991   1.845   3.778
 8276SOL    HW125727   1.063   1.823   3.843
 8276SOL    HW225728   0.963   1.762   3.730
 8277SOL     OW25729   6.389   0.325   6.596
 8277SOL    HW125730   6.382   0.342   6.695
 8277SOL    HW225731   6.375   0.227   6.579
 8278SOL     OW25732   2.281   2.420   0.624
 8278SOL    HW125733   2.238   2.343   0.575
 8278SOL    HW225734   2.367   2.443   0.579
 8279SOL     OW25735   6.963   6.074   4.086
 8279SOL    HW125736   6.993   5.981   4.066
 8279SOL    HW225737   6.907   6.108   4.010
 8280SOL     OW25738   3.076   2.900   5.709
 8280SOL    HW125739   3.102   2.815   5.755
 8280SOL    HW225740   3.022   2.879   5.628
 8281SOL     OW25741   6.849   5.603   1.488
 8281SOL    HW125742   6.842   5.621   1.586
 8281SOL    HW225743   6.826   5.507   1.470
 8282SOL     OW25744   5.066   2.250   5.250
 8282SOL    HW125745   5.111   2.167   5.218
 8282SOL    HW225746   4.999   2.226   5.320
 8283SOL     OW25747   1.845   4.210   5.794
 8283SOL    HW125748   1.818   4.188   5.700
 8283SOL    HW225749   1.942   4.191   5.805
 8284SOL     OW25750   6.985   4.653   2.212
 8284SOL    HW125751   7.001   4.610   2.301
 8284SOL    HW225752   7.009   4.750   2.217
 8285SOL     OW25753   3.532   3.473   5.323
 8285SOL    HW125754   3.623   3.463   5.364
 8285SOL    HW225755   3.490   3.558   5.355
 8286SOL     OW25756   6.456   2.123   5.760
 8286SOL    HW125757   6.433   2.031   5.727
 8286SOL    HW225758   6.380   2.185   5.742
 8287SOL     OW25759   1.834   5.273   4.646
 8287SOL    HW125760   1.931   5.265   4.670
 8287SOL    HW225761   1.822   5.352   4.585
 8288SOL     OW25762   2.664   2.477   3.357
 8288SOL    HW125763   2.711   2.542   3.417
 8288SOL    HW225764   2.597   2.425   3.411
 8289SOL     OW25765   0.404   6.258   6.933
 8289SOL    HW125766   0.500   6.285   6.926
 8289SOL    HW225767   0.380   6.244   0.009
 8290SOL     OW25768   6.678   2.622   0.961
 8290SOL    HW125769   6.754   2.664   1.010
 8290SOL    HW225770   6.622   2.569   1.025
 8291SOL     OW25771   4.578   0.479   0.123
 8291SOL    HW125772   4.584   0.407   0.192
 8291SOL    HW225773   4.566   0.568   0.168
 8292SOL     OW25774   2.960   6.665   6.675
 8292SOL    HW125775   2.899   6.696   6.602
 8292SOL    HW225776   2.927   6.578   6.711
 8293SOL     OW25777   5.607   5.968   5.990
 8293SOL    HW125778   5.638   5.997   6.081
 8293SOL    HW225779   5.630   5.872   5.976
 8294SOL     OW25780   5.518   2.314   0.007
 8294SOL    HW125781   5.472   2.358   0.085
 8294SOL    HW225782   5.452   2.257   6.978
 8295SOL     OW25783   4.793   4.075   0.897
 8295SOL    HW125784   4.759   4.056   0.989
 8295SOL    HW225785   4.716   4.080   0.833
 8296SOL     OW25786   1.726   5.362   6.826
 8296SOL    HW125787   1.704   5.273   6.866
 8296SOL    HW225788   1.820   5.360   6.790
 8297SOL     OW25789   0.214   2.913   2.995
 8297SOL    HW125790   0.167   2.903   2.908
 8297SOL    HW225791   0.203   2.830   3.049
 8298SOL     OW25792   4.843   0.671   1.573
 8298SOL    HW125793   4.906   0.738   1.614
 8298SOL    HW225794   4.843   0.683   1.474
 8299SOL     OW25795   6.118   2.179   1.676
 8299SOL    HW125796   6.072   2.161   1.590
 8299SOL    HW225797   6.200   2.122   1.683
 8300SOL     OW25798   0.463   4.880   3.592
 8300SOL    HW125799   0.432   4.788   3.570
 8300SOL    HW225800   0.545   4.875   3.649
 8301SOL     OW25801   3.613   2.867   6.872
 8301SOL    HW125802   3.534   2.927   6.868
 8301SOL    HW225803   3.621   2.816   6.786
 8302SOL     OW25804   5.714   6.305   6.661
 8302SOL    HW125805   5.715   6.244   6.581
 8302SOL    HW225806   5.691   6.252   6.743
 8303SOL     OW25807   0.512   0.223   4.891
 8303SOL    HW125808   0.523   0.151   4.959
 8303SOL    HW225809   0.558   0.306   4.922
 8304SOL     OW25810   1.282   3.630   6.799
 8304SOL    HW125811   1.239   3.685   6.871
 8304SOL    HW225812   1.247   3.660   6.710
 8305SOL     OW25813   3.528   5.559   3.119
 8305SOL    HW125814   3.500   5.547   3.215
 8305SOL    HW225815   3.594   5.488   3.095
 8306SOL     OW25816   0.974   3.116   4.229
 8306SOL    HW125817   1.000   3.144   4.136
 8306SOL    HW225818   1.056   3.112   4.287
 8307SOL     OW25819   4.188   5.633   0.971
 8307SOL    HW125820   4.197   5.587   1.059
 8307SOL    HW225821   4.103   5.605   0.927
 8308SOL     OW25822   3.655   6.650   2.423
 8308SOL    HW125823   3.738   6.628   2.475
 8308SOL    HW225824   3.678   6.715   2.350
 8309SOL     OW25825   5.518   5.859   1.809
 8309SOL    HW125826   5.440   5.919   1.826
 8309SOL    HW225827   5.524   5.792   1.884
 8310SOL     OW25828   7.016   4.379   0.544
 8310SOL    HW125829   6.959   4.446   0.496
 8310SOL    HW225830   7.011   4.396   0.642
 8311SOL     OW25831   6.404   0.704   0.145
 8311SOL    HW125832   6.470   0.699   0.070
 8311SOL    HW225833   6.453   0.725   0.230
 8312SOL     OW25834   5.667   6.789   1.798
 8312SOL    HW125835   5.689   6.696   1.828
 8312SOL    HW225836   5.749   6.846   1.804
 8313SOL     OW25837   3.686   1.509   2.380
 8313SOL    HW125838   3.762   1.563   2.418
 8313SOL    HW225839   3.667   1.432   2.441
 8314SOL     OW25840   6.400   0.563   2.656
 8314SOL    HW125841   6.378   0.525   2.746
 8314SOL    HW225842   6.351   0.649   2.644
 8315SOL     OW25843   4.811   3.985   6.932
 8315SOL    HW125844   4.844   3.928   6.857
 8315SOL    HW225845   4.743   4.049   6.898
 8316SOL     OW25846   1.635   3.861   6.768
 8316SOL    HW125847   1.542   3.852   6.733
 8316SOL    HW225848   1.700   3.848   6.694
 8317SOL     OW25849   2.525   4.567   1.812
 8317SOL    HW125850   2.532   4.470   1.786
 8317SOL    HW225851   2.596   4.619   1.765
 8318SOL     OW25852   3.798   1.795   5.243
 8318SOL    HW125853   3.843   1.824   5.328
 8318SOL    HW225854   3.795   1.872   5.179
 8319SOL     OW25855   3.640   1.600   5.239
 8319SOL    HW125856   3.635   1.583   5.338
 8319SOL    HW225857   3.705   1.673   5.221
 8320SOL     OW25858   3.129   4.392   1.445
 8320SOL    HW125859   3.219   4.359   1.471
 8320SOL    HW225860   3.085   4.325   1.385
 8321SOL     OW25861   0.764   0.513   1.389
 8321SOL    HW125862   0.732   0.522   1.483
 8321SOL    HW225863   0.754   0.417   1.360
 8322SOL     OW25864   6.479   6.707   6.978
 8322SOL    HW125865   6.480   6.799   6.940
 8322SOL    HW225866   6.571   6.669   6.977
 8323SOL     OW25867   1.007   1.867   2.151
 8323SOL    HW125868   0.955   1.828   2.075
 8323SOL    HW225869   1.069   1.938   2.117
 8324SOL     OW25870   6.260   0.998   2.210
 8324SOL    HW125871   6.341   0.949   2.179
 8324SOL    HW225872   6.211   0.943   2.278
 8325SOL     OW25873   3.240   2.963   3.927
 8325SOL    HW125874   3.311   3.030   3.946
 8325SOL    HW225875   3.253   2.925   3.835
 8326SOL     OW25876   3.979   3.343   6.131
 8326SOL    HW125877   3.983   3.332   6.032
 8326SOL    HW225878   4.010   3.435   6.155
 8327SOL     OW25879   5.240   2.283   5.843
 8327SOL    HW125880   5.240   2.341   5.925
 8327SOL    HW225881   5.266   2.338   5.764
 8328SOL     OW25882   2.221   2.162   5.681
 8328SOL    HW125883   2.306   2.146   5.730
 8328SOL    HW225884   2.216   2.258   5.652
 8329SOL     OW25885   6.881   3.159   5.518
 8329SOL    HW125886   6.967   3.158   5.568
 8329SOL    HW225887   6.865   3.070   5.476
 8330SOL     OW25888   2.331   6.458   0.505
 8330SOL    HW125889   2.349   6.481   0.601
 8330SOL    HW225890   2.246   6.502   0.476
 8331SOL     OW25891   2.567   6.766   0.968
 8331SOL    HW125892   2.587   6.772   1.066
 8331SOL    HW225893   2.637   6.815   0.917
 8332SOL     OW25894   4.960   5.070   2.380
 8332SOL    HW125895   4.979   5.093   2.284
 8332SOL    HW225896   4.862   5.064   2.394
 8333SOL     OW25897   0.620   5.473   6.892
 8333SOL    HW125898   0.563   5.398   6.859
 8333SOL    HW225899   0.567   5.558   6.892
 8334SOL     OW25900   5.969   2.042   3.622
 8334SOL    HW125901   6.055   2.049   3.571
 8334SOL    HW225902   5.914   2.124   3.605
 8335SOL     OW25903   5.728   6.691   6.077
 8335SOL    HW125904   5.736   6.769   6.015
 8335SOL    HW225905   5.758   6.608   6.030
 8336SOL     OW25906   0.382   1.744   2.014
 8336SOL    HW125907   0.335   1.739   2.102
 8336SOL    HW225908   0.477   1.771   2.028
 8337SOL     OW25909   0.727   6.377   2.838
 8337SOL    HW125910   0.720   6.477   2.830
 8337SOL    HW225911   0.648   6.343   2.889
 8338SOL     OW25912   1.642   4.629   1.536
 8338SOL    HW125913   1.726   4.680   1.553
 8338SOL    HW225914   1.664   4.540   1.497
 8339SOL     OW25915   5.251   1.687   2.527
 8339SOL    HW125916   5.345   1.701   2.559
 8339SOL    HW225917   5.219   1.770   2.481
 8340SOL     OW25918   5.101   3.954   0.523
 8340SOL    HW125919   5.146   4.007   0.595
 8340SOL    HW225920   5.160   3.950   0.443
 8341SOL     OW25921   2.865   6.222   1.195
 8341SOL    HW125922   2.858   6.318   1.223
 8341SOL    HW225923   2.788   6.171   1.233
 8342SOL     OW25924   3.992   0.823   0.816
 8342SOL    HW125925   4.017   0.761   0.742
 8342SOL    HW225926   4.047   0.803   0.897
 8343SOL     OW25927   1.485   5.306   6.123
 8343SOL    HW125928   1.527   5.219   6.097
 8343SOL    HW225929   1.523   5.379   6.066
 8344SOL     OW25930   4.443   6.170   5.930
 8344SOL    HW125931   4.387   6.153   5.849
 8344SOL    HW225932   4.533   6.128   5.918
 8345SOL     OW25933   5.996   1.159   2.983
 8345SOL    HW125934   6.065   1.097   3.019
 8345SOL    HW225935   5.975   1.134   2.889
 8346SOL     OW25936   3.320   5.378   1.167
 8346SOL    HW125937   3.305   5.477   1.157
 8346SOL    HW225938   3.325   5.336   1.076
 8347SOL     OW25939   3.502   6.528   5.570
 8347SOL    HW125940   3.582   6.563   5.618
 8347SOL    HW225941   3.420   6.570   5.607
 8348SOL     OW25942   1.162   0.781   0.291
 8348SOL    HW125943   1.111   0.796   0.376
 8348SOL    HW225944   1.258   0.807   0.306
 8349SOL     OW25945   5.534   4.758   1.594
 8349SOL    HW125946   5.529   4.658   1.596
 8349SOL    HW225947   5.609   4.785   1.534
 8350SOL     OW25948   6.091   1.081   4.837
 8350SOL    HW125949   6.123   0.992   4.871
 8350SOL    HW225950   6.090   1.080   4.737
 8351SOL     OW25951   3.760   6.128   3.504
 8351SOL    HW125952   3.697   6.068   3.553
 8351SOL    HW225953   3.768   6.215   3.554
 8352SOL     OW25954   6.862   6.421   2.316
 8352SOL    HW125955   6.907   6.503   2.281
 8352SOL    HW225956   6.780   6.446   2.367
 8353SOL     OW25957   0.526   3.499   2.312
 8353SOL    HW125958   0.496   3.534   2.401
 8353SOL    HW225959   0.447   3.496   2.250
 8354SOL     OW25960   2.394   1.149   6.768
 8354SOL    HW125961   2.440   1.218   6.712
 8354SOL    HW225962   2.449   1.131   6.850
 8355SOL     OW25963   3.444   0.622   0.090
 8355SOL    HW125964   3.510   0.574   0.033
 8355SOL    HW225965   3.379   0.556   0.129
 8356SOL     OW25966   2.473   5.816   0.006
 8356SOL    HW125967   2.495   5.890   0.068
 8356SOL    HW225968   2.375   5.796   0.011
 8357SOL     OW25969   4.862   6.040   4.934
 8357SOL    HW125970   4.928   6.077   4.998
 8357SOL    HW225971   4.771   6.076   4.955
 8358SOL     OW25972   1.848   2.869   5.428
 8358SOL    HW125973   1.871   2.784   5.381
 8358SOL    HW225974   1.749   2.881   5.430
 8359SOL     OW25975   4.369   5.682   4.508
 8359SOL    HW125976   4.351   5.642   4.418
 8359SOL    HW225977   4.468   5.680   4.525
 8360SOL     OW25978   5.196   0.220   3.061
 8360SOL    HW125979   5.259   0.297   3.070
 8360SOL    HW225980   5.102   0.253   3.073
 8361SOL     OW25981   1.888   0.467   2.653
 8361SOL    HW125982   1.795   0.496   2.674
 8361SOL    HW225983   1.920   0.511   2.569
 8362SOL     OW25984   2.907   1.891   0.532
 8362SOL    HW125985   2.811   1.911   0.547
 8362SOL    HW225986   2.935   1.814   0.588
 8363SOL     OW25987   6.955   3.271   0.482
 8363SOL    HW125988   6.936   3.277   0.384
 8363SOL    HW225989   6.978   3.362   0.518
 8364SOL     OW25990   6.657   3.832   3.738
 8364SOL    HW125991   6.657   3.753   3.677
 8364SOL    HW225992   6.565   3.873   3.740
 8365SOL     OW25993   2.130   3.198   6.182
 8365SOL    HW125994   2.167   3.248   6.259
 8365SOL    HW225995   2.084   3.261   6.119
 8366SOL     OW25996   3.170   6.329   2.703
 8366SOL    HW125997   3.080   6.287   2.691
 8366SOL    HW225998   3.224   6.315   2.620
 8367SOL     OW25999   5.659   6.338   3.779
 8367SOL    HW126000   5.700   6.325   3.689
 8367SOL    HW226001   5.560   6.353   3.769
 8368SOL     OW26002   3.060   4.963   6.076
 8368SOL    HW126003   3.145   4.978   6.125
 8368SOL    HW226004   3.034   5.046   6.026
 8369SOL     OW26005   1.956   1.491   0.653
 8369SOL    HW126006   2.010   1.408   0.668
 8369SOL    HW226007   1.907   1.483   0.567
 8370SOL     OW26008   1.200   1.653   6.214
 8370SOL    HW126009   1.186   1.742   6.170
 8370SOL    HW226010   1.126   1.591   6.189
 8371SOL     OW26011   1.594   3.149   0.802
 8371SOL    HW126012   1.645   3.193   0.876
 8371SOL    HW226013   1.549   3.218   0.746
 8372SOL     OW26014   6.983   1.039   2.967
 8372SOL    HW126015   6.959   0.989   3.050
 8372SOL    HW226016   0.053   1.080   2.978
 8373SOL     OW26017   1.761   6.182   5.218
 8373SOL    HW126018   1.846   6.211   5.175
 8373SOL    HW226019   1.697   6.149   5.149
 8374SOL     OW26020   6.413   6.943   6.857
 8374SOL    HW126021   6.495   6.998   6.844
 8374SOL    HW226022   6.333   7.003   6.865
 8375SOL     OW26023   3.371   6.896   6.221
 8375SOL    HW126024   3.447   6.851   6.174
 8375SOL    HW226025   3.407   6.971   6.278
 8376SOL     OW26026   3.116   0.584   4.755
 8376SOL    HW126027   3.063   0.659   4.714
 8376SOL    HW226028   3.091   0.498   4.711
 8377SOL     OW26029   5.828   4.439   1.529
 8377SOL    HW126030   5.927   4.452   1.533
 8377SOL    HW226031   5.803   4.354   1.574
 8378SOL     OW26032   4.924   3.038   3.086
 8378SOL    HW126033   5.011   3.079   3.114
 8378SOL    HW226034   4.927   2.939   3.101
 8379SOL     OW26035   6.138   2.629   2.540
 8379SOL    HW126036   6.224   2.678   2.545
 8379SOL    HW226037   6.067   2.680   2.589
 8380SOL     OW26038   4.383   1.930   3.196
 8380SOL    HW126039   4.353   1.867   3.268
 8380SOL    HW226040   4.322   1.922   3.117
 8381SOL     OW26041   1.878   5.557   4.508
 8381SOL    HW126042   1.856   5.588   4.601
 8381SOL    HW226043   1.977   5.546   4.500
 8382SOL     OW26044   1.315   3.043   2.127
 8382SOL    HW126045   1.404   3.090   2.132
 8382SOL    HW226046   1.301   2.990   2.210
 8383SOL     OW26047   2.835   2.266   6.247
 8383SOL    HW126048   2.769   2.196   6.220
 8383SOL    HW226049   2.880   2.238   6.332
 8384SOL     OW26050   0.313   6.758   1.747
 8384SOL    HW126051   0.366   6.807   1.678
 8384SOL    HW226052   0.312   6.661   1.725
 8385SOL     OW26053   4.823   2.292   1.750
 8385SOL    HW126054   4.843   2.305   1.848
 8385SOL    HW226055   4.724   2.287   1.736
 8386SOL     OW26056   1.155   3.974   2.647
 8386SOL    HW126057   1.143   3.968   2.746
 8386SOL    HW226058   1.181   4.067   2.622
 8387SOL     OW26059   0.576   2.499   1.291
 8387SOL    HW126060   0.670   2.467   1.278
 8387SOL    HW226061   0.558   2.574   1.228
 8388SOL     OW26062   1.883   0.781   2.183
 8388SOL    HW126063   1.810   0.849   2.189
 8388SOL    HW226064   1.852   0.703   2.128
 8389SOL     OW26065   5.451   2.447   2.165
 8389SOL    HW126066   5.496   2.380   2.105
 8389SOL    HW226067   5.380   2.494   2.113
 8390SOL     OW26068   5.500   1.678   5.493
 8390SOL    HW126069   5.555   1.616   5.550
 8390SOL    HW226070   5.518   1.658   5.397
 8391SOL     OW26071   5.965   0.437   1.062
 8391SOL    HW126072   6.060   0.463   1.076
 8391SOL    HW226073   5.956   0.391   0.974
 8392SOL     OW26074   5.169   3.032   4.678
 8392SOL    HW126075   5.117   2.989   4.751
 8392SOL    HW226076   5.117   3.109   4.641
 8393SOL     OW26077   5.104   6.901   1.399
 8393SOL    HW126078   5.107   6.981   1.339
 8393SOL    HW226079   5.022   6.904   1.456
 8394SOL     OW26080   6.223   3.399   1.600
 8394SOL    HW126081   6.262   3.449   1.523
 8394SOL    HW226082   6.255   3.439   1.686
 8395SOL     OW26083   1.776   1.105   4.642
 8395SOL    HW126084   1.712   1.182   4.637
 8395SOL    HW226085   1.860   1.136   4.686
 8396SOL     OW26086   4.454   5.994   4.425
 8396SOL    HW126087   4.464   5.913   4.483
 8396SOL    HW226088   4.476   5.970   4.331
 8397SOL     OW26089   6.195   0.997   3.109
 8397SOL    HW126090   6.271   1.036   3.161
 8397SOL    HW226091   6.140   0.939   3.170
 8398SOL     OW26092   4.688   2.307   5.931
 8398SOL    HW126093   4.662   2.399   5.960
 8398SOL    HW226094   4.722   2.311   5.837
 8399SOL     OW26095   6.703   4.936   0.685
 8399SOL    HW126096   6.743   4.919   0.595
 8399SOL    HW226097   6.741   5.019   0.724
 8400SOL     OW26098   1.540   2.175   4.581
 8400SOL    HW126099   1.638   2.190   4.583
 8400SOL    HW226100   1.514   2.111   4.654
 8401SOL     OW26101   2.882   0.446   6.020
 8401SOL    HW126102   2.896   0.367   5.961
 8401SOL    HW226103   2.882   0.530   5.966
 8402SOL     OW26104   3.780   0.307   5.928
 8402SOL    HW126105   3.769   0.210   5.909
 8402SOL    HW226106   3.757   0.326   6.023
 8403SOL     OW26107   5.785   4.839   4.534
 8403SOL    HW126108   5.776   4.739   4.531
 8403SOL    HW226109   5.871   4.866   4.491
 8404SOL     OW26110   1.843   1.975   6.442
 8404SOL    HW126111   1.795   1.893   6.472
 8404SOL    HW226112   1.787   2.056   6.462
 8405SOL     OW26113   3.877   0.695   5.730
 8405SOL    HW126114   3.886   0.733   5.638
 8405SOL    HW226115   3.911   0.762   5.797
 8406SOL     OW26116   5.066   0.565   5.983
 8406SOL    HW126117   5.074   0.602   6.075
 8406SOL    HW226118   4.977   0.521   5.972
 8407SOL     OW26119   3.601   6.540   4.044
 8407SOL    HW126120   3.527   6.540   4.111
 8407SOL    HW226121   3.659   6.460   4.059
 8408SOL     OW26122   4.194   1.296   1.497
 8408SOL    HW126123   4.282   1.325   1.534
 8408SOL    HW226124   4.123   1.310   1.565
 8409SOL     OW26125   4.298   2.422   1.926
 8409SOL    HW126126   4.296   2.495   1.857
 8409SOL    HW226127   4.384   2.427   1.977
 8410SOL     OW26128   6.752   1.989   1.543
 8410SOL    HW126129   6.681   1.989   1.473
 8410SOL    HW226130   6.712   2.018   1.630
 8411SOL     OW26131   1.768   5.486   0.519
 8411SOL    HW126132   1.838   5.532   0.573
 8411SOL    HW226133   1.720   5.553   0.463
 8412SOL     OW26134   2.864   2.766   6.146
 8412SOL    HW126135   2.818   2.760   6.057
 8412SOL    HW226136   2.904   2.677   6.169
 8413SOL     OW26137   4.228   5.804   4.817
 8413SOL    HW126138   4.289   5.734   4.855
 8413SOL    HW226139   4.165   5.761   4.753
 8414SOL     OW26140   0.804   0.858   1.669
 8414SOL    HW126141   0.730   0.888   1.729
 8414SOL    HW226142   0.844   0.774   1.705
 8415SOL     OW26143   2.132   0.771   5.282
 8415SOL    HW126144   2.219   0.755   5.234
 8415SOL    HW226145   2.140   0.854   5.338
 8416SOL     OW26146   6.604   1.494   5.108
 8416SOL    HW126147   6.525   1.466   5.053
 8416SOL    HW226148   6.577   1.498   5.205
 8417SOL     OW26149   1.247   4.093   5.255
 8417SOL    HW126150   1.257   4.041   5.340
 8417SOL    HW226151   1.240   4.191   5.276
 8418SOL     OW26152   0.640   6.096   2.219
 8418SOL    HW126153   0.619   6.067   2.312
 8418SOL    HW226154   0.717   6.043   2.184
 8419SOL     OW26155   4.466   2.079   3.770
 8419SOL    HW126156   4.488   2.005   3.833
 8419SOL    HW226157   4.472   2.045   3.676
 8420SOL     OW26158   2.899   0.499   2.729
 8420SOL    HW126159   2.825   0.465   2.787
 8420SOL    HW226160   2.957   0.561   2.782
 8421SOL     OW26161   5.002   6.134   6.368
 8421SOL    HW126162   5.030   6.042   6.396
 8421SOL    HW226163   4.944   6.127   6.286
 8422SOL     OW26164   4.476   2.532   2.960
 8422SOL    HW126165   4.566   2.567   2.935
 8422SOL    HW226166   4.406   2.597   2.931
 8423SOL     OW26167   6.874   5.203   6.611
 8423SOL    HW126168   6.925   5.286   6.587
 8423SOL    HW226169   6.807   5.183   6.539
 8424SOL     OW26170   2.487   0.003   3.768
 8424SOL    HW126171   2.496   7.013   3.669
 8424SOL    HW226172   2.417   0.071   3.789
 8425SOL     OW26173   4.093   3.701   3.046
 8425SOL    HW126174   4.124   3.615   3.005
 8425SOL    HW226175   4.074   3.768   2.974
 8426SOL     OW26176   3.699   2.962   1.806
 8426SOL    HW126177   3.776   2.955   1.869
 8426SOL    HW226178   3.615   2.978   1.859
 8427SOL     OW26179   3.681   3.758   3.838
 8427SOL    HW126180   3.735   3.675   3.823
 8427SOL    HW226181   3.742   3.834   3.862
 8428SOL     OW26182   6.502   6.945   0.500
 8428SOL    HW126183   6.503   0.021   0.527
 8428SOL    HW226184   6.492   6.937   0.401
 8429SOL     OW26185   2.218   5.414   5.931
 8429SOL    HW126186   2.131   5.428   5.979
 8429SOL    HW226187   2.227   5.318   5.906
 8430SOL     OW26188   4.298   6.513   5.463
 8430SOL    HW126189   4.317   6.416   5.453
 8430SOL    HW226190   4.199   6.529   5.461
 8431SOL     OW26191   3.035   3.655   6.548
 8431SOL    HW126192   3.089   3.623   6.469
 8431SOL    HW226193   2.938   3.658   6.523
 8432SOL     OW26194   6.436   5.203   6.154
 8432SOL    HW126195   6.369   5.144   6.200
 8432SOL    HW226196   6.396   5.239   6.070
 8433SOL     OW26197   5.390   2.756   0.823
 8433SOL    HW126198   5.387   2.783   0.919
 8433SOL    HW226199   5.428   2.831   0.769
 8434SOL     OW26200   2.463   6.428   5.579
 8434SOL    HW126201   2.507   6.341   5.600
 8434SOL    HW226202   2.479   6.492   5.654
 8435SOL     OW26203   4.690   1.126   3.096
 8435SOL    HW126204   4.686   1.110   2.998
 8435SOL    HW226205   4.785   1.121   3.127
 8436SOL     OW26206   2.628   6.070   2.270
 8436SOL    HW126207   2.612   6.013   2.351
 8436SOL    HW226208   2.552   6.060   2.206
 8437SOL     OW26209   1.911   3.929   1.901
 8437SOL    HW126210   1.942   3.858   1.837
 8437SOL    HW226211   1.944   3.908   1.993
 8438SOL     OW26212   0.892   4.467   2.192
 8438SOL    HW126213   0.957   4.411   2.140
 8438SOL    HW226214   0.942   4.518   2.262
 8439SOL     OW26215   5.781   5.437   3.362
 8439SOL    HW126216   5.779   5.413   3.265
 8439SOL    HW226217   5.864   5.490   3.381
 8440SOL     OW26218   2.080   1.563   3.044
 8440SOL    HW126219   2.150   1.633   3.056
 8440SOL    HW226220   2.077   1.536   2.947
 8441SOL     OW26221   5.986   1.038   4.371
 8441SOL    HW126222   5.970   1.005   4.464
 8441SOL    HW226223   6.032   1.126   4.374
 8442SOL     OW26224   3.695   1.399   5.971
 8442SOL    HW126225   3.754   1.371   5.895
 8442SOL    HW226226   3.618   1.452   5.937
 8443SOL     OW26227   0.911   3.846   3.001
 8443SOL    HW126228   0.936   3.765   3.054
 8443SOL    HW226229   0.823   3.831   2.957
 8444SOL     OW26230   4.868   5.314   4.579
 8444SOL    HW126231   4.797   5.382   4.560
 8444SOL    HW226232   4.904   5.328   4.671
 8445SOL     OW26233   4.237   5.553   6.750
 8445SOL    HW126234   4.291   5.470   6.765
 8445SOL    HW226235   4.298   5.629   6.728
 8446SOL     OW26236   6.820   5.743   4.834
 8446SOL    HW126237   6.852   5.733   4.740
 8446SOL    HW226238   6.896   5.771   4.893
 8447SOL     OW26239   4.039   2.162   3.099
 8447SOL    HW126240   4.046   2.149   3.000
 8447SOL    HW226241   3.964   2.106   3.135
 8448SOL     OW26242   3.908   6.431   3.249
 8448SOL    HW126243   3.987   6.388   3.294
 8448SOL    HW226244   3.874   6.371   3.178
 8449SOL     OW26245   2.196   2.644   3.407
 8449SOL    HW126246   2.280   2.605   3.368
 8449SOL    HW226247   2.164   2.585   3.481
 8450SOL     OW26248   6.871   0.714   0.105
 8450SOL    HW126249   6.786   0.674   0.072
 8450SOL    HW226250   6.856   0.809   0.131
 8451SOL     OW26251   4.568   2.670   1.057
 8451SOL    HW126252   4.638   2.720   1.007
 8451SOL    HW226253   4.484   2.666   1.003
 8452SOL     OW26254   5.437   1.954   5.546
 8452SOL    HW126255   5.424   2.031   5.484
 8452SOL    HW226256   5.405   1.870   5.503
 8453SOL     OW26257   1.017   6.157   0.900
 8453SOL    HW126258   0.978   6.151   0.991
 8453SOL    HW226259   0.984   6.239   0.854
 8454SOL     OW26260   6.653   4.309   0.144
 8454SOL    HW126261   6.558   4.290   0.167
 8454SOL    HW226262   6.672   4.276   0.052
 8455SOL     OW26263   7.001   0.853   3.206
 8455SOL    HW126264   0.044   0.780   3.234
 8455SOL    HW226265   0.007   0.939   3.249
 8456SOL     OW26266   5.794   0.896   3.936
 8456SOL    HW126267   5.779   0.985   3.894
 8456SOL    HW226268   5.803   0.907   4.035
 8457SOL     OW26269   6.427   6.773   4.818
 8457SOL    HW126270   6.448   6.797   4.723
 8457SOL    HW226271   6.447   6.676   4.833
 8458SOL     OW26272   0.312   6.528   6.933
 8458SOL    HW126273   0.231   6.534   6.991
 8458SOL    HW226274   0.324   6.434   6.902
 8459SOL     OW26275   1.816   6.093   2.931
 8459SOL    HW126276   1.787   6.016   2.988
 8459SOL    HW226277   1.885   6.147   2.980
 8460SOL     OW26278   3.609   4.089   4.097
 8460SOL    HW126279   3.680   4.126   4.157
 8460SOL    HW226280   3.520   4.102   4.139
 8461SOL     OW26281   6.274   3.536   3.920
 8461SOL    HW126282   6.317   3.607   3.977
 8461SOL    HW226283   6.343   3.488   3.867
 8462SOL     OW26284   2.154   2.868   2.400
 8462SOL    HW126285   2.189   2.837   2.311
 8462SOL    HW226286   2.138   2.967   2.395
 8463SOL     OW26287   5.203   1.440   2.037
 8463SOL    HW126288   5.155   1.520   2.001
 8463SOL    HW226289   5.272   1.469   2.103
 8464SOL     OW26290   6.394   2.365   4.595
 8464SOL    HW126291   6.380   2.267   4.584
 8464SOL    HW226292   6.467   2.380   4.662
 8465SOL     OW26293   1.723   2.540   7.001
 8465SOL    HW126294   1.706   2.627   6.954
 8465SOL    HW226295   1.642   2.482   6.993
 8466SOL     OW26296   0.649   6.604   3.522
 8466SOL    HW126297   0.559   6.625   3.486
 8466SOL    HW226298   0.719   6.649   3.467
 8467SOL     OW26299   2.758   5.263   0.585
 8467SOL    HW126300   2.676   5.252   0.530
 8467SOL    HW226301   2.777   5.361   0.597
 8468SOL     OW26302   4.527   1.614   6.921
 8468SOL    HW126303   4.577   1.623   7.007
 8468SOL    HW226304   4.569   1.672   6.852
 8469SOL     OW26305   3.755   2.103   6.701
 8469SOL    HW126306   3.768   2.007   6.725
 8469SOL    HW226307   3.837   2.155   6.727
 8470SOL     OW26308   2.667   2.070   6.140
 8470SOL    HW126309   2.678   2.034   6.047
 8470SOL    HW226310   2.591   2.025   6.185
 8471SOL     OW26311   3.918   1.024   3.822
 8471SOL    HW126312   3.904   1.119   3.795
 8471SOL    HW226313   3.936   1.019   3.920
 8472SOL     OW26314   1.634   6.342   3.249
 8472SOL    HW126315   1.691   6.421   3.271
 8472SOL    HW226316   1.546   6.350   3.296
 8473SOL     OW26317   6.729   5.726   6.982
 8473SOL    HW126318   6.657   5.730   0.031
 8473SOL    HW226319   6.803   5.667   7.013
 8474SOL     OW26320   3.812   4.215   1.244
 8474SOL    HW126321   3.752   4.135   1.233
 8474SOL    HW226322   3.907   4.188   1.229
 8475SOL     OW26323   4.538   1.105   3.338
 8475SOL    HW126324   4.612   1.085   3.402
 8475SOL    HW226325   4.576   1.150   3.257
 8476SOL     OW26326   4.709   0.112   2.450
 8476SOL    HW126327   4.732   0.177   2.523
 8476SOL    HW226328   4.668   0.161   2.373
 8477SOL     OW26329   2.871   1.248   1.777
 8477SOL    HW126330   2.897   1.267   1.683
 8477SOL    HW226331   2.776   1.215   1.780
 8478SOL     OW26332   1.912   0.251   5.849
 8478SOL    HW126333   1.972   0.328   5.827
 8478SOL    HW226334   1.932   0.174   5.788
 8479SOL     OW26335   5.025   0.845   1.694
 8479SOL    HW126336   5.064   0.847   1.601
 8479SOL    HW226337   4.962   0.922   1.705
 8480SOL     OW26338   1.831   1.017   1.359
 8480SOL    HW126339   1.830   1.104   1.407
 8480SOL    HW226340   1.766   0.954   1.401
 8481SOL     OW26341   4.138   0.358   4.116
 8481SOL    HW126342   4.135   0.417   4.035
 8481SOL    HW226343   4.048   0.357   4.159
 8482SOL     OW26344   0.937   0.515   2.197
 8482SOL    HW126345   0.841   0.543   2.200
 8482SOL    HW226346   0.968   0.511   2.102
 8483SOL     OW26347   4.231   6.016   1.743
 8483SOL    HW126348   4.142   5.985   1.776
 8483SOL    HW226349   4.229   6.026   1.643
 8484SOL     OW26350   0.793   4.913   4.589
 8484SOL    HW126351   0.767   4.904   4.685
 8484SOL    HW226352   0.717   4.885   4.531
 8485SOL     OW26353   3.004   3.355   6.193
 8485SOL    HW126354   2.946   3.417   6.140
 8485SOL    HW226355   2.968   3.344   6.285
 8486SOL     OW26356   4.392   0.991   2.311
 8486SOL    HW126357   4.431   0.927   2.244
 8486SOL    HW226358   4.446   1.075   2.313
 8487SOL     OW26359   4.253   6.718   1.089
 8487SOL    HW126360   4.174   6.756   1.040
 8487SOL    HW226361   4.332   6.714   1.027
 8488SOL     OW26362   4.866   3.095   4.731
 8488SOL    HW126363   4.849   2.997   4.719
 8488SOL    HW226364   4.782   3.140   4.760
 8489SOL     OW26365   4.154   4.901   2.626
 8489SOL    HW126366   4.054   4.901   2.616
 8489SOL    HW226367   4.185   4.808   2.645
 8490SOL     OW26368   3.768   5.380   2.718
 8490SOL    HW126369   3.740   5.457   2.775
 8490SOL    HW226370   3.715   5.299   2.744
 8491SOL     OW26371   2.064   1.048   2.541
 8491SOL    HW126372   2.052   0.949   2.536
 8491SOL    HW226373   2.150   1.070   2.587
 8492SOL     OW26374   5.502   3.532   4.960
 8492SOL    HW126375   5.521   3.627   4.984
 8492SOL    HW226376   5.565   3.472   5.009
 8493SOL     OW26377   3.768   2.260   1.077
 8493SOL    HW126378   3.705   2.252   1.000
 8493SOL    HW226379   3.783   2.170   1.117
 8494SOL     OW26380   3.325   5.234   6.943
 8494SOL    HW126381   3.398   5.176   6.907
 8494SOL    HW226382   3.291   5.294   6.870
 8495SOL     OW26383   0.357   2.388   0.770
 8495SOL    HW126384   0.267   2.374   0.730
 8495SOL    HW226385   0.424   2.405   0.697
 8496SOL     OW26386   0.057   2.795   3.215
 8496SOL    HW126387   0.082   2.863   3.285
 8496SOL    HW226388   0.103   2.709   3.234
 8497SOL     OW26389   6.264   5.549   2.958
 8497SOL    HW126390   6.242   5.574   3.052
 8497SOL    HW226391   6.330   5.473   2.958
 8498SOL     OW26392   0.097   0.739   0.728
 8498SOL    HW126393   0.044   0.653   0.725
 8498SOL    HW226394   0.149   0.748   0.644
 8499SOL     OW26395   3.543   3.910   6.606
 8499SOL    HW126396   3.511   3.858   6.686
 8499SOL    HW226397   3.487   3.991   6.595
 8500SOL     OW26398   3.066   1.021   6.313
 8500SOL    HW126399   3.075   1.047   6.409
 8500SOL    HW226400   3.049   1.103   6.258
 8501SOL     OW26401   1.920   4.025   6.476
 8501SOL    HW126402   2.018   4.015   6.488
 8501SOL    HW226403   1.896   4.123   6.475
 8502SOL     OW26404   0.069   0.434   2.246
 8502SOL    HW126405   0.079   0.530   2.275
 8502SOL    HW226406   0.007   0.387   2.309
 8503SOL     OW26407   2.409   5.511   2.707
 8503SOL    HW126408   2.492   5.455   2.707
 8503SOL    HW226409   2.404   5.563   2.793
 8504SOL     OW26410   1.022   5.953   3.409
 8504SOL    HW126411   0.996   5.883   3.343
 8504SOL    HW226412   0.981   6.040   3.384
 8505SOL     OW26413   4.972   3.042   3.450
 8505SOL    HW126414   4.961   3.088   3.538
 8505SOL    HW226415   5.068   3.017   3.437
 8506SOL     OW26416   0.866   6.576   0.310
 8506SOL    HW126417   0.839   6.511   0.382
 8506SOL    HW226418   0.788   6.633   0.286
 8507SOL     OW26419   1.864   0.925   5.001
 8507SOL    HW126420   1.839   1.001   4.941
 8507SOL    HW226421   1.806   0.927   5.083
 8508SOL     OW26422   1.117   2.245   6.262
 8508SOL    HW126423   1.192   2.271   6.323
 8508SOL    HW226424   1.030   2.275   6.300
 8509SOL     OW26425   6.339   2.081   4.555
 8509SOL    HW126426   6.370   2.033   4.472
 8509SOL    HW226427   6.250   2.045   4.581
 8510SOL     OW26428   5.140   0.490   2.661
 8510SOL    HW126429   5.172   0.395   2.665
 8510SOL    HW226430   5.070   0.505   2.730
 8511SOL     OW26431   6.919   4.752   1.834
 8511SOL    HW126432   6.852   4.699   1.886
 8511SOL    HW226433   6.979   4.689   1.784
 8512SOL     OW26434   4.704   1.805   0.254
 8512SOL    HW126435   4.751   1.737   0.198
 8512SOL    HW226436   4.686   1.887   0.200
 8513SOL     OW26437   6.968   4.129   1.182
 8513SOL    HW126438   6.929   4.095   1.268
 8513SOL    HW226439   0.040   4.094   1.172
 8514SOL     OW26440   2.731   2.532   5.697
 8514SOL    HW126441   2.686   2.455   5.653
 8514SOL    HW226442   2.770   2.592   5.627
 8515SOL     OW26443   0.991   0.623   1.045
 8515SOL    HW126444   0.922   0.644   0.976
 8515SOL    HW226445   0.977   0.682   1.125
 8516SOL     OW26446   5.750   2.051   3.315
 8516SOL    HW126447   5.766   1.956   3.287
 8516SOL    HW226448   5.654   2.061   3.343
 8517SOL     OW26449   2.173   2.316   5.288
 8517SOL    HW126450   2.134   2.350   5.373
 8517SOL    HW226451   2.272   2.309   5.296
 8518SOL     OW26452   5.411   4.972   0.152
 8518SOL    HW126453   5.314   4.949   0.141
 8518SOL    HW226454   5.466   4.914   0.092
 8519SOL     OW26455   1.462   3.592   0.852
 8519SOL    HW126456   1.394   3.581   0.924
 8519SOL    HW226457   1.536   3.651   0.885
 8520SOL     OW26458   4.333   4.047   6.137
 8520SOL    HW126459   4.275   4.066   6.057
 8520SOL    HW226460   4.367   4.133   6.174
 8521SOL     OW26461   1.931   6.278   5.882
 8521SOL    HW126462   1.902   6.284   5.786
 8521SOL    HW226463   1.899   6.191   5.920
 8522SOL     OW26464   1.045   6.769   0.387
 8522SOL    HW126465   1.054   6.785   0.485
 8522SOL    HW226466   0.985   6.691   0.371
 8523SOL     OW26467   2.789   1.229   6.821
 8523SOL    HW126468   2.801   1.132   6.802
 8523SOL    HW226469   2.763   1.242   6.916
 8524SOL     OW26470   2.136   5.549   4.555
 8524SOL    HW126471   2.194   5.477   4.593
 8524SOL    HW226472   2.157   5.636   4.600
 8525SOL     OW26473   6.714   4.629   1.243
 8525SOL    HW126474   6.716   4.668   1.335
 8525SOL    HW226475   6.679   4.535   1.246
 8526SOL     OW26476   1.405   6.246   0.334
 8526SOL    HW126477   1.469   6.227   0.409
 8526SOL    HW226478   1.423   6.338   0.299
 8527SOL     OW26479   3.256   0.788   5.714
 8527SOL    HW126480   3.352   0.779   5.686
 8527SOL    HW226481   3.203   0.824   5.637
 8528SOL     OW26482   5.020   2.022   0.546
 8528SOL    HW126483   5.022   2.102   0.605
 8528SOL    HW226484   4.925   1.995   0.529
 8529SOL     OW26485   1.013   6.098   6.406
 8529SOL    HW126486   0.968   6.063   6.488
 8529SOL    HW226487   0.946   6.146   6.350
 8530SOL     OW26488   3.264   4.054   4.453
 8530SOL    HW126489   3.306   4.112   4.522
 8530SOL    HW226490   3.167   4.045   4.472
 8531SOL     OW26491   6.655   5.380   4.033
 8531SOL    HW126492   6.595   5.452   3.998
 8531SOL    HW226493   6.600   5.307   4.073
 8532SOL     OW26494   2.520   5.311   4.762
 8532SOL    HW126495   2.548   5.380   4.828
 8532SOL    HW226496   2.596   5.291   4.700
 8533SOL     OW26497   2.095   5.844   5.084
 8533SOL    HW126498   2.099   5.798   5.172
 8533SOL    HW226499   2.176   5.820   5.030
 8534SOL     OW26500   3.191   2.176   4.205
 8534SOL    HW126501   3.263   2.150   4.269
 8534SOL    HW226502   3.229   2.178   4.112
 8535SOL     OW26503   6.336   0.412   2.868
 8535SOL    HW126504   6.370   0.342   2.931
 8535SOL    HW226505   6.263   0.464   2.912
 8536SOL     OW26506   0.414   1.109   4.639
 8536SOL    HW126507   0.506   1.074   4.623
 8536SOL    HW226508   0.393   1.181   4.573
 8537SOL     OW26509   6.512   1.076   2.924
 8537SOL    HW126510   6.500   1.045   3.018
 8537SOL    HW226511   6.589   1.140   2.919
 8538SOL     OW26512   1.460   2.414   6.976
 8538SOL    HW126513   1.368   2.438   6.947
 8538SOL    HW226514   1.460   2.323   7.018
 8539SOL     OW26515   6.118   2.704   3.028
 8539SOL    HW126516   6.050   2.763   3.071
 8539SOL    HW226517   6.210   2.741   3.045
 8540SOL     OW26518   3.730   0.153   0.682
 8540SOL    HW126519   3.727   0.065   0.730
 8540SOL    HW226520   3.811   0.204   0.711
 8541SOL     OW26521   1.908   2.838   4.556
 8541SOL    HW126522   1.845   2.893   4.502
 8541SOL    HW226523   1.986   2.894   4.584
 8542SOL     OW26524   3.704   4.503   0.404
 8542SOL    HW126525   3.665   4.426   0.354
 8542SOL    HW226526   3.629   4.558   0.443
 8543SOL     OW26527   2.343   2.219   6.081
 8543SOL    HW126528   2.376   2.198   6.173
 8543SOL    HW226529   2.253   2.263   6.087
 8544SOL     OW26530   6.812   2.979   3.452
 8544SOL    HW126531   6.863   2.975   3.366
 8544SOL    HW226532   6.861   2.927   3.522
 8545SOL     OW26533   5.027   6.873   4.765
 8545SOL    HW126534   5.059   6.779   4.764
 8545SOL    HW226535   5.057   6.918   4.849
 8546SOL     OW26536   4.238   1.901   5.432
 8546SOL    HW126537   4.191   1.989   5.431
 8546SOL    HW226538   4.317   1.904   5.370
 8547SOL     OW26539   0.754   4.328   3.229
 8547SOL    HW126540   0.699   4.345   3.147
 8547SOL    HW226541   0.832   4.271   3.205
 8548SOL     OW26542   5.900   1.484   5.900
 8548SOL    HW126543   5.951   1.418   5.845
 8548SOL    HW226544   5.803   1.461   5.897
 8549SOL     OW26545   5.834   3.395   4.874
 8549SOL    HW126546   5.837   3.374   4.776
 8549SOL    HW226547   5.928   3.400   4.910
 8550SOL     OW26548   1.094   4.162   6.532
 8550SOL    HW126549   1.043   4.134   6.613
 8550SOL    HW226550   1.030   4.180   6.457
 8551SOL     OW26551   3.571   3.766   0.314
 8551SOL    HW126552   3.533   3.674   0.327
 8551SOL    HW226553   3.535   3.827   0.384
 8552SOL     OW26554   2.970   6.561   3.892
 8552SOL    HW126555   2.965   6.569   3.792
 8552SOL    HW226556   2.939   6.470   3.919
 8553SOL     OW26557   5.871   6.310   0.393
 8553SOL    HW126558   5.896   6.341   0.302
 8553SOL    HW226559   5.897   6.214   0.404
 8554SOL     OW26560   6.394   4.267   0.240
 8554SOL    HW126561   6.331   4.229   0.172
 8554SOL    HW226562   6.365   4.360   0.264
 8555SOL     OW26563   1.318   6.924   4.049
 8555SOL    HW126564   1.232   6.923   3.999
 8555SOL    HW226565   1.314   6.859   4.125
 8556SOL     OW26566   6.207   0.258   3.527
 8556SOL    HW126567   6.212   0.256   3.427
 8556SOL    HW226568   6.300   0.267   3.564
 8557SOL     OW26569   0.169   0.792   1.392
 8557SOL    HW126570   0.143   0.876   1.439
 8557SOL    HW226571   0.098   0.767   1.326
 8558SOL     OW26572   1.311   5.144   2.005
 8558SOL    HW126573   1.393   5.177   1.956
 8558SOL    HW226574   1.229   5.172   1.954
 8559SOL     OW26575   0.588   0.984   6.275
 8559SOL    HW126576   0.529   0.944   6.205
 8559SOL    HW226577   0.663   0.921   6.296
 8560SOL     OW26578   6.252   2.583   6.560
 8560SOL    HW126579   6.281   2.499   6.606
 8560SOL    HW226580   6.192   2.636   6.620
 8561SOL     OW26581   4.810   6.481   4.226
 8561SOL    HW126582   4.731   6.542   4.218
 8561SOL    HW226583   4.790   6.410   4.293
 8562SOL     OW26584   3.915   6.824   4.429
 8562SOL    HW126585   4.009   6.808   4.402
 8562SOL    HW226586   3.885   6.749   4.489
 8563SOL     OW26587   2.616   3.033   5.722
 8563SOL    HW126588   2.609   2.959   5.654
 8563SOL    HW226589   2.704   3.026   5.769
 8564SOL     OW26590   0.584   0.109   3.867
 8564SOL    HW126591   0.603   0.064   3.954
 8564SOL    HW226592   0.576   0.041   3.795
 8565SOL     OW26593   4.038   0.072   1.826
 8565SOL    HW126594   4.122   0.113   1.790
 8565SOL    HW226595   4.049   6.993   1.832
 8566SOL     OW26596   2.143   3.325   3.505
 8566SOL    HW126597   2.157   3.299   3.601
 8566SOL    HW226598   2.124   3.243   3.451
 8567SOL     OW26599   5.458   6.946   0.940
 8567SOL    HW126600   5.453   6.881   1.016
 8567SOL    HW226601   5.549   6.940   0.898
 8568SOL     OW26602   5.359   0.970   0.283
 8568SOL    HW126603   5.268   0.993   0.248
 8568SOL    HW226604   5.376   1.022   0.367
 8569SOL     OW26605   4.400   1.631   4.634
 8569SOL    HW126606   4.447   1.555   4.677
 8569SOL    HW226607   4.404   1.621   4.535
 8570SOL     OW26608   0.739   4.283   0.045
 8570SOL    HW126609   0.722   4.337   0.127
 8570SOL    HW226610   0.813   4.325   7.013
 8571SOL     OW26611   6.786   4.317   5.311
 8571SOL    HW126612   6.883   4.330   5.294
 8571SOL    HW226613   6.752   4.390   5.371
 8572SOL     OW26614   2.895   5.129   5.612
 8572SOL    HW126615   2.829   5.097   5.544
 8572SOL    HW226616   2.940   5.212   5.578
 8573SOL     OW26617   3.751   5.736   4.759
 8573SOL    HW126618   3.813   5.671   4.716
 8573SOL    HW226619   3.783   5.829   4.743
 8574SOL     OW26620   0.542   3.930   4.923
 8574SOL    HW126621   0.465   3.871   4.949
 8574SOL    HW226622   0.600   3.947   5.003
 8575SOL     OW26623   3.456   3.318   6.920
 8575SOL    HW126624   3.464   3.412   6.888
 8575SOL    HW226625   3.474   3.315   7.019
 8576SOL     OW26626   1.651   0.178   1.688
 8576SOL    HW126627   1.566   0.175   1.634
 8576SOL    HW226628   1.679   0.272   1.701
 8577SOL     OW26629   6.424   5.833   3.070
 8577SOL    HW126630   6.484   5.829   3.149
 8577SOL    HW226631   6.374   5.746   3.061
 8578SOL     OW26632   4.262   0.036   3.301
 8578SOL    HW126633   4.348   0.081   3.325
 8578SOL    HW226634   4.215   0.008   3.384
 8579SOL     OW26635   0.739   5.982   3.008
 8579SOL    HW126636   0.834   5.986   3.039
 8579SOL    HW226637   0.680   6.026   3.075
 8580SOL     OW26638   2.550   4.327   6.761
 8580SOL    HW126639   2.589   4.277   6.684
 8580SOL    HW226640   2.565   4.276   6.845
 8581SOL     OW26641   3.015   2.406   1.282
 8581SOL    HW126642   3.063   2.356   1.354
 8581SOL    HW226643   3.064   2.490   1.261
 8582SOL     OW26644   4.285   4.217   1.068
 8582SOL    HW126645   4.296   4.121   1.045
 8582SOL    HW226646   4.319   4.233   1.161
 8583SOL     OW26647   5.790   0.114   6.353
 8583SOL    HW126648   5.820   0.019   6.363
 8583SOL    HW226649   5.708   0.118   6.296
 8584SOL     OW26650   0.129   5.122   6.761
 8584SOL    HW126651   0.142   5.037   6.710
 8584SOL    HW226652   0.038   5.159   6.740
 8585SOL     OW26653   0.499   1.655   0.629
 8585SOL    HW126654   0.513   1.594   0.551
 8585SOL    HW226655   0.588   1.684   0.665
 8586SOL     OW26656   4.163   5.465   3.977
 8586SOL    HW126657   4.174   5.553   3.930
 8586SOL    HW226658   4.097   5.409   3.926
 8587SOL     OW26659   6.797   1.488   1.088
 8587SOL    HW126660   6.728   1.560   1.087
 8587SOL    HW226661   6.831   1.476   1.181
 8588SOL     OW26662   4.597   2.037   0.118
 8588SOL    HW126663   4.603   2.075   0.026
 8588SOL    HW226664   4.504   2.004   0.135
 8589SOL     OW26665   2.778   1.832   4.646
 8589SOL    HW126666   2.778   1.865   4.552
 8589SOL    HW226667   2.822   1.899   4.706
 8590SOL     OW26668   6.330   4.842   5.828
 8590SOL    HW126669   6.303   4.797   5.913
 8590SOL    HW226670   6.383   4.924   5.848
 8591SOL     OW26671   1.038   3.199   6.796
 8591SOL    HW126672   1.021   3.154   6.884
 8591SOL    HW226673   1.007   3.139   6.722
 8592SOL     OW26674   6.065   5.500   6.437
 8592SOL    HW126675   5.999   5.574   6.432
 8592SOL    HW226676   6.153   5.531   6.401
 8593SOL     OW26677   1.120   0.324   2.762
 8593SOL    HW126678   1.025   0.350   2.747
 8593SOL    HW226679   1.125   0.261   2.840
 8594SOL     OW26680   3.468   3.611   4.089
 8594SOL    HW126681   3.478   3.675   4.012
 8594SOL    HW226682   3.375   3.616   4.124
 8595SOL     OW26683   1.965   2.446   1.959
 8595SOL    HW126684   1.943   2.422   1.864
 8595SOL    HW226685   2.060   2.476   1.964
 8596SOL     OW26686   6.475   4.898   2.339
 8596SOL    HW126687   6.537   4.899   2.261
 8596SOL    HW226688   6.492   4.816   2.394
 8597SOL     OW26689   1.676   1.415   0.677
 8597SOL    HW126690   1.767   1.419   0.718
 8597SOL    HW226691   1.643   1.321   0.678
 8598SOL     OW26692   5.439   4.502   0.496
 8598SOL    HW126693   5.386   4.421   0.471
 8598SOL    HW226694   5.434   4.570   0.423
 8599SOL     OW26695   1.451   3.319   2.489
 8599SOL    HW126696   1.366   3.370   2.475
 8599SOL    HW226697   1.522   3.358   2.430
 8600SOL     OW26698   6.250   4.027   6.878
 8600SOL    HW126699   6.230   3.932   6.857
 8600SOL    HW226700   6.348   4.044   6.865
 8601SOL     OW26701   6.898   6.779   3.919
 8601SOL    HW126702   6.961   6.766   3.842
 8601SOL    HW226703   6.849   6.694   3.937
 8602SOL     OW26704   3.160   6.701   2.044
 8602SOL    HW126705   3.193   6.607   2.044
 8602SOL    HW226706   3.238   6.764   2.044
 8603SOL     OW26707   4.462   3.212   0.794
 8603SOL    HW126708   4.473   3.124   0.841
 8603SOL    HW226709   4.372   3.250   0.815
 8604SOL     OW26710   5.673   2.507   2.626
 8604SOL    HW126711   5.726   2.577   2.579
 8604SOL    HW226712   5.718   2.484   2.713
 8605SOL     OW26713   2.656   6.815   1.784
 8605SOL    HW126714   2.662   6.730   1.835
 8605SOL    HW226715   2.726   6.817   1.713
 8606SOL     OW26716   4.036   4.785   5.884
 8606SOL    HW126717   3.987   4.699   5.869
 8606SOL    HW226718   4.130   4.766   5.911
 8607SOL     OW26719   3.944   6.069   2.000
 8607SOL    HW126720   3.962   5.994   1.936
 8607SOL    HW226721   3.985   6.049   2.088
 8608SOL     OW26722   4.818   6.140   2.554
 8608SOL    HW126723   4.742   6.116   2.493
 8608SOL    HW226724   4.903   6.104   2.517
 8609SOL     OW26725   4.025   0.514   5.540
 8609SOL    HW126726   3.986   0.429   5.575
 8609SOL    HW226727   4.015   0.587   5.608
 8610SOL     OW26728   6.598   6.608   4.098
 8610SOL    HW126729   6.501   6.590   4.084
 8610SOL    HW226730   6.614   6.628   4.195
 8611SOL     OW26731   1.711   1.945   3.574
 8611SOL    HW126732   1.728   2.026   3.631
 8611SOL    HW226733   1.796   1.919   3.529
 8612SOL     OW26734   4.646   3.171   5.396
 8612SOL    HW126735   4.662   3.131   5.486
 8612SOL    HW226736   4.655   3.101   5.326
 8613SOL     OW26737   1.229   1.313   0.311
 8613SOL    HW126738   1.239   1.287   0.215
 8613SOL    HW226739   1.308   1.368   0.339
 8614SOL     OW26740   1.024   1.713   3.305
 8614SOL    HW126741   1.060   1.670   3.222
 8614SOL    HW226742   1.082   1.790   3.331
 8615SOL     OW26743   4.503   2.743   5.293
 8615SOL    HW126744   4.413   2.768   5.329
 8615SOL    HW226745   4.492   2.671   5.225
 8616SOL     OW26746   1.717   3.283   6.795
 8616SOL    HW126747   1.705   3.209   6.860
 8616SOL    HW226748   1.686   3.369   6.836
 8617SOL     OW26749   6.080   3.291   1.128
 8617SOL    HW126750   5.986   3.314   1.152
 8617SOL    HW226751   6.120   3.233   1.200
 8618SOL     OW26752   4.579   0.465   4.196
 8618SOL    HW126753   4.587   0.519   4.112
 8618SOL    HW226754   4.500   0.404   4.189
 8619SOL     OW26755   4.706   5.783   0.874
 8619SOL    HW126756   4.730   5.737   0.788
 8619SOL    HW226757   4.641   5.856   0.856
 8620SOL     OW26758   5.969   6.645   3.187
 8620SOL    HW126759   5.884   6.661   3.137
 8620SOL    HW226760   6.012   6.732   3.209
 8621SOL     OW26761   5.786   0.840   3.203
 8621SOL    HW126762   5.792   0.877   3.296
 8621SOL    HW226763   5.845   0.893   3.143
 8622SOL     OW26764   5.410   5.294   6.866
 8622SOL    HW126765   5.478   5.288   6.940
 8622SOL    HW226766   5.331   5.237   6.890
 8623SOL     OW26767   6.830   3.036   2.756
 8623SOL    HW126768   6.757   3.017   2.690
 8623SOL    HW226769   6.788   3.054   2.845
 8624SOL     OW26770   0.544   5.325   3.560
 8624SOL    HW126771   0.508   5.411   3.523
 8624SOL    HW226772   0.512   5.249   3.504
 8625SOL     OW26773   3.949   0.611   5.281
 8625SOL    HW126774   4.034   0.663   5.284
 8625SOL    HW226775   3.932   0.570   5.371
 8626SOL     OW26776   2.999   3.862   3.042
 8626SOL    HW126777   3.052   3.788   3.084
 8626SOL    HW226778   2.911   3.870   3.088
 8627SOL     OW26779   2.231   0.306   6.738
 8627SOL    HW126780   2.146   0.319   6.789
 8627SOL    HW226781   2.260   0.393   6.698
 8628SOL     OW26782   5.857   1.349   0.271
 8628SOL    HW126783   5.919   1.358   0.193
 8628SOL    HW226784   5.892   1.277   0.332
 8629SOL     OW26785   0.988   4.833   4.064
 8629SOL    HW126786   1.007   4.778   3.983
 8629SOL    HW226787   1.071   4.878   4.095
 8630SOL     OW26788   5.648   4.265   4.289
 8630SOL    HW126789   5.719   4.298   4.351
 8630SOL    HW226790   5.620   4.173   4.316
 8631SOL     OW26791   3.777   5.777   4.262
 8631SOL    HW126792   3.834   5.759   4.342
 8631SOL    HW226793   3.836   5.798   4.184
 8632SOL     OW26794   4.886   0.449   3.435
 8632SOL    HW126795   4.817   0.520   3.428
 8632SOL    HW226796   4.942   0.449   3.352
 8633SOL     OW26797   6.022   0.735   3.994
 8633SOL    HW126798   5.931   0.775   3.997
 8633SOL    HW226799   6.053   0.729   3.899
 8634SOL     OW26800   6.663   5.090   1.602
 8634SOL    HW126801   6.760   5.071   1.620
 8634SOL    HW226802   6.607   5.017   1.641
 8635SOL     OW26803   6.133   4.137   5.240
 8635SOL    HW126804   6.210   4.108   5.296
 8635SOL    HW226805   6.130   4.082   5.156
 8636SOL     OW26806   5.553   5.684   0.458
 8636SOL    HW126807   5.577   5.590   0.437
 8636SOL    HW226808   5.579   5.705   0.552
 8637SOL     OW26809   1.856   0.610   1.172
 8637SOL    HW126810   1.828   0.685   1.113
 8637SOL    HW226811   1.814   0.525   1.140
 8638SOL     OW26812   3.925   5.144   0.490
 8638SOL    HW126813   3.888   5.058   0.524
 8638SOL    HW226814   3.890   5.161   0.397
 8639SOL     OW26815   6.947   2.761   2.517
 8639SOL    HW126816   0.013   2.771   2.566
 8639SOL    HW226817   6.872   2.750   2.582
 8640SOL     OW26818   5.048   6.437   1.012
 8640SOL    HW126819   5.131   6.474   0.969
 8640SOL    HW226820   5.029   6.346   0.974
 8641SOL     OW26821   5.495   4.436   3.319
 8641SOL    HW126822   5.484   4.453   3.417
 8641SOL    HW226823   5.588   4.402   3.301
 8642SOL     OW26824   4.912   1.627   1.540
 8642SOL    HW126825   4.935   1.701   1.604
 8642SOL    HW226826   4.995   1.575   1.519
 8643SOL     OW26827   5.049   1.158   6.052
 8643SOL    HW126828   5.022   1.230   6.117
 8643SOL    HW226829   4.993   1.077   6.067
 8644SOL     OW26830   6.320   3.313   5.353
 8644SOL    HW126831   6.226   3.306   5.384
 8644SOL    HW226832   6.332   3.397   5.299
 8645SOL     OW26833   6.193   4.624   1.824
 8645SOL    HW126834   6.274   4.683   1.826
 8645SOL    HW226835   6.205   4.549   1.889
 8646SOL     OW26836   5.362   1.086   0.543
 8646SOL    HW126837   5.422   1.159   0.577
 8646SOL    HW226838   5.281   1.080   0.601
 8647SOL     OW26839   4.515   5.194   1.549
 8647SOL    HW126840   4.478   5.277   1.507
 8647SOL    HW226841   4.518   5.206   1.648
 8648SOL     OW26842   5.345   1.999   4.613
 8648SOL    HW126843   5.404   1.959   4.543
 8648SOL    HW226844   5.392   2.077   4.655
 8649SOL     OW26845   6.790   4.549   5.452
 8649SOL    HW126846   6.849   4.581   5.378
 8649SOL    HW226847   6.800   4.609   5.531
 8650SOL     OW26848   1.506   4.677   2.443
 8650SOL    HW126849   1.573   4.644   2.377
 8650SOL    HW226850   1.446   4.743   2.400
 8651SOL     OW26851   3.315   1.776   1.232
 8651SOL    HW126852   3.241   1.711   1.247
 8651SOL    HW226853   3.381   1.769   1.307
 8652SOL     OW26854   1.531   3.470   3.809
 8652SOL    HW126855   1.589   3.404   3.858
 8652SOL    HW226856   1.518   3.440   3.715
 8653SOL     OW26857   6.458   3.523   6.573
 8653SOL    HW126858   6.485   3.617   6.553
 8653SOL    HW226859   6.442   3.513   6.671
 8654SOL     OW26860   0.456   0.211   2.926
 8654SOL    HW126861   0.498   0.233   2.837
 8654SOL    HW226862   0.379   0.273   2.942
 8655SOL     OW26863   6.049   5.951   4.221
 8655SOL    HW126864   5.981   5.911   4.160
 8655SOL    HW226865   6.061   6.048   4.199
 8656SOL     OW26866   5.620   2.370   1.280
 8656SOL    HW126867   5.670   2.456   1.284
 8656SOL    HW226868   5.557   2.371   1.202
 8657SOL     OW26869   3.268   4.186   0.155
 8657SOL    HW126870   3.260   4.140   0.243
 8657SOL    HW226871   3.358   4.167   0.115
 8658SOL     OW26872   6.669   5.355   0.605
 8658SOL    HW126873   6.723   5.276   0.576
 8658SOL    HW226874   6.728   5.436   0.607
 8659SOL     OW26875   5.508   0.451   4.514
 8659SOL    HW126876   5.509   0.404   4.425
 8659SOL    HW226877   5.582   0.415   4.571
 8660SOL     OW26878   5.770   4.695   1.459
 8660SOL    HW126879   5.840   4.764   1.477
 8660SOL    HW226880   5.787   4.615   1.516
 8661SOL     OW26881   6.629   3.674   1.624
 8661SOL    HW126882   6.565   3.658   1.700
 8661SOL    HW226883   6.662   3.768   1.628
 8662SOL     OW26884   0.305   0.022   0.645
 8662SOL    HW126885   0.324   0.115   0.614
 8662SOL    HW226886   0.301   6.981   0.567
 8663SOL     OW26887   2.556   5.511   0.436
 8663SOL    HW126888   2.635   5.520   0.377
 8663SOL    HW226889   2.490   5.448   0.395
 8664SOL     OW26890   4.267   5.359   0.837
 8664SOL    HW126891   4.315   5.447   0.834
 8664SOL    HW226892   4.329   5.289   0.873
 8665SOL     OW26893   5.104   5.550   5.609
 8665SOL    HW126894   5.008   5.549   5.584
 8665SOL    HW226895   5.113   5.546   5.709
 8666SOL     OW26896   5.114   3.450   4.709
 8666SOL    HW126897   5.054   3.447   4.789
 8666SOL    HW226898   5.082   3.385   4.641
 8667SOL     OW26899   4.653   1.737   3.656
 8667SOL    HW126900   4.748   1.703   3.662
 8667SOL    HW226901   4.650   1.818   3.598
 8668SOL     OW26902   3.645   2.044   4.318
 8668SOL    HW126903   3.672   2.106   4.244
 8668SOL    HW226904   3.622   1.955   4.280
 8669SOL     OW26905   4.157   0.920   6.228
 8669SOL    HW126906   4.139   0.873   6.314
 8669SOL    HW226907   4.148   0.856   6.152
 8670SOL     OW26908   3.625   5.192   4.349
 8670SOL    HW126909   3.564   5.271   4.348
 8670SOL    HW226910   3.696   5.204   4.279
 8671SOL     OW26911   5.499   6.392   2.977
 8671SOL    HW126912   5.443   6.472   3.002
 8671SOL    HW226913   5.595   6.411   2.997
 8672SOL     OW26914   3.281   5.034   4.833
 8672SOL    HW126915   3.228   4.961   4.789
 8672SOL    HW226916   3.218   5.101   4.872
 8673SOL     OW26917   5.445   2.143   0.788
 8673SOL    HW126918   5.369   2.207   0.780
 8673SOL    HW226919   5.512   2.162   0.716
 8674SOL     OW26920   0.596   0.331   2.711
 8674SOL    HW126921   0.684   0.370   2.739
 8674SOL    HW226922   0.610   0.269   2.634
 8675SOL     OW26923   2.109   1.518   2.757
 8675SOL    HW126924   2.098   1.447   2.687
 8675SOL    HW226925   2.203   1.518   2.789
 8676SOL     OW26926   4.504   0.469   3.183
 8676SOL    HW126927   4.533   0.374   3.195
 8676SOL    HW226928   4.406   0.471   3.161
 8677SOL     OW26929   2.679   4.320   5.542
 8677SOL    HW126930   2.587   4.283   5.550
 8677SOL    HW226931   2.714   4.303   5.449
 8678SOL     OW26932   1.218   6.935   6.368
 8678SOL    HW126933   1.263   6.962   6.283
 8678SOL    HW226934   1.286   6.895   6.430
 8679SOL     OW26935   0.076   2.478   4.520
 8679SOL    HW126936   0.092   2.571   4.554
 8679SOL    HW226937   0.098   2.412   4.592
 8680SOL     OW26938   1.577   3.123   0.393
 8680SOL    HW126939   1.616   3.215   0.404
 8680SOL    HW226940   1.616   3.062   0.463
 8681SOL     OW26941   3.635   3.778   0.988
 8681SOL    HW126942   3.695   3.831   0.929
 8681SOL    HW226943   3.545   3.770   0.945
 8682SOL     OW26944   2.148   6.134   2.706
 8682SOL    HW126945   2.069   6.123   2.645
 8682SOL    HW226946   2.171   6.046   2.747
 8683SOL     OW26947   6.511   3.237   6.927
 8683SOL    HW126948   6.576   3.257   6.853
 8683SOL    HW226949   6.459   3.155   6.904
 8684SOL     OW26950   6.619   2.872   3.928
 8684SOL    HW126951   6.644   2.775   3.931
 8684SOL    HW226952   6.608   2.906   4.022
 8685SOL     OW26953   1.179   2.247   5.386
 8685SOL    HW126954   1.184   2.164   5.331
 8685SOL    HW226955   1.241   2.240   5.464
 8686SOL     OW26956   6.457   2.489   3.598
 8686SOL    HW126957   6.525   2.560   3.617
 8686SOL    HW226958   6.493   2.400   3.626
 8687SOL     OW26959   3.662   0.229   3.282
 8687SOL    HW126960   3.657   0.289   3.203
 8687SOL    HW226961   3.590   0.160   3.276
 8688SOL     OW26962   2.124   0.802   2.110
 8688SOL    HW126963   2.026   0.805   2.133
 8688SOL    HW226964   2.141   0.861   2.031
 8689SOL     OW26965   4.552   6.009   0.788
 8689SOL    HW126966   4.518   5.958   0.709
 8689SOL    HW226967   4.475   6.034   0.847
 8690SOL     OW26968   0.331   1.466   2.744
 8690SOL    HW126969   0.247   1.418   2.770
 8690SOL    HW226970   0.385   1.407   2.683
 8691SOL     OW26971   5.214   2.336   0.489
 8691SOL    HW126972   5.139   2.294   0.437
 8691SOL    HW226973   5.179   2.416   0.538
 8692SOL     OW26974   2.073   1.412   4.263
 8692SOL    HW126975   2.010   1.372   4.196
 8692SOL    HW226976   2.022   1.468   4.328
 8693SOL     OW26977   5.240   2.341   0.803
 8693SOL    HW126978   5.189   2.314   0.885
 8693SOL    HW226979   5.180   2.336   0.723
 8694SOL     OW26980   4.806   6.841   5.817
 8694SOL    HW126981   4.767   6.864   5.728
 8694SOL    HW226982   4.757   6.763   5.856
 8695SOL     OW26983   4.062   4.523   5.695
 8695SOL    HW126984   3.968   4.501   5.671
 8695SOL    HW226985   4.092   4.465   5.771
 8696SOL     OW26986   2.056   5.372   1.464
 8696SOL    HW126987   2.056   5.296   1.399
 8696SOL    HW226988   1.967   5.417   1.463
 8697SOL     OW26989   6.266   4.559   1.337
 8697SOL    HW126990   6.321   4.477   1.351
 8697SOL    HW226991   6.231   4.559   1.243
 8698SOL     OW26992   5.333   5.605   4.605
 8698SOL    HW126993   5.243   5.626   4.568
 8698SOL    HW226994   5.393   5.573   4.531
 8699SOL     OW26995   1.113   1.487   5.089
 8699SOL    HW126996   1.038   1.482   5.024
 8699SOL    HW226997   1.178   1.413   5.070
 8700SOL     OW26998   2.955   1.269   5.565
 8700SOL    HW126999   2.867   1.294   5.523
 8700SOL    HW227000   3.029   1.317   5.518
 8701SOL     OW27001   0.799   1.639   5.066
 8701SOL    HW127002   0.816   1.706   4.993
 8701SOL    HW227003   0.775   1.688   5.150
 8702SOL     OW27004   4.577   5.887   0.188
 8702SOL    HW127005   4.529   5.801   0.172
 8702SOL    HW227006   4.651   5.896   0.121
 8703SOL     OW27007   2.814   5.525   0.631
 8703SOL    HW127008   2.724   5.568   0.634
 8703SOL    HW227009   2.842   5.500   0.724
 8704SOL     OW27010   0.347   4.106   1.724
 8704SOL    HW127011   0.276   4.042   1.756
 8704SOL    HW227012   0.309   4.165   1.653
 8705SOL     OW27013   4.949   0.073   5.838
 8705SOL    HW127014   4.893   7.010   5.836
 8705SOL    HW227015   4.910   0.137   5.904
 8706SOL     OW27016   5.175   1.840   0.676
 8706SOL    HW127017   5.220   1.886   0.753
 8706SOL    HW227018   5.107   1.901   0.636
 8707SOL     OW27019   4.960   2.994   5.809
 8707SOL    HW127020   5.023   2.939   5.862
 8707SOL    HW227021   5.011   3.048   5.742
 8708SOL     OW27022   4.136   1.475   1.125
 8708SOL    HW127023   4.146   1.387   1.171
 8708SOL    HW227024   4.217   1.494   1.071
 8709SOL     OW27025   6.812   4.006   0.985
 8709SOL    HW127026   6.862   3.958   0.914
 8709SOL    HW227027   6.874   4.064   1.038
 8710SOL     OW27028   1.566   3.279   3.257
 8710SOL    HW127029   1.487   3.220   3.238
 8710SOL    HW227030   1.604   3.256   3.346
 8711SOL     OW27031   0.438   1.248   4.164
 8711SOL    HW127032   0.513   1.215   4.221
 8711SOL    HW227033   0.353   1.200   4.189
 8712SOL     OW27034   3.572   1.715   5.734
 8712SOL    HW127035   3.649   1.664   5.696
 8712SOL    HW227036   3.513   1.746   5.660
 8713SOL     OW27037   0.173   4.800   3.398
 8713SOL    HW127038   0.080   4.764   3.391
 8713SOL    HW227039   0.179   4.888   3.350
 8714SOL     OW27040   1.486   1.364   4.886
 8714SOL    HW127041   1.496   1.367   4.787
 8714SOL    HW227042   1.511   1.452   4.925
 8715SOL     OW27043   6.305   1.934   1.429
 8715SOL    HW127044   6.382   1.888   1.472
 8715SOL    HW227045   6.219   1.906   1.472
 8716SOL     OW27046   1.531   2.060   1.203
 8716SOL    HW127047   1.561   2.156   1.206
 8716SOL    HW227048   1.433   2.057   1.181
 8717SOL     OW27049   2.935   3.509   0.890
 8717SOL    HW127050   3.019   3.502   0.944
 8717SOL    HW227051   2.872   3.436   0.916
 8718SOL     OW27052   6.011   3.139   5.225
 8718SOL    HW127053   6.043   3.098   5.310
 8718SOL    HW227054   5.942   3.080   5.183
 8719SOL     OW27055   6.727   0.433   6.274
 8719SOL    HW127056   6.760   0.527   6.266
 8719SOL    HW227057   6.793   0.371   6.233
 8720SOL     OW27058   4.756   3.638   6.528
 8720SOL    HW127059   4.785   3.708   6.463
 8720SOL    HW227060   4.657   3.641   6.539
 8721SOL     OW27061   0.274   2.484   3.856
 8721SOL    HW127062   0.320   2.510   3.771
 8721SOL    HW227063   0.286   2.556   3.924
 8722SOL     OW27064   3.660   2.459   0.388
 8722SOL    HW127065   3.655   2.544   0.442
 8722SOL    HW227066   3.625   2.477   0.296
 8723SOL     OW27067   6.828   4.336   1.460
 8723SOL    HW127068   6.826   4.389   1.545
 8723SOL    HW227069   6.742   4.349   1.411
 8724SOL     OW27070   4.762   6.822   6.579
 8724SOL    HW127071   4.737   6.753   6.646
 8724SOL    HW227072   4.803   6.900   6.626
 8725SOL     OW27073   2.954   5.750   0.448
 8725SOL    HW127074   2.891   5.827   0.434
 8725SOL    HW227075   2.934   5.706   0.535
 8726SOL     OW27076   5.431   0.518   1.452
 8726SOL    HW127077   5.383   0.602   1.427
 8726SOL    HW227078   5.528   0.539   1.469
 8727SOL     OW27079   6.322   5.934   1.208
 8727SOL    HW127080   6.376   5.941   1.125
 8727SOL    HW227081   6.369   5.982   1.283
 8728SOL     OW27082   2.493   6.742   4.806
 8728SOL    HW127083   2.525   6.832   4.833
 8728SOL    HW227084   2.459   6.745   4.712
 8729SOL     OW27085   5.435   6.140   4.536
 8729SOL    HW127086   5.455   6.126   4.439
 8729SOL    HW227087   5.420   6.052   4.581
 8730SOL     OW27088   0.063   5.805   1.715
 8730SOL    HW127089   0.102   5.895   1.734
 8730SOL    HW227090   0.135   5.737   1.717
 8731SOL     OW27091   0.947   1.544   2.234
 8731SOL    HW127092   0.981   1.617   2.293
 8731SOL    HW227093   0.851   1.561   2.212
 8732SOL     OW27094   5.271   4.603   1.437
 8732SOL    HW127095   5.263   4.516   1.485
 8732SOL    HW227096   5.187   4.620   1.385
 8733SOL     OW27097   0.883   6.362   1.602
 8733SOL    HW127098   0.791   6.339   1.570
 8733SOL    HW227099   0.879   6.435   1.670
 8734SOL     OW27100   6.433   5.421   1.120
 8734SOL    HW127101   6.403   5.357   1.049
 8734SOL    HW227102   6.437   5.374   1.208
 8735SOL     OW27103   6.610   2.013   6.752
 8735SOL    HW127104   6.587   2.106   6.722
 8735SOL    HW227105   6.529   1.955   6.744
 8736SOL     OW27106   0.697   4.530   6.634
 8736SOL    HW127107   0.794   4.507   6.642
 8736SOL    HW227108   0.645   4.481   6.704
 8737SOL     OW27109   3.670   5.521   6.268
 8737SOL    HW127110   3.751   5.528   6.210
 8737SOL    HW227111   3.591   5.493   6.213
 8738SOL     OW27112   0.721   3.645   4.261
 8738SOL    HW127113   0.675   3.705   4.195
 8738SOL    HW227114   0.765   3.701   4.331
 8739SOL     OW27115   0.888   3.183   5.141
 8739SOL    HW127116   0.903   3.136   5.228
 8739SOL    HW227117   0.845   3.120   5.076
 8740SOL     OW27118   2.280   6.366   1.206
 8740SOL    HW127119   2.210   6.419   1.254
 8740SOL    HW227120   2.334   6.428   1.149
 8741SOL     OW27121   1.508   3.383   2.730
 8741SOL    HW127122   1.568   3.307   2.755
 8741SOL    HW227123   1.465   3.364   2.642
 8742SOL     OW27124   4.964   6.919   1.995
 8742SOL    HW127125   4.959   6.936   2.093
 8742SOL    HW227126   4.892   6.855   1.968
 8743SOL     OW27127   2.453   4.890   3.101
 8743SOL    HW127128   2.537   4.856   3.143
 8743SOL    HW227129   2.388   4.815   3.091
 8744SOL     OW27130   3.188   2.381   5.988
 8744SOL    HW127131   3.145   2.294   6.012
 8744SOL    HW227132   3.176   2.398   5.890
 8745SOL     OW27133   6.481   2.437   5.908
 8745SOL    HW127134   6.405   2.452   5.845
 8745SOL    HW227135   6.474   2.500   5.985
 8746SOL     OW27136   5.154   4.456   5.598
 8746SOL    HW127137   5.229   4.475   5.534
 8746SOL    HW227138   5.079   4.411   5.549
 8747SOL     OW27139   1.924   2.378   4.088
 8747SOL    HW127140   1.919   2.292   4.038
 8747SOL    HW227141   2.004   2.429   4.059
 8748SOL     OW27142   2.336   0.290   0.026
 8748SOL    HW127143   2.321   0.243   0.113
 8748SOL    HW227144   2.252   0.287   6.992
 8749SOL     OW27145   4.127   0.693   3.524
 8749SOL    HW127146   4.074   0.630   3.580
 8749SOL    HW227147   4.098   0.787   3.542
 8750SOL     OW27148   2.006   1.110   5.124
 8750SOL    HW127149   1.968   1.021   5.103
 8750SOL    HW227150   1.938   1.181   5.107
 8751SOL     OW27151   2.126   6.963   2.989
 8751SOL    HW127152   2.148   0.037   2.964
 8751SOL    HW227153   2.101   6.912   2.907
 8752SOL     OW27154   1.723   2.144   6.192
 8752SOL    HW127155   1.685   2.052   6.186
 8752SOL    HW227156   1.755   2.173   6.101
 8753SOL     OW27157   5.266   1.168   4.986
 8753SOL    HW127158   5.356   1.160   5.028
 8753SOL    HW227159   5.276   1.203   4.893
 8754SOL     OW27160   1.398   1.728   5.682
 8754SOL    HW127161   1.334   1.683   5.620
 8754SOL    HW227162   1.363   1.723   5.776
 8755SOL     OW27163   1.996   1.937   1.060
 8755SOL    HW127164   2.022   1.986   1.143
 8755SOL    HW227165   2.044   1.977   0.981
 8756SOL     OW27166   2.098   3.330   4.297
 8756SOL    HW127167   2.080   3.293   4.388
 8756SOL    HW227168   2.157   3.410   4.305
 8757SOL     OW27169   5.029   6.117   5.209
 8757SOL    HW127170   5.070   6.086   5.295
 8757SOL    HW227171   5.019   6.217   5.211
 8758SOL     OW27172   6.140   6.432   1.625
 8758SOL    HW127173   6.196   6.349   1.625
 8758SOL    HW227174   6.060   6.418   1.566
 8759SOL     OW27175   5.238   0.960   6.011
 8759SOL    HW127176   5.268   0.980   6.104
 8759SOL    HW227177   5.165   1.023   5.985
 8760SOL     OW27178   1.872   2.134   3.999
 8760SOL    HW127179   1.817   2.084   4.065
 8760SOL    HW227180   1.959   2.086   3.985
 8761SOL     OW27181   4.338   6.477   0.260
 8761SOL    HW127182   4.363   6.398   0.317
 8761SOL    HW227183   4.390   6.557   0.289
 8762SOL     OW27184   0.689   4.192   1.147
 8762SOL    HW127185   0.607   4.190   1.205
 8762SOL    HW227186   0.766   4.230   1.200
 8763SOL     OW27187   0.441   6.514   5.942
 8763SOL    HW127188   0.451   6.606   5.905
 8763SOL    HW227189   0.430   6.519   6.041
 8764SOL     OW27190   3.710   1.931   5.019
 8764SOL    HW127191   3.717   1.983   4.934
 8764SOL    HW227192   3.620   1.887   5.024
 8765SOL     OW27193   0.007   0.207   4.126
 8765SOL    HW127194   6.958   0.183   4.058
 8765SOL    HW227195   6.999   0.174   4.216
 8766SOL     OW27196   2.005   4.441   2.341
 8766SOL    HW127197   2.071   4.367   2.327
 8766SOL    HW227198   2.018   4.511   2.270
 8767SOL     OW27199   4.511   1.386   4.277
 8767SOL    HW127200   4.420   1.425   4.262
 8767SOL    HW227201   4.543   1.341   4.194
 8768SOL     OW27202   1.480   3.396   0.026
 8768SOL    HW127203   1.527   3.310   0.045
 8768SOL    HW227204   1.389   3.378   7.010
 8769SOL     OW27205   1.983   0.043   5.678
 8769SOL    HW127206   1.901   0.026   5.624
 8769SOL    HW227207   2.016   6.976   5.715
 8770SOL     OW27208   5.691   2.073   2.093
 8770SOL    HW127209   5.677   1.982   2.056
 8770SOL    HW227210   5.667   2.074   2.190
 8771SOL     OW27211   1.191   1.722   6.474
 8771SOL    HW127212   1.195   1.679   6.384
 8771SOL    HW227213   1.277   1.770   6.492
 8772SOL     OW27214   5.422   0.359   0.126
 8772SOL    HW127215   5.430   0.424   0.202
 8772SOL    HW227216   5.432   0.266   0.161
 8773SOL     OW27217   2.994   2.178   3.068
 8773SOL    HW127218   2.932   2.233   3.125
 8773SOL    HW227219   3.085   2.177   3.109
 8774SOL     OW27220   1.084   0.909   0.000
 8774SOL    HW127221   1.149   0.891   6.946
 8774SOL    HW227222   1.117   0.865   0.084
 8775SOL     OW27223   6.546   0.102   3.517
 8775SOL    HW127224   6.546   0.078   3.615
 8775SOL    HW227225   6.607   0.180   3.503
 8776SOL     OW27226   3.302   3.319   4.716
 8776SOL    HW127227   3.322   3.221   4.716
 8776SOL    HW227228   3.317   3.356   4.624
 8777SOL     OW27229   6.685   5.788   1.224
 8777SOL    HW127230   6.597   5.796   1.271
 8777SOL    HW227231   6.757   5.772   1.292
 8778SOL     OW27232   0.626   2.288   3.098
 8778SOL    HW127233   0.668   2.376   3.078
 8778SOL    HW227234   0.545   2.276   3.041
 8779SOL     OW27235   1.458   4.321   0.838
 8779SOL    HW127236   1.555   4.304   0.856
 8779SOL    HW227237   1.442   4.324   0.740
 8780SOL     OW27238   1.592   5.584   3.830
 8780SOL    HW127239   1.619   5.660   3.889
 8780SOL    HW227240   1.664   5.569   3.762
 8781SOL     OW27241   0.163   2.252   1.957
 8781SOL    HW127242   0.149   2.180   2.025
 8781SOL    HW227243   0.222   2.217   1.884
 8782SOL     OW27244   4.508   1.822   2.553
 8782SOL    HW127245   4.545   1.824   2.646
 8782SOL    HW227246   4.438   1.893   2.544
 8783SOL     OW27247   5.468   3.517   5.343
 8783SOL    HW127248   5.396   3.523   5.273
 8783SOL    HW227249   5.527   3.597   5.337
 8784SOL     OW27250   5.200   4.346   4.988
 8784SOL    HW127251   5.254   4.429   4.999
 8784SOL    HW227252   5.132   4.359   4.915
 8785SOL     OW27253   6.106   4.730   6.762
 8785SOL    HW127254   6.034   4.675   6.804
 8785SOL    HW227255   6.070   4.773   6.679
 8786SOL     OW27256   1.985   6.280   7.013
 8786SOL    HW127257   1.922   6.210   6.979
 8786SOL    HW227258   1.945   6.325   0.072
 8787SOL     OW27259   0.647   3.209   0.418
 8787SOL    HW127260   0.609   3.195   0.510
 8787SOL    HW227261   0.574   3.237   0.356
 8788SOL     OW27262   1.108   1.817   5.507
 8788SOL    HW127263   1.072   1.732   5.467
 8788SOL    HW227264   1.034   1.865   5.555
 8789SOL     OW27265   6.927   0.116   6.381
 8789SOL    HW127266   6.833   0.127   6.349
 8789SOL    HW227267   6.940   0.166   6.466
 8790SOL     OW27268   5.486   1.674   0.421
 8790SOL    HW127269   5.569   1.625   0.395
 8790SOL    HW227270   5.509   1.752   0.479
 8791SOL     OW27271   4.657   6.403   5.597
 8791SOL    HW127272   4.598   6.441   5.668
 8791SOL    HW227273   4.708   6.477   5.553
 8792SOL     OW27274   5.128   6.789   2.721
 8792SOL    HW127275   5.204   6.849   2.696
 8792SOL    HW227276   5.163   6.699   2.747
 8793SOL     OW27277   0.879   5.431   4.078
 8793SOL    HW127278   0.941   5.361   4.113
 8793SOL    HW227279   0.916   5.471   3.994
 8794SOL     OW27280   2.725   6.812   2.579
 8794SOL    HW127281   2.809   6.759   2.593
 8794SOL    HW227282   2.661   6.759   2.525
 8795SOL     OW27283   1.863   6.117   5.597
 8795SOL    HW127284   1.796   6.052   5.631
 8795SOL    HW227285   1.899   6.086   5.509
 8796SOL     OW27286   5.353   2.296   5.012
 8796SOL    HW127287   5.255   2.315   5.018
 8796SOL    HW227288   5.372   2.209   5.056
 8797SOL     OW27289   0.580   6.554   6.597
 8797SOL    HW127290   0.547   6.647   6.616
 8797SOL    HW227291   0.654   6.559   6.530
 8798SOL     OW27292   4.933   3.770   5.798
 8798SOL    HW127293   4.844   3.747   5.837
 8798SOL    HW227294   4.935   3.744   5.701
 8799SOL     OW27295   3.692   5.874   2.811
 8799SOL    HW127296   3.775   5.928   2.796
 8799SOL    HW227297   3.612   5.932   2.796
 8800SOL     OW27298   4.053   4.690   6.916
 8800SOL    HW127299   4.052   4.620   6.988
 8800SOL    HW227300   3.995   4.661   6.840
 8801SOL     OW27301   2.623   7.016   4.935
 8801SOL    HW127302   2.640   0.046   4.851
 8801SOL    HW227303   2.691   0.021   5.004
 8802SOL     OW27304   2.880   0.107   2.453
 8802SOL    HW127305   2.919   0.198   2.460
 8802SOL    HW227306   2.803   0.098   2.516
 8803SOL     OW27307   3.868   6.195   0.683
 8803SOL    HW127308   3.844   6.117   0.740
 8803SOL    HW227309   3.869   6.278   0.739
 8804SOL     OW27310   4.176   0.411   0.941
 8804SOL    HW127311   4.263   0.390   0.895
 8804SOL    HW227312   4.165   0.350   1.019
 8805SOL     OW27313   0.220   0.399   2.858
 8805SOL    HW127314   0.133   0.446   2.874
 8805SOL    HW227315   0.202   0.308   2.821
 8806SOL     OW27316   2.243   4.731   6.486
 8806SOL    HW127317   2.234   4.714   6.584
 8806SOL    HW227318   2.204   4.654   6.435
 8807SOL     OW27319   1.550   5.815   6.367
 8807SOL    HW127320   1.600   5.840   6.285
 8807SOL    HW227321   1.520   5.898   6.415
 8808SOL     OW27322   6.161   1.042   1.065
 8808SOL    HW127323   6.117   1.087   1.143
 8808SOL    HW227324   6.260   1.049   1.076
 8809SOL     OW27325   5.826   3.916   1.515
 8809SOL    HW127326   5.893   3.990   1.529
 8809SOL    HW227327   5.874   3.833   1.487
 8810SOL     OW27328   4.850   1.618   4.089
 8810SOL    HW127329   4.793   1.608   4.170
 8810SOL    HW227330   4.944   1.594   4.112
 8811SOL     OW27331   1.141   1.464   3.430
 8811SOL    HW127332   1.168   1.371   3.455
 8811SOL    HW227333   1.136   1.471   3.331
 8812SOL     OW27334   1.877   0.457   0.933
 8812SOL    HW127335   1.854   0.362   0.915
 8812SOL    HW227336   1.975   0.466   0.948
 8813SOL     OW27337   1.609   4.966   0.988
 8813SOL    HW127338   1.687   4.926   0.939
 8813SOL    HW227339   1.524   4.937   0.945
 8814SOL     OW27340   5.287   0.542   6.654
 8814SOL    HW127341   5.333   0.544   6.742
 8814SOL    HW227342   5.206   0.600   6.657
 8815SOL     OW27343   0.362   6.109   2.597
 8815SOL    HW127344   0.401   6.095   2.688
 8815SOL    HW227345   0.294   6.182   2.601
 8816SOL     OW27346   0.805   5.848   1.194
 8816SOL    HW127347   0.786   5.752   1.172
 8816SOL    HW227348   0.741   5.906   1.143
 8817SOL     OW27349   2.516   5.243   5.407
 8817SOL    HW127350   2.612   5.259   5.383
 8817SOL    HW227351   2.512   5.194   5.495
 8818SOL     OW27352   6.905   5.186   4.099
 8818SOL    HW127353   6.809   5.158   4.110
 8818SOL    HW227354   6.915   5.281   4.127
 8819SOL     OW27355   5.295   7.013   4.662
 8819SOL    HW127356   5.380   7.013   4.715
 8819SOL    HW227357   5.219   0.018   4.722
 8820SOL     OW27358   1.411   2.549   4.235
 8820SOL    HW127359   1.404   2.618   4.308
 8820SOL    HW227360   1.401   2.594   4.146
 8821SOL     OW27361   1.894   1.098   5.939
 8821SOL    HW127362   1.817   1.161   5.937
 8821SOL    HW227363   1.896   1.050   6.027
 8822SOL     OW27364   0.393   2.487   3.185
 8822SOL    HW127365   0.426   2.567   3.134
 8822SOL    HW227366   0.439   2.483   3.274
 8823SOL     OW27367   2.513   5.787   1.903
 8823SOL    HW127368   2.596   5.790   1.959
 8823SOL    HW227369   2.433   5.781   1.963
 8824SOL     OW27370   3.841   3.866   0.798
 8824SOL    HW127371   3.836   3.828   0.705
 8824SOL    HW227372   3.935   3.893   0.817
 8825SOL     OW27373   1.118   1.769   1.306
 8825SOL    HW127374   1.084   1.699   1.244
 8825SOL    HW227375   1.050   1.788   1.376
 8826SOL     OW27376   5.678   1.494   6.803
 8826SOL    HW127377   5.594   1.474   6.853
 8826SOL    HW227378   5.732   1.410   6.795
 8827SOL     OW27379   1.243   1.230   3.490
 8827SOL    HW127380   1.189   1.169   3.548
 8827SOL    HW227381   1.340   1.211   3.504
 8828SOL     OW27382   2.065   6.411   2.613
 8828SOL    HW127383   1.994   6.342   2.599
 8828SOL    HW227384   2.144   6.389   2.556
 8829SOL     OW27385   0.279   1.570   0.391
 8829SOL    HW127386   0.274   1.669   0.379
 8829SOL    HW227387   0.257   1.546   0.485
 8830SOL     OW27388   0.620   2.077   0.476
 8830SOL    HW127389   0.671   2.161   0.494
 8830SOL    HW227390   0.572   2.049   0.560
 8831SOL     OW27391   6.676   0.695   2.794
 8831SOL    HW127392   6.599   0.719   2.853
 8831SOL    HW227393   6.688   0.767   2.725
 8832SOL     OW27394   0.157   1.194   2.406
 8832SOL    HW127395   0.074   1.187   2.351
 8832SOL    HW227396   0.193   1.287   2.401
 8833SOL     OW27397   2.290   4.794   3.716
 8833SOL    HW127398   2.226   4.750   3.779
 8833SOL    HW227399   2.243   4.815   3.631
 8834SOL     OW27400   5.919   3.904   4.563
 8834SOL    HW127401   5.874   3.850   4.634
 8834SOL    HW227402   5.948   3.992   4.600
 8835SOL     OW27403   0.180   6.837   6.562
 8835SOL    HW127404   0.189   6.936   6.556
 8835SOL    HW227405   0.089   6.810   6.530
 8836SOL     OW27406   4.974   2.187   0.793
 8836SOL    HW127407   4.891   2.241   0.775
 8836SOL    HW227408   4.982   2.170   0.891
 8837SOL     OW27409   0.272   1.271   1.533
 8837SOL    HW127410   0.193   1.303   1.584
 8837SOL    HW227411   0.330   1.349   1.508
 8838SOL     OW27412   2.279   5.569   3.874
 8838SOL    HW127413   2.249   5.610   3.787
 8838SOL    HW227414   2.361   5.616   3.906
 8839SOL     OW27415   6.475   6.484   3.768
 8839SOL    HW127416   6.494   6.445   3.858
 8839SOL    HW227417   6.408   6.558   3.777
 8840SOL     OW27418   5.318   1.849   1.982
 8840SOL    HW127419   5.278   1.936   2.012
 8840SOL    HW227420   5.323   1.786   2.060
 8841SOL     OW27421   1.832   0.525   4.411
 8841SOL    HW127422   1.863   0.584   4.485
 8841SOL    HW227423   1.879   0.548   4.327
 8842SOL     OW27424   2.175   3.170   2.356
 8842SOL    HW127425   2.190   3.269   2.362
 8842SOL    HW227426   2.160   3.144   2.261
 8843SOL     OW27427   0.461   3.063   4.683
 8843SOL    HW127428   0.419   3.054   4.773
 8843SOL    HW227429   0.560   3.073   4.694
 8844SOL     OW27430   6.331   1.612   6.568
 8844SOL    HW127431   6.366   1.654   6.652
 8844SOL    HW227432   6.405   1.562   6.523
 8845SOL     OW27433   5.522   4.561   0.069
 8845SOL    HW127434   5.503   4.660   0.067
 8845SOL    HW227435   5.583   4.541   0.146
 8846SOL     OW27436   2.142   4.496   3.420
 8846SOL    HW127437   2.177   4.444   3.342
 8846SOL    HW227438   2.058   4.544   3.393
 8847SOL     OW27439   2.645   0.992   2.531
 8847SOL    HW127440   2.730   0.939   2.532
 8847SOL    HW227441   2.573   0.941   2.578
 8848SOL     OW27442   1.263   0.264   2.524
 8848SOL    HW127443   1.196   0.202   2.484
 8848SOL    HW227444   1.221   0.316   2.598
 8849SOL     OW27445   2.836   6.817   1.321
 8849SOL    HW127446   2.907   6.763   1.275
 8849SOL    HW227447   2.813   6.896   1.264
 8850SOL     OW27448   3.247   2.753   6.946
 8850SOL    HW127449   3.304   2.800   7.014
 8850SOL    HW227450   3.215   2.667   6.984
 8851SOL     OW27451   1.388   3.275   2.975
 8851SOL    HW127452   1.460   3.205   2.969
 8851SOL    HW227453   1.395   3.335   2.896
 8852SOL     OW27454   0.819   1.875   5.950
 8852SOL    HW127455   0.888   1.942   5.981
 8852SOL    HW227456   0.764   1.845   6.028
 8853SOL     OW27457   5.251   1.179   1.194
 8853SOL    HW127458   5.218   1.267   1.228
 8853SOL    HW227459   5.330   1.149   1.248
 8854SOL     OW27460   0.921   2.241   5.036
 8854SOL    HW127461   0.987   2.184   4.988
 8854SOL    HW227462   0.920   2.216   5.133
 8855SOL     OW27463   5.641   5.414   0.847
 8855SOL    HW127464   5.682   5.369   0.927
 8855SOL    HW227465   5.556   5.459   0.874
 8856SOL     OW27466   6.666   0.198   5.630
 8856SOL    HW127467   6.613   0.141   5.567
 8856SOL    HW227468   6.761   0.204   5.598
 8857SOL     OW27469   6.648   1.779   6.027
 8857SOL    HW127470   6.591   1.788   5.945
 8857SOL    HW227471   6.602   1.824   6.104
 8858SOL     OW27472   5.836   6.012   4.534
 8858SOL    HW127473   5.865   5.917   4.547
 8858SOL    HW227474   5.801   6.048   4.621
 8859SOL     OW27475   0.731   6.370   3.634
 8859SOL    HW127476   0.765   6.397   3.724
 8859SOL    HW227477   0.685   6.447   3.591
 8860SOL     OW27478   0.349   4.356   2.854
 8860SOL    HW127479   0.334   4.272   2.906
 8860SOL    HW227480   0.371   4.332   2.759
 8861SOL     OW27481   4.239   2.951   0.567
 8861SOL    HW127482   4.145   2.977   0.588
 8861SOL    HW227483   4.260   2.864   0.610
 8862SOL     OW27484   4.731   4.748   4.966
 8862SOL    HW127485   4.770   4.762   5.057
 8862SOL    HW227486   4.781   4.676   4.919
 8863SOL     OW27487   2.176   3.840   3.579
 8863SOL    HW127488   2.271   3.871   3.580
 8863SOL    HW227489   2.133   3.865   3.492
 8864SOL     OW27490   6.157   1.801   5.420
 8864SOL    HW127491   6.143   1.729   5.489
 8864SOL    HW227492   6.171   1.759   5.331
 8865SOL     OW27493   2.657   1.547   0.483
 8865SOL    HW127494   2.639   1.622   0.419
 8865SOL    HW227495   2.572   1.523   0.531
 8866SOL     OW27496   6.048   6.721   2.269
 8866SOL    HW127497   6.020   6.683   2.180
 8866SOL    HW227498   6.052   6.647   2.336
 8867SOL     OW27499   6.491   3.811   3.238
 8867SOL    HW127500   6.564   3.749   3.211
 8867SOL    HW227501   6.488   3.888   3.175
 8868SOL     OW27502   6.541   3.015   3.447
 8868SOL    HW127503   6.640   3.003   3.447
 8868SOL    HW227504   6.500   2.952   3.381
 8869SOL     OW27505   4.019   6.856   3.468
 8869SOL    HW127506   3.971   6.800   3.535
 8869SOL    HW227507   3.964   6.938   3.447
 8870SOL     OW27508   1.489   0.524   3.010
 8870SOL    HW127509   1.469   0.552   3.104
 8870SOL    HW227510   1.412   0.548   2.951
 8871SOL     OW27511   6.696   0.493   2.603
 8871SOL    HW127512   6.602   0.460   2.596
 8871SOL    HW227513   6.708   0.543   2.689
 8872SOL     OW27514   6.287   4.493   3.692
 8872SOL    HW127515   6.224   4.467   3.764
 8872SOL    HW227516   6.239   4.495   3.604
 8873SOL     OW27517   2.195   1.852   2.895
 8873SOL    HW127518   2.131   1.808   2.832
 8873SOL    HW227519   2.280   1.873   2.847
 8874SOL     OW27520   3.303   6.264   1.112
 8874SOL    HW127521   3.287   6.167   1.094
 8874SOL    HW227522   3.259   6.291   1.197
 8875SOL     OW27523   6.636   3.285   4.432
 8875SOL    HW127524   6.733   3.305   4.416
 8875SOL    HW227525   6.603   3.340   4.508
 8876SOL     OW27526   4.366   0.499   6.488
 8876SOL    HW127527   4.465   0.508   6.478
 8876SOL    HW227528   4.333   0.564   6.556
 8877SOL     OW27529   0.908   4.301   1.288
 8877SOL    HW127530   0.904   4.381   1.348
 8877SOL    HW227531   1.001   4.290   1.253
 8878SOL     OW27532   4.426   3.968   1.023
 8878SOL    HW127533   4.406   3.871   1.040
 8878SOL    HW227534   4.436   3.983   0.925
 8879SOL     OW27535   6.532   4.834   2.904
 8879SOL    HW127536   6.575   4.842   2.994
 8879SOL    HW227537   6.602   4.836   2.833
 8880SOL     OW27538   4.255   1.165   3.583
 8880SOL    HW127539   4.215   1.254   3.604
 8880SOL    HW227540   4.283   1.163   3.487
 8881SOL     OW27541   3.969   5.029   4.170
 8881SOL    HW127542   3.885   5.019   4.117
 8881SOL    HW227543   3.955   4.993   4.263
 8882SOL     OW27544   4.287   1.061   0.674
 8882SOL    HW127545   4.263   1.026   0.583
 8882SOL    HW227546   4.361   1.128   0.666
 8883SOL     OW27547   6.924   6.669   4.524
 8883SOL    HW127548   6.963   6.662   4.615
 8883SOL    HW227549   6.943   6.585   4.473
 8884SOL     OW27550   4.997   3.597   5.259
 8884SOL    HW127551   4.921   3.556   5.210
 8884SOL    HW227552   5.083   3.568   5.217
 8885SOL     OW27553   6.152   6.105   0.930
 8885SOL    HW127554   6.108   6.016   0.915
 8885SOL    HW227555   6.251   6.095   0.924
 8886SOL     OW27556   4.146   5.847   6.538
 8886SOL    HW127557   4.155   5.910   6.461
 8886SOL    HW227558   4.222   5.782   6.537
 8887SOL     OW27559   4.699   0.185   1.767
 8887SOL    HW127560   4.712   0.272   1.718
 8887SOL    HW227561   4.780   0.128   1.756
 8888SOL     OW27562   3.168   1.989   2.625
 8888SOL    HW127563   3.248   2.033   2.668
 8888SOL    HW227564   3.137   1.913   2.682
 8889SOL     OW27565   1.419   5.207   6.366
 8889SOL    HW127566   1.364   5.283   6.400
 8889SOL    HW227567   1.462   5.233   6.279
 8890SOL     OW27568   0.906   6.210   0.327
 8890SOL    HW127569   0.993   6.257   0.342
 8890SOL    HW227570   0.915   6.146   0.250
 8891SOL     OW27571   6.754   3.848   5.940
 8891SOL    HW127572   6.672   3.898   5.911
 8891SOL    HW227573   6.813   3.833   5.861
 8892SOL     OW27574   3.364   5.293   4.748
 8892SOL    HW127575   3.325   5.206   4.778
 8892SOL    HW227576   3.463   5.283   4.740
 8893SOL     OW27577   1.051   5.285   5.144
 8893SOL    HW127578   1.008   5.292   5.234
 8893SOL    HW227579   1.142   5.244   5.155
 8894SOL     OW27580   4.529   2.250   0.886
 8894SOL    HW127581   4.627   2.253   0.904
 8894SOL    HW227582   4.483   2.322   0.939
 8895SOL     OW27583   6.985   3.545   0.495
 8895SOL    HW127584   7.001   3.561   0.592
 8895SOL    HW227585   0.027   3.601   0.441
 8896SOL     OW27586   0.564   1.979   4.360
 8896SOL    HW127587   0.492   2.048   4.360
 8896SOL    HW227588   0.604   1.972   4.452
 8897SOL     OW27589   1.569   4.868   4.146
 8897SOL    HW127590   1.587   4.810   4.226
 8897SOL    HW227591   1.653   4.915   4.120
 8898SOL     OW27592   4.705   4.291   2.657
 8898SOL    HW127593   4.681   4.362   2.590
 8898SOL    HW227594   4.644   4.297   2.735
 8899SOL     OW27595   1.466   3.830   3.646
 8899SOL    HW127596   1.402   3.907   3.648
 8899SOL    HW227597   1.463   3.786   3.556
 8900SOL     OW27598   4.742   2.362   4.254
 8900SOL    HW127599   4.746   2.299   4.177
 8900SOL    HW227600   4.674   2.433   4.236
 8901SOL     OW27601   1.437   4.115   4.432
 8901SOL    HW127602   1.443   4.094   4.530
 8901SOL    HW227603   1.342   4.137   4.409
 8902SOL     OW27604   0.277   4.113   0.622
 8902SOL    HW127605   0.216   4.148   0.551
 8902SOL    HW227606   0.254   4.155   0.710
 8903SOL     OW27607   1.092   0.185   5.077
 8903SOL    HW127608   1.064   0.204   5.171
 8903SOL    HW227609   1.014   0.200   5.016
 8904SOL     OW27610   0.114   1.065   3.286
 8904SOL    HW127611   0.132   1.110   3.199
 8904SOL    HW227612   0.200   1.035   3.327
 8905SOL     OW27613   1.185   3.429   2.724
 8905SOL    HW127614   1.144   3.425   2.633
 8905SOL    HW227615   1.220   3.521   2.741
 8906SOL     OW27616   5.983   6.964   6.872
 8906SOL    HW127617   6.033   6.882   6.843
 8906SOL    HW227618   6.003   6.984   6.968
 8907SOL     OW27619   2.788   3.676   5.364
 8907SOL    HW127620   2.708   3.730   5.339
 8907SOL    HW227621   2.858   3.684   5.293
 8908SOL     OW27622   1.272   4.717   7.008
 8908SOL    HW127623   1.226   4.636   0.024
 8908SOL    HW227624   1.204   4.786   6.985
 8909SOL     OW27625   2.015   6.849   1.718
 8909SOL    HW127626   2.006   6.944   1.688
 8909SOL    HW227627   1.996   6.788   1.641
 8910SOL     OW27628   1.684   0.226   3.853
 8910SOL    HW127629   1.701   0.137   3.895
 8910SOL    HW227630   1.699   0.220   3.754
 8911SOL     OW27631   4.156   2.230   4.776
 8911SOL    HW127632   4.062   2.196   4.773
 8911SOL    HW227633   4.187   2.232   4.871
 8912SOL     OW27634   3.773   3.670   4.144
 8912SOL    HW127635   3.851   3.732   4.132
 8912SOL    HW227636   3.705   3.712   4.204
 8913SOL     OW27637   5.333   6.339   0.089
 8913SOL    HW127638   5.303   6.337   0.184
 8913SOL    HW227639   5.267   6.290   0.032
 8914SOL     OW27640   4.874   5.068   6.654
 8914SOL    HW127641   4.907   5.034   6.566
 8914SOL    HW227642   4.869   5.168   6.650
 8915SOL     OW27643   1.603   0.999   3.469
 8915SOL    HW127644   1.619   1.078   3.528
 8915SOL    HW227645   1.556   1.029   3.386
 8916SOL     OW27646   4.889   1.348   0.874
 8916SOL    HW127647   4.964   1.301   0.921
 8916SOL    HW227648   4.896   1.331   0.776
 8917SOL     OW27649   5.691   2.104   0.613
 8917SOL    HW127650   5.650   2.022   0.573
 8917SOL    HW227651   5.790   2.094   0.615
 8918SOL     OW27652   0.341   3.702   2.905
 8918SOL    HW127653   0.366   3.633   2.973
 8918SOL    HW227654   0.349   3.664   2.813
 8919SOL     OW27655   6.450   3.545   1.423
 8919SOL    HW127656   6.502   3.608   1.481
 8919SOL    HW227657   6.505   3.520   1.343
 8920SOL     OW27658   6.450   1.084   0.220
 8920SOL    HW127659   6.441   1.060   0.317
 8920SOL    HW227660   6.479   1.003   0.168
 8921SOL     OW27661   2.123   3.351   2.734
 8921SOL    HW127662   2.169   3.274   2.690
 8921SOL    HW227663   2.091   3.324   2.824
 8922SOL     OW27664   4.309   5.833   4.004
 8922SOL    HW127665   4.388   5.800   4.054
 8922SOL    HW227666   4.258   5.898   4.061
 8923SOL     OW27667   2.029   1.603   4.451
 8923SOL    HW127668   1.966   1.677   4.429
 8923SOL    HW227669   2.120   1.641   4.470
 8924SOL     OW27670   6.288   5.095   5.108
 8924SOL    HW127671   6.367   5.039   5.132
 8924SOL    HW227672   6.220   5.038   5.061
 8925SOL     OW27673   1.006   6.096   2.434
 8925SOL    HW127674   0.981   6.192   2.426
 8925SOL    HW227675   1.086   6.077   2.378
 8926SOL     OW27676   5.625   1.806   6.376
 8926SOL    HW127677   5.654   1.894   6.339
 8926SOL    HW227678   5.557   1.821   6.448
 8927SOL     OW27679   1.386   0.974   5.784
 8927SOL    HW127680   1.388   0.983   5.684
 8927SOL    HW227681   1.405   0.879   5.809
 8928SOL     OW27682   0.964   6.315   5.369
 8928SOL    HW127683   0.905   6.393   5.351
 8928SOL    HW227684   0.933   6.236   5.316
 8929SOL     OW27685   0.181   1.654   4.462
 8929SOL    HW127686   0.279   1.636   4.473
 8929SOL    HW227687   0.168   1.750   4.436
 8930SOL     OW27688   2.095   4.484   3.682
 8930SOL    HW127689   2.097   4.501   3.583
 8930SOL    HW227690   2.066   4.390   3.700
 8931SOL     OW27691   4.200   2.990   0.296
 8931SOL    HW127692   4.225   2.966   0.390
 8931SOL    HW227693   4.275   2.964   0.235
 8932SOL     OW27694   0.762   3.383   3.384
 8932SOL    HW127695   0.693   3.438   3.432
 8932SOL    HW227696   0.741   3.382   3.286
 8933SOL     OW27697   3.757   2.224   5.201
 8933SOL    HW127698   3.707   2.145   5.166
 8933SOL    HW227699   3.848   2.227   5.159
 8934SOL     OW27700   2.980   5.635   3.001
 8934SOL    HW127701   2.950   5.560   3.061
 8934SOL    HW227702   2.970   5.608   2.906
 8935SOL     OW27703   0.130   4.434   1.250
 8935SOL    HW127704   0.205   4.479   1.203
 8935SOL    HW227705   0.047   4.439   1.195
 8936SOL     OW27706   2.977   2.456   0.980
 8936SOL    HW127707   3.021   2.373   1.014
 8936SOL    HW227708   2.882   2.457   1.010
 8937SOL     OW27709   0.521   6.117   6.017
 8937SOL    HW127710   0.566   6.038   5.974
 8937SOL    HW227711   0.517   6.192   5.951
 8938SOL     OW27712   5.384   5.966   1.499
 8938SOL    HW127713   5.392   5.908   1.580
 8938SOL    HW227714   5.474   6.005   1.478
 8939SOL     OW27715   4.614   2.041   4.942
 8939SOL    HW127716   4.518   2.040   4.914
 8939SOL    HW227717   4.627   2.112   5.011
 8940SOL     OW27718   5.806   0.598   2.829
 8940SOL    HW127719   5.775   0.519   2.880
 8940SOL    HW227720   5.796   0.581   2.731
 8941SOL     OW27721   4.964   1.901   5.975
 8941SOL    HW127722   4.942   1.894   5.878
 8941SOL    HW227723   5.018   1.984   5.991
 8942SOL     OW27724   0.477   2.800   5.259
 8942SOL    HW127725   0.419   2.722   5.282
 8942SOL    HW227726   0.447   2.880   5.311
 8943SOL     OW27727   5.219   4.075   1.062
 8943SOL    HW127728   5.277   4.029   1.129
 8943SOL    HW227729   5.167   4.008   1.011
 8944SOL     OW27730   4.424   5.627   0.831
 8944SOL    HW127731   4.504   5.606   0.888
 8944SOL    HW227732   4.344   5.640   0.890
 8945SOL     OW27733   2.067   0.799   4.226
 8945SOL    HW127734   2.076   0.701   4.244
 8945SOL    HW227735   2.009   0.813   4.146
 8946SOL     OW27736   3.658   1.800   4.174
 8946SOL    HW127737   3.707   1.752   4.247
 8946SOL    HW227738   3.724   1.840   4.110
 8947SOL     OW27739   4.085   3.890   5.169
 8947SOL    HW127740   4.103   3.867   5.073
 8947SOL    HW227741   4.171   3.910   5.215
 8948SOL     OW27742   6.162   5.243   2.978
 8948SOL    HW127743   6.152   5.214   3.073
 8948SOL    HW227744   6.087   5.304   2.954
 8949SOL     OW27745   1.772   5.970   0.321
 8949SOL    HW127746   1.778   6.056   0.270
 8949SOL    HW227747   1.769   5.989   0.419
 8950SOL     OW27748   4.677   2.346   4.859
 8950SOL    HW127749   4.663   2.292   4.776
 8950SOL    HW227750   4.758   2.403   4.848
 8951SOL     OW27751   2.396   2.564   5.662
 8951SOL    HW127752   2.454   2.638   5.628
 8951SOL    HW227753   2.310   2.602   5.696
 8952SOL     OW27754   6.635   0.381   2.955
 8952SOL    HW127755   6.673   0.390   3.048
 8952SOL    HW227756   6.578   0.460   2.934
 8953SOL     OW27757   1.916   3.631   6.670
 8953SOL    HW127758   1.919   3.682   6.756
 8953SOL    HW227759   1.983   3.557   6.674
 8954SOL     OW27760   1.836   5.825   5.791
 8954SOL    HW127761   1.839   5.861   5.697
 8954SOL    HW227762   1.902   5.751   5.800
 8955SOL     OW27763   5.895   3.598   3.000
 8955SOL    HW127764   5.969   3.530   3.007
 8955SOL    HW227765   5.841   3.596   3.084
 8956SOL     OW27766   1.126   0.925   5.889
 8956SOL    HW127767   1.098   0.847   5.833
 8956SOL    HW227768   1.212   0.962   5.854
 8957SOL     OW27769   2.984   4.785   2.162
 8957SOL    HW127770   2.953   4.716   2.096
 8957SOL    HW227771   2.912   4.853   2.175
 8958SOL     OW27772   2.261   0.007   4.211
 8958SOL    HW127773   2.320   0.055   4.275
 8958SOL    HW227774   2.317   6.986   4.139
 8959SOL     OW27775   2.189   4.194   1.165
 8959SOL    HW127776   2.114   4.239   1.213
 8959SOL    HW227777   2.169   4.192   1.067
 8960SOL     OW27778   3.748   6.077   1.421
 8960SOL    HW127779   3.789   6.146   1.480
 8960SOL    HW227780   3.773   6.095   1.326
 8961SOL     OW27781   1.346   1.554   3.777
 8961SOL    HW127782   1.301   1.582   3.692
 8961SOL    HW227783   1.425   1.496   3.755
 8962SOL     OW27784   5.099   6.837   3.653
 8962SOL    HW127785   5.175   6.881   3.604
 8962SOL    HW227786   5.024   6.903   3.663
 8963SOL     OW27787   6.830   0.758   3.933
 8963SOL    HW127788   6.849   0.687   4.001
 8963SOL    HW227789   6.873   0.843   3.961
 8964SOL     OW27790   5.929   4.935   2.803
 8964SOL    HW127791   6.010   4.982   2.767
 8964SOL    HW227792   5.921   4.846   2.759
 8965SOL     OW27793   0.987   5.213   1.522
 8965SOL    HW127794   1.048   5.281   1.482
 8965SOL    HW227795   1.007   5.123   1.483
 8966SOL     OW27796   2.940   2.915   5.466
 8966SOL    HW127797   2.927   3.010   5.493
 8966SOL    HW227798   2.999   2.911   5.385
 8967SOL     OW27799   4.024   0.658   0.335
 8967SOL    HW127800   4.002   0.737   0.278
 8967SOL    HW227801   4.079   0.594   0.281
 8968SOL     OW27802   5.338   5.028   2.214
 8968SOL    HW127803   5.307   5.094   2.282
 8968SOL    HW227804   5.437   5.035   2.202
 8969SOL     OW27805   5.927   0.771   4.590
 8969SOL    HW127806   5.951   0.682   4.553
 8969SOL    HW227807   5.838   0.766   4.634
 8970SOL     OW27808   3.665   2.278   1.508
 8970SOL    HW127809   3.590   2.320   1.560
 8970SOL    HW227810   3.742   2.262   1.570
 8971SOL     OW27811   3.899   5.784   2.540
 8971SOL    HW127812   3.998   5.768   2.534
 8971SOL    HW227813   3.877   5.822   2.630
 8972SOL     OW27814   5.597   0.460   4.802
 8972SOL    HW127815   5.673   0.425   4.747
 8972SOL    HW227816   5.516   0.404   4.787
 8973SOL     OW27817   1.466   5.395   6.901
 8973SOL    HW127818   1.478   5.324   6.971
 8973SOL    HW227819   1.554   5.440   6.884
 8974SOL     OW27820   0.542   3.118   4.225
 8974SOL    HW127821   0.595   3.182   4.281
 8974SOL    HW227822   0.605   3.053   4.181
 8975SOL     OW27823   2.683   6.840   0.535
 8975SOL    HW127824   2.670   6.769   0.466
 8975SOL    HW227825   2.696   6.928   0.488
 8976SOL     OW27826   0.312   5.495   4.514
 8976SOL    HW127827   0.274   5.420   4.460
 8976SOL    HW227828   0.406   5.513   4.485
 8977SOL     OW27829   5.972   1.632   6.212
 8977SOL    HW127830   6.031   1.680   6.147
 8977SOL    HW227831   6.026   1.563   6.261
 8978SOL     OW27832   5.780   6.435   0.881
 8978SOL    HW127833   5.711   6.376   0.923
 8978SOL    HW227834   5.863   6.383   0.864
 8979SOL     OW27835   1.716   4.811   4.374
 8979SOL    HW127836   1.792   4.782   4.315
 8979SOL    HW227837   1.699   4.740   4.443
 8980SOL     OW27838   3.540   3.001   4.421
 8980SOL    HW127839   3.614   2.989   4.487
 8980SOL    HW227840   3.549   2.931   4.350
 8981SOL     OW27841   3.767   1.615   5.538
 8981SOL    HW127842   3.852   1.669   5.542
 8981SOL    HW227843   3.789   1.518   5.548
 8982SOL     OW27844   3.113   4.784   0.976
 8982SOL    HW127845   3.060   4.866   0.955
 8982SOL    HW227846   3.070   4.735   1.052
 8983SOL     OW27847   4.977   4.925   0.543
 8983SOL    HW127848   4.907   4.890   0.482
 8983SOL    HW227849   5.032   4.994   0.495
 8984SOL     OW27850   2.062   5.753   3.078
 8984SOL    HW127851   2.061   5.805   3.163
 8984SOL    HW227852   1.999   5.675   3.085
 8985SOL     OW27853   3.217   3.172   6.170
 8985SOL    HW127854   3.177   3.080   6.168
 8985SOL    HW227855   3.146   3.239   6.188
 8986SOL     OW27856   3.517   6.075   2.732
 8986SOL    HW127857   3.558   6.154   2.777
 8986SOL    HW227858   3.506   6.094   2.634
 8987SOL     OW27859   4.924   6.566   2.144
 8987SOL    HW127860   5.017   6.596   2.120
 8987SOL    HW227861   4.903   6.595   2.237
 8988SOL     OW27862   0.342   5.569   4.783
 8988SOL    HW127863   0.298   5.500   4.840
 8988SOL    HW227864   0.300   5.568   4.692
 8989SOL     OW27865   3.376   2.946   6.537
 8989SOL    HW127866   3.369   2.926   6.439
 8989SOL    HW227867   3.463   2.993   6.555
 8990SOL     OW27868   0.481   5.907   4.105
 8990SOL    HW127869   0.424   5.987   4.084
 8990SOL    HW227870   0.567   5.938   4.145
 8991SOL     OW27871   0.863   2.151   5.356
 8991SOL    HW127872   0.843   2.135   5.452
 8991SOL    HW227873   0.889   2.247   5.343
 8992SOL     OW27874   6.028   2.187   6.860
 8992SOL    HW127875   5.964   2.120   6.822
 8992SOL    HW227876   5.978   2.267   6.891
 8993SOL     OW27877   4.544   2.385   0.032
 8993SOL    HW127878   4.568   2.463   0.089
 8993SOL    HW227879   4.483   2.324   0.083
 8994SOL     OW27880   1.929   5.266   4.051
 8994SOL    HW127881   1.977   5.347   4.018
 8994SOL    HW227882   1.850   5.294   4.106
 8995SOL     OW27883   6.792   1.569   0.728
 8995SOL    HW127884   6.822   1.479   0.695
 8995SOL    HW227885   6.873   1.626   0.744
 8996SOL     OW27886   5.041   4.933   5.962
 8996SOL    HW127887   4.944   4.923   5.982
 8996SOL    HW227888   5.066   4.873   5.886
 8997SOL     OW27889   5.429   0.689   4.914
 8997SOL    HW127890   5.501   0.706   4.981
 8997SOL    HW227891   5.414   0.591   4.905
 8998SOL     OW27892   6.376   3.529   4.299
 8998SOL    HW127893   6.404   3.529   4.395
 8998SOL    HW227894   6.317   3.451   4.281
 8999SOL     OW27895   4.352   6.515   6.207
 8999SOL    HW127896   4.439   6.490   6.166
 8999SOL    HW227897   4.345   6.474   6.298
 9000SOL     OW27898   1.805   3.572   1.608
 9000SOL    HW127899   1.790   3.557   1.706
 9000SOL    HW227900   1.720   3.600   1.565
 9001SOL     OW27901   0.998   5.500   2.488
 9001SOL    HW127902   0.967   5.494   2.394
 9001SOL    HW227903   1.069   5.571   2.495
 9002SOL     OW27904   0.686   4.344   0.355
 9002SOL    HW127905   0.746   4.394   0.418
 9002SOL    HW227906   0.728   4.258   0.329
 9003SOL     OW27907   5.597   0.903   1.553
 9003SOL    HW127908   5.503   0.879   1.577
 9003SOL    HW227909   5.634   0.835   1.490
 9004SOL     OW27910   4.249   4.908   0.733
 9004SOL    HW127911   4.264   4.826   0.788
 9004SOL    HW227912   4.212   4.981   0.789
 9005SOL     OW27913   5.342   1.543   5.264
 9005SOL    HW127914   5.363   1.448   5.287
 9005SOL    HW227915   5.262   1.546   5.204
 9006SOL     OW27916   3.703   5.813   0.699
 9006SOL    HW127917   3.644   5.740   0.663
 9006SOL    HW227918   3.649   5.895   0.714
 9007SOL     OW27919   2.482   1.222   2.831
 9007SOL    HW127920   2.571   1.263   2.808
 9007SOL    HW227921   2.487   1.180   2.921
 9008SOL     OW27922   0.316   5.456   2.866
 9008SOL    HW127923   0.347   5.516   2.791
 9008SOL    HW227924   0.327   5.504   2.953
 9009SOL     OW27925   4.135   5.895   0.914
 9009SOL    HW127926   4.123   5.885   0.815
 9009SOL    HW227927   4.141   5.804   0.956
 9010SOL     OW27928   1.652   6.247   4.038
 9010SOL    HW127929   1.711   6.262   4.118
 9010SOL    HW227930   1.708   6.244   3.956
 9011SOL     OW27931   3.016   1.434   2.415
 9011SOL    HW127932   2.922   1.401   2.416
 9011SOL    HW227933   3.020   1.528   2.448
 9012SOL     OW27934   1.722   6.307   6.388
 9012SOL    HW127935   1.784   6.377   6.352
 9012SOL    HW227936   1.768   6.218   6.387
 9013SOL     OW27937   1.577   6.486   4.103
 9013SOL    HW127938   1.659   6.541   4.120
 9013SOL    HW227939   1.603   6.402   4.056
 9014SOL     OW27940   5.618   2.756   3.086
 9014SOL    HW127941   5.529   2.743   3.042
 9014SOL    HW227942   5.612   2.732   3.182
 9015SOL     OW27943   5.257   1.696   6.887
 9015SOL    HW127944   5.232   1.660   6.977
 9015SOL    HW227945   5.289   1.622   6.829
 9016SOL     OW27946   5.503   5.270   6.199
 9016SOL    HW127947   5.526   5.280   6.103
 9016SOL    HW227948   5.551   5.339   6.253
 9017SOL     OW27949   3.598   0.647   4.354
 9017SOL    HW127950   3.535   0.604   4.289
 9017SOL    HW227951   3.547   0.710   4.412
 9018SOL     OW27952   4.239   3.943   6.382
 9018SOL    HW127953   4.254   3.951   6.283
 9018SOL    HW227954   4.327   3.947   6.429
 9019SOL     OW27955   0.611   3.503   3.604
 9019SOL    HW127956   0.512   3.488   3.614
 9019SOL    HW227957   0.658   3.474   3.687
 9020SOL     OW27958   6.077   6.412   2.086
 9020SOL    HW127959   6.033   6.375   2.004
 9020SOL    HW227960   6.151   6.474   2.059
 9021SOL     OW27961   0.050   0.494   3.983
 9021SOL    HW127962   0.119   0.497   3.911
 9021SOL    HW227963   0.008   0.403   3.985
 9022SOL     OW27964   4.246   2.712   6.363
 9022SOL    HW127965   4.147   2.727   6.373
 9022SOL    HW227966   4.295   2.775   6.422
 9023SOL     OW27967   5.271   3.787   0.727
 9023SOL    HW127968   5.236   3.872   0.765
 9023SOL    HW227969   5.295   3.725   0.802
 9024SOL     OW27970   1.636   5.072   6.128
 9024SOL    HW127971   1.725   5.068   6.174
 9024SOL    HW227972   1.604   4.979   6.112
 9025SOL     OW27973   1.064   5.398   0.875
 9025SOL    HW127974   1.081   5.308   0.917
 9025SOL    HW227975   1.116   5.468   0.923
 9026SOL     OW27976   4.146   1.504   0.226
 9026SOL    HW127977   4.210   1.537   0.157
 9026SOL    HW227978   4.096   1.425   0.190
 9027SOL     OW27979   0.348   4.078   3.296
 9027SOL    HW127980   0.290   4.021   3.354
 9027SOL    HW227981   0.442   4.045   3.300
 9028SOL     OW27982   3.508   4.109   5.613
 9028SOL    HW127983   3.501   4.089   5.710
 9028SOL    HW227984   3.590   4.067   5.576
 9029SOL     OW27985   4.064   6.596   4.860
 9029SOL    HW127986   4.094   6.576   4.953
 9029SOL    HW227987   3.969   6.568   4.849
 9030SOL     OW27988   2.530   1.926   3.066
 9030SOL    HW127989   2.512   2.024   3.074
 9030SOL    HW227990   2.627   1.909   3.081
 9031SOL     OW27991   4.267   0.127   4.889
 9031SOL    HW127992   4.312   0.140   4.801
 9031SOL    HW227993   4.334   0.131   4.963
 9032SOL     OW27994   4.732   3.991   1.844
 9032SOL    HW127995   4.801   3.918   1.840
 9032SOL    HW227996   4.773   4.072   1.885
 9033SOL     OW27997   0.992   6.047   3.075
 9033SOL    HW127998   1.016   6.113   3.003
 9033SOL    HW227999   0.981   6.096   3.162
 9034SOL     OW28000   3.710   6.309   4.176
 9034SOL    HW128001   3.779   6.280   4.110
 9034SOL    HW228002   3.745   6.387   4.228
 9035SOL     OW28003   1.146   4.945   6.997
 9035SOL    HW128004   1.132   4.978   6.904
 9035SOL    HW228005   1.181   5.021   0.033
 9036SOL     OW28006   1.615   3.856   5.408
 9036SOL    HW128007   1.562   3.877   5.490
 9036SOL    HW228008   1.560   3.797   5.348
 9037SOL     OW28009   0.816   1.804   2.796
 9037SOL    HW128010   0.847   1.760   2.880
 9037SOL    HW228011   0.825   1.903   2.805
 9038SOL     OW28012   4.302   3.882   5.309
 9038SOL    HW128013   4.328   3.788   5.288
 9038SOL    HW228014   4.340   3.907   5.398
 9039SOL     OW28015   4.023   5.815   0.098
 9039SOL    HW128016   4.114   5.787   0.069
 9039SOL    HW228017   3.964   5.734   0.105
 9040SOL     OW28018   2.526   1.747   1.091
 9040SOL    HW128019   2.543   1.794   1.178
 9040SOL    HW228020   2.434   1.707   1.093
 9041SOL     OW28021   0.028   2.057   1.640
 9041SOL    HW128022   6.956   2.053   1.676
 9041SOL    HW228023   0.027   2.086   1.545
 9042SOL     OW28024   3.719   5.970   6.779
 9042SOL    HW128025   3.668   6.034   6.837
 9042SOL    HW228026   3.656   5.919   6.722
 9043SOL     OW28027   3.217   1.819   0.200
 9043SOL    HW128028   3.181   1.802   0.108
 9043SOL    HW228029   3.155   1.880   0.249
 9044SOL     OW28030   0.498   0.684   6.650
 9044SOL    HW128031   0.481   0.642   6.739
 9044SOL    HW228032   0.503   0.613   6.580
 9045SOL     OW28033   3.969   1.482   3.667
 9045SOL    HW128034   3.985   1.473   3.569
 9045SOL    HW228035   4.051   1.454   3.718
 9046SOL     OW28036   3.368   3.703   2.803
 9046SOL    HW128037   3.447   3.708   2.864
 9046SOL    HW228038   3.306   3.632   2.835
 9047SOL     OW28039   1.518   3.730   6.127
 9047SOL    HW128040   1.479   3.778   6.048
 9047SOL    HW228041   1.611   3.700   6.105
 9048SOL     OW28042   6.313   2.101   6.098
 9048SOL    HW128043   6.333   2.061   6.187
 9048SOL    HW228044   6.283   2.030   6.035
 9049SOL     OW28045   3.297   6.540   6.571
 9049SOL    HW128046   3.250   6.610   6.517
 9049SOL    HW228047   3.321   6.577   6.660
 9050SOL     OW28048   0.283   5.097   0.247
 9050SOL    HW128049   0.186   5.087   0.269
 9050SOL    HW228050   0.332   5.133   0.327
 9051SOL     OW28051   2.711   1.363   1.282
 9051SOL    HW128052   2.637   1.381   1.218
 9051SOL    HW228053   2.676   1.368   1.376
 9052SOL     OW28054   1.454   2.822   5.258
 9052SOL    HW128055   1.504   2.868   5.185
 9052SOL    HW228056   1.489   2.853   5.347
 9053SOL     OW28057   2.122   0.771   0.243
 9053SOL    HW128058   2.062   0.839   0.201
 9053SOL    HW228059   2.123   0.784   0.342
 9054SOL     OW28060   2.334   5.512   3.203
 9054SOL    HW128061   2.262   5.491   3.137
 9054SOL    HW228062   2.355   5.610   3.199
 9055SOL     OW28063   0.200   4.075   4.750
 9055SOL    HW128064   0.208   4.054   4.848
 9055SOL    HW228065   0.116   4.035   4.714
 9056SOL     OW28066   6.331   2.460   2.859
 9056SOL    HW128067   6.371   2.373   2.829
 9056SOL    HW228068   6.244   2.441   2.905
 9057SOL     OW28069   3.934   1.858   4.271
 9057SOL    HW128070   3.903   1.932   4.331
 9057SOL    HW228071   3.989   1.794   4.324
 9058SOL     OW28072   2.074   0.779   5.708
 9058SOL    HW128073   1.987   0.823   5.727
 9058SOL    HW228074   2.064   0.716   5.631
 9059SOL     OW28075   1.187   1.913   3.399
 9059SOL    HW128076   1.279   1.928   3.363
 9059SOL    HW228077   1.122   1.973   3.351
 9060SOL     OW28078   4.865   2.486   5.430
 9060SOL    HW128079   4.932   2.445   5.368
 9060SOL    HW228080   4.851   2.425   5.508
 9061SOL     OW28081   3.547   5.907   3.272
 9061SOL    HW128082   3.584   6.000   3.277
 9061SOL    HW228083   3.525   5.885   3.177
 9062SOL     OW28084   1.872   5.603   1.201
 9062SOL    HW128085   1.856   5.688   1.150
 9062SOL    HW228086   1.946   5.552   1.158
 9063SOL     OW28087   3.128   1.492   2.139
 9063SOL    HW128088   3.127   1.512   2.237
 9063SOL    HW228089   3.048   1.437   2.116
 9064SOL     OW28090   5.725   3.567   0.407
 9064SOL    HW128091   5.797   3.506   0.376
 9064SOL    HW228092   5.678   3.606   0.327
 9065SOL     OW28093   2.509   1.051   7.001
 9065SOL    HW128094   2.450   1.005   0.047
 9065SOL    HW228095   2.593   1.081   0.026
 9066SOL     OW28096   4.889   6.842   0.333
 9066SOL    HW128097   4.843   6.879   0.413
 9066SOL    HW228098   4.933   6.916   0.282
 9067SOL     OW28099   1.695   6.410   2.677
 9067SOL    HW128100   1.601   6.416   2.711
 9067SOL    HW228101   1.754   6.472   2.729
 9068SOL     OW28102   1.785   6.121   6.941
 9068SOL    HW128103   1.773   6.047   6.874
 9068SOL    HW228104   1.695   6.157   6.967
 9069SOL     OW28105   1.637   2.117   6.560
 9069SOL    HW128106   1.544   2.096   6.589
 9069SOL    HW228107   1.635   2.190   6.491
 9070SOL     OW28108   1.304   4.217   3.534
 9070SOL    HW128109   1.253   4.269   3.466
 9070SOL    HW228110   1.240   4.180   3.602
 9071SOL     OW28111   4.656   6.351   0.338
 9071SOL    HW128112   4.656   6.388   0.245
 9071SOL    HW228113   4.615   6.260   0.338
 9072SOL     OW28114   5.179   5.422   6.721
 9072SOL    HW128115   5.166   5.505   6.776
 9072SOL    HW228116   5.205   5.346   6.781
 9073SOL     OW28117   2.015   0.709   1.696
 9073SOL    HW128118   1.955   0.680   1.621
 9073SOL    HW228119   1.972   0.784   1.746
 9074SOL     OW28120   1.083   6.818   3.317
 9074SOL    HW128121   1.174   6.780   3.303
 9074SOL    HW228122   1.090   6.905   3.364
 9075SOL     OW28123   0.829   0.776   2.540
 9075SOL    HW128124   0.911   0.740   2.495
 9075SOL    HW228125   0.821   0.874   2.522
 9076SOL     OW28126   6.449   1.501   5.374
 9076SOL    HW128127   6.350   1.513   5.363
 9076SOL    HW228128   6.476   1.411   5.338
 9077SOL     OW28129   6.055   6.726   1.957
 9077SOL    HW128130   6.140   6.778   1.947
 9077SOL    HW228131   5.978   6.783   1.931
 9078SOL     OW28132   3.189   3.026   4.765
 9078SOL    HW128133   3.284   3.005   4.740
 9078SOL    HW228134   3.146   2.946   4.805
 9079SOL     OW28135   3.862   0.615   6.199
 9079SOL    HW128136   3.934   0.623   6.130
 9079SOL    HW228137   3.804   0.536   6.179
 9080SOL     OW28138   5.004   1.738   0.872
 9080SOL    HW128139   4.926   1.747   0.810
 9080SOL    HW228140   5.088   1.756   0.822
 9081SOL     OW28141   5.478   0.180   2.105
 9081SOL    HW128142   5.416   0.179   2.027
 9081SOL    HW228143   5.546   0.252   2.093
 9082SOL     OW28144   3.005   1.169   3.394
 9082SOL    HW128145   3.100   1.144   3.413
 9082SOL    HW228146   2.945   1.136   3.467
 9083SOL     OW28147   4.129   4.755   4.368
 9083SOL    HW128148   4.164   4.759   4.461
 9083SOL    HW228149   4.158   4.669   4.325
 9084SOL     OW28150   3.614   3.384   2.974
 9084SOL    HW128151   3.596   3.429   2.886
 9084SOL    HW228152   3.644   3.290   2.958
 9085SOL     OW28153   1.394   1.840   0.795
 9085SOL    HW128154   1.472   1.779   0.811
 9085SOL    HW228155   1.338   1.803   0.721
 9086SOL     OW28156   0.276   3.833   0.549
 9086SOL    HW128157   0.253   3.924   0.585
 9086SOL    HW228158   0.338   3.842   0.472
 9087SOL     OW28159   4.506   3.722   1.396
 9087SOL    HW128160   4.498   3.721   1.296
 9087SOL    HW228161   4.577   3.657   1.425
 9088SOL     OW28162   5.309   6.551   0.887
 9088SOL    HW128163   5.257   6.619   0.939
 9088SOL    HW228164   5.387   6.595   0.843
 9089SOL     OW28165   4.181   6.868   6.007
 9089SOL    HW128166   4.278   6.874   5.984
 9089SOL    HW228167   4.166   6.791   6.069
 9090SOL     OW28168   5.776   1.368   3.882
 9090SOL    HW128169   5.862   1.412   3.905
 9090SOL    HW228170   5.746   1.309   3.957
 9091SOL     OW28171   2.919   2.704   6.883
 9091SOL    HW128172   2.824   2.735   6.883
 9091SOL    HW228173   2.980   2.783   6.891
 9092SOL     OW28174   0.025   2.798   6.606
 9092SOL    HW128175   6.988   2.877   6.588
 9092SOL    HW228176   0.121   2.823   6.595
 9093SOL     OW28177   1.595   6.187   5.426
 9093SOL    HW128178   1.634   6.260   5.482
 9093SOL    HW228179   1.661   6.158   5.357
 9094SOL     OW28180   0.924   3.742   1.882
 9094SOL    HW128181   0.991   3.773   1.950
 9094SOL    HW228182   0.852   3.811   1.873
 9095SOL     OW28183   6.749   6.497   5.389
 9095SOL    HW128184   6.674   6.508   5.454
 9095SOL    HW228185   6.720   6.437   5.314
 9096SOL     OW28186   6.708   5.442   3.563
 9096SOL    HW128187   6.655   5.526   3.565
 9096SOL    HW228188   6.743   5.423   3.654
 9097SOL     OW28189   1.380   2.032   6.650
 9097SOL    HW128190   1.280   2.035   6.649
 9097SOL    HW228191   1.412   1.972   6.576
 9098SOL     OW28192   2.016   4.306   4.083
 9098SOL    HW128193   2.092   4.322   4.146
 9098SOL    HW228194   2.039   4.229   4.023
 9099SOL     OW28195   2.361   2.326   0.244
 9099SOL    HW128196   2.331   2.373   0.162
 9099SOL    HW228197   2.432   2.380   0.290
 9100SOL     OW28198   1.086   4.556   3.074
 9100SOL    HW128199   1.099   4.647   3.112
 9100SOL    HW228200   1.166   4.531   3.020
 9101SOL     OW28201   1.218   2.333   0.540
 9101SOL    HW128202   1.188   2.417   0.496
 9101SOL    HW228203   1.246   2.267   0.471
 9102SOL     OW28204   4.028   6.723   2.943
 9102SOL    HW128205   4.066   6.638   2.905
 9102SOL    HW228206   4.058   6.732   3.038
 9103SOL     OW28207   6.492   0.707   0.941
 9103SOL    HW128208   6.584   0.681   0.913
 9103SOL    HW228209   6.488   0.716   1.040
 9104SOL     OW28210   5.644   2.211   6.160
 9104SOL    HW128211   5.695   2.280   6.211
 9104SOL    HW228212   5.699   2.180   6.082
 9105SOL     OW28213   1.909   1.084   5.429
 9105SOL    HW128214   1.868   1.062   5.340
 9105SOL    HW228215   1.878   1.174   5.458
 9106SOL     OW28216   1.429   3.721   0.001
 9106SOL    HW128217   1.469   3.706   6.931
 9106SOL    HW228218   1.485   3.675   0.070
 9107SOL     OW28219   2.881   1.382   0.446
 9107SOL    HW128220   2.798   1.438   0.452
 9107SOL    HW228221   2.926   1.400   0.359
 9108SOL     OW28222   5.881   5.453   5.980
 9108SOL    HW128223   5.812   5.383   5.963
 9108SOL    HW228224   5.921   5.441   6.071
 9109SOL     OW28225   5.742   3.715   2.490
 9109SOL    HW128226   5.828   3.674   2.460
 9109SOL    HW228227   5.693   3.651   2.549
 9110SOL     OW28228   2.473   6.035   3.553
 9110SOL    HW128229   2.406   6.110   3.551
 9110SOL    HW228230   2.483   5.997   3.462
 9111SOL     OW28231   4.069   2.439   6.370
 9111SOL    HW128232   4.070   2.467   6.466
 9111SOL    HW228233   4.124   2.356   6.359
 9112SOL     OW28234   0.758   5.122   1.287
 9112SOL    HW128235   0.761   5.221   1.305
 9112SOL    HW228236   0.851   5.088   1.276
 9113SOL     OW28237   5.807   0.928   4.191
 9113SOL    HW128238   5.762   0.853   4.240
 9113SOL    HW228239   5.856   0.986   4.255
 9114SOL     OW28240   1.333   6.141   5.483
 9114SOL    HW128241   1.338   6.225   5.537
 9114SOL    HW228242   1.424   6.121   5.445
 9115SOL     OW28243   4.868   4.422   4.561
 9115SOL    HW128244   4.798   4.384   4.500
 9115SOL    HW228245   4.836   4.510   4.596
 9116SOL     OW28246   1.686   0.311   2.932
 9116SOL    HW128247   1.608   0.366   2.904
 9116SOL    HW228248   1.686   0.224   2.883
 9117SOL     OW28249   2.415   6.091   0.134
 9117SOL    HW128250   2.442   6.053   0.223
 9117SOL    HW228251   2.475   6.167   0.111
 9118SOL     OW28252   6.466   4.245   2.438
 9118SOL    HW128253   6.510   4.203   2.517
 9118SOL    HW228254   6.477   4.186   2.358
 9119SOL     OW28255   3.223   0.113   7.016
 9119SOL    HW128256   3.176   0.106   0.084
 9119SOL    HW228257   3.270   0.201   7.010
 9120SOL     OW28258   6.675   3.789   4.603
 9120SOL    HW128259   6.679   3.792   4.503
 9120SOL    HW228260   6.683   3.881   4.640
 9121SOL     OW28261   3.733   0.509   4.912
 9121SOL    HW128262   3.783   0.440   4.965
 9121SOL    HW228263   3.651   0.468   4.872
 9122SOL     OW28264   1.161   3.702   1.750
 9122SOL    HW128265   1.142   3.705   1.651
 9122SOL    HW228266   1.076   3.683   1.799
 9123SOL     OW28267   6.665   6.605   4.370
 9123SOL    HW128268   6.759   6.589   4.399
 9123SOL    HW228269   6.602   6.583   4.444
 9124SOL     OW28270   2.712   4.896   0.417
 9124SOL    HW128271   2.708   4.800   0.389
 9124SOL    HW228272   2.672   4.906   0.508
 9125SOL     OW28273   5.407   6.476   1.652
 9125SOL    HW128274   5.448   6.428   1.730
 9125SOL    HW228275   5.475   6.485   1.579
 9126SOL     OW28276   4.429   4.542   1.140
 9126SOL    HW128277   4.330   4.547   1.124
 9126SOL    HW228278   4.447   4.484   1.219
 9127SOL     OW28279   6.556   5.200   5.016
 9127SOL    HW128280   6.575   5.185   4.919
 9127SOL    HW228281   6.600   5.129   5.070
 9128SOL     OW28282   5.599   4.284   5.728
 9128SOL    HW128283   5.666   4.230   5.677
 9128SOL    HW228284   5.509   4.243   5.720
 9129SOL     OW28285   1.154   2.751   0.814
 9129SOL    HW128286   1.166   2.701   0.900
 9129SOL    HW228287   1.056   2.764   0.797
 9130SOL     OW28288   2.880   3.380   5.061
 9130SOL    HW128289   2.910   3.330   4.980
 9130SOL    HW228290   2.864   3.316   5.136
 9131SOL     OW28291   4.628   2.529   0.260
 9131SOL    HW128292   4.560   2.532   0.334
 9131SOL    HW228293   4.691   2.606   0.269
 9132SOL     OW28294   0.745   3.991   3.869
 9132SOL    HW128295   0.657   3.953   3.899
 9132SOL    HW228296   0.814   3.971   3.938
 9133SOL     OW28297   5.675   0.677   1.151
 9133SOL    HW128298   5.728   0.691   1.235
 9133SOL    HW228299   5.730   0.704   1.072
 9134SOL     OW28300   5.004   5.185   1.003
 9134SOL    HW128301   5.002   5.118   1.077
 9134SOL    HW228302   5.096   5.226   0.998
 9135SOL     OW28303   6.133   6.629   2.929
 9135SOL    HW128304   6.069   6.673   2.992
 9135SOL    HW228305   6.189   6.698   2.885
 9136SOL     OW28306   6.390   4.612   0.320
 9136SOL    HW128307   6.395   4.567   0.410
 9136SOL    HW228308   6.437   4.700   0.325
 9137SOL     OW28309   5.295   6.623   5.559
 9137SOL    HW128310   5.327   6.530   5.543
 9137SOL    HW228311   5.339   6.685   5.495
 9138SOL     OW28312   2.146   3.670   6.964
 9138SOL    HW128313   2.224   3.652   0.003
 9138SOL    HW228314   2.111   3.583   6.928
 9139SOL     OW28315   6.395   0.391   1.008
 9139SOL    HW128316   6.407   0.361   0.914
 9139SOL    HW228317   6.438   0.326   1.070
 9140SOL     OW28318   2.134   3.559   2.905
 9140SOL    HW128319   2.128   3.490   2.833
 9140SOL    HW228320   2.079   3.530   2.984
 9141SOL     OW28321   6.936   5.357   4.824
 9141SOL    HW128322   6.911   5.287   4.758
 9141SOL    HW228323   6.981   5.433   4.777
 9142SOL     OW28324   1.028   4.762   4.491
 9142SOL    HW128325   0.968   4.820   4.547
 9142SOL    HW228326   1.120   4.800   4.492
 9143SOL     OW28327   6.660   4.403   2.761
 9143SOL    HW128328   6.636   4.328   2.823
 9143SOL    HW228329   6.697   4.480   2.814
 9144SOL     OW28330   2.966   4.478   5.417
 9144SOL    HW128331   2.931   4.486   5.324
 9144SOL    HW228332   2.978   4.382   5.440
 9145SOL     OW28333   1.317   5.743   5.855
 9145SOL    HW128334   1.314   5.826   5.910
 9145SOL    HW228335   1.393   5.749   5.789
 9146SOL     OW28336   5.790   2.920   3.456
 9146SOL    HW128337   5.837   2.855   3.517
 9146SOL    HW228338   5.705   2.878   3.422
 9147SOL     OW28339   4.229   0.361   5.449
 9147SOL    HW128340   4.160   0.426   5.481
 9147SOL    HW228341   4.185   0.289   5.396
 9148SOL     OW28342   5.682   5.671   1.678
 9148SOL    HW128343   5.652   5.585   1.719
 9148SOL    HW228344   5.660   5.747   1.739
 9149SOL     OW28345   0.528   3.872   0.863
 9149SOL    HW128346   0.542   3.827   0.952
 9149SOL    HW228347   0.568   3.816   0.791
 9150SOL     OW28348   2.399   3.590   0.032
 9150SOL    HW128349   2.468   3.519   0.041
 9150SOL    HW228350   2.423   3.650   6.976
 9151SOL     OW28351   1.693   2.888   4.038
 9151SOL    HW128352   1.621   2.840   4.089
 9151SOL    HW228353   1.742   2.950   4.099
 9152SOL     OW28354   1.990   3.937   2.851
 9152SOL    HW128355   1.910   3.883   2.825
 9152SOL    HW228356   1.985   4.027   2.809
 9153SOL     OW28357   0.820   3.041   6.217
 9153SOL    HW128358   0.740   2.981   6.214
 9153SOL    HW228359   0.874   3.020   6.299
 9154SOL     OW28360   5.363   4.835   3.069
 9154SOL    HW128361   5.329   4.751   3.028
 9154SOL    HW228362   5.402   4.815   3.160
 9155SOL     OW28363   1.290   6.063   2.354
 9155SOL    HW128364   1.361   6.095   2.417
 9155SOL    HW228365   1.282   5.963   2.361
 9156SOL     OW28366   0.023   3.372   6.068
 9156SOL    HW128367   0.007   3.470   6.081
 9156SOL    HW228368   0.053   3.355   5.973
 9157SOL     OW28369   1.815   4.858   5.975
 9157SOL    HW128370   1.729   4.813   6.003
 9157SOL    HW228371   1.806   4.892   5.882
 9158SOL     OW28372   6.732   4.051   4.687
 9158SOL    HW128373   6.743   4.145   4.656
 9158SOL    HW228374   6.756   4.044   4.784
 9159SOL     OW28375   2.389   1.174   3.664
 9159SOL    HW128376   2.425   1.095   3.616
 9159SOL    HW228377   2.442   1.190   3.747
 9160SOL     OW28378   1.424   3.710   0.412
 9160SOL    HW128379   1.395   3.791   0.362
 9160SOL    HW228380   1.403   3.721   0.510
 9161SOL     OW28381   6.354   3.794   2.612
 9161SOL    HW128382   6.309   3.779   2.700
 9161SOL    HW228383   6.310   3.869   2.563
 9162SOL     OW28384   3.906   2.393   1.687
 9162SOL    HW128385   3.984   2.338   1.718
 9162SOL    HW228386   3.826   2.370   1.742
 9163SOL     OW28387   2.657   2.157   4.027
 9163SOL    HW128388   2.593   2.134   4.100
 9163SOL    HW228389   2.740   2.197   4.066
 9164SOL     OW28390   2.283   6.399   6.582
 9164SOL    HW128391   2.277   6.313   6.634
 9164SOL    HW228392   2.205   6.405   6.520
 9165SOL     OW28393   5.494   1.929   6.052
 9165SOL    HW128394   5.486   1.956   5.956
 9165SOL    HW228395   5.471   2.007   6.111
 9166SOL     OW28396   4.988   6.204   1.807
 9166SOL    HW128397   5.054   6.212   1.732
 9166SOL    HW228398   4.995   6.285   1.866
 9167SOL     OW28399   1.379   1.148   4.431
 9167SOL    HW128400   1.310   1.200   4.380
 9167SOL    HW228401   1.464   1.146   4.379
 9168SOL     OW28402   6.907   6.176   5.050
 9168SOL    HW128403   6.894   6.263   5.002
 9168SOL    HW228404   6.945   6.194   5.141
 9169SOL     OW28405   6.841   5.930   0.852
 9169SOL    HW128406   6.901   5.873   0.908
 9169SOL    HW228407   6.768   5.968   0.909
 9170SOL     OW28408   1.441   0.972   5.509
 9170SOL    HW128409   1.524   0.926   5.477
 9170SOL    HW228410   1.368   0.905   5.522
 9171SOL     OW28411   3.519   5.078   6.848
 9171SOL    HW128412   3.616   5.072   6.871
 9171SOL    HW228413   3.489   4.994   6.805
 9172SOL     OW28414   4.931   1.789   5.202
 9172SOL    HW128415   4.867   1.738   5.144
 9172SOL    HW228416   4.975   1.726   5.266
 9173SOL     OW28417   5.746   3.628   5.295
 9173SOL    HW128418   5.804   3.660   5.371
 9173SOL    HW228419   5.765   3.532   5.278
 9174SOL     OW28420   6.797   4.916   1.340
 9174SOL    HW128421   6.745   4.867   1.411
 9174SOL    HW228422   6.886   4.942   1.377
 9175SOL     OW28423   2.128   6.916   1.044
 9175SOL    HW128424   2.065   6.994   1.051
 9175SOL    HW228425   2.173   6.902   1.133
 9176SOL     OW28426   1.419   1.078   2.227
 9176SOL    HW128427   1.326   1.107   2.202
 9176SOL    HW228428   1.463   1.149   2.281
 9177SOL     OW28429   0.361   6.520   3.709
 9177SOL    HW128430   0.346   6.617   3.689
 9177SOL    HW228431   0.413   6.512   3.795
 9178SOL     OW28432   1.167   4.716   1.034
 9178SOL    HW128433   1.188   4.620   1.014
 9178SOL    HW228434   1.189   4.736   1.130
 9179SOL     OW28435   3.411   5.188   4.066
 9179SOL    HW128436   3.328   5.203   4.119
 9179SOL    HW228437   3.457   5.106   4.099
 9180SOL     OW28438   0.155   1.272   5.582
 9180SOL    HW128439   0.096   1.191   5.578
 9180SOL    HW228440   0.245   1.246   5.616
 9181SOL     OW28441   2.824   2.278   3.676
 9181SOL    HW128442   2.777   2.365   3.666
 9181SOL    HW228443   2.856   2.246   3.587
 9182SOL     OW28444   0.541   1.856   2.278
 9182SOL    HW128445   0.591   1.915   2.341
 9182SOL    HW228446   0.445   1.884   2.275
 9183SOL     OW28447   1.946   1.621   6.234
 9183SOL    HW128448   1.950   1.575   6.323
 9183SOL    HW228449   2.005   1.574   6.169
 9184SOL     OW28450   3.173   3.552   1.047
 9184SOL    HW128451   3.262   3.550   1.001
 9184SOL    HW228452   3.170   3.628   1.111
 9185SOL     OW28453   1.612   0.371   6.173
 9185SOL    HW128454   1.635   0.297   6.236
 9185SOL    HW228455   1.680   0.444   6.182
 9186SOL     OW28456   4.618   0.220   6.582
 9186SOL    HW128457   4.646   0.131   6.545
 9186SOL    HW228458   4.545   0.207   6.649
 9187SOL     OW28459   5.473   2.507   0.731
 9187SOL    HW128460   5.441   2.595   0.766
 9187SOL    HW228461   5.399   2.439   0.737
 9188SOL     OW28462   1.757   0.428   1.578
 9188SOL    HW128463   1.803   0.506   1.536
 9188SOL    HW228464   1.743   0.357   1.509
 9189SOL     OW28465   3.965   0.271   5.677
 9189SOL    HW128466   3.910   0.223   5.608
 9189SOL    HW228467   3.906   0.300   5.753
 9190SOL     OW28468   4.598   0.979   5.087
 9190SOL    HW128469   4.561   1.054   5.033
 9190SOL    HW228470   4.643   1.015   5.169
 9191SOL     OW28471   5.565   0.046   1.816
 9191SOL    HW128472   5.506   0.126   1.819
 9191SOL    HW228473   5.628   0.055   1.738
 9192SOL     OW28474   4.865   3.487   4.192
 9192SOL    HW128475   4.827   3.560   4.249
 9192SOL    HW228476   4.859   3.400   4.240
 9193SOL     OW28477   3.868   3.278   3.162
 9193SOL    HW128478   3.906   3.198   3.116
 9193SOL    HW228479   3.770   3.263   3.176
 9194SOL     OW28480   3.590   4.957   2.648
 9194SOL    HW128481   3.518   4.908   2.696
 9194SOL    HW228482   3.601   5.048   2.688
 9195SOL     OW28483   0.557   2.686   2.822
 9195SOL    HW128484   0.638   2.633   2.846
 9195SOL    HW228485   0.479   2.625   2.809
 9196SOL     OW28486   4.957   6.721   4.110
 9196SOL    HW128487   4.864   6.744   4.081
 9196SOL    HW228488   4.963   6.622   4.124
 9197SOL     OW28489   4.455   1.398   6.139
 9197SOL    HW128490   4.450   1.486   6.093
 9197SOL    HW228491   4.444   1.411   6.237
 9198SOL     OW28492   6.248   2.305   5.461
 9198SOL    HW128493   6.333   2.300   5.409
 9198SOL    HW228494   6.210   2.214   5.472
 9199SOL     OW28495   1.432   2.847   5.804
 9199SOL    HW128496   1.365   2.919   5.821
 9199SOL    HW228497   1.394   2.758   5.830
 9200SOL     OW28498   5.377   5.804   0.690
 9200SOL    HW128499   5.339   5.890   0.656
 9200SOL    HW228500   5.307   5.733   0.686
 9201SOL     OW28501   0.812   4.091   2.528
 9201SOL    HW128502   0.798   4.167   2.466
 9201SOL    HW228503   0.835   4.009   2.476
 9202SOL     OW28504   2.555   5.973   4.061
 9202SOL    HW128505   2.587   6.033   3.987
 9202SOL    HW228506   2.459   5.993   4.080
 9203SOL     OW28507   5.040   0.728   0.358
 9203SOL    HW128508   4.965   0.666   0.335
 9203SOL    HW228509   5.002   0.816   0.387
 9204SOL     OW28510   5.257   4.237   2.711
 9204SOL    HW128511   5.311   4.321   2.710
 9204SOL    HW228512   5.163   4.259   2.738
 9205SOL     OW28513   4.643   2.634   1.874
 9205SOL    HW128514   4.734   2.671   1.893
 9205SOL    HW228515   4.602   2.601   1.959
 9206SOL     OW28516   6.686   5.847   4.003
 9206SOL    HW128517   6.675   5.861   3.904
 9206SOL    HW228518   6.679   5.934   4.050
 9207SOL     OW28519   3.946   6.050   6.618
 9207SOL    HW128520   4.020   5.983   6.620
 9207SOL    HW228521   3.861   6.008   6.649
 9208SOL     OW28522   4.215   4.130   1.749
 9208SOL    HW128523   4.303   4.165   1.780
 9208SOL    HW228524   4.143   4.197   1.766
 9209SOL     OW28525   3.804   0.595   2.896
 9209SOL    HW128526   3.894   0.620   2.860
 9209SOL    HW228527   3.779   0.657   2.971
 9210SOL     OW28528   1.358   6.821   0.366
 9210SOL    HW128529   1.270   6.776   0.382
 9210SOL    HW228530   1.342   6.908   0.320
 9211SOL     OW28531   5.041   1.386   6.201
 9211SOL    HW128532   5.057   1.484   6.188
 9211SOL    HW228533   5.125   1.343   6.233
 9212SOL     OW28534   5.611   4.352   5.342
 9212SOL    HW128535   5.626   4.301   5.258
 9212SOL    HW228536   5.636   4.296   5.421
 9213SOL     OW28537   6.361   6.441   1.949
 9213SOL    HW128538   6.414   6.496   1.883
 9213SOL    HW228539   6.319   6.364   1.902
 9214SOL     OW28540   1.956   2.016   5.690
 9214SOL    HW128541   1.963   1.937   5.630
 9214SOL    HW228542   2.043   2.065   5.689
 9215SOL     OW28543   0.236   3.669   3.474
 9215SOL    HW128544   0.184   3.611   3.411
 9215SOL    HW228545   0.216   3.643   3.568
 9216SOL     OW28546   2.601   5.960   3.320
 9216SOL    HW128547   2.617   6.046   3.271
 9216SOL    HW228548   2.675   5.896   3.299
 9217SOL     OW28549   3.938   1.393   6.947
 9217SOL    HW128550   3.968   1.464   6.884
 9217SOL    HW228551   3.844   1.410   6.974
 9218SOL     OW28552   5.531   5.471   6.709
 9218SOL    HW128553   5.476   5.503   6.632
 9218SOL    HW228554   5.485   5.395   6.754
 9219SOL     OW28555   3.096   2.415   5.632
 9219SOL    HW128556   3.176   2.409   5.572
 9219SOL    HW228557   3.018   2.369   5.589
 9220SOL     OW28558   0.286   6.325   3.216
 9220SOL    HW128559   0.309   6.358   3.307
 9220SOL    HW228560   0.304   6.227   3.211
 9221SOL     OW28561   2.911   1.366   1.004
 9221SOL    HW128562   2.839   1.400   1.065
 9221SOL    HW228563   3.000   1.389   1.043
 9222SOL     OW28564   1.788   4.579   4.541
 9222SOL    HW128565   1.721   4.519   4.498
 9222SOL    HW228566   1.879   4.560   4.505
 9223SOL     OW28567   0.012   3.326   4.629
 9223SOL    HW128568   0.017   3.363   4.537
 9223SOL    HW228569   6.988   3.236   4.626
 9224SOL     OW28570   2.145   4.879   2.972
 9224SOL    HW128571   2.178   4.795   3.015
 9224SOL    HW228572   2.157   4.873   2.873
 9225SOL     OW28573   6.019   5.473   5.689
 9225SOL    HW128574   6.026   5.572   5.675
 9225SOL    HW228575   5.953   5.455   5.762
 9226SOL     OW28576   1.357   0.426   6.111
 9226SOL    HW128577   1.306   0.350   6.070
 9226SOL    HW228578   1.440   0.392   6.155
 9227SOL     OW28579   2.785   4.043   0.260
 9227SOL    HW128580   2.775   4.136   0.295
 9227SOL    HW228581   2.777   3.978   0.336
 9228SOL     OW28582   3.475   3.049   5.020
 9228SOL    HW128583   3.443   3.129   5.072
 9228SOL    HW228584   3.562   3.070   4.975
 9229SOL     OW28585   6.813   5.615   0.595
 9229SOL    HW128586   6.894   5.645   0.645
 9229SOL    HW228587   6.732   5.663   0.630
 9230SOL     OW28588   4.200   0.944   5.043
 9230SOL    HW128589   4.253   0.892   4.977
 9230SOL    HW228590   4.193   1.039   5.013
 9231SOL     OW28591   6.312   6.000   1.895
 9231SOL    HW128592   6.318   6.094   1.859
 9231SOL    HW228593   6.392   5.981   1.951
 9232SOL     OW28594   1.116   5.184   1.806
 9232SOL    HW128595   1.043   5.225   1.751
 9232SOL    HW228596   1.192   5.158   1.746
 9233SOL     OW28597   1.257   6.418   5.939
 9233SOL    HW128598   1.211   6.502   5.912
 9233SOL    HW228599   1.227   6.343   5.880
 9234SOL     OW28600   2.532   3.791   6.267
 9234SOL    HW128601   2.584   3.766   6.349
 9234SOL    HW228602   2.588   3.847   6.207
 9235SOL     OW28603   2.072   2.136   3.382
 9235SOL    HW128604   2.146   2.200   3.362
 9235SOL    HW228605   2.063   2.071   3.306
 9236SOL     OW28606   1.775   3.353   6.135
 9236SOL    HW128607   1.751   3.260   6.106
 9236SOL    HW228608   1.836   3.348   6.215
 9237SOL     OW28609   6.222   5.739   2.747
 9237SOL    HW128610   6.314   5.732   2.708
 9237SOL    HW228611   6.216   5.681   2.829
 9238SOL     OW28612   1.810   2.673   4.750
 9238SOL    HW128613   1.844   2.730   4.675
 9238SOL    HW228614   1.822   2.577   4.726
 9239SOL     OW28615   0.743   4.814   6.096
 9239SOL    HW128616   0.739   4.758   6.178
 9239SOL    HW228617   0.839   4.830   6.071
 9240SOL     OW28618   4.271   1.737   3.347
 9240SOL    HW128619   4.186   1.704   3.307
 9240SOL    HW228620   4.263   1.740   3.446
 9241SOL     OW28621   5.176   6.640   0.353
 9241SOL    HW128622   5.176   6.706   0.428
 9241SOL    HW228623   5.108   6.569   0.372
 9242SOL     OW28624   1.877   2.311   0.964
 9242SOL    HW128625   1.973   2.324   0.992
 9242SOL    HW228626   1.857   2.372   0.887
 9243SOL     OW28627   1.730   0.310   6.829
 9243SOL    HW128628   1.745   0.257   6.746
 9243SOL    HW228629   1.654   0.374   6.814
 9244SOL     OW28630   2.915   6.179   5.954
 9244SOL    HW128631   2.843   6.247   5.964
 9244SOL    HW228632   2.892   6.098   6.007
 9245SOL     OW28633   1.462   5.088   2.783
 9245SOL    HW128634   1.408   5.016   2.738
 9245SOL    HW228635   1.516   5.048   2.856
 9246SOL     OW28636   4.944   6.114   6.759
 9246SOL    HW128637   5.029   6.139   6.806
 9246SOL    HW228638   4.941   6.156   6.669
 9247SOL     OW28639   3.884   6.312   2.584
 9247SOL    HW128640   3.980   6.297   2.610
 9247SOL    HW228641   3.871   6.282   2.490
 9248SOL     OW28642   2.617   0.415   6.746
 9248SOL    HW128643   2.713   0.386   6.753
 9248SOL    HW228644   2.614   0.511   6.720
 9249SOL     OW28645   2.246   6.931   7.019
 9249SOL    HW128646   2.241   6.847   0.053
 9249SOL    HW228647   2.288   6.910   6.931
 9250SOL     OW28648   0.352   2.822   3.643
 9250SOL    HW128649   0.420   2.889   3.614
 9250SOL    HW228650   0.330   2.836   3.740
 9251SOL     OW28651   3.545   1.772   1.372
 9251SOL    HW128652   3.599   1.726   1.302
 9251SOL    HW228653   3.563   1.870   1.370
 9252SOL     OW28654   5.744   1.372   4.780
 9252SOL    HW128655   5.718   1.355   4.875
 9252SOL    HW228656   5.824   1.317   4.756
 9253SOL     OW28657   1.614   5.574   4.408
 9253SOL    HW128658   1.584   5.652   4.462
 9253SOL    HW228659   1.714   5.576   4.400
 9254SOL     OW28660   0.063   5.280   2.551
 9254SOL    HW128661   7.005   5.275   2.490
 9254SOL    HW228662   0.131   5.342   2.513
 9255SOL     OW28663   6.638   4.417   0.712
 9255SOL    HW128664   6.597   4.368   0.635
 9255SOL    HW228665   6.683   4.500   0.678
 9256SOL     OW28666   3.133   6.532   1.000
 9256SOL    HW128667   3.215   6.481   0.973
 9256SOL    HW228668   3.053   6.490   0.958
 9257SOL     OW28669   5.926   5.753   4.561
 9257SOL    HW128670   5.900   5.697   4.639
 9257SOL    HW228671   6.025   5.747   4.547
 9258SOL     OW28672   3.936   5.673   1.458
 9258SOL    HW128673   3.951   5.594   1.399
 9258SOL    HW228674   3.981   5.658   1.546
 9259SOL     OW28675   0.883   2.063   6.598
 9259SOL    HW128676   0.839   1.986   6.552
 9259SOL    HW228677   0.864   2.058   6.696
 9260SOL     OW28678   4.988   3.902   4.505
 9260SOL    HW128679   5.077   3.876   4.541
 9260SOL    HW228680   4.929   3.934   4.580
 9261SOL     OW28681   1.910   2.036   1.530
 9261SOL    HW128682   1.811   2.021   1.534
 9261SOL    HW228683   1.936   2.059   1.436
 9262SOL     OW28684   6.545   6.333   5.976
 9262SOL    HW128685   6.631   6.382   5.991
 9262SOL    HW228686   6.468   6.391   6.003
 9263SOL     OW28687   1.814   4.716   2.969
 9263SOL    HW128688   1.845   4.789   2.908
 9263SOL    HW228689   1.889   4.652   2.985
 9264SOL     OW28690   5.946   3.884   6.535
 9264SOL    HW128691   5.921   3.970   6.580
 9264SOL    HW228692   6.046   3.878   6.529
 9265SOL     OW28693   5.340   0.828   1.631
 9265SOL    HW128694   5.319   0.794   1.539
 9265SOL    HW228695   5.287   0.776   1.698
 9266SOL     OW28696   1.655   4.552   0.551
 9266SOL    HW128697   1.621   4.462   0.525
 9266SOL    HW228698   1.582   4.604   0.595
 9267SOL     OW28699   0.639   1.265   4.395
 9267SOL    HW128700   0.666   1.170   4.411
 9267SOL    HW228701   0.709   1.311   4.340
 9268SOL     OW28702   0.208   0.530   1.438
 9268SOL    HW128703   0.289   0.505   1.490
 9268SOL    HW228704   0.220   0.623   1.401
 9269SOL     OW28705   3.816   0.836   6.924
 9269SOL    HW128706   3.776   0.829   6.833
 9269SOL    HW228707   3.916   0.832   6.918
 9270SOL     OW28708   2.865   0.498   6.294
 9270SOL    HW128709   2.875   0.593   6.325
 9270SOL    HW228710   2.901   0.490   6.200
 9271SOL     OW28711   1.476   4.957   5.581
 9271SOL    HW128712   1.411   4.967   5.657
 9271SOL    HW228713   1.468   4.866   5.542
 9272SOL     OW28714   6.039   6.203   5.892
 9272SOL    HW128715   6.067   6.253   5.809
 9272SOL    HW228716   6.049   6.105   5.877
 9273SOL     OW28717   5.525   3.600   3.528
 9273SOL    HW128718   5.496   3.520   3.581
 9273SOL    HW228719   5.492   3.683   3.572
 9274SOL     OW28720   0.779   3.496   0.935
 9274SOL    HW128721   0.761   3.398   0.943
 9274SOL    HW228722   0.769   3.524   0.840
 9275SOL     OW28723   5.812   0.951   0.935
 9275SOL    HW128724   5.831   0.853   0.928
 9275SOL    HW228725   5.874   1.001   0.874
 9276SOL     OW28726   2.470   5.075   6.993
 9276SOL    HW128727   2.542   5.114   0.030
 9276SOL    HW228728   2.496   5.083   6.897
 9277SOL     OW28729   4.656   4.733   2.279
 9277SOL    HW128730   4.604   4.692   2.204
 9277SOL    HW228731   4.747   4.692   2.284
 9278SOL     OW28732   0.431   0.232   5.842
 9278SOL    HW128733   0.513   0.217   5.787
 9278SOL    HW228734   0.350   0.231   5.784
 9279SOL     OW28735   3.304   6.162   1.899
 9279SOL    HW128736   3.342   6.255   1.897
 9279SOL    HW228737   3.299   6.127   1.806
 9280SOL     OW28738   1.655   5.760   2.779
 9280SOL    HW128739   1.559   5.787   2.774
 9280SOL    HW228740   1.697   5.800   2.861
 9281SOL     OW28741   1.670   5.501   0.975
 9281SOL    HW128742   1.749   5.520   0.917
 9281SOL    HW228743   1.688   5.419   1.029
 9282SOL     OW28744   2.979   6.728   4.838
 9282SOL    HW128745   3.039   6.683   4.771
 9282SOL    HW228746   2.951   6.817   4.803
 9283SOL     OW28747   4.510   6.704   0.904
 9283SOL    HW128748   4.541   6.609   0.902
 9283SOL    HW228749   4.446   6.720   0.829
 9284SOL     OW28750   3.767   4.560   6.401
 9284SOL    HW128751   3.673   4.551   6.435
 9284SOL    HW228752   3.781   4.496   6.325
 9285SOL     OW28753   0.259   6.073   2.955
 9285SOL    HW128754   0.263   6.058   3.054
 9285SOL    HW228755   0.352   6.080   2.919
 9286SOL     OW28756   4.331   0.126   2.024
 9286SOL    HW128757   4.403   0.177   2.070
 9286SOL    HW228758   4.306   0.172   1.939
 9287SOL     OW28759   4.703   3.713   5.887
 9287SOL    HW128760   4.693   3.618   5.918
 9287SOL    HW228761   4.618   3.762   5.903
 9288SOL     OW28762   3.433   1.702   2.013
 9288SOL    HW128763   3.478   1.774   1.961
 9288SOL    HW228764   3.346   1.680   1.969
 9289SOL     OW28765   5.150   6.725   1.046
 9289SOL    HW128766   5.139   6.822   1.023
 9289SOL    HW228767   5.098   6.704   1.129
 9290SOL     OW28768   6.106   1.201   3.749
 9290SOL    HW128769   6.141   1.149   3.827
 9290SOL    HW228770   6.107   1.298   3.770
 9291SOL     OW28771   0.371   3.593   5.638
 9291SOL    HW128772   0.467   3.620   5.634
 9291SOL    HW228773   0.329   3.600   5.548
 9292SOL     OW28774   0.413   1.181   6.371
 9292SOL    HW128775   0.321   1.152   6.396
 9292SOL    HW228776   0.475   1.103   6.372
 9293SOL     OW28777   4.710   2.087   4.572
 9293SOL    HW128778   4.729   2.010   4.632
 9293SOL    HW228779   4.613   2.087   4.546
 9294SOL     OW28780   4.679   7.006   6.386
 9294SOL    HW128781   4.725   7.006   6.298
 9294SOL    HW228782   4.705   6.924   6.438
 9295SOL     OW28783   6.108   1.285   4.371
 9295SOL    HW128784   6.205   1.295   4.391
 9295SOL    HW228785   6.089   1.315   4.277
 9296SOL     OW28786   2.219   5.098   5.685
 9296SOL    HW128787   2.198   5.006   5.653
 9296SOL    HW228788   2.176   5.165   5.624
 9297SOL     OW28789   6.814   5.201   2.370
 9297SOL    HW128790   6.725   5.248   2.369
 9297SOL    HW228791   6.878   5.249   2.310
 9298SOL     OW28792   1.580   3.602   6.523
 9298SOL    HW128793   1.609   3.697   6.511
 9298SOL    HW228794   1.533   3.571   6.441
 9299SOL     OW28795   2.452   2.435   4.756
 9299SOL    HW128796   2.460   2.432   4.856
 9299SOL    HW228797   2.515   2.368   4.715
 9300SOL     OW28798   2.160   5.996   4.401
 9300SOL    HW128799   2.211   5.928   4.348
 9300SOL    HW228800   2.206   6.011   4.489
 9301SOL     OW28801   0.209   4.276   4.250
 9301SOL    HW128802   0.129   4.319   4.208
 9301SOL    HW228803   0.289   4.335   4.237
 9302SOL     OW28804   2.037   4.592   4.424
 9302SOL    HW128805   1.998   4.674   4.383
 9302SOL    HW228806   2.094   4.544   4.358
 9303SOL     OW28807   2.242   4.506   0.163
 9303SOL    HW128808   2.234   4.490   0.262
 9303SOL    HW228809   2.179   4.446   0.115
 9304SOL     OW28810   5.341   5.505   6.520
 9304SOL    HW128811   5.303   5.464   6.436
 9304SOL    HW228812   5.286   5.477   6.598
 9305SOL     OW28813   1.629   1.790   1.248
 9305SOL    HW128814   1.544   1.737   1.244
 9305SOL    HW228815   1.610   1.884   1.220
 9306SOL     OW28816   0.054   6.637   4.741
 9306SOL    HW128817   0.067   6.589   4.828
 9306SOL    HW228818   0.044   6.735   4.759
 9307SOL     OW28819   1.765   3.825   1.121
 9307SOL    HW128820   1.838   3.869   1.174
 9307SOL    HW228821   1.705   3.775   1.183
 9308SOL     OW28822   2.159   3.141   2.052
 9308SOL    HW128823   2.181   3.235   2.026
 9308SOL    HW228824   2.200   3.078   1.986
 9309SOL     OW28825   4.942   5.328   6.611
 9309SOL    HW128826   4.946   5.346   6.513
 9309SOL    HW228827   5.034   5.333   6.650
 9310SOL     OW28828   5.918   5.751   6.057
 9310SOL    HW128829   5.875   5.661   6.046
 9310SOL    HW228830   5.993   5.745   6.122
 9311SOL     OW28831   4.755   4.405   0.588
 9311SOL    HW128832   4.852   4.431   0.587
 9311SOL    HW228833   4.699   4.485   0.608
 9312SOL     OW28834   0.555   2.948   2.933
 9312SOL    HW128835   0.543   3.039   2.893
 9312SOL    HW228836   0.564   2.881   2.859
 9313SOL     OW28837   0.672   0.537   2.485
 9313SOL    HW128838   0.576   0.563   2.473
 9313SOL    HW228839   0.722   0.613   2.525
 9314SOL     OW28840   5.305   5.239   1.085
 9314SOL    HW128841   5.287   5.141   1.099
 9314SOL    HW228842   5.353   5.276   1.164
 9315SOL     OW28843   5.594   6.049   6.266
 9315SOL    HW128844   5.536   6.122   6.230
 9315SOL    HW228845   5.538   5.987   6.321
 9316SOL     OW28846   4.755   0.085   0.220
 9316SOL    HW128847   4.739   0.104   0.122
 9316SOL    HW228848   4.676   0.118   0.272
 9317SOL     OW28849   2.763   5.713   3.360
 9317SOL    HW128850   2.844   5.661   3.386
 9317SOL    HW228851   2.747   5.703   3.261
 9318SOL     OW28852   3.862   6.708   1.702
 9318SOL    HW128853   3.795   6.690   1.774
 9318SOL    HW228854   3.866   6.807   1.685
 9319SOL     OW28855   4.305   1.643   0.045
 9319SOL    HW128856   4.299   1.735   0.084
 9319SOL    HW228857   4.376   1.641   6.995
 9320SOL     OW28858   6.764   6.592   0.014
 9320SOL    HW128859   6.817   6.674   0.033
 9320SOL    HW228860   6.812   6.534   6.969
 9321SOL     OW28861   0.496   3.535   4.620
 9321SOL    HW128862   0.522   3.630   4.636
 9321SOL    HW228863   0.565   3.474   4.660
 9322SOL     OW28864   5.322   3.216   7.011
 9322SOL    HW128865   5.242   3.201   6.952
 9322SOL    HW228866   5.401   3.167   6.972
 9323SOL     OW28867   0.922   2.373   5.940
 9323SOL    HW128868   0.896   2.425   6.021
 9323SOL    HW228869   0.891   2.278   5.948
 9324SOL     OW28870   0.543   4.468   1.656
 9324SOL    HW128871   0.582   4.548   1.611
 9324SOL    HW228872   0.563   4.471   1.754
 9325SOL     OW28873   0.375   4.629   3.537
 9325SOL    HW128874   0.298   4.646   3.475
 9325SOL    HW228875   0.346   4.565   3.608
 9326SOL     OW28876   4.687   4.135   0.627
 9326SOL    HW128877   4.727   4.226   0.612
 9326SOL    HW228878   4.749   4.065   0.591
 9327SOL     OW28879   2.849   1.379   3.313
 9327SOL    HW128880   2.783   1.405   3.384
 9327SOL    HW228881   2.900   1.299   3.343
 9328SOL     OW28882   2.053   0.801   3.749
 9328SOL    HW128883   2.121   0.751   3.803
 9328SOL    HW228884   2.095   0.835   3.665
 9329SOL     OW28885   0.258   5.470   6.917
 9329SOL    HW128886   0.281   5.567   6.909
 9329SOL    HW228887   0.158   5.459   6.917
 9330SOL     OW28888   0.258   6.546   0.384
 9330SOL    HW128889   0.204   6.531   0.302
 9330SOL    HW228890   0.198   6.542   0.464
 9331SOL     OW28891   1.994   3.823   4.369
 9331SOL    HW128892   1.907   3.814   4.321
 9331SOL    HW228893   1.979   3.857   4.461
 9332SOL     OW28894   6.280   5.186   0.678
 9332SOL    HW128895   6.239   5.203   0.769
 9332SOL    HW228896   6.207   5.176   0.611
 9333SOL     OW28897   3.319   4.025   1.517
 9333SOL    HW128898   3.305   4.073   1.604
 9333SOL    HW228899   3.234   4.025   1.465
 9334SOL     OW28900   6.227   5.831   5.939
 9334SOL    HW128901   6.294   5.821   5.865
 9334SOL    HW228902   6.142   5.870   5.901
 9335SOL     OW28903   0.856   3.845   1.573
 9335SOL    HW128904   0.874   3.902   1.494
 9335SOL    HW228905   0.824   3.901   1.649
 9336SOL     OW28906   5.572   0.120   6.185
 9336SOL    HW128907   5.482   0.090   6.152
 9336SOL    HW228908   5.639   0.111   6.112
 9337SOL     OW28909   2.461   1.237   5.681
 9337SOL    HW128910   2.434   1.299   5.608
 9337SOL    HW228911   2.412   1.150   5.671
 9338SOL     OW28912   5.522   6.067   0.260
 9338SOL    HW128913   5.454   6.016   0.313
 9338SOL    HW228914   5.520   6.163   0.286
 9339SOL     OW28915   6.902   3.876   5.288
 9339SOL    HW128916   6.873   3.871   5.192
 9339SOL    HW228917   6.882   3.790   5.334
 9340SOL     OW28918   2.557   4.914   1.870
 9340SOL    HW128919   2.549   4.979   1.794
 9340SOL    HW228920   2.472   4.862   1.879
 9341SOL     OW28921   5.392   5.058   6.294
 9341SOL    HW128922   5.412   5.141   6.241
 9341SOL    HW228923   5.296   5.032   6.280
 9342SOL     OW28924   3.017   0.292   4.650
 9342SOL    HW128925   2.952   0.284   4.574
 9342SOL    HW228926   3.110   0.280   4.615
 9343SOL     OW28927   4.965   3.669   0.561
 9343SOL    HW128928   4.996   3.763   0.570
 9343SOL    HW228929   5.024   3.609   0.615
 9344SOL     OW28930   5.546   0.536   5.308
 9344SOL    HW128931   5.556   0.549   5.209
 9344SOL    HW228932   5.610   0.595   5.357
 9345SOL     OW28933   0.224   4.534   0.367
 9345SOL    HW128934   0.275   4.497   0.289
 9345SOL    HW228935   0.197   4.459   0.428
 9346SOL     OW28936   5.577   6.941   2.089
 9346SOL    HW128937   5.537   0.009   2.113
 9346SOL    HW228938   5.606   6.943   1.993
 9347SOL     OW28939   4.115   6.170   1.169
 9347SOL    HW128940   4.213   6.151   1.163
 9347SOL    HW228941   4.064   6.086   1.152
 9348SOL     OW28942   2.189   5.504   1.661
 9348SOL    HW128943   2.135   5.447   1.598
 9348SOL    HW228944   2.212   5.590   1.616
 9349SOL     OW28945   0.053   6.239   1.708
 9349SOL    HW128946   0.017   6.327   1.677
 9349SOL    HW228947   0.067   6.179   1.630
 9350SOL     OW28948   6.216   0.513   0.091
 9350SOL    HW128949   6.273   0.591   0.114
 9350SOL    HW228950   6.122   0.543   0.074
 9351SOL     OW28951   4.278   3.141   5.574
 9351SOL    HW128952   4.197   3.200   5.579
 9351SOL    HW228953   4.253   3.055   5.530
 9352SOL     OW28954   3.047   2.716   6.554
 9352SOL    HW128955   3.037   2.684   6.649
 9352SOL    HW228956   2.958   2.712   6.509
 9353SOL     OW28957   0.215   3.157   1.409
 9353SOL    HW128958   0.190   3.102   1.329
 9353SOL    HW228959   0.189   3.252   1.394
 9354SOL     OW28960   5.295   1.597   1.763
 9354SOL    HW128961   5.323   1.693   1.769
 9354SOL    HW228962   5.315   1.561   1.672
 9355SOL     OW28963   6.304   1.288   2.933
 9355SOL    HW128964   6.368   1.214   2.949
 9355SOL    HW228965   6.353   1.368   2.898
 9356SOL     OW28966   5.028   3.922   2.540
 9356SOL    HW128967   5.031   3.841   2.599
 9356SOL    HW228968   4.942   3.971   2.555
 9357SOL     OW28969   3.383   3.427   0.571
 9357SOL    HW128970   3.413   3.453   0.663
 9357SOL    HW228971   3.378   3.327   0.565
 9358SOL     OW28972   5.069   4.163   2.030
 9358SOL    HW128973   4.972   4.168   2.007
 9358SOL    HW228974   5.089   4.076   2.074
 9359SOL     OW28975   5.714   4.667   6.081
 9359SOL    HW128976   5.691   4.635   5.989
 9359SOL    HW228977   5.751   4.760   6.075
 9360SOL     OW28978   1.301   0.406   5.515
 9360SOL    HW128979   1.334   0.391   5.609
 9360SOL    HW228980   1.362   0.360   5.451
 9361SOL     OW28981   2.297   1.157   2.281
 9361SOL    HW128982   2.308   1.256   2.294
 9361SOL    HW228983   2.220   1.141   2.219
 9362SOL     OW28984   1.626   1.665   2.984
 9362SOL    HW128985   1.690   1.739   2.959
 9362SOL    HW228986   1.677   1.579   2.992
 9363SOL     OW28987   2.355   6.738   1.806
 9363SOL    HW128988   2.451   6.766   1.810
 9363SOL    HW228989   2.341   6.660   1.868
 9364SOL     OW28990   5.664   5.405   1.175
 9364SOL    HW128991   5.570   5.404   1.208
 9364SOL    HW228992   5.725   5.372   1.247
 9365SOL     OW28993   1.791   1.292   5.041
 9365SOL    HW128994   1.708   1.255   4.998
 9365SOL    HW228995   1.770   1.379   5.084
 9366SOL     OW28996   2.919   1.328   2.031
 9366SOL    HW128997   2.868   1.275   2.098
 9366SOL    HW228998   2.915   1.281   1.942
 9367SOL     OW28999   6.631   5.889   3.739
 9367SOL    HW129000   6.531   5.898   3.736
 9367SOL    HW229001   6.660   5.824   3.669
 9368SOL     OW29002   4.660   3.037   1.453
 9368SOL    HW129003   4.564   3.054   1.430
 9368SOL    HW229004   4.666   2.989   1.540
 9369SOL     OW29005   0.076   2.333   5.601
 9369SOL    HW129006   0.050   2.279   5.521
 9369SOL    HW229007   0.169   2.309   5.629
 9370SOL     OW29008   5.860   0.086   3.288
 9370SOL    HW129009   5.888   0.065   3.382
 9370SOL    HW229010   5.903   0.021   3.226
 9371SOL     OW29011   0.947   6.992   0.244
 9371SOL    HW129012   0.982   6.991   0.150
 9371SOL    HW229013   0.985   6.915   0.295
 9372SOL     OW29014   6.446   6.343   6.599
 9372SOL    HW129015   6.401   6.269   6.549
 9372SOL    HW229016   6.544   6.324   6.606
 9373SOL     OW29017   4.483   2.309   3.939
 9373SOL    HW129018   4.388   2.342   3.948
 9373SOL    HW229019   4.485   2.228   3.882
 9374SOL     OW29020   5.276   4.292   0.407
 9374SOL    HW129021   5.307   4.200   0.386
 9374SOL    HW229022   5.257   4.341   0.322
 9375SOL     OW29023   0.983   1.573   3.656
 9375SOL    HW129024   0.991   1.507   3.731
 9375SOL    HW229025   1.015   1.530   3.571
 9376SOL     OW29026   2.300   2.753   2.604
 9376SOL    HW129027   2.275   2.810   2.525
 9376SOL    HW229028   2.338   2.667   2.572
 9377SOL     OW29029   5.917   5.315   2.660
 9377SOL    HW129030   5.850   5.389   2.667
 9377SOL    HW229031   5.951   5.292   2.751
 9378SOL     OW29032   3.479   5.914   1.162
 9378SOL    HW129033   3.467   5.989   1.097
 9378SOL    HW229034   3.495   5.829   1.111
 9379SOL     OW29035   5.375   4.509   5.433
 9379SOL    HW129036   5.440   4.446   5.391
 9379SOL    HW229037   5.389   4.601   5.396
 9380SOL     OW29038   6.099   5.747   6.246
 9380SOL    HW129039   6.082   5.806   6.324
 9380SOL    HW229040   6.182   5.694   6.261
 9381SOL     OW29041   2.857   0.975   0.130
 9381SOL    HW129042   2.882   0.920   0.210
 9381SOL    HW229043   2.846   0.915   0.051
 9382SOL     OW29044   5.319   2.220   2.316
 9382SOL    HW129045   5.225   2.249   2.337
 9382SOL    HW229046   5.370   2.298   2.279
 9383SOL     OW29047   5.763   5.701   5.462
 9383SOL    HW129048   5.706   5.772   5.420
 9383SOL    HW229049   5.816   5.655   5.391
 9384SOL     OW29050   4.497   5.949   1.804
 9384SOL    HW129051   4.401   5.959   1.779
 9384SOL    HW229052   4.542   5.885   1.742
 9385SOL     OW29053   3.782   1.664   3.818
 9385SOL    HW129054   3.693   1.643   3.776
 9385SOL    HW229055   3.855   1.645   3.752
 9386SOL     OW29056   3.935   0.456   4.535
 9386SOL    HW129057   4.027   0.417   4.533
 9386SOL    HW229058   3.941   0.556   4.540
 9387SOL     OW29059   4.071   0.188   0.602
 9387SOL    HW129060   4.146   0.254   0.604
 9387SOL    HW229061   4.010   0.209   0.525
 9388SOL     OW29062   6.940   6.942   2.249
 9388SOL    HW129063   6.858   6.943   2.193
 9388SOL    HW229064   6.960   0.014   2.281
 9389SOL     OW29065   3.024   1.113   6.975
 9389SOL    HW129066   3.015   1.212   6.989
 9389SOL    HW229067   3.023   1.067   0.043
 9390SOL     OW29068   3.193   6.557   2.288
 9390SOL    HW129069   3.132   6.602   2.223
 9390SOL    HW229070   3.140   6.512   2.359
 9391SOL     OW29071   0.782   0.970   5.517
 9391SOL    HW129072   0.827   0.957   5.429
 9391SOL    HW229073   0.837   1.031   5.574
 9392SOL     OW29074   1.439   6.343   3.808
 9392SOL    HW129075   1.490   6.428   3.820
 9392SOL    HW229076   1.501   6.269   3.784
 9393SOL     OW29077   3.648   2.448   5.385
 9393SOL    HW129078   3.613   2.374   5.329
 9393SOL    HW229079   3.745   2.462   5.366
 9394SOL     OW29080   5.549   2.097   2.394
 9394SOL    HW129081   5.480   2.133   2.331
 9394SOL    HW229082   5.518   2.110   2.488
 9395SOL     OW29083   1.828   2.347   6.818
 9395SOL    HW129084   1.827   2.247   6.816
 9395SOL    HW229085   1.827   2.382   6.724
 9396SOL     OW29086   6.301   0.390   6.867
 9396SOL    HW129087   6.244   0.456   6.818
 9396SOL    HW229088   6.289   0.404   6.966
 9397SOL     OW29089   3.042   0.920   0.962
 9397SOL    HW129090   2.992   1.000   0.930
 9397SOL    HW229091   2.988   0.837   0.946
 9398SOL     OW29092   2.399   1.829   0.007
 9398SOL    HW129093   2.376   1.913   0.056
 9398SOL    HW229094   2.314   1.780   7.004
 9399SOL     OW29095   6.750   0.786   5.304
 9399SOL    HW129096   6.704   0.862   5.258
 9399SOL    HW229097   6.849   0.795   5.293
 9400SOL     OW29098   4.929   2.313   3.424
 9400SOL    HW129099   5.025   2.306   3.449
 9400SOL    HW229100   4.890   2.221   3.416
 9401SOL     OW29101   3.377   0.262   3.042
 9401SOL    HW129102   3.336   0.235   2.954
 9401SOL    HW229103   3.470   0.296   3.026
 9402SOL     OW29104   2.078   5.079   6.708
 9402SOL    HW129105   2.014   5.009   6.674
 9402SOL    HW229106   2.102   5.060   6.803
 9403SOL     OW29107   5.455   1.553   4.449
 9403SOL    HW129108   5.363   1.520   4.472
 9403SOL    HW229109   5.495   1.596   4.530
 9404SOL     OW29110   0.504   4.254   5.848
 9404SOL    HW129111   0.554   4.335   5.816
 9404SOL    HW229112   0.442   4.222   5.777
 9405SOL     OW29113   6.268   0.115   0.812
 9405SOL    HW129114   6.330   0.189   0.786
 9405SOL    HW229115   6.246   0.121   0.909
 9406SOL     OW29116   6.906   1.179   5.782
 9406SOL    HW129117   6.974   1.108   5.763
 9406SOL    HW229118   6.857   1.201   5.698
 9407SOL     OW29119   3.141   6.259   2.978
 9407SOL    HW129120   3.211   6.263   3.050
 9407SOL    HW229121   3.180   6.290   2.892
 9408SOL     OW29122   3.678   1.740   6.618
 9408SOL    HW129123   3.646   1.673   6.552
 9408SOL    HW229124   3.773   1.766   6.597
 9409SOL     OW29125   5.444   3.864   2.933
 9409SOL    HW129126   5.399   3.827   3.014
 9409SOL    HW229127   5.385   3.933   2.891
 9410SOL     OW29128   4.728   6.633   2.835
 9410SOL    HW129129   4.792   6.571   2.791
 9410SOL    HW229130   4.713   6.604   2.930
 9411SOL     OW29131   5.139   5.974   1.180
 9411SOL    HW129132   5.082   6.039   1.129
 9411SOL    HW229133   5.096   5.954   1.268
 9412SOL     OW29134   6.416   2.709   1.380
 9412SOL    HW129135   6.407   2.746   1.472
 9412SOL    HW229136   6.449   2.615   1.385
 9413SOL     OW29137   3.593   5.915   5.093
 9413SOL    HW129138   3.557   5.870   5.174
 9413SOL    HW229139   3.658   5.855   5.047
 9414SOL     OW29140   2.680   1.596   1.773
 9414SOL    HW129141   2.674   1.563   1.867
 9414SOL    HW229142   2.772   1.632   1.757
 9415SOL     OW29143   3.128   0.641   2.335
 9415SOL    HW129144   3.033   0.631   2.362
 9415SOL    HW229145   3.143   0.591   2.249
 9416SOL     OW29146   0.875   2.469   1.252
 9416SOL    HW129147   0.844   2.541   1.190
 9416SOL    HW229148   0.946   2.505   1.312
 9417SOL     OW29149   1.959   6.478   4.514
 9417SOL    HW129150   1.890   6.412   4.544
 9417SOL    HW229151   2.021   6.435   4.449
 9418SOL     OW29152   3.458   4.314   1.059
 9418SOL    HW129153   3.459   4.268   1.147
 9418SOL    HW229154   3.480   4.411   1.071
 9419SOL     OW29155   3.578   6.273   5.471
 9419SOL    HW129156   3.590   6.294   5.374
 9419SOL    HW229157   3.560   6.357   5.522
 9420SOL     OW29158   0.818   1.457   4.032
 9420SOL    HW129159   0.741   1.521   4.030
 9420SOL    HW229160   0.828   1.419   4.124
 9421SOL     OW29161   1.597   4.948   4.920
 9421SOL    HW129162   1.673   4.924   4.981
 9421SOL    HW229163   1.616   4.915   4.828
 9422SOL     OW29164   4.129   2.004   1.797
 9422SOL    HW129165   4.110   1.984   1.700
 9422SOL    HW229166   4.055   2.062   1.833
 9423SOL     OW29167   4.598   0.738   4.996
 9423SOL    HW129168   4.550   0.723   4.910
 9423SOL    HW229169   4.592   0.835   5.020
 9424SOL     OW29170   3.009   6.459   4.281
 9424SOL    HW129171   2.910   6.466   4.279
 9424SOL    HW229172   3.037   6.374   4.326
 9425SOL     OW29173   1.180   4.129   3.803
 9425SOL    HW129174   1.109   4.196   3.786
 9425SOL    HW229175   1.263   4.175   3.836
 9426SOL     OW29176   3.429   6.668   0.305
 9426SOL    HW129177   3.507   6.607   0.313
 9426SOL    HW229178   3.406   6.681   0.208
 9427SOL     OW29179   2.999   4.853   4.187
 9427SOL    HW129180   2.970   4.905   4.268
 9427SOL    HW229181   3.063   4.782   4.214
 9428SOL     OW29182   4.848   6.395   2.627
 9428SOL    HW129183   4.839   6.299   2.602
 9428SOL    HW229184   4.914   6.440   2.568
 9429SOL     OW29185   0.160   3.758   2.419
 9429SOL    HW129186   0.207   3.760   2.331
 9429SOL    HW229187   0.062   3.743   2.404
 9430SOL     OW29188   6.202   6.914   2.175
 9430SOL    HW129189   6.135   6.851   2.215
 9430SOL    HW229190   6.204   6.901   2.075
 9431SOL     OW29191   6.820   4.587   1.997
 9431SOL    HW129192   6.736   4.598   2.049
 9431SOL    HW229193   6.899   4.603   2.057
 9432SOL     OW29194   6.488   6.833   4.561
 9432SOL    HW129195   6.425   6.879   4.498
 9432SOL    HW229196   6.489   6.735   4.542
 9433SOL     OW29197   2.559   4.598   4.891
 9433SOL    HW129198   2.557   4.548   4.805
 9433SOL    HW229199   2.655   4.609   4.920
 9434SOL     OW29200   5.451   5.223   3.167
 9434SOL    HW129201   5.447   5.205   3.265
 9434SOL    HW229202   5.441   5.321   3.151
 9435SOL     OW29203   1.479   0.779   4.485
 9435SOL    HW129204   1.559   0.730   4.451
 9435SOL    HW229205   1.420   0.803   4.408
 9436SOL     OW29206   2.006   2.588   6.844
 9436SOL    HW129207   1.917   2.552   6.870
 9436SOL    HW229208   2.027   2.668   6.900
 9437SOL     OW29209   0.813   5.025   4.049
 9437SOL    HW129210   0.776   5.052   4.137
 9437SOL    HW229211   0.876   4.948   4.061
 9438SOL     OW29212   1.668   6.560   1.957
 9438SOL    HW129213   1.670   6.462   1.940
 9438SOL    HW229214   1.657   6.577   2.056
 9439SOL     OW29215   0.554   2.750   1.503
 9439SOL    HW129216   0.465   2.707   1.514
 9439SOL    HW229217   0.541   2.846   1.478
 9440SOL     OW29218   4.871   5.926   5.686
 9440SOL    HW129219   4.918   5.907   5.600
 9440SOL    HW229220   4.822   6.013   5.679
 9441SOL     OW29221   1.153   4.887   4.862
 9441SOL    HW129222   1.107   4.798   4.856
 9441SOL    HW229223   1.097   4.949   4.916
 9442SOL     OW29224   0.712   3.650   1.446
 9442SOL    HW129225   0.778   3.705   1.497
 9442SOL    HW229226   0.761   3.580   1.393
 9443SOL     OW29227   1.777   3.255   1.789
 9443SOL    HW129228   1.804   3.178   1.731
 9443SOL    HW229229   1.800   3.235   1.884
 9444SOL     OW29230   6.912   3.620   6.645
 9444SOL    HW129231   6.893   3.586   6.553
 9444SOL    HW229232   6.971   3.554   6.693
 9445SOL     OW29233   5.984   3.692   1.497
 9445SOL    HW129234   6.057   3.646   1.447
 9445SOL    HW229235   5.997   3.678   1.595
 9446SOL     OW29236   6.095   5.496   1.379
 9446SOL    HW129237   6.137   5.414   1.418
 9446SOL    HW229238   6.166   5.558   1.347
 9447SOL     OW29239   5.814   2.664   1.533
 9447SOL    HW129240   5.829   2.588   1.470
 9447SOL    HW229241   5.871   2.651   1.615
 9448SOL     OW29242   6.444   6.520   0.327
 9448SOL    HW129243   6.448   6.420   0.319
 9448SOL    HW229244   6.452   6.546   0.423
 9449SOL     OW29245   6.935   5.310   5.465
 9449SOL    HW129246   7.016   5.356   5.429
 9449SOL    HW229247   6.957   5.214   5.483
 9450SOL     OW29248   3.071   4.914   4.685
 9450SOL    HW129249   2.996   4.849   4.691
 9450SOL    HW229250   3.034   5.005   4.664
 9451SOL     OW29251   4.048   4.574   6.131
 9451SOL    HW129252   4.074   4.481   6.157
 9451SOL    HW229253   4.124   4.637   6.149
 9452SOL     OW29254   2.612   4.429   1.402
 9452SOL    HW129255   2.534   4.370   1.381
 9452SOL    HW229256   2.633   4.424   1.499
 9453SOL     OW29257   3.486   5.196   1.751
 9453SOL    HW129258   3.475   5.097   1.757
 9453SOL    HW229259   3.553   5.227   1.818
 9454SOL     OW29260   2.420   2.729   4.997
 9454SOL    HW129261   2.424   2.827   5.017
 9454SOL    HW229262   2.393   2.679   5.080
 9455SOL     OW29263   3.223   1.677   2.403
 9455SOL    HW129264   3.172   1.725   2.331
 9455SOL    HW229265   3.321   1.691   2.389
 9456SOL     OW29266   1.668   2.861   1.162
 9456SOL    HW129267   1.755   2.892   1.124
 9456SOL    HW229268   1.624   2.798   1.098
 9457SOL     OW29269   0.312   3.600   0.682
 9457SOL    HW129270   0.286   3.681   0.630
 9457SOL    HW229271   0.308   3.519   0.623
 9458SOL     OW29272   0.131   5.823   4.771
 9458SOL    HW129273   0.091   5.862   4.853
 9458SOL    HW229274   0.182   5.740   4.795
 9459SOL     OW29275   5.119   5.731   1.599
 9459SOL    HW129276   5.189   5.791   1.636
 9459SOL    HW229277   5.036   5.737   1.655
 9460SOL     OW29278   0.740   2.172   5.614
 9460SOL    HW129279   0.658   2.160   5.559
 9460SOL    HW229280   0.736   2.260   5.661
 9461SOL     OW29281   1.526   0.443   3.297
 9461SOL    HW129282   1.478   0.356   3.293
 9461SOL    HW229283   1.593   0.441   3.372
 9462SOL     OW29284   0.504   3.257   2.852
 9462SOL    HW129285   0.590   3.291   2.888
 9462SOL    HW229286   0.435   3.257   2.924
 9463SOL     OW29287   5.065   1.597   0.457
 9463SOL    HW129288   5.147   1.542   0.442
 9463SOL    HW229289   5.070   1.681   0.404
 9464SOL     OW29290   5.020   0.128   6.543
 9464SOL    HW129291   4.963   0.088   6.615
 9464SOL    HW229292   5.108   0.081   6.541
 9465SOL     OW29293   5.908   0.380   4.125
 9465SOL    HW129294   5.910   0.408   4.029
 9465SOL    HW229295   5.986   0.320   4.144
 9466SOL     OW29296   2.938   2.444   6.764
 9466SOL    HW129297   2.862   2.435   6.700
 9466SOL    HW229298   2.938   2.537   6.803
 9467SOL     OW29299   2.133   3.459   2.286
 9467SOL    HW129300   2.184   3.451   2.201
 9467SOL    HW229301   2.035   3.445   2.268
 9468SOL     OW29302   6.958   3.001   5.763
 9468SOL    HW129303   6.958   3.021   5.861
 9468SOL    HW229304   6.866   2.974   5.735
 9469SOL     OW29305   6.545   4.642   2.069
 9469SOL    HW129306   6.474   4.602   2.126
 9469SOL    HW229307   6.543   4.742   2.078
 9470SOL     OW29308   4.974   4.264   0.923
 9470SOL    HW129309   5.065   4.226   0.939
 9470SOL    HW229310   4.908   4.190   0.911
 9471SOL     OW29311   6.621   1.969   6.230
 9471SOL    HW129312   6.660   1.986   6.320
 9471SOL    HW229313   6.623   2.054   6.177
 9472SOL     OW29314   6.753   3.594   4.149
 9472SOL    HW129315   6.721   3.581   4.055
 9472SOL    HW229316   6.696   3.662   4.194
 9473SOL     OW29317   3.537   5.589   4.978
 9473SOL    HW129318   3.464   5.604   5.043
 9473SOL    HW229319   3.520   5.642   4.895
 9474SOL     OW29320   4.126   5.127   2.416
 9474SOL    HW129321   4.028   5.120   2.397
 9474SOL    HW229322   4.143   5.206   2.474
 9475SOL     OW29323   1.776   3.441   1.287
 9475SOL    HW129324   1.772   3.356   1.339
 9475SOL    HW229325   1.868   3.452   1.249
 9476SOL     OW29326   3.901   3.844   5.539
 9476SOL    HW129327   3.920   3.941   5.530
 9476SOL    HW229328   3.822   3.831   5.599
 9477SOL     OW29329   1.296   2.951   1.080
 9477SOL    HW129330   1.259   3.014   1.148
 9477SOL    HW229331   1.348   2.879   1.126
 9478SOL     OW29332   5.497   4.870   5.208
 9478SOL    HW129333   5.413   4.910   5.170
 9478SOL    HW229334   5.539   4.810   5.139
 9479SOL     OW29335   6.712   5.736   5.892
 9479SOL    HW129336   6.681   5.716   5.985
 9479SOL    HW229337   6.811   5.731   5.888
 9480SOL     OW29338   6.035   4.826   0.081
 9480SOL    HW129339   6.020   4.889   0.005
 9480SOL    HW229340   6.094   4.870   0.149
 9481SOL     OW29341   6.865   3.363   2.074
 9481SOL    HW129342   6.818   3.275   2.067
 9481SOL    HW229343   6.890   3.380   2.170
 9482SOL     OW29344   4.049   0.661   2.770
 9482SOL    HW129345   4.067   0.719   2.690
 9482SOL    HW229346   4.118   0.589   2.775
 9483SOL     OW29347   1.569   1.719   6.940
 9483SOL    HW129348   1.645   1.737   6.877
 9483SOL    HW229349   1.535   1.805   6.977
 9484SOL     OW29350   6.552   1.317   3.326
 9484SOL    HW129351   6.454   1.296   3.321
 9484SOL    HW229352   6.592   1.309   3.235
 9485SOL     OW29353   1.140   0.074   3.419
 9485SOL    HW129354   1.152   0.124   3.333
 9485SOL    HW229355   1.154   0.136   3.496
 9486SOL     OW29356   3.475   5.995   2.028
 9486SOL    HW129357   3.412   6.066   1.995
 9486SOL    HW229358   3.542   5.974   1.957
 9487SOL     OW29359   2.930   3.283   3.806
 9487SOL    HW129360   3.019   3.276   3.762
 9487SOL    HW229361   2.864   3.321   3.741
 9488SOL     OW29362   1.343   0.061   1.287
 9488SOL    HW129363   1.307   6.990   1.265
 9488SOL    HW229364   1.378   0.103   1.203
 9489SOL     OW29365   3.485   3.992   0.464
 9489SOL    HW129366   3.390   4.006   0.437
 9489SOL    HW229367   3.514   4.065   0.525
 9490SOL     OW29368   5.089   1.100   0.662
 9490SOL    HW129369   5.085   1.055   0.751
 9490SOL    HW229370   5.041   1.188   0.667
 9491SOL     OW29371   6.053   5.235   6.396
 9491SOL    HW129372   5.967   5.198   6.431
 9491SOL    HW229373   6.059   5.332   6.418
 9492SOL     OW29374   3.012   3.953   1.894
 9492SOL    HW129375   2.997   4.042   1.851
 9492SOL    HW229376   3.012   3.964   1.994
 9493SOL     OW29377   5.045   5.984   3.043
 9493SOL    HW129378   5.127   5.944   3.084
 9493SOL    HW229379   5.072   6.054   2.977
 9494SOL     OW29380   4.166   3.572   5.495
 9494SOL    HW129381   4.154   3.658   5.446
 9494SOL    HW229382   4.257   3.536   5.477
 9495SOL     OW29383   5.817   2.711   5.316
 9495SOL    HW129384   5.894   2.649   5.330
 9495SOL    HW229385   5.733   2.670   5.353
 9496SOL     OW29386   5.612   4.116   7.001
 9496SOL    HW129387   5.595   4.141   0.076
 9496SOL    HW229388   5.675   4.181   6.960
 9497SOL     OW29389   6.608   6.056   6.017
 9497SOL    HW129390   6.593   6.031   6.112
 9497SOL    HW229391   6.582   6.152   6.003
 9498SOL     OW29392   4.593   0.055   5.914
 9498SOL    HW129393   4.629   0.131   5.860
 9498SOL    HW229394   4.527   0.090   5.981
 9499SOL     OW29395   4.393   4.430   5.870
 9499SOL    HW129396   4.424   4.438   5.776
 9499SOL    HW229397   4.472   4.436   5.932
 9500SOL     OW29398   5.712   6.073   1.791
 9500SOL    HW129399   5.644   6.142   1.814
 9500SOL    HW229400   5.669   5.983   1.791
 9501SOL     OW29401   3.385   2.114   4.787
 9501SOL    HW129402   3.387   2.130   4.886
 9501SOL    HW229403   3.294   2.132   4.752
 9502SOL     OW29404   6.062   3.393   5.467
 9502SOL    HW129405   5.978   3.342   5.487
 9502SOL    HW229406   6.127   3.381   5.542
 9503SOL     OW29407   1.927   6.759   1.272
 9503SOL    HW129408   1.887   6.751   1.363
 9503SOL    HW229409   1.900   6.681   1.216
 9504SOL     OW29410   0.953   2.739   6.840
 9504SOL    HW129411   0.899   2.662   6.874
 9504SOL    HW229412   1.009   2.776   6.914
 9505SOL     OW29413   5.896   3.392   2.776
 9505SOL    HW129414   5.926   3.326   2.707
 9505SOL    HW229415   5.967   3.460   2.791
 9506SOL     OW29416   6.236   3.815   0.479
 9506SOL    HW129417   6.298   3.892   0.473
 9506SOL    HW229418   6.160   3.837   0.541
 9507SOL     OW29419   1.231   1.796   3.900
 9507SOL    HW129420   1.280   1.728   3.846
 9507SOL    HW229421   1.286   1.879   3.907
 9508SOL     OW29422   5.060   2.220   0.303
 9508SOL    HW129423   5.107   2.159   0.239
 9508SOL    HW229424   4.962   2.220   0.284
 9509SOL     OW29425   2.486   6.723   5.191
 9509SOL    HW129426   2.583   6.740   5.210
 9509SOL    HW229427   2.431   6.788   5.243
 9510SOL     OW29428   5.931   4.474   2.904
 9510SOL    HW129429   5.850   4.428   2.868
 9510SOL    HW229430   6.005   4.408   2.914
 9511SOL     OW29431   0.751   1.450   0.818
 9511SOL    HW129432   0.785   1.456   0.912
 9511SOL    HW229433   0.781   1.364   0.777
 9512SOL     OW29434   1.303   2.290   3.929
 9512SOL    HW129435   1.353   2.203   3.932
 9512SOL    HW229436   1.233   2.291   4.000
 9513SOL     OW29437   2.372   4.319   3.761
 9513SOL    HW129438   2.346   4.223   3.764
 9513SOL    HW229439   2.344   4.358   3.673
 9514SOL     OW29440   2.665   2.939   6.288
 9514SOL    HW129441   2.581   2.885   6.279
 9514SOL    HW229442   2.738   2.897   6.234
 9515SOL     OW29443   1.880   5.623   6.546
 9515SOL    HW129444   1.858   5.719   6.562
 9515SOL    HW229445   1.973   5.604   6.575
 9516SOL     OW29446   5.147   3.508   4.168
 9516SOL    HW129447   5.053   3.520   4.199
 9516SOL    HW229448   5.196   3.595   4.174
 9517SOL     OW29449   0.263   5.586   2.076
 9517SOL    HW129450   0.265   5.489   2.098
 9517SOL    HW229451   0.356   5.619   2.061
 9518SOL     OW29452   0.664   2.829   5.806
 9518SOL    HW129453   0.715   2.915   5.814
 9518SOL    HW229454   0.671   2.794   5.713
 9519SOL     OW29455   3.799   3.271   2.634
 9519SOL    HW129456   3.757   3.272   2.724
 9519SOL    HW229457   3.786   3.359   2.590
 9520SOL     OW29458   5.794   0.504   6.031
 9520SOL    HW129459   5.749   0.560   6.100
 9520SOL    HW229460   5.726   0.467   5.968
 9521SOL     OW29461   3.566   0.430   1.106
 9521SOL    HW129462   3.543   0.518   1.066
 9521SOL    HW229463   3.624   0.444   1.187
 9522SOL     OW29464   3.775   6.933   2.282
 9522SOL    HW129465   3.850   6.869   2.295
 9522SOL    HW229466   3.748   6.972   2.371
 9523SOL     OW29467   2.908   4.786   3.928
 9523SOL    HW129468   2.956   4.804   4.014
 9523SOL    HW229469   2.851   4.864   3.905
 9524SOL     OW29470   2.596   4.097   1.120
 9524SOL    HW129471   2.678   4.050   1.152
 9524SOL    HW229472   2.597   4.191   1.151
 9525SOL     OW29473   2.172   3.384   5.110
 9525SOL    HW129474   2.134   3.378   5.018
 9525SOL    HW229475   2.195   3.292   5.143
 9526SOL     OW29476   5.175   5.156   6.824
 9526SOL    HW129477   5.138   5.099   6.897
 9526SOL    HW229478   5.174   5.105   6.738
 9527SOL     OW29479   4.206   0.421   3.092
 9527SOL    HW129480   4.109   0.408   3.071
 9527SOL    HW229481   4.246   0.335   3.121
 9528SOL     OW29482   5.459   2.437   1.063
 9528SOL    HW129483   5.533   2.452   0.997
 9528SOL    HW229484   5.408   2.354   1.038
 9529SOL     OW29485   6.219   1.133   1.438
 9529SOL    HW129486   6.293   1.177   1.388
 9529SOL    HW229487   6.220   1.164   1.533
 9530SOL     OW29488   1.019   5.208   3.902
 9530SOL    HW129489   0.981   5.139   3.964
 9530SOL    HW229490   1.113   5.229   3.929
 9531SOL     OW29491   3.624   5.161   2.809
 9531SOL    HW129492   3.535   5.192   2.775
 9531SOL    HW229493   3.623   5.161   2.909
 9532SOL     OW29494   6.495   5.369   2.983
 9532SOL    HW129495   6.528   5.292   3.038
 9532SOL    HW229496   6.541   5.453   3.013
 9533SOL     OW29497   2.076   3.923   3.299
 9533SOL    HW129498   2.141   3.872   3.242
 9533SOL    HW229499   1.996   3.948   3.245
 9534SOL     OW29500   5.389   4.838   4.564
 9534SOL    HW129501   5.362   4.890   4.483
 9534SOL    HW229502   5.325   4.763   4.579
 9535SOL     OW29503   0.913   1.187   5.636
 9535SOL    HW129504   0.853   1.264   5.610
 9535SOL    HW229505   1.008   1.211   5.617
 9536SOL     OW29506   3.603   3.920   5.146
 9536SOL    HW129507   3.671   3.863   5.193
 9536SOL    HW229508   3.534   3.861   5.104
 9537SOL     OW29509   0.866   1.277   3.296
 9537SOL    HW129510   0.870   1.274   3.396
 9537SOL    HW229511   0.958   1.292   3.260
 9538SOL     OW29512   4.206   0.865   5.737
 9538SOL    HW129513   4.271   0.939   5.753
 9538SOL    HW229514   4.175   0.868   5.642
 9539SOL     OW29515   3.442   3.446   2.427
 9539SOL    HW129516   3.350   3.448   2.466
 9539SOL    HW229517   3.449   3.514   2.354
 9540SOL     OW29518   4.695   4.740   3.488
 9540SOL    HW129519   4.784   4.698   3.505
 9540SOL    HW229520   4.631   4.672   3.454
 9541SOL     OW29521   1.898   5.595   5.522
 9541SOL    HW129522   1.854   5.538   5.453
 9541SOL    HW229523   1.869   5.566   5.613
 9542SOL     OW29524   6.036   4.247   4.435
 9542SOL    HW129525   6.016   4.196   4.351
 9542SOL    HW229526   6.100   4.321   4.415
 9543SOL     OW29527   2.782   0.043   5.643
 9543SOL    HW129528   2.810   0.121   5.700
 9543SOL    HW229529   2.750   6.989   5.702
 9544SOL     OW29530   5.727   3.550   4.086
 9544SOL    HW129531   5.649   3.489   4.072
 9544SOL    HW229532   5.810   3.507   4.050
 9545SOL     OW29533   1.313   4.350   1.449
 9545SOL    HW129534   1.249   4.337   1.524
 9545SOL    HW229535   1.264   4.349   1.362
 9546SOL     OW29536   2.396   2.614   6.773
 9546SOL    HW129537   2.421   2.648   6.683
 9546SOL    HW229538   2.314   2.558   6.766
 9547SOL     OW29539   4.335   6.495   4.326
 9547SOL    HW129540   4.345   6.594   4.328
 9547SOL    HW229541   4.260   6.468   4.387
 9548SOL     OW29542   0.948   4.851   0.163
 9548SOL    HW129543   0.857   4.851   0.121
 9548SOL    HW229544   1.013   4.894   0.101
 9549SOL     OW29545   5.151   3.098   0.942
 9549SOL    HW129546   5.190   3.064   0.856
 9549SOL    HW229547   5.054   3.120   0.928
 9550SOL     OW29548   5.724   3.356   1.464
 9550SOL    HW129549   5.823   3.354   1.449
 9550SOL    HW229550   5.705   3.411   1.546
 9551SOL     OW29551   6.485   3.020   6.710
 9551SOL    HW129552   6.567   2.964   6.720
 9551SOL    HW229553   6.509   3.106   6.664
 9552SOL     OW29554   3.198   2.135   6.841
 9552SOL    HW129555   3.103   2.117   6.867
 9552SOL    HW229556   3.235   2.209   6.896
 9553SOL     OW29557   5.562   1.620   6.558
 9553SOL    HW129558   5.555   1.720   6.559
 9553SOL    HW229559   5.623   1.591   6.631
 9554SOL     OW29560   2.617   6.580   3.783
 9554SOL    HW129561   2.525   6.615   3.762
 9554SOL    HW229562   2.632   6.494   3.735
 9555SOL     OW29563   6.321   0.755   3.583
 9555SOL    HW129564   6.336   0.727   3.678
 9555SOL    HW229565   6.361   0.687   3.521
 9556SOL     OW29566   1.920   4.624   0.149
 9556SOL    HW129567   1.994   4.569   0.109
 9556SOL    HW229568   1.870   4.670   0.075
 9557SOL     OW29569   4.813   0.686   1.302
 9557SOL    HW129570   4.718   0.669   1.274
 9557SOL    HW229571   4.867   0.712   1.222
 9558SOL     OW29572   4.869   6.517   6.707
 9558SOL    HW129573   4.885   6.475   6.618
 9558SOL    HW229574   4.953   6.513   6.761
 9559SOL     OW29575   1.553   4.258   0.294
 9559SOL    HW129576   1.635   4.283   0.242
 9559SOL    HW229577   1.493   4.203   0.236
 9560SOL     OW29578   3.659   6.986   1.879
 9560SOL    HW129579   3.569   6.957   1.912
 9560SOL    HW229580   3.701   0.026   1.946
 9561SOL     OW29581   0.791   0.996   0.498
 9561SOL    HW129582   0.720   1.037   0.555
 9561SOL    HW229583   0.760   0.907   0.465
 9562SOL     OW29584   3.178   5.625   3.292
 9562SOL    HW129585   3.119   5.600   3.369
 9562SOL    HW229586   3.122   5.657   3.216
 9563SOL     OW29587   0.584   6.111   1.253
 9563SOL    HW129588   0.529   6.128   1.336
 9563SOL    HW229589   0.554   6.025   1.211
 9564SOL     OW29590   1.053   0.557   0.188
 9564SOL    HW129591   1.022   0.590   0.098
 9564SOL    HW229592   1.104   0.630   0.234
 9565SOL     OW29593   2.987   1.503   3.763
 9565SOL    HW129594   3.058   1.571   3.743
 9565SOL    HW229595   3.023   1.411   3.750
 9566SOL     OW29596   2.754   0.585   0.337
 9566SOL    HW129597   2.657   0.563   0.345
 9566SOL    HW229598   2.801   0.510   0.289
 9567SOL     OW29599   6.604   3.958   1.142
 9567SOL    HW129600   6.559   4.047   1.141
 9567SOL    HW229601   6.686   3.961   1.084
 9568SOL     OW29602   5.043   1.221   6.863
 9568SOL    HW129603   5.057   1.255   6.955
 9568SOL    HW229604   4.969   1.154   6.862
 9569SOL     OW29605   5.509   0.951   2.261
 9569SOL    HW129606   5.540   0.934   2.167
 9569SOL    HW229607   5.421   0.998   2.259
 9570SOL     OW29608   0.442   2.996   1.137
 9570SOL    HW129609   0.363   3.056   1.122
 9570SOL    HW229610   0.462   2.992   1.234
 9571SOL     OW29611   2.833   1.819   6.814
 9571SOL    HW129612   2.762   1.876   6.855
 9571SOL    HW229613   2.899   1.877   6.765
 9572SOL     OW29614   2.225   4.065   4.014
 9572SOL    HW129615   2.168   3.983   4.022
 9572SOL    HW229616   2.233   4.109   4.104
 9573SOL     OW29617   6.160   1.037   4.587
 9573SOL    HW129618   6.137   0.945   4.556
 9573SOL    HW229619   6.260   1.045   4.595
 9574SOL     OW29620   2.968   3.432   1.331
 9574SOL    HW129621   2.985   3.345   1.285
 9574SOL    HW229622   2.903   3.487   1.277
 9575SOL     OW29623   6.392   6.636   1.444
 9575SOL    HW129624   6.380   6.607   1.349
 9575SOL    HW229625   6.303   6.658   1.483
 9576SOL     OW29626   0.922   6.700   6.994
 9576SOL    HW129627   0.882   6.609   6.986
 9576SOL    HW229628   0.954   6.713   0.068
 9577SOL     OW29629   6.297   5.180   2.075
 9577SOL    HW129630   6.292   5.262   2.017
 9577SOL    HW229631   6.228   5.186   2.147
 9578SOL     OW29632   1.902   2.633   2.971
 9578SOL    HW129633   1.895   2.721   3.019
 9578SOL    HW229634   1.974   2.638   2.902
 9579SOL     OW29635   5.781   6.108   2.114
 9579SOL    HW129636   5.719   6.174   2.156
 9579SOL    HW229637   5.875   6.126   2.144
 9580SOL     OW29638   4.910   4.917   2.754
 9580SOL    HW129639   4.983   4.962   2.806
 9580SOL    HW229640   4.947   4.884   2.667
 9581SOL     OW29641   6.296   1.300   0.117
 9581SOL    HW129642   6.329   1.209   0.093
 9581SOL    HW229643   6.365   1.347   0.172
 9582SOL     OW29644   5.034   6.129   4.336
 9582SOL    HW129645   5.063   6.091   4.248
 9582SOL    HW229646   5.098   6.199   4.365
 9583SOL     OW29647   3.454   4.556   1.694
 9583SOL    HW129648   3.543   4.592   1.721
 9583SOL    HW229649   3.389   4.631   1.681
 9584SOL     OW29650   2.307   5.338   4.617
 9584SOL    HW129651   2.386   5.321   4.675
 9584SOL    HW229652   2.248   5.257   4.616
 9585SOL     OW29653   4.344   5.652   1.675
 9585SOL    HW129654   4.378   5.641   1.769
 9585SOL    HW229655   4.399   5.721   1.628
 9586SOL     OW29656   4.720   4.940   2.061
 9586SOL    HW129657   4.630   4.898   2.078
 9586SOL    HW229658   4.780   4.873   2.018
 9587SOL     OW29659   2.599   6.024   1.601
 9587SOL    HW129660   2.609   6.122   1.582
 9587SOL    HW229661   2.675   5.993   1.658
 9588SOL     OW29662   6.493   5.721   0.503
 9588SOL    HW129663   6.409   5.765   0.472
 9588SOL    HW229664   6.561   5.791   0.527
 9589SOL     OW29665   2.003   3.697   6.141
 9589SOL    HW129666   1.991   3.695   6.240
 9589SOL    HW229667   2.066   3.771   6.116
 9590SOL     OW29668   5.280   1.697   2.228
 9590SOL    HW129669   5.181   1.711   2.231
 9590SOL    HW229670   5.301   1.601   2.245
 9591SOL     OW29671   3.552   0.400   6.506
 9591SOL    HW129672   3.604   0.328   6.461
 9591SOL    HW229673   3.459   0.401   6.470
 9592SOL     OW29674   2.281   5.125   5.953
 9592SOL    HW129675   2.254   5.090   5.864
 9592SOL    HW229676   2.363   5.077   5.985
 9593SOL     OW29677   1.698   1.784   4.589
 9593SOL    HW129678   1.735   1.835   4.512
 9593SOL    HW229679   1.754   1.800   4.670
 9594SOL     OW29680   0.468   6.201   4.092
 9594SOL    HW129681   0.502   6.188   3.999
 9594SOL    HW229682   0.545   6.211   4.154
 9595SOL     OW29683   0.319   3.443   3.867
 9595SOL    HW129684   0.314   3.345   3.887
 9595SOL    HW229685   0.343   3.493   3.951
 9596SOL     OW29686   0.520   6.450   0.700
 9596SOL    HW129687   0.529   6.479   0.605
 9596SOL    HW229688   0.423   6.447   0.725
 9597SOL     OW29689   0.457   3.926   2.523
 9597SOL    HW129690   0.463   3.927   2.424
 9597SOL    HW229691   0.442   3.833   2.555
 9598SOL     OW29692   0.917   4.101   3.157
 9598SOL    HW129693   0.947   4.064   3.245
 9598SOL    HW229694   0.865   4.031   3.108
 9599SOL     OW29695   3.588   6.901   3.753
 9599SOL    HW129696   3.641   6.827   3.711
 9599SOL    HW229697   3.527   6.863   3.822
 9600SOL     OW29698   3.168   0.798   1.340
 9600SOL    HW129699   3.079   0.785   1.382
 9600SOL    HW229700   3.233   0.832   1.408
 9601SOL     OW29701   6.656   4.203   1.738
 9601SOL    HW129702   6.715   4.173   1.813
 9601SOL    HW229703   6.591   4.131   1.716
 9602SOL     OW29704   4.731   4.335   5.860
 9602SOL    HW129705   4.751   4.244   5.896
 9602SOL    HW229706   4.691   4.391   5.933
 9603SOL     OW29707   5.602   5.947   5.306
 9603SOL    HW129708   5.697   5.975   5.313
 9603SOL    HW229709   5.558   5.957   5.396
 9604SOL     OW29710   5.209   6.816   0.571
 9604SOL    HW129711   5.181   6.912   0.559
 9604SOL    HW229712   5.290   6.812   0.629
 9605SOL     OW29713   6.558   6.518   3.497
 9605SOL    HW129714   6.535   6.522   3.594
 9605SOL    HW229715   6.652   6.551   3.483
 9606SOL     OW29716   1.794   1.791   6.758
 9606SOL    HW129717   1.857   1.720   6.787
 9606SOL    HW229718   1.835   1.881   6.775
 9607SOL     OW29719   3.128   2.876   6.078
 9607SOL    HW129720   3.044   2.930   6.068
 9607SOL    HW229721   3.110   2.800   6.142
 9608SOL     OW29722   6.463   3.673   3.476
 9608SOL    HW129723   6.402   3.710   3.546
 9608SOL    HW229724   6.486   3.744   3.410
 9609SOL     OW29725   3.929   2.525   5.977
 9609SOL    HW129726   3.874   2.520   5.893
 9609SOL    HW229727   3.945   2.434   6.012
 9610SOL     OW29728   1.346   4.177   2.538
 9610SOL    HW129729   1.301   4.109   2.480
 9610SOL    HW229730   1.424   4.135   2.585
 9611SOL     OW29731   1.083   0.421   0.575
 9611SOL    HW129732   1.167   0.432   0.522
 9611SOL    HW229733   1.085   0.333   0.623
 9612SOL     OW29734   0.798   2.986   3.077
 9612SOL    HW129735   0.715   2.959   3.028
 9612SOL    HW229736   0.798   3.086   3.090
 9613SOL     OW29737   5.906   5.626   3.144
 9613SOL    HW129738   5.974   5.593   3.209
 9613SOL    HW229739   5.865   5.547   3.096
 9614SOL     OW29740   5.390   1.972   2.850
 9614SOL    HW129741   5.423   1.884   2.817
 9614SOL    HW229742   5.465   2.022   2.893
 9615SOL     OW29743   2.506   2.855   1.382
 9615SOL    HW129744   2.593   2.808   1.367
 9615SOL    HW229745   2.487   2.859   1.480
 9616SOL     OW29746   3.380   2.719   6.714
 9616SOL    HW129747   3.372   2.801   6.657
 9616SOL    HW229748   3.311   2.722   6.786
 9617SOL     OW29749   2.560   2.395   3.939
 9617SOL    HW129750   2.592   2.306   3.971
 9617SOL    HW229751   2.610   2.468   3.986
 9618SOL     OW29752   3.178   1.018   0.740
 9618SOL    HW129753   3.141   0.963   0.815
 9618SOL    HW229754   3.139   0.985   0.653
 9619SOL     OW29755   2.508   0.883   4.935
 9619SOL    HW129756   2.418   0.862   4.897
 9619SOL    HW229757   2.566   0.924   4.864
 9620SOL     OW29758   5.841   0.209   5.624
 9620SOL    HW129759   5.891   0.223   5.710
 9620SOL    HW229760   5.743   0.220   5.640
 9621SOL     OW29761   1.723   2.530   2.796
 9621SOL    HW129762   1.783   2.566   2.868
 9621SOL    HW229763   1.640   2.585   2.791
 9622SOL     OW29764   5.744   0.508   1.478
 9622SOL    HW129765   5.787   0.594   1.450
 9622SOL    HW229766   5.749   0.442   1.402
 9623SOL     OW29767   3.403   3.581   6.541
 9623SOL    HW129768   3.473   3.631   6.489
 9623SOL    HW229769   3.362   3.511   6.483
 9624SOL     OW29770   6.098   3.148   3.216
 9624SOL    HW129771   6.133   3.054   3.222
 9624SOL    HW229772   6.029   3.162   3.287
 9625SOL     OW29773   6.365   6.237   0.237
 9625SOL    HW129774   6.414   6.153   0.215
 9625SOL    HW229775   6.305   6.262   0.161
 9626SOL     OW29776   3.679   6.291   6.757
 9626SOL    HW129777   3.649   6.255   6.669
 9626SOL    HW229778   3.775   6.318   6.751
 9627SOL     OW29779   1.179   6.334   6.644
 9627SOL    HW129780   1.088   6.292   6.643
 9627SOL    HW229781   1.169   6.434   6.650
 9628SOL     OW29782   4.229   6.069   1.477
 9628SOL    HW129783   4.278   6.141   1.428
 9628SOL    HW229784   4.194   6.002   1.412
 9629SOL     OW29785   2.705   6.500   1.181
 9629SOL    HW129786   2.786   6.554   1.205
 9629SOL    HW229787   2.630   6.523   1.243
 9630SOL     OW29788   6.317   0.906   5.977
 9630SOL    HW129789   6.226   0.886   5.942
 9630SOL    HW229790   6.337   0.847   6.055
 9631SOL     OW29791   6.000   6.104   6.636
 9631SOL    HW129792   5.910   6.062   6.647
 9631SOL    HW229793   5.995   6.200   6.662
 9632SOL     OW29794   1.731   6.548   1.683
 9632SOL    HW129795   1.660   6.506   1.627
 9632SOL    HW229796   1.691   6.581   1.769
 9633SOL     OW29797   6.911   5.450   6.451
 9633SOL    HW129798   6.815   5.467   6.427
 9633SOL    HW229799   6.950   5.384   6.387
 9634SOL     OW29800   1.284   6.413   4.669
 9634SOL    HW129801   1.272   6.491   4.608
 9634SOL    HW229802   1.339   6.439   4.748
 9635SOL     OW29803   2.040   5.404   5.195
 9635SOL    HW129804   2.122   5.459   5.205
 9635SOL    HW229805   2.060   5.310   5.225
 9636SOL     OW29806   4.322   1.141   5.787
 9636SOL    HW129807   4.223   1.151   5.787
 9636SOL    HW229808   4.352   1.104   5.876
 9637SOL     OW29809   2.020   1.481   6.469
 9637SOL    HW129810   2.105   1.519   6.505
 9637SOL    HW229811   2.021   1.382   6.479
 9638SOL     OW29812   6.354   2.006   5.236
 9638SOL    HW129813   6.294   1.928   5.250
 9638SOL    HW229814   6.438   1.976   5.190
 9639SOL     OW29815   4.412   1.213   2.530
 9639SOL    HW129816   4.464   1.218   2.445
 9639SOL    HW229817   4.418   1.300   2.578
 9640SOL     OW29818   2.168   2.097   2.552
 9640SOL    HW129819   2.080   2.069   2.514
 9640SOL    HW229820   2.161   2.106   2.651
 9641SOL     OW29821   6.388   5.856   6.878
 9641SOL    HW129822   6.337   5.928   6.831
 9641SOL    HW229823   6.451   5.898   6.944
 9642SOL     OW29824   3.264   0.314   4.547
 9642SOL    HW129825   3.348   0.363   4.523
 9642SOL    HW229826   3.284   0.244   4.615
 9643SOL     OW29827   4.689   4.363   3.773
 9643SOL    HW129828   4.606   4.414   3.795
 9643SOL    HW229829   4.700   4.287   3.837
 9644SOL     OW29830   1.890   2.201   5.864
 9644SOL    HW129831   1.792   2.209   5.886
 9644SOL    HW229832   1.902   2.132   5.793
 9645SOL     OW29833   3.073   5.196   4.900
 9645SOL    HW129834   3.036   5.208   4.808
 9645SOL    HW229835   2.999   5.192   4.967
 9646SOL     OW29836   4.024   4.785   2.942
 9646SOL    HW129837   3.997   4.724   2.867
 9646SOL    HW229838   4.009   4.880   2.914
 9647SOL     OW29839   6.484   3.004   0.393
 9647SOL    HW129840   6.401   2.988   0.341
 9647SOL    HW229841   6.462   3.007   0.491
 9648SOL     OW29842   4.802   2.774   0.940
 9648SOL    HW129843   4.894   2.812   0.954
 9648SOL    HW229844   4.746   2.841   0.891
 9649SOL     OW29845   2.112   6.224   0.734
 9649SOL    HW129846   2.083   6.311   0.696
 9649SOL    HW229847   2.169   6.240   0.815
 9650SOL     OW29848   6.787   6.362   1.998
 9650SOL    HW129849   6.885   6.377   2.007
 9650SOL    HW229850   6.744   6.373   2.088
 9651SOL     OW29851   0.358   1.410   5.863
 9651SOL    HW129852   0.283   1.410   5.929
 9651SOL    HW229853   0.377   1.503   5.834
 9652SOL     OW29854   0.523   5.765   2.798
 9652SOL    HW129855   0.485   5.751   2.890
 9652SOL    HW229856   0.620   5.743   2.799
 9653SOL     OW29857   5.956   5.365   4.521
 9653SOL    HW129858   5.985   5.316   4.603
 9653SOL    HW229859   5.857   5.356   4.511
 9654SOL     OW29860   2.299   2.664   2.266
 9654SOL    HW129861   2.290   2.607   2.347
 9654SOL    HW229862   2.395   2.671   2.239
 9655SOL     OW29863   6.426   2.716   6.760
 9655SOL    HW129864   6.434   2.619   6.734
 9655SOL    HW229865   6.346   2.756   6.716
 9656SOL     OW29866   3.807   0.433   2.666
 9656SOL    HW129867   3.799   0.487   2.749
 9656SOL    HW229868   3.803   0.494   2.586
 9657SOL     OW29869   6.999   0.177   4.422
 9657SOL    HW129870   6.979   0.086   4.459
 9657SOL    HW229871   6.938   0.244   4.465
 9658SOL     OW29872   6.687   2.454   2.557
 9658SOL    HW129873   6.704   2.360   2.587
 9658SOL    HW229874   6.600   2.458   2.508
 9659SOL     OW29875   0.303   4.673   6.996
 9659SOL    HW129876   0.362   4.628   0.043
 9659SOL    HW229877   0.294   4.615   6.916
 9660SOL     OW29878   0.546   5.426   0.211
 9660SOL    HW129879   0.594   5.454   0.127
 9660SOL    HW229880   0.587   5.341   0.245
 9661SOL     OW29881   4.266   6.630   1.342
 9661SOL    HW129882   4.257   6.653   1.245
 9661SOL    HW229883   4.185   6.661   1.391
 9662SOL     OW29884   5.695   0.753   4.729
 9662SOL    HW129885   5.740   0.810   4.797
 9662SOL    HW229886   5.644   0.679   4.775
 9663SOL     OW29887   2.512   5.395   2.125
 9663SOL    HW129888   2.424   5.387   2.077
 9663SOL    HW229889   2.527   5.312   2.180
 9664SOL     OW29890   2.950   6.683   1.865
 9664SOL    HW129891   2.872   6.655   1.921
 9664SOL    HW229892   3.030   6.694   1.923
 9665SOL     OW29893   5.544   4.020   4.363
 9665SOL    HW129894   5.540   3.966   4.448
 9665SOL    HW229895   5.452   4.026   4.324
 9666SOL     OW29896   5.570   4.739   4.298
 9666SOL    HW129897   5.474   4.711   4.300
 9666SOL    HW229898   5.608   4.736   4.391
 9667SOL     OW29899   4.068   3.452   4.044
 9667SOL    HW129900   4.026   3.483   3.958
 9667SOL    HW229901   4.085   3.532   4.102
 9668SOL     OW29902   0.504   0.695   5.522
 9668SOL    HW129903   0.452   0.627   5.472
 9668SOL    HW229904   0.472   0.787   5.498
 9669SOL     OW29905   1.741   5.940   0.632
 9669SOL    HW129906   1.814   5.950   0.700
 9669SOL    HW229907   1.670   5.880   0.668
 9670SOL     OW29908   5.499   5.221   0.215
 9670SOL    HW129909   5.532   5.225   0.310
 9670SOL    HW229910   5.455   5.133   0.199
 9671SOL     OW29911   6.804   6.455   6.021
 9671SOL    HW129912   6.856   6.380   5.979
 9671SOL    HW229913   6.862   6.502   6.087
 9672SOL     OW29914   0.606   6.519   4.963
 9672SOL    HW129915   0.599   6.571   4.878
 9672SOL    HW229916   0.675   6.448   4.953
 9673SOL     OW29917   2.849   3.389   6.432
 9673SOL    HW129918   2.784   3.331   6.384
 9673SOL    HW229919   2.903   3.334   6.496
 9674SOL     OW29920   3.357   6.767   2.414
 9674SOL    HW129921   3.417   6.704   2.462
 9674SOL    HW229922   3.291   6.716   2.360
 9675SOL     OW29923   6.830   2.448   2.301
 9675SOL    HW129924   6.789   2.463   2.390
 9675SOL    HW229925   6.767   2.396   2.243
 9676SOL     OW29926   0.335   3.199   4.483
 9676SOL    HW129927   0.377   3.149   4.558
 9676SOL    HW229928   0.402   3.259   4.441
 9677SOL     OW29929   1.872   3.694   5.315
 9677SOL    HW129930   1.812   3.618   5.337
 9677SOL    HW229931   1.965   3.660   5.298
 9678SOL     OW29932   3.184   3.683   3.119
 9678SOL    HW129933   3.205   3.699   3.216
 9678SOL    HW229934   3.237   3.604   3.086
 9679SOL     OW29935   1.161   3.425   2.011
 9679SOL    HW129936   1.238   3.434   2.074
 9679SOL    HW229937   1.126   3.515   1.988
 9680SOL     OW29938   6.030   5.544   3.368
 9680SOL    HW129939   6.035   5.617   3.436
 9680SOL    HW229940   6.117   5.496   3.364
 9681SOL     OW29941   1.668   0.672   2.841
 9681SOL    HW129942   1.593   0.619   2.880
 9681SOL    HW229943   1.746   0.670   2.904
 9682SOL     OW29944   5.922   3.862   3.114
 9682SOL    HW129945   5.828   3.865   3.149
 9682SOL    HW229946   5.920   3.830   3.019
 9683SOL     OW29947   4.834   5.894   0.070
 9683SOL    HW129948   4.798   5.921   7.001
 9683SOL    HW229949   4.889   5.968   0.108
 9684SOL     OW29950   1.542   3.663   3.993
 9684SOL    HW129951   1.478   3.640   4.066
 9684SOL    HW229952   1.550   3.586   3.930
 9685SOL     OW29953   2.002   2.391   0.026
 9685SOL    HW129954   1.960   2.467   0.076
 9685SOL    HW229955   1.955   2.379   6.959
 9686SOL     OW29956   6.030   1.050   1.798
 9686SOL    HW129957   5.935   1.054   1.767
 9686SOL    HW229958   6.033   1.060   1.897
 9687SOL     OW29959   3.472   0.394   3.772
 9687SOL    HW129960   3.437   0.302   3.755
 9687SOL    HW229961   3.545   0.415   3.707
 9688SOL     OW29962   0.618   1.556   3.369
 9688SOL    HW129963   0.551   1.615   3.323
 9688SOL    HW229964   0.691   1.612   3.407
 9689SOL     OW29965   2.099   5.836   6.303
 9689SOL    HW129966   2.081   5.934   6.292
 9689SOL    HW229967   2.014   5.788   6.323
 9690SOL     OW29968   6.365   4.292   1.374
 9690SOL    HW129969   6.326   4.267   1.462
 9690SOL    HW229970   6.329   4.233   1.302
 9691SOL     OW29971   1.655   4.136   1.577
 9691SOL    HW129972   1.652   4.096   1.669
 9691SOL    HW229973   1.626   4.069   1.510
 9692SOL     OW29974   2.649   5.791   1.321
 9692SOL    HW129975   2.709   5.787   1.241
 9692SOL    HW229976   2.704   5.800   1.403
 9693SOL     OW29977   6.119   5.942   1.563
 9693SOL    HW129978   6.158   5.860   1.605
 9693SOL    HW229979   6.055   5.985   1.626
 9694SOL     OW29980   2.045   2.107   0.039
 9694SOL    HW129981   2.053   2.050   6.978
 9694SOL    HW229982   2.008   2.196   0.014
 9695SOL     OW29983   6.088   4.078   1.465
 9695SOL    HW129984   6.127   4.091   1.374
 9695SOL    HW229985   6.132   4.142   1.529
 9696SOL     OW29986   4.230   3.082   1.070
 9696SOL    HW129987   4.159   3.089   0.999
 9696SOL    HW229988   4.273   3.172   1.083
 9697SOL     OW29989   0.960   5.852   0.340
 9697SOL    HW129990   0.993   5.918   0.273
 9697SOL    HW229991   0.989   5.880   0.432
 9698SOL     OW29992   5.859   1.893   5.008
 9698SOL    HW129993   5.904   1.936   4.929
 9698SOL    HW229994   5.875   1.948   5.090
 9699SOL     OW29995   1.617   3.151   0.086
 9699SOL    HW129996   1.704   3.104   0.070
 9699SOL    HW229997   1.605   3.165   0.184
 9700SOL     OW29998   3.484   4.194   4.712
 9700SOL    HW129999   3.482   4.292   4.731
 9700SOL    HW230000   3.575   4.158   4.735
 9701SOL     OW30001   5.616   4.667   5.034
 9701SOL    HW130002   5.624   4.670   4.934
 9701SOL    HW230003   5.690   4.612   5.071
 9702SOL     OW30004   4.416   1.010   0.935
 9702SOL    HW130005   4.512   1.028   0.956
 9702SOL    HW230006   4.393   1.052   0.847
 9703SOL     OW30007   2.908   6.506   3.549
 9703SOL    HW130008   2.936   6.567   3.475
 9703SOL    HW230009   2.978   6.435   3.562
 9704SOL     OW30010   3.082   0.510   3.505
 9704SOL    HW130011   3.117   0.495   3.413
 9704SOL    HW230012   3.084   0.424   3.556
 9705SOL     OW30013   3.552   4.003   0.801
 9705SOL    HW130014   3.503   3.944   0.736
 9705SOL    HW230015   3.638   4.033   0.760
 9706SOL     OW30016   5.647   3.049   2.857
 9706SOL    HW130017   5.695   3.020   2.774
 9706SOL    HW230018   5.560   3.001   2.864
 9707SOL     OW30019   2.280   5.272   2.481
 9707SOL    HW130020   2.325   5.267   2.392
 9707SOL    HW230021   2.345   5.244   2.552
 9708SOL     OW30022   2.710   1.914   2.723
 9708SOL    HW130023   2.780   1.939   2.791
 9708SOL    HW230024   2.737   1.829   2.678
 9709SOL     OW30025   1.840   5.221   2.508
 9709SOL    HW130026   1.776   5.144   2.509
 9709SOL    HW230027   1.808   5.293   2.569
 9710SOL     OW30028   0.286   0.499   3.111
 9710SOL    HW130029   0.328   0.588   3.094
 9710SOL    HW230030   0.276   0.450   3.024
 9711SOL     OW30031   0.876   4.142   5.284
 9711SOL    HW130032   0.815   4.168   5.209
 9711SOL    HW230033   0.845   4.184   5.369
 9712SOL     OW30034   4.712   2.170   4.039
 9712SOL    HW130035   4.660   2.236   3.986
 9712SOL    HW230036   4.653   2.092   4.062
 9713SOL     OW30037   6.756   5.132   2.658
 9713SOL    HW130038   6.764   5.039   2.693
 9713SOL    HW230039   6.748   5.130   2.559
 9714SOL     OW30040   1.752   2.289   1.438
 9714SOL    HW130041   1.677   2.355   1.447
 9714SOL    HW230042   1.716   2.203   1.402
 9715SOL     OW30043   4.832   5.664   5.139
 9715SOL    HW130044   4.924   5.653   5.102
 9715SOL    HW230045   4.837   5.664   5.239
 9716SOL     OW30046   4.326   1.916   6.398
 9716SOL    HW130047   4.265   1.933   6.321
 9716SOL    HW230048   4.345   1.818   6.406
 9717SOL     OW30049   5.595   4.932   3.873
 9717SOL    HW130050   5.504   4.891   3.866
 9717SOL    HW230051   5.656   4.889   3.807
 9718SOL     OW30052   4.767   3.272   1.530
 9718SOL    HW130053   4.721   3.197   1.483
 9718SOL    HW230054   4.840   3.308   1.473
 9719SOL     OW30055   0.168   1.440   0.164
 9719SOL    HW130056   0.266   1.452   0.153
 9719SOL    HW230057   0.134   1.501   0.236
 9720SOL     OW30058   6.998   0.077   1.931
 9720SOL    HW130059   7.012   0.114   2.022
 9720SOL    HW230060   0.066   0.049   1.892
 9721SOL     OW30061   6.873   3.832   2.653
 9721SOL    HW130062   6.848   3.745   2.695
 9721SOL    HW230063   6.797   3.896   2.659
 9722SOL     OW30064   0.971   0.013   4.069
 9722SOL    HW130065   0.878   7.000   4.083
 9722SOL    HW230066   1.014   6.982   3.995
 9723SOL     OW30067   0.154   1.035   3.780
 9723SOL    HW130068   0.136   1.099   3.705
 9723SOL    HW230069   0.069   1.016   3.829
 9724SOL     OW30070   3.753   2.790   1.386
 9724SOL    HW130071   3.709   2.855   1.449
 9724SOL    HW230072   3.802   2.721   1.439
 9725SOL     OW30073   4.361   3.387   5.457
 9725SOL    HW130074   4.327   3.308   5.507
 9725SOL    HW230075   4.459   3.397   5.471
 9726SOL     OW30076   5.658   6.695   4.872
 9726SOL    HW130077   5.648   6.710   4.971
 9726SOL    HW230078   5.573   6.657   4.836
 9727SOL     OW30079   1.577   2.391   5.740
 9727SOL    HW130080   1.478   2.397   5.724
 9727SOL    HW230081   1.622   2.471   5.699
 9728SOL     OW30082   3.119   5.060   6.963
 9728SOL    HW130083   3.120   4.979   0.001
 9728SOL    HW230084   3.210   5.101   6.961
 9729SOL     OW30085   3.201   5.164   2.341
 9729SOL    HW130086   3.132   5.192   2.274
 9729SOL    HW230087   3.225   5.068   2.326
 9730SOL     OW30088   6.700   3.618   3.224
 9730SOL    HW130089   6.704   3.522   3.251
 9730SOL    HW230090   6.767   3.670   3.277
 9731SOL     OW30091   4.603   5.522   1.011
 9731SOL    HW130092   4.589   5.491   1.105
 9731SOL    HW230093   4.687   5.483   0.975
 9732SOL     OW30094   6.424   6.344   2.746
 9732SOL    HW130095   6.428   6.259   2.694
 9732SOL    HW230096   6.339   6.347   2.799
 9733SOL     OW30097   5.591   4.392   6.451
 9733SOL    HW130098   5.518   4.431   6.509
 9733SOL    HW230099   5.609   4.298   6.480
 9734SOL     OW30100   5.319   2.402   4.612
 9734SOL    HW130101   5.376   2.333   4.657
 9734SOL    HW230102   5.357   2.493   4.630
 9735SOL     OW30103   1.314   4.464   1.020
 9735SOL    HW130104   1.375   4.501   1.091
 9735SOL    HW230105   1.365   4.400   0.963
 9736SOL     OW30106   3.422   1.500   0.686
 9736SOL    HW130107   3.324   1.486   0.673
 9736SOL    HW230108   3.446   1.482   0.781
 9737SOL     OW30109   4.048   2.230   5.120
 9737SOL    HW130110   4.077   2.212   5.214
 9737SOL    HW230111   4.106   2.302   5.081
 9738SOL     OW30112   1.805   0.360   2.268
 9738SOL    HW130113   1.733   0.401   2.213
 9738SOL    HW230114   1.852   0.430   2.321
 9739SOL     OW30115   5.133   4.769   1.647
 9739SOL    HW130116   5.176   4.835   1.586
 9739SOL    HW230117   5.170   4.780   1.740
 9740SOL     OW30118   6.681   4.328   3.191
 9740SOL    HW130119   6.735   4.248   3.217
 9740SOL    HW230120   6.690   4.399   3.261
 9741SOL     OW30121   4.608   2.211   1.920
 9741SOL    HW130122   4.550   2.289   1.941
 9741SOL    HW230123   4.574   2.130   1.969
 9742SOL     OW30124   4.722   1.960   4.240
 9742SOL    HW130125   4.821   1.968   4.231
 9742SOL    HW230126   4.692   2.002   4.326
 9743SOL     OW30127   1.797   2.613   5.605
 9743SOL    HW130128   1.761   2.684   5.666
 9743SOL    HW230129   1.810   2.652   5.514
 9744SOL     OW30130   1.571   0.647   1.704
 9744SOL    HW130131   1.489   0.624   1.758
 9744SOL    HW230132   1.622   0.564   1.684
 9745SOL     OW30133   0.022   2.291   4.773
 9745SOL    HW130134   6.953   2.252   4.753
 9745SOL    HW230135   0.037   2.293   4.871
 9746SOL     OW30136   6.057   1.351   4.634
 9746SOL    HW130137   6.086   1.325   4.542
 9746SOL    HW230138   6.024   1.445   4.634
 9747SOL     OW30139   0.361   0.179   6.848
 9747SOL    HW130140   0.267   0.215   6.846
 9747SOL    HW230141   0.426   0.255   6.839
 9748SOL     OW30142   0.051   5.775   4.064
 9748SOL    HW130143   0.116   5.746   4.134
 9748SOL    HW230144   6.997   5.709   4.057
 9749SOL     OW30145   0.690   4.456   4.343
 9749SOL    HW130146   0.623   4.461   4.417
 9749SOL    HW230147   0.718   4.548   4.317
 9750SOL     OW30148   4.227   4.655   3.574
 9750SOL    HW130149   4.243   4.749   3.542
 9750SOL    HW230150   4.294   4.594   3.531
 9751SOL     OW30151   1.911   2.437   0.455
 9751SOL    HW130152   1.983   2.371   0.477
 9751SOL    HW230153   1.848   2.396   0.389
 9752SOL     OW30154   3.515   1.089   5.479
 9752SOL    HW130155   3.497   1.071   5.382
 9752SOL    HW230156   3.500   1.005   5.532
 9753SOL     OW30157   6.717   5.767   5.229
 9753SOL    HW130158   6.630   5.745   5.273
 9753SOL    HW230159   6.706   5.847   5.170
 9754SOL     OW30160   0.537   1.976   6.279
 9754SOL    HW130161   0.606   1.907   6.256
 9754SOL    HW230162   0.476   1.988   6.201
 9755SOL     OW30163   4.070   5.078   5.184
 9755SOL    HW130164   4.111   4.988   5.199
 9755SOL    HW230165   4.120   5.127   5.113
 9756SOL     OW30166   5.903   2.640   5.999
 9756SOL    HW130167   5.928   2.566   6.061
 9756SOL    HW230168   5.877   2.721   6.053
 9757SOL     OW30169   6.191   2.233   3.836
 9757SOL    HW130170   6.208   2.331   3.837
 9757SOL    HW230171   6.157   2.206   3.745
 9758SOL     OW30172   2.932   0.361   0.258
 9758SOL    HW130173   2.998   0.436   0.247
 9758SOL    HW230174   2.979   0.274   0.251
 9759SOL     OW30175   3.483   6.039   1.427
 9759SOL    HW130176   3.583   6.034   1.433
 9759SOL    HW230177   3.450   5.967   1.366
 9760SOL     OW30178   5.877   4.334   6.287
 9760SOL    HW130179   5.791   4.372   6.252
 9760SOL    HW230180   5.897   4.249   6.240
 9761SOL     OW30181   5.507   5.621   2.448
 9761SOL    HW130182   5.454   5.544   2.411
 9761SOL    HW230183   5.539   5.678   2.373
 9762SOL     OW30184   2.319   1.448   4.117
 9762SOL    HW130185   2.287   1.541   4.100
 9762SOL    HW230186   2.241   1.388   4.132
 9763SOL     OW30187   2.316   1.587   1.416
 9763SOL    HW130188   2.306   1.596   1.317
 9763SOL    HW230189   2.243   1.639   1.461
 9764SOL     OW30190   1.387   2.334   2.118
 9764SOL    HW130191   1.450   2.259   2.137
 9764SOL    HW230192   1.437   2.409   2.075
 9765SOL     OW30193   6.789   1.349   5.560
 9765SOL    HW130194   6.718   1.320   5.623
 9765SOL    HW230195   6.817   1.443   5.582
 9766SOL     OW30196   2.974   1.069   2.155
 9766SOL    HW130197   3.054   1.095   2.208
 9766SOL    HW230198   2.924   0.996   2.203
 9767SOL     OW30199   4.881   0.462   5.602
 9767SOL    HW130200   4.941   0.414   5.538
 9767SOL    HW230201   4.850   0.548   5.561
 9768SOL     OW30202   4.302   2.374   2.603
 9768SOL    HW130203   4.377   2.434   2.632
 9768SOL    HW230204   4.265   2.326   2.683
 9769SOL     OW30205   0.460   2.099   1.508
 9769SOL    HW130206   0.478   2.085   1.410
 9769SOL    HW230207   0.530   2.158   1.547
 9770SOL     OW30208   6.426   4.267   6.221
 9770SOL    HW130209   6.329   4.267   6.197
 9770SOL    HW230210   6.472   4.191   6.175
 9771SOL     OW30211   3.569   5.974   5.546
 9771SOL    HW130212   3.499   5.964   5.617
 9771SOL    HW230213   3.573   6.070   5.517
 9772SOL     OW30214   6.535   0.258   1.675
 9772SOL    HW130215   6.605   0.329   1.679
 9772SOL    HW230216   6.561   0.189   1.608
 9773SOL     OW30217   5.650   5.748   3.206
 9773SOL    HW130218   5.742   5.710   3.198
 9773SOL    HW230219   5.593   5.710   3.134
 9774SOL     OW30220   7.014   5.238   3.269
 9774SOL    HW130221   6.927   5.228   3.317
 9774SOL    HW230222   7.000   5.291   3.185
 9775SOL     OW30223   2.774   2.246   4.915
 9775SOL    HW130224   2.721   2.329   4.933
 9775SOL    HW230225   2.724   2.188   4.850
 9776SOL     OW30226   0.384   5.047   4.909
 9776SOL    HW130227   0.408   5.056   4.812
 9776SOL    HW230228   0.329   4.964   4.922
 9777SOL     OW30229   5.650   4.671   6.721
 9777SOL    HW130230   5.607   4.759   6.703
 9777SOL    HW230231   5.584   4.610   6.765
 9778SOL     OW30232   3.743   0.962   3.455
 9778SOL    HW130233   3.798   1.034   3.499
 9778SOL    HW230234   3.758   0.876   3.503
 9779SOL     OW30235   3.009   1.932   6.122
 9779SOL    HW130236   2.960   1.967   6.201
 9779SOL    HW230237   2.981   1.837   6.105
 9780SOL     OW30238   3.580   4.286   0.287
 9780SOL    HW130239   3.514   4.250   0.353
 9780SOL    HW230240   3.551   4.264   0.194
 9781SOL     OW30241   1.869   5.007   4.040
 9781SOL    HW130242   1.901   5.101   4.054
 9781SOL    HW230243   1.911   4.947   4.108
 9782SOL     OW30244   6.517   0.715   1.201
 9782SOL    HW130245   6.602   0.743   1.244
 9782SOL    HW230246   6.484   0.631   1.246
 9783SOL     OW30247   5.210   1.281   2.762
 9783SOL    HW130248   5.254   1.235   2.685
 9783SOL    HW230249   5.279   1.315   2.825
 9784SOL     OW30250   5.188   0.830   4.342
 9784SOL    HW130251   5.203   0.891   4.419
 9784SOL    HW230252   5.275   0.816   4.294
 9785SOL     OW30253   0.810   2.961   1.299
 9785SOL    HW130254   0.866   2.881   1.321
 9785SOL    HW230255   0.716   2.945   1.329
 9786SOL     OW30256   2.637   6.712   4.440
 9786SOL    HW130257   2.704   6.766   4.388
 9786SOL    HW230258   2.552   6.763   4.449
 9787SOL     OW30259   5.220   4.594   2.074
 9787SOL    HW130260   5.155   4.537   2.024
 9787SOL    HW230261   5.302   4.540   2.096
 9788SOL     OW30262   0.422   0.937   5.395
 9788SOL    HW130263   0.379   0.992   5.324
 9788SOL    HW230264   0.464   0.997   5.463
 9789SOL     OW30265   1.620   5.865   4.250
 9789SOL    HW130266   1.706   5.855   4.301
 9789SOL    HW230267   1.544   5.836   4.308
 9790SOL     OW30268   6.448   1.880   4.395
 9790SOL    HW130269   6.543   1.877   4.363
 9790SOL    HW230270   6.430   1.801   4.454
 9791SOL     OW30271   1.317   2.575   1.250
 9791SOL    HW130272   1.318   2.488   1.299
 9791SOL    HW230273   1.280   2.646   1.310
 9792SOL     OW30274   4.572   5.635   2.197
 9792SOL    HW130275   4.611   5.661   2.109
 9792SOL    HW230276   4.578   5.712   2.260
 9793SOL     OW30277   4.705   6.029   2.803
 9793SOL    HW130278   4.635   5.961   2.781
 9793SOL    HW230279   4.732   6.077   2.719
 9794SOL     OW30280   3.632   3.029   6.586
 9794SOL    HW130281   3.650   3.034   6.684
 9794SOL    HW230282   3.676   2.948   6.548
 9795SOL     OW30283   2.356   4.267   4.501
 9795SOL    HW130284   2.306   4.264   4.587
 9795SOL    HW230285   2.367   4.362   4.472
 9796SOL     OW30286   3.574   4.825   0.331
 9796SOL    HW130287   3.520   4.842   0.414
 9796SOL    HW230288   3.577   4.907   0.275
 9797SOL     OW30289   4.734   2.834   4.964
 9797SOL    HW130290   4.735   2.749   5.017
 9797SOL    HW230291   4.739   2.812   4.867
 9798SOL     OW30292   1.880   2.320   1.697
 9798SOL    HW130293   1.976   2.346   1.691
 9798SOL    HW230294   1.850   2.282   1.609
 9799SOL     OW30295   3.048   3.937   2.162
 9799SOL    HW130296   2.972   3.927   2.226
 9799SOL    HW230297   3.132   3.957   2.213
 9800SOL     OW30298   3.612   5.032   0.153
 9800SOL    HW130299   3.555   5.114   0.161
 9800SOL    HW230300   3.686   5.049   0.088
 9801SOL     OW30301   4.722   5.079   0.125
 9801SOL    HW130302   4.714   5.147   0.053
 9801SOL    HW230303   4.685   5.116   0.210
 9802SOL     OW30304   0.447   4.402   1.398
 9802SOL    HW130305   0.513   4.411   1.472
 9802SOL    HW230306   0.370   4.345   1.429
 9803SOL     OW30307   5.265   0.862   6.520
 9803SOL    HW130308   5.306   0.951   6.540
 9803SOL    HW230309   5.184   0.849   6.578
 9804SOL     OW30310   5.690   5.323   4.499
 9804SOL    HW130311   5.673   5.243   4.557
 9804SOL    HW230312   5.604   5.355   4.460
 9805SOL     OW30313   3.091   4.220   0.769
 9805SOL    HW130314   3.078   4.315   0.797
 9805SOL    HW230315   3.181   4.188   0.801
 9806SOL     OW30316   6.439   2.271   2.693
 9806SOL    HW130317   6.370   2.298   2.626
 9806SOL    HW230318   6.512   2.221   2.647
 9807SOL     OW30319   3.714   2.835   0.800
 9807SOL    HW130320   3.813   2.821   0.802
 9807SOL    HW230321   3.693   2.932   0.809
 9808SOL     OW30322   1.027   1.612   5.341
 9808SOL    HW130323   1.082   1.559   5.276
 9808SOL    HW230324   0.932   1.582   5.336
 9809SOL     OW30325   1.045   0.519   4.664
 9809SOL    HW130326   1.060   0.443   4.600
 9809SOL    HW230327   1.110   0.511   4.740
 9810SOL     OW30328   3.801   1.245   3.715
 9810SOL    HW130329   3.702   1.259   3.725
 9810SOL    HW230330   3.845   1.332   3.697
 9811SOL     OW30331   1.465   6.718   2.717
 9811SOL    HW130332   1.445   6.811   2.746
 9811SOL    HW230333   1.470   6.715   2.617
 9812SOL     OW30334   5.173   3.108   5.305
 9812SOL    HW130335   5.132   3.133   5.217
 9812SOL    HW230336   5.273   3.113   5.297
 9813SOL     OW30337   6.538   4.846   0.402
 9813SOL    HW130338   6.632   4.878   0.413
 9813SOL    HW230339   6.488   4.856   0.489
 9814SOL     OW30340   6.781   0.656   5.617
 9814SOL    HW130341   6.839   0.669   5.537
 9814SOL    HW230342   6.838   0.635   5.697
 9815SOL     OW30343   6.462   4.009   3.078
 9815SOL    HW130344   6.391   4.067   3.119
 9815SOL    HW230345   6.506   4.059   3.004
 9816SOL     OW30346   6.532   0.595   5.899
 9816SOL    HW130347   6.572   0.681   5.867
 9816SOL    HW230348   6.535   0.527   5.826
 9817SOL     OW30349   2.838   6.985   0.046
 9817SOL    HW130350   2.790   0.028   0.105
 9817SOL    HW230351   2.882   0.014   6.992
 9818SOL     OW30352   0.824   6.744   3.350
 9818SOL    HW130353   0.761   6.748   3.272
 9818SOL    HW230354   0.917   6.763   3.318
 9819SOL     OW30355   6.790   2.782   4.508
 9819SOL    HW130356   6.779   2.716   4.433
 9819SOL    HW230357   6.729   2.859   4.493
 9820SOL     OW30358   3.654   2.360   5.857
 9820SOL    HW130359   3.573   2.329   5.907
 9820SOL    HW230360   3.719   2.285   5.847
 9821SOL     OW30361   3.676   3.055   1.559
 9821SOL    HW130362   3.760   3.063   1.506
 9821SOL    HW230363   3.695   3.012   1.647
 9822SOL     OW30364   3.385   6.349   4.738
 9822SOL    HW130365   3.386   6.434   4.791
 9822SOL    HW230366   3.413   6.273   4.796
 9823SOL     OW30367   3.045   6.954   2.902
 9823SOL    HW130368   2.998   7.009   2.970
 9823SOL    HW230369   3.096   6.881   2.948
 9824SOL     OW30370   1.166   5.997   5.648
 9824SOL    HW130371   1.179   6.060   5.571
 9824SOL    HW230372   1.083   5.943   5.633
 9825SOL     OW30373   6.833   6.484   4.958
 9825SOL    HW130374   6.931   6.479   4.939
 9825SOL    HW230375   6.815   6.561   5.020
 9826SOL     OW30376   2.493   5.689   5.213
 9826SOL    HW130377   2.477   5.754   5.287
 9826SOL    HW230378   2.445   5.720   5.131
 9827SOL     OW30379   1.581   4.659   1.828
 9827SOL    HW130380   1.558   4.757   1.824
 9827SOL    HW230381   1.581   4.622   1.735
 9828SOL     OW30382   4.708   1.620   4.559
 9828SOL    HW130383   4.667   1.650   4.646
 9828SOL    HW230384   4.801   1.587   4.576
 9829SOL     OW30385   4.771   5.156   5.710
 9829SOL    HW130386   4.829   5.234   5.736
 9829SOL    HW230387   4.702   5.186   5.645
 9830SOL     OW30388   5.406   1.347   3.980
 9830SOL    HW130389   5.353   1.264   3.961
 9830SOL    HW230390   5.454   1.337   4.067
 9831SOL     OW30391   0.614   4.361   2.556
 9831SOL    HW130392   0.655   4.441   2.599
 9831SOL    HW230393   0.687   4.303   2.519
 9832SOL     OW30394   4.350   6.045   4.890
 9832SOL    HW130395   4.292   5.964   4.905
 9832SOL    HW230396   4.431   6.019   4.838
 9833SOL     OW30397   4.105   3.480   3.759
 9833SOL    HW130398   4.167   3.511   3.687
 9833SOL    HW230399   4.121   3.383   3.777
 9834SOL     OW30400   2.752   6.502   5.484
 9834SOL    HW130401   2.808   6.428   5.521
 9834SOL    HW230402   2.682   6.528   5.550
 9835SOL     OW30403   4.094   3.654   4.392
 9835SOL    HW130404   4.018   3.616   4.445
 9835SOL    HW230405   4.143   3.580   4.346
 9836SOL     OW30406   0.055   3.639   5.782
 9836SOL    HW130407   0.029   3.553   5.826
 9836SOL    HW230408   0.109   3.694   5.845
 9837SOL     OW30409   5.787   1.871   3.689
 9837SOL    HW130410   5.869   1.917   3.656
 9837SOL    HW230411   5.745   1.821   3.613
 9838SOL     OW30412   1.795   6.729   1.511
 9838SOL    HW130413   1.748   6.799   1.565
 9838SOL    HW230414   1.780   6.639   1.552
 9839SOL     OW30415   4.582   6.580   3.856
 9839SOL    HW130416   4.540   6.606   3.769
 9839SOL    HW230417   4.663   6.636   3.872
 9840SOL     OW30418   6.362   1.666   6.855
 9840SOL    HW130419   6.339   1.571   6.836
 9840SOL    HW230420   6.340   1.688   6.950
 9841SOL     OW30421   6.652   6.188   3.132
 9841SOL    HW130422   6.683   6.192   3.037
 9841SOL    HW230423   6.552   6.189   3.135
 9842SOL     OW30424   3.662   0.241   6.817
 9842SOL    HW130425   3.624   0.156   6.782
 9842SOL    HW230426   3.753   0.256   6.778
 9843SOL     OW30427   6.957   0.468   1.487
 9843SOL    HW130428   0.011   0.510   1.436
 9843SOL    HW230429   6.968   0.369   1.486
 9844SOL     OW30430   4.559   0.177   4.343
 9844SOL    HW130431   4.549   0.222   4.255
 9844SOL    HW230432   4.638   0.216   4.392
 9845SOL     OW30433   1.613   3.456   2.307
 9845SOL    HW130434   1.682   3.386   2.293
 9845SOL    HW230435   1.650   3.545   2.281
 9846SOL     OW30436   6.127   2.628   1.355
 9846SOL    HW130437   6.212   2.675   1.331
 9846SOL    HW230438   6.146   2.532   1.376
 9847SOL     OW30439   4.197   3.744   6.794
 9847SOL    HW130440   4.122   3.685   6.826
 9847SOL    HW230441   4.266   3.689   6.748
 9848SOL     OW30442   3.722   3.823   5.744
 9848SOL    HW130443   3.633   3.860   5.771
 9848SOL    HW230444   3.743   3.742   5.800
 9849SOL     OW30445   0.649   2.339   4.426
 9849SOL    HW130446   0.670   2.397   4.505
 9849SOL    HW230447   0.567   2.285   4.445
 9850SOL     OW30448   1.804   6.719   3.922
 9850SOL    HW130449   1.896   6.719   3.883
 9850SOL    HW230450   1.806   6.679   4.013
 9851SOL     OW30451   3.495   5.274   3.828
 9851SOL    HW130452   3.555   5.354   3.834
 9851SOL    HW230453   3.475   5.241   3.921
 9852SOL     OW30454   1.929   0.001   0.493
 9852SOL    HW130455   1.991   0.030   0.566
 9852SOL    HW230456   1.835   0.006   0.526
 9853SOL     OW30457   0.113   4.389   3.246
 9853SOL    HW130458   0.169   4.389   3.329
 9853SOL    HW230459   0.168   4.358   3.168
 9854SOL     OW30460   0.457   3.775   6.542
 9854SOL    HW130461   0.419   3.858   6.583
 9854SOL    HW230462   0.466   3.787   6.443
 9855SOL     OW30463   1.033   5.449   0.298
 9855SOL    HW130464   1.085   5.532   0.317
 9855SOL    HW230465   0.939   5.461   0.331
 9856SOL     OW30466   5.717   3.316   3.250
 9856SOL    HW130467   5.671   3.398   3.285
 9856SOL    HW230468   5.716   3.318   3.150
 9857SOL     OW30469   4.640   0.299   5.761
 9857SOL    HW130470   4.699   0.357   5.704
 9857SOL    HW230471   4.558   0.351   5.787
 9858SOL     OW30472   6.559   5.868   1.933
 9858SOL    HW130473   6.543   5.775   1.900
 9858SOL    HW230474   6.654   5.894   1.915
 9859SOL     OW30475   0.077   5.585   3.233
 9859SOL    HW130476   0.034   5.534   3.308
 9859SOL    HW230477   0.058   5.539   3.147
 9860SOL     OW30478   1.500   3.393   4.442
 9860SOL    HW130479   1.504   3.295   4.463
 9860SOL    HW230480   1.408   3.426   4.458
 9861SOL     OW30481   3.676   2.111   2.809
 9861SOL    HW130482   3.773   2.089   2.821
 9861SOL    HW230483   3.667   2.206   2.778
 9862SOL     OW30484   1.406   3.883   6.622
 9862SOL    HW130485   1.454   3.955   6.572
 9862SOL    HW230486   1.323   3.858   6.573
 9863SOL     OW30487   4.281   6.648   1.702
 9863SOL    HW130488   4.233   6.657   1.614
 9863SOL    HW230489   4.293   6.738   1.743
 9864SOL     OW30490   2.227   5.778   5.830
 9864SOL    HW130491   2.326   5.786   5.814
 9864SOL    HW230492   2.179   5.848   5.777
 9865SOL     OW30493   1.675   5.244   5.816
 9865SOL    HW130494   1.704   5.322   5.760
 9865SOL    HW230495   1.756   5.202   5.857
 9866SOL     OW30496   6.826   5.369   5.695
 9866SOL    HW130497   6.858   5.367   5.601
 9866SOL    HW230498   6.834   5.278   5.735
 9867SOL     OW30499   3.953   1.804   2.208
 9867SOL    HW130500   4.041   1.802   2.161
 9867SOL    HW230501   3.897   1.878   2.171
 9868SOL     OW30502   2.423   4.465   3.479
 9868SOL    HW130503   2.337   4.509   3.454
 9868SOL    HW230504   2.423   4.371   3.445
 9869SOL     OW30505   0.117   2.670   1.098
 9869SOL    HW130506   0.209   2.703   1.078
 9869SOL    HW230507   0.112   2.572   1.081
 9870SOL     OW30508   2.557   2.447   2.711
 9870SOL    HW130509   2.542   2.501   2.793
 9870SOL    HW230510   2.532   2.352   2.728
 9871SOL     OW30511   5.536   5.529   3.463
 9871SOL    HW130512   5.478   5.562   3.388
 9871SOL    HW230513   5.620   5.491   3.425
 9872SOL     OW30514   0.975   4.847   5.795
 9872SOL    HW130515   0.993   4.835   5.893
 9872SOL    HW230516   0.943   4.941   5.779
 9873SOL     OW30517   1.135   0.988   5.459
 9873SOL    HW130518   1.208   0.977   5.392
 9873SOL    HW230519   1.122   1.085   5.478
 9874SOL     OW30520   0.197   2.117   4.651
 9874SOL    HW130521   0.274   2.181   4.657
 9874SOL    HW230522   0.116   2.160   4.690
 9875SOL     OW30523   6.462   6.247   0.654
 9875SOL    HW130524   6.459   6.248   0.754
 9875SOL    HW230525   6.384   6.196   0.619
 9876SOL     OW30526   0.355   6.447   3.450
 9876SOL    HW130527   0.353   6.454   3.550
 9876SOL    HW230528   0.389   6.532   3.411
 9877SOL     OW30529   0.939   5.817   5.505
 9877SOL    HW130530   0.840   5.827   5.501
 9877SOL    HW230531   0.963   5.739   5.562
 9878SOL     OW30532   3.465   2.441   6.695
 9878SOL    HW130533   3.374   2.400   6.702
 9878SOL    HW230534   3.457   2.541   6.699
 9879SOL     OW30535   6.952   5.674   6.280
 9879SOL    HW130536   6.864   5.715   6.256
 9879SOL    HW230537   7.009   5.667   6.198
 9880SOL     OW30538   2.959   1.134   1.329
 9880SOL    HW130539   2.898   1.208   1.356
 9880SOL    HW230540   2.948   1.057   1.392
 9881SOL     OW30541   6.074   1.484   3.853
 9881SOL    HW130542   6.088   1.530   3.765
 9881SOL    HW230543   6.147   1.510   3.916
 9882SOL     OW30544   3.926   3.411   4.854
 9882SOL    HW130545   3.873   3.327   4.871
 9882SOL    HW230546   3.924   3.469   4.935
 9883SOL     OW30547   2.054   6.999   2.475
 9883SOL    HW130548   1.998   6.918   2.487
 9883SOL    HW230549   1.996   0.060   2.478
 9884SOL     OW30550   2.817   2.693   5.511
 9884SOL    HW130551   2.875   2.627   5.462
 9884SOL    HW230552   2.859   2.783   5.507
 9885SOL     OW30553   4.846   2.934   5.442
 9885SOL    HW130554   4.908   3.007   5.470
 9885SOL    HW230555   4.813   2.952   5.349
 9886SOL     OW30556   3.573   5.714   1.003
 9886SOL    HW130557   3.660   5.730   0.956
 9886SOL    HW230558   3.518   5.649   0.950
 9887SOL     OW30559   3.393   2.082   0.191
 9887SOL    HW130560   3.444   2.122   0.267
 9887SOL    HW230561   3.355   1.994   0.219
 9888SOL     OW30562   6.183   6.765   3.343
 9888SOL    HW130563   6.163   6.792   3.437
 9888SOL    HW230564   6.243   6.685   3.343
 9889SOL     OW30565   6.595   5.919   2.846
 9889SOL    HW130566   6.691   5.931   2.870
 9889SOL    HW230567   6.540   5.909   2.929
 9890SOL     OW30568   0.473   3.647   2.649
 9890SOL    HW130569   0.542   3.574   2.656
 9890SOL    HW230570   0.387   3.608   2.618
 9891SOL     OW30571   5.236   6.025   1.791
 9891SOL    HW130572   5.185   6.065   1.867
 9891SOL    HW230573   5.241   6.091   1.716
 9892SOL     OW30574   1.148   5.570   3.925
 9892SOL    HW130575   1.067   5.579   3.867
 9892SOL    HW230576   1.145   5.482   3.972
 9893SOL     OW30577   5.583   5.233   4.828
 9893SOL    HW130578   5.619   5.322   4.801
 9893SOL    HW230579   5.581   5.226   4.927
 9894SOL     OW30580   4.336   3.631   5.247
 9894SOL    HW130581   4.289   3.558   5.198
 9894SOL    HW230582   4.434   3.612   5.251
 9895SOL     OW30583   5.430   2.145   6.836
 9895SOL    HW130584   5.396   2.082   6.906
 9895SOL    HW230585   5.360   2.157   6.765
 9896SOL     OW30586   4.085   3.488   0.239
 9896SOL    HW130587   4.054   3.550   0.311
 9896SOL    HW230588   4.006   3.443   0.197
 9897SOL     OW30589   6.618   1.423   3.585
 9897SOL    HW130590   6.608   1.386   3.493
 9897SOL    HW230591   6.543   1.487   3.603
 9898SOL     OW30592   1.704   4.656   6.450
 9898SOL    HW130593   1.663   4.567   6.470
 9898SOL    HW230594   1.635   4.727   6.460
 9899SOL     OW30595   5.050   4.852   2.530
 9899SOL    HW130596   5.015   4.775   2.476
 9899SOL    HW230597   5.027   4.938   2.485
 9900SOL     OW30598   1.564   4.185   3.630
 9900SOL    HW130599   1.591   4.183   3.726
 9900SOL    HW230600   1.464   4.190   3.624
 9901SOL     OW30601   2.518   1.791   6.163
 9901SOL    HW130602   2.492   1.830   6.075
 9901SOL    HW230603   2.446   1.808   6.230
 9902SOL     OW30604   4.894   3.752   6.762
 9902SOL    HW130605   4.852   3.691   6.695
 9902SOL    HW230606   4.937   3.699   6.834
 9903SOL     OW30607   3.665   1.192   1.582
 9903SOL    HW130608   3.745   1.164   1.529
 9903SOL    HW230609   3.685   1.278   1.628
 9904SOL     OW30610   0.362   7.000   1.936
 9904SOL    HW130611   0.339   0.070   1.902
 9904SOL    HW230612   0.412   6.950   1.866
 9905SOL     OW30613   1.588   6.519   6.069
 9905SOL    HW130614   1.676   6.538   6.114
 9905SOL    HW230615   1.541   6.447   6.119
 9906SOL     OW30616   4.199   4.104   5.896
 9906SOL    HW130617   4.225   4.082   5.802
 9906SOL    HW230618   4.160   4.196   5.900
 9907SOL     OW30619   1.165   6.775   2.632
 9907SOL    HW130620   1.237   6.745   2.569
 9907SOL    HW230621   1.194   6.858   2.679
 9908SOL     OW30622   0.423   3.272   5.090
 9908SOL    HW130623   0.513   3.265   5.048
 9908SOL    HW230624   0.405   3.368   5.113
 9909SOL     OW30625   3.510   0.257   2.574
 9909SOL    HW130626   3.537   0.256   2.670
 9909SOL    HW230627   3.415   0.227   2.565
 9910SOL     OW30628   0.614   4.519   0.676
 9910SOL    HW130629   0.677   4.459   0.626
 9910SOL    HW230630   0.622   4.501   0.774
 9911SOL     OW30631   3.733   5.371   3.054
 9911SOL    HW130632   3.798   5.367   2.977
 9911SOL    HW230633   3.705   5.278   3.078
 9912SOL     OW30634   3.873   6.886   1.308
 9912SOL    HW130635   3.918   6.879   1.219
 9912SOL    HW230636   3.777   6.858   1.300
 9913SOL     OW30637   4.091   2.237   2.479
 9913SOL    HW130638   4.018   2.225   2.546
 9913SOL    HW230639   4.173   2.271   2.524
 9914SOL     OW30640   2.266   5.536   5.286
 9914SOL    HW130641   2.336   5.552   5.217
 9914SOL    HW230642   2.308   5.499   5.369
 9915SOL     OW30643   6.010   3.475   3.990
 9915SOL    HW130644   6.089   3.534   4.004
 9915SOL    HW230645   6.040   3.380   3.980
 9916SOL     OW30646   2.763   2.983   0.766
 9916SOL    HW130647   2.735   2.975   0.670
 9916SOL    HW230648   2.787   2.893   0.802
 9917SOL     OW30649   2.310   2.779   4.758
 9917SOL    HW130650   2.314   2.715   4.681
 9917SOL    HW230651   2.360   2.740   4.836
 9918SOL     OW30652   2.243   0.758   4.877
 9918SOL    HW130653   2.272   0.679   4.823
 9918SOL    HW230654   2.148   0.746   4.907
 9919SOL     OW30655   0.186   5.681   2.378
 9919SOL    HW130656   0.215   5.673   2.283
 9919SOL    HW230657   0.220   5.767   2.416
 9920SOL     OW30658   4.188   6.740   2.539
 9920SOL    HW130659   4.218   6.832   2.514
 9920SOL    HW230660   4.170   6.736   2.637
 9921SOL     OW30661   4.823   6.725   3.606
 9921SOL    HW130662   4.897   6.688   3.550
 9921SOL    HW230663   4.741   6.735   3.550
 9922SOL     OW30664   5.135   3.297   1.671
 9922SOL    HW130665   5.066   3.309   1.742
 9922SOL    HW230666   5.110   3.353   1.592
 9923SOL     OW30667   6.143   0.943   6.280
 9923SOL    HW130668   6.062   0.956   6.337
 9923SOL    HW230669   6.133   0.858   6.227
 9924SOL     OW30670   4.920   1.185   3.238
 9924SOL    HW130671   4.913   1.285   3.230
 9924SOL    HW230672   5.016   1.159   3.245
 9925SOL     OW30673   3.402   2.082   5.117
 9925SOL    HW130674   3.318   2.138   5.121
 9925SOL    HW230675   3.386   2.004   5.056
 9926SOL     OW30676   1.728   0.655   6.216
 9926SOL    HW130677   1.777   0.743   6.215
 9926SOL    HW230678   1.632   0.671   6.194
 9927SOL     OW30679   0.945   2.450   1.981
 9927SOL    HW130680   1.019   2.518   1.978
 9927SOL    HW230681   0.862   2.490   1.943
 9928SOL     OW30682   0.004   3.247   2.797
 9928SOL    HW130683   0.008   3.202   2.886
 9928SOL    HW230684   6.949   3.210   2.744
 9929SOL     OW30685   1.401   4.370   5.658
 9929SOL    HW130686   1.448   4.364   5.569
 9929SOL    HW230687   1.468   4.390   5.729
 9930SOL     OW30688   0.102   5.688   0.325
 9930SOL    HW130689   0.135   5.707   0.418
 9930SOL    HW230690   0.151   5.610   0.288
 9931SOL     OW30691   2.931   4.958   6.783
 9931SOL    HW130692   2.852   5.019   6.773
 9931SOL    HW230693   2.991   4.993   6.855
 9932SOL     OW30694   2.249   2.421   1.063
 9932SOL    HW130695   2.315   2.458   1.128
 9932SOL    HW230696   2.292   2.348   1.010
 9933SOL     OW30697   0.620   1.354   2.193
 9933SOL    HW130698   0.641   1.444   2.232
 9933SOL    HW230699   0.582   1.295   2.265
 9934SOL     OW30700   4.852   1.029   6.891
 9934SOL    HW130701   4.913   0.954   6.866
 9934SOL    HW230702   4.837   1.030   6.990
 9935SOL     OW30703   2.641   2.133   0.816
 9935SOL    HW130704   2.732   2.136   0.859
 9935SOL    HW230705   2.575   2.098   0.882
 9936SOL     OW30706   5.146   6.413   6.089
 9936SOL    HW130707   5.075   6.472   6.052
 9936SOL    HW230708   5.143   6.415   6.189
 9937SOL     OW30709   1.881   6.480   3.283
 9937SOL    HW130710   1.955   6.535   3.321
 9937SOL    HW230711   1.850   6.520   3.197
 9938SOL     OW30712   6.849   1.118   3.452
 9938SOL    HW130713   6.905   1.042   3.487
 9938SOL    HW230714   6.756   1.109   3.488
 9939SOL     OW30715   2.784   4.096   1.662
 9939SOL    HW130716   2.801   3.997   1.668
 9939SOL    HW230717   2.869   4.145   1.681
 9940SOL     OW30718   6.873   1.029   3.745
 9940SOL    HW130719   6.944   1.019   3.676
 9940SOL    HW230720   6.799   0.964   3.727
 9941SOL     OW30721   5.523   4.475   0.912
 9941SOL    HW130722   5.504   4.402   0.978
 9941SOL    HW230723   5.525   4.563   0.959
 9942SOL     OW30724   5.561   5.920   2.821
 9942SOL    HW130725   5.550   6.019   2.833
 9942SOL    HW230726   5.636   5.888   2.879
 9943SOL     OW30727   1.350   3.434   5.381
 9943SOL    HW130728   1.336   3.335   5.374
 9943SOL    HW230729   1.301   3.469   5.461
 9944SOL     OW30730   1.672   5.727   5.989
 9944SOL    HW130731   1.631   5.641   5.958
 9944SOL    HW230732   1.709   5.777   5.910
 9945SOL     OW30733   6.637   3.634   6.943
 9945SOL    HW130734   6.553   3.666   6.987
 9945SOL    HW230735   6.622   3.543   6.904
 9946SOL     OW30736   5.051   2.106   1.706
 9946SOL    HW130737   4.993   2.032   1.742
 9946SOL    HW230738   5.008   2.194   1.724
 9947SOL     OW30739   0.667   1.339   2.759
 9947SOL    HW130740   0.624   1.422   2.723
 9947SOL    HW230741   0.756   1.361   2.797
 9948SOL     OW30742   5.655   0.701   5.071
 9948SOL    HW130743   5.647   0.756   5.155
 9948SOL    HW230744   5.709   0.751   5.003
 9949SOL     OW30745   6.616   4.108   3.480
 9949SOL    HW130746   6.550   4.060   3.538
 9949SOL    HW230747   6.678   4.162   3.536
 9950SOL     OW30748   4.649   4.039   5.286
 9950SOL    HW130749   4.670   3.948   5.251
 9950SOL    HW230750   4.719   4.066   5.352
 9951SOL     OW30751   0.205   1.842   3.228
 9951SOL    HW130752   0.273   1.913   3.243
 9951SOL    HW230753   0.114   1.883   3.223
 9952SOL     OW30754   1.416   4.797   1.521
 9952SOL    HW130755   1.489   4.728   1.524
 9952SOL    HW230756   1.349   4.778   1.593
 9953SOL     OW30757   5.934   3.672   3.811
 9953SOL    HW130758   5.952   3.601   3.878
 9953SOL    HW230759   5.887   3.749   3.856
 9954SOL     OW30760   3.387   0.846   1.527
 9954SOL    HW130761   3.471   0.882   1.569
 9954SOL    HW230762   3.387   0.746   1.532
 9955SOL     OW30763   5.372   5.200   1.541
 9955SOL    HW130764   5.392   5.223   1.636
 9955SOL    HW230765   5.359   5.101   1.533
 9956SOL     OW30766   2.148   2.693   3.712
 9956SOL    HW130767   2.169   2.785   3.678
 9956SOL    HW230768   2.099   2.700   3.799
 9957SOL     OW30769   5.562   0.519   0.344
 9957SOL    HW130770   5.508   0.585   0.396
 9957SOL    HW230771   5.576   0.436   0.399
 9958SOL     OW30772   5.905   5.392   0.091
 9958SOL    HW130773   5.984   5.388   0.153
 9958SOL    HW230774   5.854   5.477   0.109
 9959SOL     OW30775   5.749   5.214   0.694
 9959SOL    HW130776   5.718   5.300   0.734
 9959SOL    HW230777   5.682   5.181   0.628
 9960SOL     OW30778   6.342   0.108   0.112
 9960SOL    HW130779   6.409   0.034   0.110
 9960SOL    HW230780   6.311   0.128   0.019
 9961SOL     OW30781   3.179   5.820   0.829
 9961SOL    HW130782   3.174   5.831   0.729
 9961SOL    HW230783   3.238   5.892   0.867
 9962SOL     OW30784   3.170   0.116   1.738
 9962SOL    HW130785   3.267   0.137   1.732
 9962SOL    HW230786   3.134   0.096   1.646
 9963SOL     OW30787   1.052   0.400   5.696
 9963SOL    HW130788   1.038   0.469   5.625
 9963SOL    HW230789   1.063   0.310   5.653
 9964SOL     OW30790   4.552   4.453   6.093
 9964SOL    HW130791   4.576   4.361   6.125
 9964SOL    HW230792   4.484   4.493   6.154
 9965SOL     OW30793   2.953   5.165   4.029
 9965SOL    HW130794   2.961   5.151   3.930
 9965SOL    HW230795   2.866   5.127   4.061
 9966SOL     OW30796   3.831   4.860   3.133
 9966SOL    HW130797   3.892   4.827   3.061
 9966SOL    HW230798   3.864   4.827   3.222
 9967SOL     OW30799   0.007   0.565   2.914
 9967SOL    HW130800   0.052   0.635   2.858
 9967SOL    HW230801   6.994   0.606   2.999
 9968SOL     OW30802   4.035   6.593   0.483
 9968SOL    HW130803   4.002   6.639   0.401
 9968SOL    HW230804   3.966   6.529   0.516
 9969SOL     OW30805   0.152   5.823   3.826
 9969SOL    HW130806   0.089   5.890   3.787
 9969SOL    HW230807   0.119   5.797   3.917
 9970SOL     OW30808   6.802   3.280   2.513
 9970SOL    HW130809   6.853   3.333   2.446
 9970SOL    HW230810   6.839   3.187   2.518
 9971SOL     OW30811   0.173   5.251   4.465
 9971SOL    HW130812   0.216   5.222   4.550
 9971SOL    HW230813   0.227   5.217   4.388
 9972SOL     OW30814   3.453   4.229   6.020
 9972SOL    HW130815   3.432   4.202   6.114
 9972SOL    HW230816   3.370   4.261   5.975
 9973SOL     OW30817   2.510   1.892   3.594
 9973SOL    HW130818   2.574   1.961   3.628
 9973SOL    HW230819   2.483   1.914   3.500
 9974SOL     OW30820   1.369   2.597   3.427
 9974SOL    HW130821   1.346   2.638   3.516
 9974SOL    HW230822   1.456   2.635   3.394
 9975SOL     OW30823   2.403   4.551   6.785
 9975SOL    HW130824   2.457   4.634   6.803
 9975SOL    HW230825   2.457   4.470   6.809
 9976SOL     OW30826   4.132   5.424   5.990
 9976SOL    HW130827   4.221   5.379   6.000
 9976SOL    HW230828   4.080   5.380   5.916
 9977SOL     OW30829   4.231   0.062   5.617
 9977SOL    HW130830   4.200   0.156   5.603
 9977SOL    HW230831   4.330   0.060   5.622
 9978SOL     OW30832   0.998   3.137   0.054
 9978SOL    HW130833   0.933   3.098   0.119
 9978SOL    HW230834   0.964   3.226   0.024
 9979SOL     OW30835   3.315   3.881   5.331
 9979SOL    HW130836   3.258   3.923   5.260
 9979SOL    HW230837   3.288   3.786   5.343
 9980SOL     OW30838   1.382   1.442   1.508
 9980SOL    HW130839   1.338   1.457   1.597
 9980SOL    HW230840   1.472   1.401   1.523
 9981SOL     OW30841   5.717   1.541   0.371
 9981SOL    HW130842   5.767   1.460   0.340
 9981SOL    HW230843   5.775   1.622   0.359
 9982SOL     OW30844   1.830   2.173   4.568
 9982SOL    HW130845   1.883   2.178   4.652
 9982SOL    HW230846   1.891   2.181   4.489
 9983SOL     OW30847   1.005   3.627   2.306
 9983SOL    HW130848   0.910   3.606   2.284
 9983SOL    HW230849   1.009   3.703   2.371
 9984SOL     OW30850   0.309   4.992   0.743
 9984SOL    HW130851   0.269   4.902   0.722
 9984SOL    HW230852   0.370   4.984   0.822
 9985SOL     OW30853   5.127   4.630   0.037
 9985SOL    HW130854   5.165   4.657   6.969
 9985SOL    HW230855   5.029   4.653   0.039
 9986SOL     OW30856   5.724   5.599   0.151
 9986SOL    HW130857   5.629   5.576   0.127
 9986SOL    HW230858   5.726   5.681   0.208
 9987SOL     OW30859   5.653   2.862   1.395
 9987SOL    HW130860   5.657   2.825   1.302
 9987SOL    HW230861   5.685   2.793   1.460
 9988SOL     OW30862   5.925   0.162   3.558
 9988SOL    HW130863   6.009   0.214   3.540
 9988SOL    HW230864   5.918   0.142   3.655
 9989SOL     OW30865   6.807   6.104   2.721
 9989SOL    HW130866   6.829   6.068   2.631
 9989SOL    HW230867   6.891   6.137   2.765
 9990SOL     OW30868   0.112   0.125   3.223
 9990SOL    HW130869   0.081   0.220   3.211
 9990SOL    HW230870   0.034   0.064   3.212
 9991SOL     OW30871   1.689   4.343   2.618
 9991SOL    HW130872   1.677   4.247   2.593
 9991SOL    HW230873   1.677   4.401   2.537
 9992SOL     OW30874   2.306   5.078   0.432
 9992SOL    HW130875   2.318   4.998   0.492
 9992SOL    HW230876   2.249   5.146   0.479
 9993SOL     OW30877   4.014   0.125   4.804
 9993SOL    HW130878   3.985   0.029   4.798
 9993SOL    HW230879   4.110   0.129   4.834
 9994SOL     OW30880   5.928   5.558   4.824
 9994SOL    HW130881   5.944   5.464   4.795
 9994SOL    HW230882   6.011   5.594   4.868
 9995SOL     OW30883   3.635   1.596   6.394
 9995SOL    HW130884   3.594   1.656   6.326
 9995SOL    HW230885   3.664   1.511   6.350
 9996SOL     OW30886   2.816   3.878   0.501
 9996SOL    HW130887   2.891   3.823   0.464
 9996SOL    HW230888   2.765   3.824   0.568
 9997SOL     OW30889   6.510   2.278   3.810
 9997SOL    HW130890   6.435   2.343   3.821
 9997SOL    HW230891   6.473   2.187   3.790
 9998SOL     OW30892   4.801   4.055   2.283
 9998SOL    HW130893   4.896   4.083   2.294
 9998SOL    HW230894   4.797   3.965   2.240
 9999SOL     OW30895   0.539   6.548   3.911
 9999SOL    HW130896   0.575   6.628   3.959
 9999SOL    HW230897   0.610   6.478   3.907
10000SOL     OW30898   4.602   2.432   1.177
10000SOL    HW130899   4.585   2.528   1.154
10000SOL    HW230900   4.563   2.412   1.267
10001SOL     OW30901   3.833   6.266   1.606
10001SOL    HW130902   3.931   6.263   1.624
10001SOL    HW230903   3.808   6.355   1.569
10002SOL     OW30904   2.586   0.584   2.082
10002SOL    HW130905   2.604   0.494   2.042
10002SOL    HW230906   2.583   0.576   2.182
10003SOL     OW30907   1.438   0.886   3.038
10003SOL    HW130908   1.391   0.816   3.091
10003SOL    HW230909   1.374   0.958   3.012
10004SOL     OW30910   6.586   4.697   4.291
10004SOL    HW130911   6.597   4.650   4.203
10004SOL    HW230912   6.667   4.752   4.310
10005SOL     OW30913   2.800   5.109   3.428
10005SOL    HW130914   2.819   5.026   3.480
10005SOL    HW230915   2.872   5.177   3.445
10006SOL     OW30916   5.665   0.892   5.258
10006SOL    HW130917   5.742   0.956   5.255
10006SOL    HW230918   5.638   0.877   5.353
10007SOL     OW30919   1.038   5.119   4.468
10007SOL    HW130920   0.979   5.061   4.411
10007SOL    HW230921   1.085   5.063   4.536
10008SOL     OW30922   3.466   1.518   5.868
10008SOL    HW130923   3.502   1.590   5.810
10008SOL    HW230924   3.367   1.530   5.879
10009SOL     OW30925   1.125   3.892   1.997
10009SOL    HW130926   1.205   3.951   1.989
10009SOL    HW230927   1.146   3.814   2.055
10010SOL     OW30928   2.473   4.402   0.559
10010SOL    HW130929   2.460   4.347   0.642
10010SOL    HW230930   2.387   4.448   0.537
10011SOL     OW30931   2.012   3.188   0.014
10011SOL    HW130932   2.104   3.153   0.026
10011SOL    HW230933   1.947   3.112   0.006
10012SOL     OW30934   5.765   2.528   2.959
10012SOL    HW130935   5.711   2.604   2.994
10012SOL    HW230936   5.855   2.527   3.004
10013SOL     OW30937   0.621   6.260   4.787
10013SOL    HW130938   0.700   6.248   4.847
10013SOL    HW230939   0.626   6.350   4.743
10014SOL     OW30940   0.846   0.989   2.898
10014SOL    HW130941   0.884   1.039   2.820
10014SOL    HW230942   0.755   0.955   2.875
10015SOL     OW30943   4.143   5.924   6.229
10015SOL    HW130944   4.185   5.865   6.161
10015SOL    HW230945   4.203   6.001   6.249
10016SOL     OW30946   2.341   0.474   4.061
10016SOL    HW130947   2.337   0.379   4.031
10016SOL    HW230948   2.360   0.477   4.160
10017SOL     OW30949   2.816   2.275   2.857
10017SOL    HW130950   2.890   2.244   2.915
10017SOL    HW230951   2.832   2.244   2.763
10018SOL     OW30952   6.659   3.579   5.145
10018SOL    HW130953   6.726   3.566   5.218
10018SOL    HW230954   6.665   3.673   5.111
10019SOL     OW30955   0.367   2.615   1.924
10019SOL    HW130956   0.366   2.711   1.897
10019SOL    HW230957   0.335   2.559   1.847
10020SOL     OW30958   6.235   1.482   2.084
10020SOL    HW130959   6.240   1.462   1.986
10020SOL    HW230960   6.327   1.478   2.123
10021SOL     OW30961   0.625   3.084   2.444
10021SOL    HW130962   0.687   3.146   2.491
10021SOL    HW230963   0.638   3.092   2.345
10022SOL     OW30964   2.070   4.875   5.953
10022SOL    HW130965   2.102   4.934   6.027
10022SOL    HW230966   1.970   4.874   5.950
10023SOL     OW30967   0.874   0.987   6.058
10023SOL    HW130968   0.895   0.948   6.147
10023SOL    HW230969   0.954   0.979   5.998
10024SOL     OW30970   1.625   4.791   2.709
10024SOL    HW130971   1.716   4.834   2.712
10024SOL    HW230972   1.607   4.756   2.618
10025SOL     OW30973   1.263   4.131   0.542
10025SOL    HW130974   1.268   4.085   0.453
10025SOL    HW230975   1.277   4.063   0.615
10026SOL     OW30976   5.211   1.814   4.746
10026SOL    HW130977   5.121   1.815   4.701
10026SOL    HW230978   5.276   1.866   4.690
10027SOL     OW30979   3.097   1.749   5.220
10027SOL    HW130980   3.094   1.812   5.142
10027SOL    HW230981   3.155   1.671   5.198
10028SOL     OW30982   4.326   0.174   1.533
10028SOL    HW130983   4.257   0.149   1.465
10028SOL    HW230984   4.399   0.226   1.489
10029SOL     OW30985   0.169   4.284   4.543
10029SOL    HW130986   0.203   4.227   4.618
10029SOL    HW230987   0.206   4.251   4.456
10030SOL     OW30988   2.452   6.926   4.016
10030SOL    HW130989   2.528   6.952   4.076
10030SOL    HW230990   2.461   6.973   3.928
10031SOL     OW30991   2.785   5.017   3.175
10031SOL    HW130992   2.786   5.047   3.270
10031SOL    HW230993   2.826   4.926   3.168
10032SOL     OW30994   3.188   6.585   4.681
10032SOL    HW130995   3.177   6.488   4.656
10032SOL    HW230996   3.243   6.591   4.764
10033SOL     OW30997   3.061   0.847   4.320
10033SOL    HW130998   3.075   0.911   4.396
10033SOL    HW230999   3.056   0.754   4.355
10034SOL     OW31000   2.431   1.042   4.182
10034SOL    HW131001   2.364   1.011   4.115
10034SOL    HW231002   2.385   1.059   4.269
10035SOL     OW31003   6.280   2.593   2.271
10035SOL    HW131004   6.292   2.682   2.228
10035SOL    HW231005   6.218   2.601   2.349
10036SOL     OW31006   0.105   0.557   6.741
10036SOL    HW131007   0.039   0.497   6.696
10036SOL    HW231008   0.056   0.628   6.791
10037SOL     OW31009   5.925   6.649   6.851
10037SOL    HW131010   6.020   6.680   6.860
10037SOL    HW231011   5.896   6.659   6.756
10038SOL     OW31012   4.344   6.391   6.446
10038SOL    HW131013   4.290   6.331   6.506
10038SOL    HW231014   4.403   6.449   6.502
10039SOL     OW31015   6.870   5.567   2.314
10039SOL    HW131016   6.895   5.557   2.410
10039SOL    HW231017   6.888   5.661   2.285
10040SOL     OW31018   2.940   0.388   1.204
10040SOL    HW131019   2.989   0.302   1.190
10040SOL    HW231020   3.006   0.463   1.212
10041SOL     OW31021   6.595   5.431   5.152
10041SOL    HW131022   6.609   5.517   5.103
10041SOL    HW231023   6.587   5.356   5.087
10042SOL     OW31024   0.262   0.275   4.755
10042SOL    HW131025   0.251   0.371   4.730
10042SOL    HW231026   0.343   0.265   4.812
10043SOL     OW31027   0.591   0.544   3.958
10043SOL    HW131028   0.644   0.580   4.034
10043SOL    HW231029   0.493   0.554   3.978
10044SOL     OW31030   3.082   1.586   6.732
10044SOL    HW131031   3.066   1.487   6.725
10044SOL    HW231032   3.173   1.603   6.770
10045SOL     OW31033   3.783   6.618   5.097
10045SOL    HW131034   3.759   6.579   5.009
10045SOL    HW231035   3.707   6.609   5.161
10046SOL     OW31036   0.434   2.880   1.787
10046SOL    HW131037   0.401   2.822   1.713
10046SOL    HW231038   0.357   2.927   1.830
10047SOL     OW31039   0.354   1.855   3.572
10047SOL    HW131040   0.268   1.851   3.622
10047SOL    HW231041   0.405   1.770   3.586
10048SOL     OW31042   3.531   2.480   1.739
10048SOL    HW131043   3.553   2.575   1.720
10048SOL    HW231044   3.596   2.443   1.804
10049SOL     OW31045   1.648   6.617   4.831
10049SOL    HW131046   1.677   6.526   4.859
10049SOL    HW231047   1.548   6.625   4.840
10050SOL     OW31048   5.053   2.654   3.638
10050SOL    HW131049   5.089   2.627   3.728
10050SOL    HW231050   4.966   2.702   3.650
10051SOL     OW31051   5.866   2.768   5.644
10051SOL    HW131052   5.772   2.754   5.615
10051SOL    HW231053   5.871   2.847   5.704
10052SOL     OW31054   1.080   3.707   1.493
10052SOL    HW131055   1.065   3.644   1.417
10052SOL    HW231056   0.991   3.732   1.533
10053SOL     OW31057   3.318   5.904   3.482
10053SOL    HW131058   3.356   5.893   3.390
10053SOL    HW231059   3.220   5.918   3.476
10054SOL     OW31060   3.895   5.468   4.234
10054SOL    HW131061   3.807   5.461   4.188
10054SOL    HW231062   3.951   5.388   4.210
10055SOL     OW31063   6.212   3.323   5.885
10055SOL    HW131064   6.142   3.334   5.815
10055SOL    HW231065   6.255   3.233   5.877
10056SOL     OW31066   6.924   4.946   1.658
10056SOL    HW131067   7.007   4.962   1.605
10056SOL    HW231068   6.938   4.868   1.719
10057SOL     OW31069   3.178   2.106   3.808
10057SOL    HW131070   3.170   2.010   3.836
10057SOL    HW231071   3.103   2.159   3.847
10058SOL     OW31072   0.804   5.343   3.657
10058SOL    HW131073   0.821   5.407   3.583
10058SOL    HW231074   0.708   5.350   3.686
10059SOL     OW31075   5.689   6.944   0.837
10059SOL    HW131076   5.708   0.018   0.808
10059SOL    HW231077   5.734   6.881   0.774
10060SOL     OW31078   2.248   2.962   1.840
10060SOL    HW131079   2.267   2.872   1.802
10060SOL    HW231080   2.246   3.030   1.766
10061SOL     OW31081   6.101   1.961   4.598
10061SOL    HW131082   6.092   1.906   4.515
10061SOL    HW231083   6.020   2.018   4.609
10062SOL     OW31084   5.981   6.103   2.827
10062SOL    HW131085   6.043   6.117   2.750
10062SOL    HW231086   5.939   6.191   2.853
10063SOL     OW31087   1.188   2.784   2.844
10063SOL    HW131088   1.245   2.843   2.901
10063SOL    HW231089   1.245   2.713   2.803
10064SOL     OW31090   5.676   6.851   4.625
10064SOL    HW131091   5.668   6.769   4.567
10064SOL    HW231092   5.675   6.823   4.721
10065SOL     OW31093   1.144   6.415   3.030
10065SOL    HW131094   1.194   6.343   3.078
10065SOL    HW231095   1.073   6.452   3.089
10066SOL     OW31096   0.777   0.060   3.411
10066SOL    HW131097   0.749   0.142   3.361
10066SOL    HW231098   0.871   0.037   3.387
10067SOL     OW31099   3.764   5.092   3.815
10067SOL    HW131100   3.848   5.085   3.761
10067SOL    HW231101   3.699   5.023   3.785
10068SOL     OW31102   4.979   3.990   5.166
10068SOL    HW131103   5.066   4.039   5.154
10068SOL    HW231104   4.941   4.012   5.255
10069SOL     OW31105   3.523   0.880   3.342
10069SOL    HW131106   3.468   0.854   3.422
10069SOL    HW231107   3.609   0.921   3.373
10070SOL     OW31108   0.842   6.684   4.783
10070SOL    HW131109   0.896   6.742   4.722
10070SOL    HW231110   0.752   6.725   4.797
10071SOL     OW31111   5.252   6.006   5.086
10071SOL    HW131112   5.228   6.088   5.034
10071SOL    HW231113   5.183   5.990   5.157
10072SOL     OW31114   1.025   0.002   3.015
10072SOL    HW131115   0.972   0.080   3.049
10072SOL    HW231116   1.120   0.009   3.047
10073SOL     OW31117   0.409   4.570   6.531
10073SOL    HW131118   0.491   4.514   6.542
10073SOL    HW231119   0.433   4.666   6.543
10074SOL     OW31120   2.540   6.943   5.890
10074SOL    HW131121   2.485   6.893   5.957
10074SOL    HW231122   2.480   6.992   5.827
10075SOL     OW31123   1.319   2.664   3.961
10075SOL    HW131124   1.232   2.641   4.006
10075SOL    HW231125   1.328   2.764   3.956
10076SOL     OW31126   5.532   0.050   4.830
10076SOL    HW131127   5.579   6.995   4.784
10076SOL    HW231128   5.537   0.038   4.929
10077SOL     OW31129   3.979   1.353   6.380
10077SOL    HW131130   3.894   1.340   6.329
10077SOL    HW231131   4.040   1.275   6.363
10078SOL     OW31132   5.615   6.298   5.993
10078SOL    HW131133   5.639   6.257   5.905
10078SOL    HW231134   5.526   6.343   5.986
10079SOL     OW31135   0.329   4.077   0.111
10079SOL    HW131136   0.230   4.081   0.099
10079SOL    HW231137   0.356   4.137   0.186
10080SOL     OW31138   1.922   3.072   6.292
10080SOL    HW131139   2.000   3.126   6.261
10080SOL    HW231140   1.877   3.121   6.367
10081SOL     OW31141   6.857   0.720   6.508
10081SOL    HW131142   6.873   0.621   6.520
10081SOL    HW231143   6.818   0.736   6.418
10082SOL     OW31144   6.497   1.236   1.368
10082SOL    HW131145   6.552   1.228   1.451
10082SOL    HW231146   6.509   1.327   1.328
10083SOL     OW31147   4.918   0.431   4.248
10083SOL    HW131148   4.854   0.483   4.191
10083SOL    HW231149   4.978   0.494   4.297
10084SOL     OW31150   2.330   1.369   5.975
10084SOL    HW131151   2.370   1.277   5.981
10084SOL    HW231152   2.393   1.436   6.015
10085SOL     OW31153   0.534   5.435   2.627
10085SOL    HW131154   0.532   5.351   2.681
10085SOL    HW231155   0.616   5.488   2.649
10086SOL     OW31156   6.481   3.688   2.363
10086SOL    HW131157   6.444   3.731   2.445
10086SOL    HW231158   6.473   3.588   2.372
10087SOL     OW31159   1.466   0.092   4.195
10087SOL    HW131160   1.424   0.034   4.125
10087SOL    HW231161   1.565   0.076   4.196
10088SOL     OW31162   0.485   0.145   4.524
10088SOL    HW131163   0.411   0.085   4.553
10088SOL    HW231164   0.508   0.208   4.597
10089SOL     OW31165   1.404   3.485   2.147
10089SOL    HW131166   1.450   3.465   2.060
10089SOL    HW231167   1.467   3.468   2.223
10090SOL     OW31168   0.507   4.826   0.492
10090SOL    HW131169   0.411   4.803   0.509
10090SOL    HW231170   0.519   4.925   0.492
10091SOL     OW31171   0.766   2.597   4.615
10091SOL    HW131172   0.730   2.684   4.580
10091SOL    HW231173   0.703   2.560   4.683
10092SOL     OW31174   2.079   4.344   5.354
10092SOL    HW131175   2.136   4.370   5.276
10092SOL    HW231176   2.081   4.245   5.365
10093SOL     OW31177   6.513   4.326   6.473
10093SOL    HW131178   6.592   4.387   6.481
10093SOL    HW231179   6.493   4.311   6.376
10094SOL     OW31180   1.330   1.486   1.836
10094SOL    HW131181   1.321   1.391   1.805
10094SOL    HW231182   1.242   1.519   1.868
10095SOL     OW31183   6.714   1.050   5.982
10095SOL    HW131184   6.761   1.113   5.920
10095SOL    HW231185   6.735   0.956   5.956
10096SOL     OW31186   0.627   5.398   2.314
10096SOL    HW131187   0.567   5.468   2.353
10096SOL    HW231188   0.719   5.435   2.304
10097SOL     OW31189   1.408   0.913   6.855
10097SOL    HW131190   1.345   0.884   6.784
10097SOL    HW231191   1.424   0.837   6.919
10098SOL     OW31192   2.538   4.917   6.518
10098SOL    HW131193   2.592   4.927   6.434
10098SOL    HW231194   2.474   4.841   6.509
10099SOL     OW31195   6.978   4.433   4.668
10099SOL    HW131196   0.033   4.394   4.615
10099SOL    HW231197   6.954   4.523   4.631
10100SOL     OW31198   5.551   1.281   5.076
10100SOL    HW131199   5.509   1.275   5.167
10100SOL    HW231200   5.635   1.335   5.083
10101SOL     OW31201   0.272   4.679   2.308
10101SOL    HW131202   0.342   4.658   2.376
10101SOL    HW231203   0.242   4.773   2.317
10102SOL     OW31204   2.428   1.525   2.615
10102SOL    HW131205   2.400   1.475   2.696
10102SOL    HW231206   2.389   1.617   2.617
10103SOL     OW31207   2.877   2.326   7.002
10103SOL    HW131208   2.911   2.381   6.926
10103SOL    HW231209   2.922   2.237   7.002
10104SOL     OW31210   1.342   6.007   5.154
10104SOL    HW131211   1.261   6.015   5.213
10104SOL    HW231212   1.321   6.043   5.063
10105SOL     OW31213   2.329   0.543   6.613
10105SOL    HW131214   2.360   0.486   6.537
10105SOL    HW231215   2.387   0.625   6.619
10106SOL     OW31216   5.132   5.509   0.219
10106SOL    HW131217   5.076   5.580   0.176
10106SOL    HW231218   5.123   5.514   0.318
10107SOL     OW31219   5.610   1.486   5.938
10107SOL    HW131220   5.637   1.565   5.993
10107SOL    HW231221   5.519   1.455   5.967
10108SOL     OW31222   6.443   6.760   0.685
10108SOL    HW131223   6.482   6.831   0.627
10108SOL    HW231224   6.458   6.783   0.781
10109SOL     OW31225   4.677   4.954   3.321
10109SOL    HW131226   4.660   4.869   3.371
10109SOL    HW231227   4.615   5.025   3.353
10110SOL     OW31228   3.552   0.626   6.003
10110SOL    HW131229   3.598   0.700   6.053
10110SOL    HW231230   3.586   0.624   5.909
10111SOL     OW31231   0.577   2.365   2.581
10111SOL    HW131232   0.512   2.296   2.550
10111SOL    HW231233   0.577   2.442   2.516
10112SOL     OW31234   4.459   4.502   5.628
10112SOL    HW131235   4.485   4.479   5.534
10112SOL    HW231236   4.372   4.550   5.628
10113SOL     OW31237   3.925   6.486   6.828
10113SOL    HW131238   3.936   6.408   6.890
10113SOL    HW231239   3.876   6.559   6.876
10114SOL     OW31240   4.349   0.803   1.103
10114SOL    HW131241   4.260   0.760   1.090
10114SOL    HW231242   4.353   0.888   1.051
10115SOL     OW31243   2.184   1.708   4.017
10115SOL    HW131244   2.115   1.659   3.964
10115SOL    HW231245   2.264   1.725   3.960
10116SOL     OW31246   1.215   1.367   1.270
10116SOL    HW131247   1.143   1.312   1.312
10116SOL    HW231248   1.279   1.397   1.340
10117SOL     OW31249   5.233   0.762   5.827
10117SOL    HW131250   5.163   0.706   5.871
10117SOL    HW231251   5.258   0.838   5.888
10118SOL     OW31252   7.002   5.301   1.661
10118SOL    HW131253   6.971   5.244   1.738
10118SOL    HW231254   6.968   5.263   1.575
10119SOL     OW31255   2.601   0.728   5.609
10119SOL    HW131256   2.602   0.790   5.530
10119SOL    HW231257   2.596   0.781   5.693
10120SOL     OW31258   6.979   2.843   3.641
10120SOL    HW131259   6.988   2.746   3.617
10120SOL    HW231260   6.983   2.853   3.741
10121SOL     OW31261   6.640   4.695   5.109
10121SOL    HW131262   6.643   4.675   5.207
10121SOL    HW231263   6.731   4.686   5.070
10122SOL     OW31264   5.415   3.373   0.455
10122SOL    HW131265   5.380   3.452   0.405
10122SOL    HW231266   5.483   3.402   0.522
10123SOL     OW31267   0.131   6.435   0.163
10123SOL    HW131268   0.090   6.503   0.102
10123SOL    HW231269   0.070   6.357   0.172
10124SOL     OW31270   3.041   4.049   0.581
10124SOL    HW131271   2.953   4.002   0.578
10124SOL    HW231272   3.043   4.113   0.657
10125SOL     OW31273   1.192   0.637   1.627
10125SOL    HW131274   1.271   0.635   1.688
10125SOL    HW231275   1.153   0.729   1.626
10126SOL     OW31276   6.476   5.317   0.811
10126SOL    HW131277   6.399   5.266   0.772
10126SOL    HW231278   6.551   5.319   0.745
10127SOL     OW31279   3.933   5.290   5.355
10127SOL    HW131280   3.988   5.220   5.310
10127SOL    HW231281   3.857   5.317   5.294
10128SOL     OW31282   0.217   2.423   1.023
10128SOL    HW131283   0.277   2.400   1.099
10128SOL    HW231284   0.271   2.462   0.948
10129SOL     OW31285   6.023   2.454   3.059
10129SOL    HW131286   6.019   2.413   3.150
10129SOL    HW231287   6.073   2.540   3.064
10130SOL     OW31288   6.465   5.328   1.367
10130SOL    HW131289   6.514   5.357   1.449
10130SOL    HW231290   6.514   5.253   1.323
10131SOL     OW31291   0.117   1.142   1.169
10131SOL    HW131292   0.087   1.201   1.093
10131SOL    HW231293   0.039   1.123   1.228
10132SOL     OW31294   3.027   6.767   2.571
10132SOL    HW131295   3.012   6.799   2.478
10132SOL    HW231296   3.121   6.788   2.598
10133SOL     OW31297   5.224   5.479   3.240
10133SOL    HW131298   5.195   5.574   3.253
10133SOL    HW231299   5.151   5.428   3.193
10134SOL     OW31300   6.969   1.551   3.006
10134SOL    HW131301   6.880   1.516   3.035
10134SOL    HW231302   0.018   1.526   3.072
10135SOL     OW31303   4.245   4.967   3.222
10135SOL    HW131304   4.226   5.054   3.175
10135SOL    HW231305   4.274   4.899   3.155
10136SOL     OW31306   5.661   6.626   3.253
10136SOL    HW131307   5.626   6.719   3.239
10136SOL    HW231308   5.591   6.570   3.296
10137SOL     OW31309   6.208   5.119   4.031
10137SOL    HW131310   6.125   5.167   4.058
10137SOL    HW231311   6.185   5.026   4.000
10138SOL     OW31312   5.361   2.463   6.529
10138SOL    HW131313   5.397   2.556   6.517
10138SOL    HW231314   5.334   2.449   6.624
10139SOL     OW31315   3.910   2.979   3.177
10139SOL    HW131316   3.986   2.975   3.241
10139SOL    HW231317   3.945   2.973   3.083
10140SOL     OW31318   0.291   5.166   6.321
10140SOL    HW131319   0.373   5.127   6.278
10140SOL    HW231320   0.225   5.093   6.340
10141SOL     OW31321   1.696   0.739   4.004
10141SOL    HW131322   1.786   0.702   3.979
10141SOL    HW231323   1.631   0.721   3.930
10142SOL     OW31324   4.328   6.294   4.973
10142SOL    HW131325   4.357   6.356   4.900
10142SOL    HW231326   4.326   6.200   4.939
10143SOL     OW31327   4.785   7.020   1.168
10143SOL    HW131328   4.779   7.019   1.268
10143SOL    HW231329   4.720   6.953   1.131
10144SOL     OW31330   3.093   5.370   4.125
10144SOL    HW131331   3.056   5.292   4.076
10144SOL    HW231332   3.162   5.415   4.068
10145SOL     OW31333   2.853   6.140   5.698
10145SOL    HW131334   2.899   6.123   5.785
10145SOL    HW231335   2.895   6.084   5.627
10146SOL     OW31336   4.213   5.297   4.491
10146SOL    HW131337   4.175   5.211   4.523
10146SOL    HW231338   4.172   5.321   4.403
10147SOL     OW31339   4.656   4.991   4.850
10147SOL    HW131340   4.716   5.068   4.874
10147SOL    HW231341   4.679   4.912   4.907
10148SOL     OW31342   5.725   5.945   0.654
10148SOL    HW131343   5.773   5.858   0.668
10148SOL    HW231344   5.702   5.984   0.743
10149SOL     OW31345   4.283   2.597   0.960
10149SOL    HW131346   4.202   2.657   0.953
10149SOL    HW231347   4.253   2.502   0.970
10150SOL     OW31348   4.381   4.260   1.324
10150SOL    HW131349   4.423   4.326   1.386
10150SOL    HW231350   4.323   4.198   1.375
10151SOL     OW31351   2.141   6.856   5.758
10151SOL    HW131352   2.221   6.895   5.713
10151SOL    HW231353   2.143   6.756   5.748
10152SOL     OW31354   6.966   5.499   3.444
10152SOL    HW131355   6.870   5.471   3.452
10152SOL    HW231356   0.001   5.447   3.508
10153SOL     OW31357   5.251   6.449   4.485
10153SOL    HW131358   5.332   6.418   4.436
10153SOL    HW231359   5.218   6.377   4.545
10154SOL     OW31360   6.862   5.171   5.963
10154SOL    HW131361   6.787   5.126   6.012
10154SOL    HW231362   6.860   5.269   5.981
10155SOL     OW31363   4.087   0.639   6.070
10155SOL    HW131364   4.114   0.618   5.976
10155SOL    HW231365   4.165   0.621   6.131
10156SOL     OW31366   5.841   0.880   2.264
10156SOL    HW131367   5.848   0.816   2.187
10156SOL    HW231368   5.768   0.848   2.326
10157SOL     OW31369   5.612   1.221   6.372
10157SOL    HW131370   5.563   1.309   6.373
10157SOL    HW231371   5.698   1.233   6.322
10158SOL     OW31372   4.444   3.440   6.935
10158SOL    HW131373   4.411   3.502   7.006
10158SOL    HW231374   4.502   3.370   6.976
10159SOL     OW31375   1.434   1.857   6.423
10159SOL    HW131376   1.528   1.851   6.457
10159SOL    HW231377   1.435   1.880   6.326
10160SOL     OW31378   0.294   5.428   3.879
10160SOL    HW131379   0.301   5.343   3.827
10160SOL    HW231380   0.252   5.411   3.968
10161SOL     OW31381   3.097   5.704   6.256
10161SOL    HW131382   3.104   5.663   6.165
10161SOL    HW231383   3.149   5.650   6.322
10162SOL     OW31384   3.201   2.336   6.635
10162SOL    HW131385   3.122   2.390   6.664
10162SOL    HW231386   3.203   2.250   6.687
10163SOL     OW31387   5.972   3.467   5.830
10163SOL    HW131388   5.907   3.510   5.767
10163SOL    HW231389   6.048   3.529   5.846
10164SOL     OW31390   6.924   3.045   4.903
10164SOL    HW131391   6.874   3.117   4.952
10164SOL    HW231392   7.017   3.039   4.940
10165SOL     OW31393   0.447   1.880   4.656
10165SOL    HW131394   0.410   1.787   4.655
10165SOL    HW231395   0.372   1.946   4.649
10166SOL     OW31396   2.360   1.327   1.978
10166SOL    HW131397   2.397   1.238   1.951
10166SOL    HW231398   2.330   1.377   1.896
10167SOL     OW31399   4.952   0.211   0.349
10167SOL    HW131400   4.872   0.169   0.305
10167SOL    HW231401   5.004   0.263   0.281
10168SOL     OW31402   6.969   4.372   3.796
10168SOL    HW131403   7.020   4.288   3.812
10168SOL    HW231404   0.000   4.450   3.834
10169SOL     OW31405   6.460   4.015   3.799
10169SOL    HW131406   6.475   4.106   3.837
10169SOL    HW231407   6.372   4.012   3.752
10170SOL     OW31408   1.812   4.766   5.015
10170SOL    HW131409   1.866   4.729   4.940
10170SOL    HW231410   1.863   4.838   5.061
10171SOL     OW31411   6.715   4.134   6.296
10171SOL    HW131412   6.755   4.074   6.226
10171SOL    HW231413   6.676   4.215   6.253
10172SOL     OW31414   4.897   0.764   2.440
10172SOL    HW131415   4.917   0.667   2.433
10172SOL    HW231416   4.827   0.789   2.373
10173SOL     OW31417   1.848   1.745   2.338
10173SOL    HW131418   1.847   1.829   2.392
10173SOL    HW231419   1.921   1.685   2.371
10174SOL     OW31420   6.770   4.901   2.804
10174SOL    HW131421   6.839   4.844   2.760
10174SOL    HW231422   6.815   4.974   2.855
10175SOL     OW31423   6.269   2.447   5.687
10175SOL    HW131424   6.207   2.396   5.747
10175SOL    HW231425   6.268   2.406   5.595
10176SOL     OW31426   1.971   4.047   6.964
10176SOL    HW131427   1.884   4.017   7.002
10176SOL    HW231428   2.036   4.064   0.017
10177SOL     OW31429   3.084   6.249   0.129
10177SOL    HW131430   3.122   6.342   0.123
10177SOL    HW231431   2.990   6.250   0.095
10178SOL     OW31432   6.123   2.670   4.613
10178SOL    HW131433   6.165   2.670   4.704
10178SOL    HW231434   6.191   2.699   4.545
10179SOL     OW31435   1.328   2.596   5.899
10179SOL    HW131436   1.328   2.520   5.964
10179SOL    HW231437   1.314   2.561   5.807
10180SOL     OW31438   2.551   5.639   5.621
10180SOL    HW131439   2.609   5.558   5.611
10180SOL    HW231440   2.549   5.667   5.717
10181SOL     OW31441   5.843   3.631   1.245
10181SOL    HW131442   5.872   3.641   1.341
10181SOL    HW231443   5.841   3.534   1.221
10182SOL     OW31444   5.771   1.490   1.410
10182SOL    HW131445   5.848   1.447   1.365
10182SOL    HW231446   5.797   1.580   1.444
10183SOL     OW31447   1.708   1.706   6.106
10183SOL    HW131448   1.742   1.760   6.029
10183SOL    HW231449   1.785   1.663   6.153
10184SOL     OW31450   4.397   1.016   6.030
10184SOL    HW131451   4.489   1.056   6.034
10184SOL    HW231452   4.357   1.015   6.122
10185SOL     OW31453   4.805   6.806   0.920
10185SOL    HW131454   4.844   6.730   0.868
10185SOL    HW231455   4.707   6.814   0.900
10186SOL     OW31456   4.527   2.538   2.639
10186SOL    HW131457   4.538   2.571   2.545
10186SOL    HW231458   4.597   2.580   2.697
10187SOL     OW31459   0.850   2.443   1.679
10187SOL    HW131460   0.827   2.511   1.748
10187SOL    HW231461   0.767   2.416   1.630
10188SOL     OW31462   4.174   6.236   0.829
10188SOL    HW131463   4.171   6.311   0.895
10188SOL    HW231464   4.103   6.169   0.852
10189SOL     OW31465   1.620   6.474   5.091
10189SOL    HW131466   1.716   6.494   5.111
10189SOL    HW231467   1.570   6.460   5.176
10190SOL     OW31468   5.008   2.552   0.142
10190SOL    HW131469   4.950   2.614   0.090
10190SOL    HW231470   5.050   2.486   0.080
10191SOL     OW31471   5.690   4.765   0.428
10191SOL    HW131472   5.717   4.859   0.447
10191SOL    HW231473   5.618   4.737   0.491
10192SOL     OW31474   3.653   0.945   5.768
10192SOL    HW131475   3.588   1.020   5.780
10192SOL    HW231476   3.620   0.884   5.695
10193SOL     OW31477   4.829   3.939   0.494
10193SOL    HW131478   4.923   3.962   0.520
10193SOL    HW231479   4.825   3.927   0.395
10194SOL     OW31480   5.704   4.158   5.503
10194SOL    HW131481   5.803   4.146   5.512
10194SOL    HW231482   5.658   4.071   5.519
10195SOL     OW31483   6.805   4.447   1.731
10195SOL    HW131484   6.774   4.352   1.734
10195SOL    HW231485   6.831   4.477   1.823
10196SOL     OW31486   0.135   1.772   4.747
10196SOL    HW131487   0.137   1.745   4.651
10196SOL    HW231488   0.189   1.707   4.800
10197SOL     OW31489   5.973   0.648   5.828
10197SOL    HW131490   6.065   0.619   5.802
10197SOL    HW231491   5.949   0.608   5.916
10198SOL     OW31492   3.890   6.962   2.925
10198SOL    HW131493   3.934   6.872   2.921
10198SOL    HW231494   3.883   6.999   2.832
10199SOL     OW31495   1.265   2.901   5.477
10199SOL    HW131496   1.255   2.852   5.391
10199SOL    HW231497   1.198   2.866   5.543
10200SOL     OW31498   6.208   3.606   1.323
10200SOL    HW131499   6.197   3.606   1.223
10200SOL    HW231500   6.304   3.588   1.345
10201SOL     OW31501   1.094   3.488   0.921
10201SOL    HW131502   0.996   3.492   0.943
10201SOL    HW231503   1.138   3.419   0.978
10202SOL     OW31504   3.641   0.540   5.756
10202SOL    HW131505   3.728   0.588   5.753
10202SOL    HW231506   3.655   0.447   5.791
10203SOL     OW31507   6.240   2.667   4.855
10203SOL    HW131508   6.239   2.582   4.908
10203SOL    HW231509   6.331   2.709   4.860
10204SOL     OW31510   5.075   6.493   6.894
10204SOL    HW131511   5.142   6.563   6.917
10204SOL    HW231512   5.122   6.411   6.861
10205SOL     OW31513   1.428   0.672   6.163
10205SOL    HW131514   1.392   0.580   6.154
10205SOL    HW231515   1.352   0.737   6.168
10206SOL     OW31516   1.307   0.736   5.611
10206SOL    HW131517   1.351   0.700   5.693
10206SOL    HW231518   1.209   0.748   5.629
10207SOL     OW31519   1.216   1.548   5.601
10207SOL    HW131520   1.176   1.534   5.691
10207SOL    HW231521   1.143   1.555   5.533
10208SOL     OW31522   6.511   4.958   5.204
10208SOL    HW131523   6.595   4.913   5.175
10208SOL    HW231524   6.525   5.005   5.291
10209SOL     OW31525   6.735   6.762   6.582
10209SOL    HW131526   6.821   6.742   6.536
10209SOL    HW231527   6.664   6.700   6.548
10210SOL     OW31528   4.119   6.023   2.209
10210SOL    HW131529   4.162   6.108   2.238
10210SOL    HW231530   4.098   5.967   2.290
10211SOL     OW31531   4.515   5.842   5.454
10211SOL    HW131532   4.443   5.849   5.386
10211SOL    HW231533   4.603   5.862   5.412
10212SOL     OW31534   0.675   0.370   6.079
10212SOL    HW131535   0.610   0.317   6.134
10212SOL    HW231536   0.625   0.444   6.032
10213SOL     OW31537   5.378   1.379   0.954
10213SOL    HW131538   5.350   1.443   0.882
10213SOL    HW231539   5.308   1.377   1.025
10214SOL     OW31540   0.683   2.448   0.817
10214SOL    HW131541   0.648   2.538   0.844
10214SOL    HW231542   0.767   2.430   0.867
10215SOL     OW31543   3.200   3.564   2.345
10215SOL    HW131544   3.270   3.588   2.278
10215SOL    HW231545   3.111   3.600   2.314
10216SOL     OW31546   6.550   6.794   2.519
10216SOL    HW131547   6.642   6.831   2.515
10216SOL    HW231548   6.486   6.856   2.475
10217SOL     OW31549   3.297   0.911   3.527
10217SOL    HW131550   3.273   0.989   3.469
10217SOL    HW231551   3.362   0.941   3.597
10218SOL     OW31552   1.187   2.393   2.294
10218SOL    HW131553   1.135   2.468   2.251
10218SOL    HW231554   1.248   2.352   2.226
10219SOL     OW31555   0.119   0.707   2.310
10219SOL    HW131556   0.218   0.715   2.304
10219SOL    HW231557   0.086   0.757   2.390
10220SOL     OW31558   3.352   2.829   1.761
10220SOL    HW131559   3.398   2.796   1.843
10220SOL    HW231560   3.253   2.819   1.771
10221SOL     OW31561   0.775   6.177   3.443
10221SOL    HW131562   0.846   6.209   3.379
10221SOL    HW231563   0.773   6.237   3.523
10222SOL     OW31564   3.020   3.925   4.445
10222SOL    HW131565   3.036   3.942   4.542
10222SOL    HW231566   2.976   3.835   4.434
10223SOL     OW31567   0.612   5.566   1.496
10223SOL    HW131568   0.658   5.634   1.553
10223SOL    HW231569   0.513   5.579   1.501
10224SOL     OW31570   5.709   3.984   3.542
10224SOL    HW131571   5.764   3.901   3.551
10224SOL    HW231572   5.735   4.049   3.613
10225SOL     OW31573   2.338   3.632   6.168
10225SOL    HW131574   2.299   3.647   6.077
10225SOL    HW231575   2.395   3.710   6.193
10226SOL     OW31576   4.670   2.356   6.825
10226SOL    HW131577   4.647   2.360   6.923
10226SOL    HW231578   4.764   2.386   6.812
10227SOL     OW31579   5.230   3.686   1.118
10227SOL    HW131580   5.275   3.597   1.107
10227SOL    HW231581   5.228   3.710   1.215
10228SOL     OW31582   5.445   0.593   1.032
10228SOL    HW131583   5.380   0.669   1.034
10228SOL    HW231584   5.532   0.623   1.070
10229SOL     OW31585   6.850   3.413   4.352
10229SOL    HW131586   6.914   3.470   4.404
10229SOL    HW231587   6.834   3.454   4.262
10230SOL     OW31588   0.120   6.254   2.357
10230SOL    HW131589   0.138   6.273   2.454
10230SOL    HW231590   0.030   6.290   2.332
10231SOL     OW31591   1.503   5.371   2.972
10231SOL    HW131592   1.421   5.334   2.929
10231SOL    HW231593   1.584   5.328   2.932
10232SOL     OW31594   4.968   5.273   4.014
10232SOL    HW131595   4.916   5.351   3.978
10232SOL    HW231596   4.926   5.242   4.099
10233SOL     OW31597   3.662   4.347   5.857
10233SOL    HW131598   3.607   4.322   5.937
10233SOL    HW231599   3.709   4.265   5.823
10234SOL     OW31600   6.806   1.166   1.730
10234SOL    HW131601   6.760   1.093   1.679
10234SOL    HW231602   6.867   1.126   1.798
10235SOL     OW31603   1.475   0.850   2.757
10235SOL    HW131604   1.549   0.789   2.785
10235SOL    HW231605   1.411   0.861   2.834
10236SOL     OW31606   2.554   0.028   1.496
10236SOL    HW131607   2.610   6.997   1.432
10236SOL    HW231608   2.603   0.039   1.582
10237SOL     OW31609   0.571   3.429   5.891
10237SOL    HW131610   0.540   3.388   5.805
10237SOL    HW231611   0.650   3.378   5.925
10238SOL     OW31612   3.318   6.663   1.396
10238SOL    HW131613   3.308   6.724   1.475
10238SOL    HW231614   3.253   6.587   1.403
10239SOL     OW31615   1.537   2.703   4.637
10239SOL    HW131616   1.628   2.677   4.671
10239SOL    HW231617   1.495   2.624   4.592
10240SOL     OW31618   2.371   6.936   0.898
10240SOL    HW131619   2.291   6.946   0.958
10240SOL    HW231620   2.427   6.860   0.930
10241SOL     OW31621   3.917   2.675   1.621
10241SOL    HW131622   3.827   2.703   1.653
10241SOL    HW231623   3.936   2.581   1.652
10242SOL     OW31624   0.277   2.866   6.903
10242SOL    HW131625   0.254   2.779   6.861
10242SOL    HW231626   0.196   2.925   6.906
10243SOL     OW31627   2.557   5.288   0.991
10243SOL    HW131628   2.608   5.361   1.037
10243SOL    HW231629   2.490   5.330   0.929
10244SOL     OW31630   2.738   4.841   1.336
10244SOL    HW131631   2.683   4.809   1.259
10244SOL    HW231632   2.694   4.920   1.377
10245SOL     OW31633   4.472   4.050   0.752
10245SOL    HW131634   4.553   4.067   0.694
10245SOL    HW231635   4.446   4.135   0.798
10246SOL     OW31636   3.043   3.865   4.158
10246SOL    HW131637   2.962   3.835   4.108
10246SOL    HW231638   3.016   3.894   4.250
10247SOL     OW31639   0.579   2.552   4.848
10247SOL    HW131640   0.566   2.639   4.897
10247SOL    HW231641   0.630   2.489   4.906
10248SOL     OW31642   1.090   0.319   3.553
10248SOL    HW131643   1.162   0.325   3.623
10248SOL    HW231644   1.003   0.351   3.592
10249SOL     OW31645   2.721   5.249   6.659
10249SOL    HW131646   2.671   5.294   6.585
10249SOL    HW231647   2.809   5.294   6.671
10250SOL     OW31648   4.328   2.502   0.607
10250SOL    HW131649   4.416   2.476   0.567
10250SOL    HW231650   4.267   2.423   0.608
10251SOL     OW31651   2.079   0.246   4.161
10251SOL    HW131652   2.010   0.232   4.231
10251SOL    HW231653   2.145   0.170   4.163
10252SOL     OW31654   5.815   4.111   6.154
10252SOL    HW131655   5.715   4.104   6.151
10252SOL    HW231656   5.854   4.062   6.076
10253SOL     OW31657   3.989   6.293   6.288
10253SOL    HW131658   4.010   6.245   6.373
10253SOL    HW231659   4.008   6.391   6.300
10254SOL     OW31660   5.686   1.515   5.294
10254SOL    HW131661   5.730   1.531   5.382
10254SOL    HW231662   5.636   1.597   5.266
10255SOL     OW31663   3.996   5.070   2.122
10255SOL    HW131664   4.050   4.988   2.140
10255SOL    HW231665   3.947   5.097   2.205
10256SOL     OW31666   4.214   1.229   2.852
10256SOL    HW131667   4.158   1.192   2.926
10256SOL    HW231668   4.311   1.211   2.871
10257SOL     OW31669   3.362   5.234   2.787
10257SOL    HW131670   3.280   5.224   2.731
10257SOL    HW231671   3.340   5.284   2.870
10258SOL     OW31672   1.261   1.220   1.783
10258SOL    HW131673   1.248   1.187   1.877
10258SOL    HW231674   1.349   1.189   1.749
10259SOL     OW31675   1.779   3.976   3.402
10259SOL    HW131676   1.782   3.904   3.333
10259SOL    HW231677   1.789   4.065   3.357
10260SOL     OW31678   1.113   0.515   3.776
10260SOL    HW131679   1.024   0.479   3.748
10260SOL    HW231680   1.143   0.583   3.710
10261SOL     OW31681   6.718   3.668   1.110
10261SOL    HW131682   6.756   3.669   1.202
10261SOL    HW231683   6.669   3.754   1.094
10262SOL     OW31684   4.001   1.275   0.424
10262SOL    HW131685   4.100   1.292   0.429
10262SOL    HW231686   3.958   1.305   0.509
10263SOL     OW31687   5.962   0.865   1.559
10263SOL    HW131688   5.971   0.805   1.638
10263SOL    HW231689   6.026   0.942   1.568
10264SOL     OW31690   0.090   5.982   6.080
10264SOL    HW131691   7.019   6.001   6.044
10264SOL    HW231692   0.155   5.977   6.005
10265SOL     OW31693   1.949   1.920   0.497
10265SOL    HW131694   1.910   1.830   0.479
10265SOL    HW231695   1.937   1.978   0.416
10266SOL     OW31696   3.070   3.648   2.034
10266SOL    HW131697   3.167   3.641   2.060
10266SOL    HW231698   3.046   3.744   2.021
10267SOL     OW31699   5.755   1.050   1.209
10267SOL    HW131700   5.767   0.957   1.243
10267SOL    HW231701   5.742   1.049   1.110
10268SOL     OW31702   4.077   0.218   1.434
10268SOL    HW131703   4.066   0.311   1.469
10268SOL    HW231704   3.987   0.174   1.429
10269SOL     OW31705   2.924   2.668   0.593
10269SOL    HW131706   2.846   2.640   0.537
10269SOL    HW231707   2.971   2.586   0.628
10270SOL     OW31708   2.634   0.091   2.201
10270SOL    HW131709   2.571   0.023   2.162
10270SOL    HW231710   2.720   0.046   2.224
10271SOL     OW31711   1.367   1.896   0.007
10271SOL    HW131712   1.287   1.868   6.974
10271SOL    HW231713   1.364   1.995   0.022
10272SOL     OW31714   6.633   0.167   4.966
10272SOL    HW131715   6.548   0.144   4.919
10272SOL    HW231716   6.675   0.247   4.924
10273SOL     OW31717   2.356   5.131   3.384
10273SOL    HW131718   2.400   5.166   3.301
10273SOL    HW231719   2.324   5.208   3.439
10274SOL     OW31720   0.335   5.256   5.302
10274SOL    HW131721   0.307   5.352   5.305
10274SOL    HW231722   0.414   5.246   5.242
10275SOL     OW31723   6.901   0.355   2.463
10275SOL    HW131724   6.827   0.397   2.516
10275SOL    HW231725   6.926   0.268   2.504
10276SOL     OW31726   3.585   5.808   5.862
10276SOL    HW131727   3.541   5.790   5.775
10276SOL    HW231728   3.638   5.892   5.856
10277SOL     OW31729   0.248   6.486   4.300
10277SOL    HW131730   0.194   6.530   4.372
10277SOL    HW231731   0.215   6.393   4.286
10278SOL     OW31732   6.919   0.404   5.214
10278SOL    HW131733   6.821   0.420   5.205
10278SOL    HW231734   6.963   0.485   5.252
10279SOL     OW31735   2.268   5.938   4.114
10279SOL    HW131736   2.270   5.850   4.162
10279SOL    HW231737   2.194   5.994   4.150
10280SOL     OW31738   5.494   4.171   0.675
10280SOL    HW131739   5.553   4.126   0.743
10280SOL    HW231740   5.518   4.267   0.669
10281SOL     OW31741   0.119   1.936   3.727
10281SOL    HW131742   0.144   2.027   3.693
10281SOL    HW231743   0.034   1.943   3.780
10282SOL     OW31744   5.266   3.365   3.537
10282SOL    HW131745   5.200   3.333   3.604
10282SOL    HW231746   5.358   3.359   3.576
10283SOL     OW31747   0.709   3.236   0.987
10283SOL    HW131748   0.623   3.246   1.037
10283SOL    HW231749   0.754   3.151   1.015
10284SOL     OW31750   0.322   3.114   3.835
10284SOL    HW131751   0.262   3.034   3.830
10284SOL    HW231752   0.372   3.123   3.748
10285SOL     OW31753   5.259   6.251   4.932
10285SOL    HW131754   5.261   6.314   5.010
10285SOL    HW231755   5.340   6.265   4.875
10286SOL     OW31756   2.648   1.206   3.806
10286SOL    HW131757   2.639   1.183   3.903
10286SOL    HW231758   2.644   1.305   3.794
10287SOL     OW31759   2.713   5.656   2.617
10287SOL    HW131760   2.613   5.652   2.624
10287SOL    HW231761   2.740   5.739   2.569
10288SOL     OW31762   3.628   6.801   5.571
10288SOL    HW131763   3.535   6.834   5.559
10288SOL    HW231764   3.690   6.855   5.514
10289SOL     OW31765   2.846   5.643   6.577
10289SOL    HW131766   2.766   5.636   6.518
10289SOL    HW231767   2.874   5.739   6.585
10290SOL     OW31768   3.094   3.240   2.295
10290SOL    HW131769   3.054   3.330   2.280
10290SOL    HW231770   3.191   3.242   2.269
10291SOL     OW31771   2.000   1.759   2.722
10291SOL    HW131772   1.979   1.799   2.633
10291SOL    HW231773   2.042   1.670   2.709
10292SOL     OW31774   6.057   6.390   6.696
10292SOL    HW131775   6.084   6.417   6.604
10292SOL    HW231776   6.076   6.465   6.760
10293SOL     OW31777   1.358   3.987   4.094
10293SOL    HW131778   1.420   3.954   4.022
10293SOL    HW231779   1.322   4.077   4.068
10294SOL     OW31780   4.031   1.444   2.251
10294SOL    HW131781   4.081   1.371   2.296
10294SOL    HW231782   3.995   1.507   2.320
10295SOL     OW31783   1.139   1.818   6.886
10295SOL    HW131784   1.059   1.800   6.943
10295SOL    HW231785   1.141   1.754   6.810
10296SOL     OW31786   5.591   1.491   5.648
10296SOL    HW131787   5.580   1.399   5.611
10296SOL    HW231788   5.607   1.485   5.747
10297SOL     OW31789   3.110   1.404   6.979
10297SOL    HW131790   3.177   1.352   6.926
10297SOL    HW231791   3.155   1.444   0.038
10298SOL     OW31792   0.783   2.247   2.708
10298SOL    HW131793   0.746   2.174   2.765
10298SOL    HW231794   0.707   2.295   2.664
10299SOL     OW31795   4.155   6.346   2.640
10299SOL    HW131796   4.200   6.402   2.570
10299SOL    HW231797   4.218   6.276   2.673
10300SOL     OW31798   0.720   3.554   1.814
10300SOL    HW131799   0.787   3.626   1.829
10300SOL    HW231800   0.752   3.469   1.857
10301SOL     OW31801   4.242   0.302   6.191
10301SOL    HW131802   4.183   0.319   6.112
10301SOL    HW231803   4.293   0.385   6.213
10302SOL     OW31804   2.771   6.029   4.832
10302SOL    HW131805   2.814   5.958   4.776
10302SOL    HW231806   2.755   6.111   4.777
10303SOL     OW31807   0.899   6.025   4.890
10303SOL    HW131808   0.855   5.942   4.924
10303SOL    HW231809   0.873   6.040   4.795
10304SOL     OW31810   6.275   6.714   0.153
10304SOL    HW131811   6.315   6.758   0.073
10304SOL    HW231812   6.340   6.646   0.189
10305SOL     OW31813   2.416   4.362   5.837
10305SOL    HW131814   2.393   4.316   5.751
10305SOL    HW231815   2.491   4.426   5.821
10306SOL     OW31816   4.605   0.346   1.105
10306SOL    HW131817   4.584   0.248   1.101
10306SOL    HW231818   4.552   0.394   1.035
10307SOL     OW31819   2.394   6.828   4.468
10307SOL    HW131820   2.315   6.776   4.436
10307SOL    HW231821   2.362   6.906   4.523
10308SOL     OW31822   2.796   5.138   2.458
10308SOL    HW131823   2.792   5.238   2.457
10308SOL    HW231824   2.887   5.108   2.486
10309SOL     OW31825   6.095   1.418   4.917
10309SOL    HW131826   6.049   1.506   4.904
10309SOL    HW231827   6.067   1.355   4.844
10310SOL     OW31828   2.833   3.550   6.036
10310SOL    HW131829   2.790   3.638   6.020
10310SOL    HW231830   2.893   3.528   5.959
10311SOL     OW31831   5.163   5.929   0.550
10311SOL    HW131832   5.111   5.856   0.593
10311SOL    HW231833   5.123   6.018   0.574
10312SOL     OW31834   4.353   0.475   2.016
10312SOL    HW131835   4.337   0.422   2.099
10312SOL    HW231836   4.282   0.545   2.007
10313SOL     OW31837   4.586   6.356   3.218
10313SOL    HW131838   4.623   6.266   3.237
10313SOL    HW231839   4.658   6.414   3.178
10314SOL     OW31840   0.657   0.600   1.097
10314SOL    HW131841   0.678   0.581   1.193
10314SOL    HW231842   0.583   0.667   1.091
10315SOL     OW31843   5.805   6.091   3.893
10315SOL    HW131844   5.766   5.998   3.895
10315SOL    HW231845   5.731   6.157   3.883
10316SOL     OW31846   0.805   1.980   6.896
10316SOL    HW131847   0.820   1.886   6.929
10316SOL    HW231848   0.741   2.026   6.957
10317SOL     OW31849   3.892   5.581   6.091
10317SOL    HW131850   3.870   5.641   6.013
10317SOL    HW231851   3.977   5.532   6.072
10318SOL     OW31852   6.108   6.969   0.097
10318SOL    HW131853   6.159   0.021   0.142
10318SOL    HW231854   6.086   6.898   0.164
10319SOL     OW31855   0.517   4.395   4.554
10319SOL    HW131856   0.454   4.332   4.598
10319SOL    HW231857   0.543   4.467   4.619
10320SOL     OW31858   0.687   6.953   4.096
10320SOL    HW131859   0.713   6.857   4.087
10320SOL    HW231860   0.588   6.961   4.108
10321SOL     OW31861   5.555   2.294   1.957
10321SOL    HW131862   5.592   2.204   1.980
10321SOL    HW231863   5.594   2.325   1.870
10322SOL     OW31864   4.576   4.536   5.115
10322SOL    HW131865   4.481   4.543   5.085
10322SOL    HW231866   4.636   4.570   5.043
10323SOL     OW31867   0.508   4.552   5.190
10323SOL    HW131868   0.572   4.626   5.210
10323SOL    HW231869   0.544   4.467   5.227
10324SOL     OW31870   3.359   3.205   2.260
10324SOL    HW131871   3.421   3.260   2.317
10324SOL    HW231872   3.373   3.108   2.281
10325SOL     OW31873   0.270   5.741   3.299
10325SOL    HW131874   0.206   5.668   3.277
10325SOL    HW231875   0.231   5.799   3.371
10326SOL     OW31876   5.712   3.320   6.756
10326SOL    HW131877   5.751   3.411   6.771
10326SOL    HW231878   5.751   3.281   6.673
10327SOL     OW31879   2.265   3.933   0.871
10327SOL    HW131880   2.357   3.901   0.850
10327SOL    HW231881   2.218   3.865   0.926
10328SOL     OW31882   6.300   2.876   1.869
10328SOL    HW131883   6.252   2.845   1.787
10328SOL    HW231884   6.246   2.946   1.915
10329SOL     OW31885   3.440   1.342   2.680
10329SOL    HW131886   3.342   1.350   2.699
10329SOL    HW231887   3.487   1.305   2.760
10330SOL     OW31888   4.480   0.586   1.532
10330SOL    HW131889   4.554   0.561   1.594
10330SOL    HW231890   4.429   0.663   1.570
10331SOL     OW31891   6.302   5.610   6.866
10331SOL    HW131892   6.352   5.545   6.923
10331SOL    HW231893   6.328   5.703   6.890
10332SOL     OW31894   1.179   0.776   6.677
10332SOL    HW131895   1.161   0.752   6.582
10332SOL    HW231896   1.146   0.702   6.736
10333SOL     OW31897   1.134   5.519   4.623
10333SOL    HW131898   1.091   5.531   4.713
10333SOL    HW231899   1.182   5.431   4.621
10334SOL     OW31900   3.139   0.223   3.919
10334SOL    HW131901   3.205   0.221   3.844
10334SOL    HW231902   3.149   0.140   3.974
10335SOL     OW31903   0.497   2.891   6.051
10335SOL    HW131904   0.522   2.859   6.143
10335SOL    HW231905   0.553   2.845   5.983
10336SOL     OW31906   5.307   7.013   3.221
10336SOL    HW131907   5.356   0.012   3.306
10336SOL    HW231908   5.288   0.079   3.174
10337SOL     OW31909   6.074   5.484   6.719
10337SOL    HW131910   6.075   5.490   6.619
10337SOL    HW231911   6.166   5.502   6.754
10338SOL     OW31912   2.380   6.465   1.689
10338SOL    HW131913   2.337   6.553   1.670
10338SOL    HW231914   2.311   6.401   1.724
10339SOL     OW31915   6.647   2.305   5.738
10339SOL    HW131916   6.578   2.233   5.737
10339SOL    HW231917   6.612   2.383   5.790
10340SOL     OW31918   2.162   3.953   6.374
10340SOL    HW131919   2.228   3.954   6.299
10340SOL    HW231920   2.127   3.860   6.387
10341SOL     OW31921   2.408   2.553   3.240
10341SOL    HW131922   2.504   2.530   3.253
10341SOL    HW231923   2.401   2.635   3.183
10342SOL     OW31924   1.258   1.085   3.015
10342SOL    HW131925   1.200   1.004   3.005
10342SOL    HW231926   1.274   1.126   2.925
10343SOL     OW31927   2.334   5.613   1.131
10343SOL    HW131928   2.284   5.670   1.195
10343SOL    HW231929   2.418   5.659   1.104
10344SOL     OW31930   4.212   4.776   6.293
10344SOL    HW131931   4.260   4.856   6.330
10344SOL    HW231932   4.113   4.787   6.306
10345SOL     OW31933   1.360   3.727   4.629
10345SOL    HW131934   1.379   3.652   4.692
10345SOL    HW231935   1.443   3.782   4.617
10346SOL     OW31936   0.173   5.564   1.111
10346SOL    HW131937   0.141   5.642   1.058
10346SOL    HW231938   0.139   5.572   1.205
10347SOL     OW31939   4.494   1.528   3.503
10347SOL    HW131940   4.560   1.591   3.543
10347SOL    HW231941   4.537   1.438   3.492
10348SOL     OW31942   6.185   4.316   0.611
10348SOL    HW131943   6.141   4.273   0.532
10348SOL    HW231944   6.235   4.247   0.664
10349SOL     OW31945   0.620   6.547   6.274
10349SOL    HW131946   0.551   6.516   6.339
10349SOL    HW231947   0.708   6.556   6.320
10350SOL     OW31948   2.875   0.199   5.887
10350SOL    HW131949   2.844   0.273   5.827
10350SOL    HW231950   2.975   0.193   5.883
10351SOL     OW31951   5.008   5.256   5.857
10351SOL    HW131952   5.037   5.348   5.835
10351SOL    HW231953   5.050   5.228   5.944
10352SOL     OW31954   3.651   2.908   6.220
10352SOL    HW131955   3.653   2.837   6.150
10352SOL    HW231956   3.744   2.930   6.249
10353SOL     OW31957   6.860   2.521   4.766
10353SOL    HW131958   6.917   2.504   4.685
10353SOL    HW231959   6.870   2.616   4.795
10354SOL     OW31960   5.632   1.818   2.035
10354SOL    HW131961   5.628   1.755   1.957
10354SOL    HW231962   5.601   1.771   2.117
10355SOL     OW31963   2.277   5.791   2.026
10355SOL    HW131964   2.262   5.720   2.094
10355SOL    HW231965   2.196   5.801   1.968
10356SOL     OW31966   0.065   3.740   4.958
10356SOL    HW131967   7.005   3.760   4.903
10356SOL    HW231968   0.045   3.662   5.018
10357SOL     OW31969   2.164   1.683   7.010
10357SOL    HW131970   2.070   1.695   0.019
10357SOL    HW231971   2.178   1.590   6.976
10358SOL     OW31972   0.175   1.774   1.534
10358SOL    HW131973   0.095   1.715   1.530
10358SOL    HW231974   0.184   1.813   1.625
10359SOL     OW31975   0.090   1.031   1.506
10359SOL    HW131976   0.159   1.103   1.512
10359SOL    HW231977   0.005   1.071   1.471
10360SOL     OW31978   5.743   6.329   3.522
10360SOL    HW131979   5.830   6.327   3.472
10360SOL    HW231980   5.720   6.236   3.551
10361SOL     OW31981   2.134   4.688   1.206
10361SOL    HW131982   2.133   4.622   1.131
10361SOL    HW231983   2.047   4.683   1.256
10362SOL     OW31984   1.504   4.646   4.620
10362SOL    HW131985   1.450   4.625   4.701
10362SOL    HW231986   1.599   4.618   4.635
10363SOL     OW31987   4.980   1.027   4.194
10363SOL    HW131988   5.014   1.120   4.209
10363SOL    HW231989   5.047   0.961   4.228
10364SOL     OW31990   1.590   3.949   1.367
10364SOL    HW131991   1.608   3.853   1.346
10364SOL    HW231992   1.504   3.977   1.323
10365SOL     OW31993   4.376   5.542   0.199
10365SOL    HW131994   4.453   5.502   0.149
10365SOL    HW231995   4.302   5.562   0.135
10366SOL     OW31996   3.308   6.517   3.653
10366SOL    HW131997   3.342   6.589   3.592
10366SOL    HW231998   3.241   6.461   3.605
10367SOL     OW31999   6.848   2.078   3.720
10367SOL    HW132000   6.813   1.996   3.674
10367SOL    HW232001   6.801   2.159   3.684
10368SOL     OW32002   2.195   0.693   1.455
10368SOL    HW132003   2.164   0.721   1.546
10368SOL    HW232004   2.285   0.732   1.437
10369SOL     OW32005   3.845   2.905   0.346
10369SOL    HW132006   3.804   2.910   0.255
10369SOL    HW232007   3.910   2.980   0.358
10370SOL     OW32008   3.175   0.370   4.922
10370SOL    HW132009   3.094   0.357   4.978
10370SOL    HW232010   3.149   0.397   4.830
10371SOL     OW32011   4.914   6.697   6.239
10371SOL    HW132012   4.857   6.748   6.175
10371SOL    HW232013   5.009   6.728   6.232
10372SOL     OW32014   1.163   0.606   3.050
10372SOL    HW132015   1.208   0.691   3.075
10372SOL    HW232016   1.203   0.570   2.965
10373SOL     OW32017   1.124   5.963   4.727
10373SOL    HW132018   1.043   5.949   4.785
10373SOL    HW232019   1.107   6.038   4.664
10374SOL     OW32020   3.265   2.119   3.513
10374SOL    HW132021   3.199   2.068   3.568
10374SOL    HW232022   3.306   2.191   3.569
10375SOL     OW32023   6.145   2.437   0.238
10375SOL    HW132024   6.125   2.530   0.209
10375SOL    HW232025   6.242   2.419   0.227
10376SOL     OW32026   0.400   1.023   3.928
10376SOL    HW132027   0.486   1.037   3.880
10376SOL    HW232028   0.324   1.033   3.863
10377SOL     OW32029   1.234   6.735   4.244
10377SOL    HW132030   1.136   6.714   4.241
10377SOL    HW232031   1.283   6.661   4.288
10378SOL     OW32032   0.097   6.809   6.837
10378SOL    HW132033   0.146   6.882   6.885
10378SOL    HW232034   0.122   6.810   6.741
10379SOL     OW32035   5.112   1.685   4.315
10379SOL    HW132036   5.082   1.729   4.399
10379SOL    HW232037   5.131   1.754   4.245
10380SOL     OW32038   5.448   0.653   2.590
10380SOL    HW132039   5.476   0.685   2.680
10380SOL    HW232040   5.352   0.677   2.574
10381SOL     OW32041   4.409   4.972   4.957
10381SOL    HW132042   4.493   4.977   4.903
10381SOL    HW232043   4.334   4.942   4.898
10382SOL     OW32044   2.123   5.740   0.731
10382SOL    HW132045   2.188   5.688   0.677
10382SOL    HW232046   2.159   5.832   0.749
10383SOL     OW32047   6.952   2.635   6.796
10383SOL    HW132048   6.854   2.638   6.781
10383SOL    HW232049   6.999   2.691   6.727
10384SOL     OW32050   6.133   0.105   0.386
10384SOL    HW132051   6.187   0.043   0.329
10384SOL    HW232052   6.139   0.077   0.482
10385SOL     OW32053   5.831   2.055   0.180
10385SOL    HW132054   5.753   2.073   0.240
10385SOL    HW232055   5.803   2.070   0.085
10386SOL     OW32056   5.902   2.950   6.117
10386SOL    HW132057   5.914   2.908   6.207
10386SOL    HW232058   5.826   3.015   6.120
10387SOL     OW32059   2.262   2.915   3.433
10387SOL    HW132060   2.294   2.932   3.527
10387SOL    HW232061   2.219   2.825   3.429
10388SOL     OW32062   1.486   4.602   3.038
10388SOL    HW132063   1.481   4.608   3.138
10388SOL    HW232064   1.440   4.519   3.007
10389SOL     OW32065   0.693   5.657   3.082
10389SOL    HW132066   0.750   5.739   3.082
10389SOL    HW232067   0.751   5.576   3.091
10390SOL     OW32068   1.886   3.419   3.597
10390SOL    HW132069   1.920   3.513   3.596
10390SOL    HW232070   1.961   3.356   3.575
10391SOL     OW32071   3.049   6.821   5.679
10391SOL    HW132072   3.027   6.889   5.608
10391SOL    HW232073   3.001   6.844   5.763
10392SOL     OW32074   0.017   4.992   6.437
10392SOL    HW132075   0.076   4.968   6.515
10392SOL    HW232076   0.017   5.091   6.424
10393SOL     OW32077   1.286   1.088   4.026
10393SOL    HW132078   1.225   1.065   3.951
10393SOL    HW232079   1.251   1.170   4.073
10394SOL     OW32080   2.369   6.393   7.000
10394SOL    HW132081   2.313   6.415   0.059
10394SOL    HW232082   2.343   6.303   6.965
10395SOL     OW32083   0.937   1.288   4.672
10395SOL    HW132084   0.950   1.362   4.737
10395SOL    HW232085   0.920   1.203   4.722
10396SOL     OW32086   0.364   0.080   5.420
10396SOL    HW132087   0.454   0.076   5.378
10396SOL    HW232088   0.339   7.010   5.454
10397SOL     OW32089   4.285   1.658   2.430
10397SOL    HW132090   4.246   1.601   2.502
10397SOL    HW232091   4.369   1.702   2.462
10398SOL     OW32092   6.716   2.731   2.654
10398SOL    HW132093   6.722   2.633   2.634
10398SOL    HW232094   6.627   2.752   2.693
10399SOL     OW32095   6.121   2.057   5.500
10399SOL    HW132096   6.127   1.960   5.477
10399SOL    HW232097   6.120   2.068   5.599
10400SOL     OW32098   2.394   4.240   1.383
10400SOL    HW132099   2.372   4.162   1.325
10400SOL    HW232100   2.310   4.277   1.422
10401SOL     OW32101   0.824   6.515   1.091
10401SOL    HW132102   0.824   6.416   1.110
10401SOL    HW232103   0.867   6.563   1.168
10402SOL     OW32104   0.370   2.684   4.084
10402SOL    HW132105   0.431   2.695   4.006
10402SOL    HW232106   0.425   2.674   4.168
10403SOL     OW32107   5.078   1.656   1.917
10403SOL    HW132108   5.154   1.658   1.852
10403SOL    HW232109   5.090   1.731   1.983
10404SOL     OW32110   0.051   6.447   3.519
10404SOL    HW132111   0.058   6.350   3.543
10404SOL    HW232112   0.142   6.481   3.494
10405SOL     OW32113   1.611   6.845   6.564
10405SOL    HW132114   1.522   6.808   6.537
10405SOL    HW232115   1.683   6.804   6.508
10406SOL     OW32116   2.504   4.981   5.908
10406SOL    HW132117   2.592   4.980   5.861
10406SOL    HW232118   2.474   4.887   5.923
10407SOL     OW32119   1.151   1.074   6.396
10407SOL    HW132120   1.152   1.044   6.491
10407SOL    HW232121   1.241   1.108   6.370
10408SOL     OW32122   4.118   5.463   3.002
10408SOL    HW132123   4.093   5.551   3.043
10408SOL    HW232124   4.096   5.389   3.065
10409SOL     OW32125   5.994   4.658   2.477
10409SOL    HW132126   5.956   4.725   2.414
10409SOL    HW232127   6.092   4.677   2.492
10410SOL     OW32128   5.968   6.815   0.743
10410SOL    HW132129   5.916   6.793   0.660
10410SOL    HW232130   6.007   6.907   0.735
10411SOL     OW32131   1.743   4.439   2.370
10411SOL    HW132132   1.693   4.371   2.316
10411SOL    HW232133   1.840   4.436   2.346
10412SOL     OW32134   0.596   2.125   0.038
10412SOL    HW132135   0.569   2.143   6.964
10412SOL    HW232136   0.630   2.210   0.079
10413SOL     OW32137   0.191   2.150   5.958
10413SOL    HW132138   0.225   2.237   5.996
10413SOL    HW232139   0.111   2.168   5.901
10414SOL     OW32140   5.604   0.283   5.509
10414SOL    HW132141   5.574   0.368   5.466
10414SOL    HW232142   5.593   0.207   5.444
10415SOL     OW32143   0.722   5.925   3.590
10415SOL    HW132144   0.744   5.946   3.685
10415SOL    HW232145   0.729   6.008   3.535
10416SOL     OW32146   4.665   0.204   6.931
10416SOL    HW132147   4.711   0.282   6.972
10416SOL    HW232148   4.596   0.236   6.865
10417SOL     OW32149   3.890   4.973   4.430
10417SOL    HW132150   3.843   4.885   4.428
10417SOL    HW232151   3.834   5.040   4.479
10418SOL     OW32152   6.321   3.432   6.845
10418SOL    HW132153   6.386   3.367   6.884
10418SOL    HW232154   6.271   3.478   6.918
10419SOL     OW32155   2.557   1.515   4.147
10419SOL    HW132156   2.467   1.471   4.147
10419SOL    HW232157   2.595   1.514   4.239
10420SOL     OW32158   5.531   3.333   3.592
10420SOL    HW132159   5.540   3.234   3.583
10420SOL    HW232160   5.599   3.367   3.658
10421SOL     OW32161   0.652   4.857   3.349
10421SOL    HW132162   0.592   4.850   3.428
10421SOL    HW232163   0.722   4.926   3.367
10422SOL     OW32164   6.073   3.400   4.987
10422SOL    HW132165   6.100   3.477   4.930
10422SOL    HW232166   6.129   3.398   5.070
10423SOL     OW32167   2.709   4.969   3.840
10423SOL    HW132168   2.657   5.006   3.917
10423SOL    HW232169   2.647   4.949   3.764
10424SOL     OW32170   3.339   1.711   0.429
10424SOL    HW132171   3.332   1.790   0.490
10424SOL    HW232172   3.332   1.742   0.334
10425SOL     OW32173   1.920   3.249   1.046
10425SOL    HW132174   1.922   3.343   1.013
10425SOL    HW232175   2.011   3.222   1.078
10426SOL     OW32176   6.068   2.178   6.146
10426SOL    HW132177   6.036   2.100   6.200
10426SOL    HW232178   6.160   2.160   6.113
10427SOL     OW32179   5.633   1.235   4.539
10427SOL    HW132180   5.667   1.268   4.627
10427SOL    HW232181   5.604   1.140   4.548
10428SOL     OW32182   1.758   6.870   4.890
10428SOL    HW132183   1.697   6.793   4.869
10428SOL    HW232184   1.719   6.924   4.964
10429SOL     OW32185   1.043   2.738   1.131
10429SOL    HW132186   1.093   2.787   1.202
10429SOL    HW232187   1.091   2.653   1.107
10430SOL     OW32188   3.409   0.569   4.174
10430SOL    HW132189   3.393   0.470   4.181
10430SOL    HW232190   3.414   0.595   4.077
10431SOL     OW32191   3.846   0.996   3.143
10431SOL    HW132192   3.774   0.928   3.125
10431SOL    HW232193   3.931   0.949   3.165
10432SOL     OW32194   1.124   5.624   6.215
10432SOL    HW132195   1.145   5.722   6.225
10432SOL    HW232196   1.030   5.614   6.180
10433SOL     OW32197   3.427   6.663   3.454
10433SOL    HW132198   3.516   6.699   3.424
10433SOL    HW232199   3.362   6.738   3.460
10434SOL     OW32200   4.884   1.025   6.601
10434SOL    HW132201   4.894   0.926   6.593
10434SOL    HW232202   4.817   1.047   6.672
10435SOL     OW32203   2.855   1.657   0.714
10435SOL    HW132204   2.870   1.638   0.811
10435SOL    HW232205   2.759   1.680   0.698
10436SOL     OW32206   0.182   4.012   5.012
10436SOL    HW132207   0.248   4.042   5.081
10436SOL    HW232208   0.182   3.912   5.007
10437SOL     OW32209   5.999   6.344   4.560
10437SOL    HW132210   6.029   6.250   4.575
10437SOL    HW232211   5.910   6.357   4.604
10438SOL     OW32212   6.927   6.145   6.883
10438SOL    HW132213   6.868   6.185   6.812
10438SOL    HW232214   6.874   6.079   6.936
10439SOL     OW32215   6.250   5.285   4.923
10439SOL    HW132216   6.274   5.377   4.951
10439SOL    HW232217   6.267   5.221   4.998
10440SOL     OW32218   5.930   2.623   0.984
10440SOL    HW132219   5.997   2.626   1.058
10440SOL    HW232220   5.974   2.591   0.901
10441SOL     OW32221   4.622   1.817   6.719
10441SOL    HW132222   4.624   1.872   6.802
10441SOL    HW232223   4.673   1.863   6.646
10442SOL     OW32224   1.911   1.488   4.680
10442SOL    HW132225   1.820   1.526   4.666
10442SOL    HW232226   1.967   1.504   4.599
10443SOL     OW32227   1.137   1.125   1.018
10443SOL    HW132228   1.230   1.103   0.990
10443SOL    HW232229   1.139   1.203   1.082
10444SOL     OW32230   3.710   5.102   4.584
10444SOL    HW132231   3.675   5.151   4.505
10444SOL    HW232232   3.637   5.046   4.624
10445SOL     OW32233   1.138   3.260   3.682
10445SOL    HW132234   1.086   3.272   3.597
10445SOL    HW232235   1.095   3.313   3.755
10446SOL     OW32236   2.514   5.111   5.638
10446SOL    HW132237   2.430   5.085   5.684
10446SOL    HW232238   2.590   5.057   5.674
10447SOL     OW32239   0.444   2.137   2.479
10447SOL    HW132240   0.522   2.080   2.451
10447SOL    HW232241   0.412   2.190   2.401
10448SOL     OW32242   2.670   6.590   1.963
10448SOL    HW132243   2.629   6.532   1.892
10448SOL    HW232244   2.673   6.540   2.050
10449SOL     OW32245   3.928   5.233   4.690
10449SOL    HW132246   3.829   5.221   4.680
10449SOL    HW232247   3.974   5.146   4.672
10450SOL     OW32248   6.813   0.611   4.541
10450SOL    HW132249   6.779   0.691   4.490
10450SOL    HW232250   6.774   0.611   4.633
10451SOL     OW32251   3.162   1.706   3.726
10451SOL    HW132252   3.094   1.747   3.786
10451SOL    HW232253   3.253   1.741   3.751
10452SOL     OW32254   6.621   2.937   4.773
10452SOL    HW132255   6.679   2.946   4.854
10452SOL    HW232256   6.598   2.841   4.759
10453SOL     OW32257   4.332   5.983   3.761
10453SOL    HW132258   4.278   6.066   3.773
10453SOL    HW232259   4.348   5.941   3.851
10454SOL     OW32260   6.291   1.395   6.885
10454SOL    HW132261   6.307   1.363   6.979
10454SOL    HW232262   6.193   1.406   6.869
10455SOL     OW32263   0.619   6.079   3.218
10455SOL    HW132264   0.534   6.063   3.268
10455SOL    HW232265   0.688   6.116   3.281
10456SOL     OW32266   1.300   5.556   6.614
10456SOL    HW132267   1.259   5.514   6.695
10456SOL    HW232268   1.322   5.651   6.634
10457SOL     OW32269   4.045   2.108   6.418
10457SOL    HW132270   4.082   2.083   6.329
10457SOL    HW232271   4.120   2.114   6.485
10458SOL     OW32272   0.764   5.952   6.994
10458SOL    HW132273   0.716   6.013   6.931
10458SOL    HW232274   0.721   5.861   6.992
10459SOL     OW32275   6.029   5.287   1.735
10459SOL    HW132276   6.122   5.268   1.766
10459SOL    HW232277   6.014   5.386   1.734
10460SOL     OW32278   6.666   0.521   0.641
10460SOL    HW132279   6.666   0.463   0.722
10460SOL    HW232280   6.575   0.561   0.628
10461SOL     OW32281   0.199   4.469   6.371
10461SOL    HW132282   0.153   4.392   6.415
10461SOL    HW232283   0.260   4.513   6.436
10462SOL     OW32284   3.802   3.133   6.314
10462SOL    HW132285   3.836   3.200   6.248
10462SOL    HW232286   3.787   3.177   6.402
10463SOL     OW32287   5.032   2.378   6.565
10463SOL    HW132288   5.120   2.421   6.545
10463SOL    HW232289   4.965   2.405   6.496
10464SOL     OW32290   6.200   4.510   2.699
10464SOL    HW132291   6.288   4.481   2.660
10464SOL    HW232292   6.204   4.609   2.718
10465SOL     OW32293   5.287   4.955   1.149
10465SOL    HW132294   5.188   4.955   1.166
10465SOL    HW232295   5.327   4.872   1.188
10466SOL     OW32296   6.646   4.254   5.964
10466SOL    HW132297   6.717   4.210   5.909
10466SOL    HW232298   6.688   4.309   6.035
10467SOL     OW32299   0.625   2.943   6.989
10467SOL    HW132300   0.555   2.884   0.009
10467SOL    HW232301   0.711   2.930   0.017
10468SOL     OW32302   1.571   4.517   3.480
10468SOL    HW132303   1.600   4.421   3.479
10468SOL    HW232304   1.649   4.574   3.506
10469SOL     OW32305   0.838   1.427   4.305
10469SOL    HW132306   0.896   1.363   4.355
10469SOL    HW232307   0.881   1.517   4.302
10470SOL     OW32308   1.968   3.489   3.124
10470SOL    HW132309   1.993   3.505   3.219
10470SOL    HW232310   1.869   3.472   3.117
10471SOL     OW32311   2.739   6.352   6.697
10471SOL    HW132312   2.748   6.276   6.762
10471SOL    HW232313   2.829   6.382   6.668
10472SOL     OW32314   3.248   4.703   6.773
10472SOL    HW132315   3.157   4.663   6.775
10472SOL    HW232316   3.269   4.736   6.681
10473SOL     OW32317   5.698   4.785   1.213
10473SOL    HW132318   5.788   4.798   1.173
10473SOL    HW232319   5.707   4.760   1.310
10474SOL     OW32320   5.861   0.529   5.100
10474SOL    HW132321   5.779   0.587   5.099
10474SOL    HW232322   5.835   0.434   5.085
10475SOL     OW32323   1.076   5.179   1.098
10475SOL    HW132324   1.087   5.103   1.161
10475SOL    HW232325   1.158   5.191   1.043
10476SOL     OW32326   4.873   6.632   1.123
10476SOL    HW132327   4.919   6.560   1.072
10476SOL    HW232328   4.839   6.702   1.060
10477SOL     OW32329   0.212   5.926   3.516
10477SOL    HW132330   0.134   5.946   3.575
10477SOL    HW232331   0.291   5.901   3.572
10478SOL     OW32332   6.501   0.812   6.569
10478SOL    HW132333   6.449   0.878   6.623
10478SOL    HW232334   6.526   0.734   6.627
10479SOL     OW32335   0.984   2.831   1.501
10479SOL    HW132336   0.917   2.893   1.541
10479SOL    HW232337   1.064   2.826   1.559
10480SOL     OW32338   2.400   0.652   3.687
10480SOL    HW132339   2.327   0.663   3.754
10480SOL    HW232340   2.452   0.569   3.708
10481SOL     OW32341   6.858   1.427   1.358
10481SOL    HW132342   6.897   1.336   1.369
10481SOL    HW232343   6.783   1.439   1.423
10482SOL     OW32344   5.374   2.995   3.935
10482SOL    HW132345   5.352   2.918   3.996
10482SOL    HW232346   5.327   2.983   3.848
10483SOL     OW32347   6.866   6.470   0.445
10483SOL    HW132348   6.792   6.403   0.451
10483SOL    HW232349   6.842   6.541   0.379
10484SOL     OW32350   6.243   1.277   2.663
10484SOL    HW132351   6.272   1.303   2.756
10484SOL    HW232352   6.147   1.251   2.664
10485SOL     OW32353   5.172   3.625   5.753
10485SOL    HW132354   5.117   3.690   5.701
10485SOL    HW232355   5.162   3.533   5.714
10486SOL     OW32356   5.598   3.072   2.461
10486SOL    HW132357   5.672   3.130   2.427
10486SOL    HW232358   5.549   3.033   2.383
10487SOL     OW32359   5.884   6.932   1.811
10487SOL    HW132360   5.882   6.995   1.888
10487SOL    HW232361   5.948   6.966   1.742
10488SOL     OW32362   2.254   3.110   0.106
10488SOL    HW132363   2.318   3.034   0.100
10488SOL    HW232364   2.256   3.148   0.198
10489SOL     OW32365   1.551   5.640   4.867
10489SOL    HW132366   1.457   5.671   4.878
10489SOL    HW232367   1.551   5.540   4.855
10490SOL     OW32368   6.885   0.213   3.660
10490SOL    HW132369   6.951   0.224   3.585
10490SOL    HW232370   6.809   0.277   3.646
10491SOL     OW32371   0.627   4.481   5.716
10491SOL    HW132372   0.558   4.474   5.645
10491SOL    HW232373   0.693   4.552   5.691
10492SOL     OW32374   3.824   4.116   5.819
10492SOL    HW132375   3.907   4.136   5.766
10492SOL    HW232376   3.797   4.021   5.803
10493SOL     OW32377   3.631   1.062   0.747
10493SOL    HW132378   3.558   1.008   0.705
10493SOL    HW232379   3.714   1.056   0.692
10494SOL     OW32380   5.558   2.530   4.389
10494SOL    HW132381   5.621   2.497   4.461
10494SOL    HW232382   5.509   2.452   4.351
10495SOL     OW32383   1.709   6.910   0.129
10495SOL    HW132384   1.665   6.900   0.218
10495SOL    HW232385   1.773   6.986   0.132
10496SOL     OW32386   6.434   0.560   5.470
10496SOL    HW132387   6.377   0.483   5.443
10496SOL    HW232388   6.504   0.529   5.533
10497SOL     OW32389   1.270   1.272   0.584
10497SOL    HW132390   1.257   1.313   0.494
10497SOL    HW232391   1.287   1.344   0.651
10498SOL     OW32392   2.794   5.339   5.918
10498SOL    HW132393   2.871   5.275   5.916
10498SOL    HW232394   2.715   5.295   5.961
10499SOL     OW32395   3.242   5.185   3.325
10499SOL    HW132396   3.341   5.181   3.341
10499SOL    HW232397   3.207   5.092   3.310
10500SOL     OW32398   1.176   2.481   6.897
10500SOL    HW132399   1.101   2.424   6.865
10500SOL    HW232400   1.160   2.506   6.992
10501SOL     OW32401   1.389   2.447   2.991
10501SOL    HW132402   1.393   2.399   3.079
10501SOL    HW232403   1.346   2.388   2.923
10502SOL     OW32404   3.128   6.438   5.770
10502SOL    HW132405   3.127   6.365   5.838
10502SOL    HW232406   3.068   6.414   5.694
10503SOL     OW32407   2.616   3.362   6.053
10503SOL    HW132408   2.540   3.386   5.992
10503SOL    HW232409   2.688   3.431   6.045
10504SOL     OW32410   3.116   2.938   1.022
10504SOL    HW132411   3.049   2.988   1.078
10504SOL    HW232412   3.123   2.844   1.055
10505SOL     OW32413   0.382   6.873   1.357
10505SOL    HW132414   0.357   6.952   1.414
10505SOL    HW232415   0.437   6.904   1.280
10506SOL     OW32416   0.360   4.139   5.614
10506SOL    HW132417   0.336   4.198   5.537
10506SOL    HW232418   0.439   4.083   5.589
10507SOL     OW32419   0.870   0.195   4.925
10507SOL    HW132420   0.912   0.170   4.837
10507SOL    HW232421   0.873   0.294   4.937
10508SOL     OW32422   5.117   4.524   3.043
10508SOL    HW132423   5.087   4.596   2.979
10508SOL    HW232424   5.211   4.496   3.019
10509SOL     OW32425   1.678   0.397   5.528
10509SOL    HW132426   1.652   0.482   5.481
10509SOL    HW232427   1.680   0.413   5.626
10510SOL     OW32428   6.707   5.998   6.982
10510SOL    HW132429   6.649   6.015   0.041
10510SOL    HW232430   6.741   5.904   6.984
10511SOL     OW32431   5.788   2.483   0.144
10511SOL    HW132432   5.697   2.493   0.103
10511SOL    HW232433   5.801   2.552   0.215
10512SOL     OW32434   3.638   6.213   6.515
10512SOL    HW132435   3.546   6.240   6.486
10512SOL    HW232436   3.670   6.138   6.456
10513SOL     OW32437   7.010   2.439   0.004
10513SOL    HW132438   0.033   2.359   6.985
10513SOL    HW232439   6.986   2.504   6.952
10514SOL     OW32440   6.817   3.883   1.617
10514SOL    HW132441   6.801   3.957   1.552
10514SOL    HW232442   6.906   3.840   1.599
10515SOL     OW32443   6.483   2.354   4.185
10515SOL    HW132444   6.530   2.370   4.272
10515SOL    HW232445   6.413   2.425   4.172
10516SOL     OW32446   3.967   0.175   6.489
10516SOL    HW132447   4.054   0.214   6.521
10516SOL    HW232448   3.979   0.076   6.474
10517SOL     OW32449   0.905   1.753   3.051
10517SOL    HW132450   0.871   1.777   3.142
10517SOL    HW232451   0.989   1.700   3.060
10518SOL     OW32452   0.544   0.194   1.175
10518SOL    HW132453   0.547   0.099   1.144
10518SOL    HW232454   0.589   0.200   1.265
10519SOL     OW32455   3.093   3.951   5.712
10519SOL    HW132456   3.049   3.895   5.642
10519SOL    HW232457   3.166   4.005   5.670
10520SOL     OW32458   4.205   3.696   6.483
10520SOL    HW132459   4.197   3.783   6.434
10520SOL    HW232460   4.114   3.664   6.510
10521SOL     OW32461   6.607   5.365   1.592
10521SOL    HW132462   6.637   5.411   1.675
10521SOL    HW232463   6.600   5.267   1.608
10522SOL     OW32464   6.185   0.583   1.859
10522SOL    HW132465   6.154   0.487   1.861
10522SOL    HW232466   6.254   0.593   1.788
10523SOL     OW32467   0.077   5.694   6.770
10523SOL    HW132468   0.103   5.790   6.782
10523SOL    HW232469   0.006   5.687   6.700
10524SOL     OW32470   4.053   1.248   4.311
10524SOL    HW132471   3.986   1.174   4.327
10524SOL    HW232472   4.076   1.291   4.398
10525SOL     OW32473   2.685   6.207   4.652
10525SOL    HW132474   2.683   6.167   4.560
10525SOL    HW232475   2.653   6.302   4.648
10526SOL     OW32476   5.772   6.855   2.268
10526SOL    HW132477   5.860   6.900   2.250
10526SOL    HW232478   5.703   6.893   2.206
10527SOL     OW32479   1.785   2.447   4.640
10527SOL    HW132480   1.689   2.431   4.618
10527SOL    HW232481   1.839   2.369   4.610
10528SOL     OW32482   6.534   4.869   5.578
10528SOL    HW132483   6.586   4.954   5.581
10528SOL    HW232484   6.483   4.858   5.664
10529SOL     OW32485   6.094   6.295   3.681
10529SOL    HW132486   6.051   6.297   3.591
10529SOL    HW232487   6.119   6.389   3.707
10530SOL     OW32488   2.004   1.829   5.496
10530SOL    HW132489   2.103   1.836   5.483
10530SOL    HW232490   1.981   1.737   5.528
10531SOL     OW32491   2.200   2.664   5.469
10531SOL    HW132492   2.198   2.731   5.543
10531SOL    HW232493   2.203   2.712   5.381
10532SOL     OW32494   3.630   2.954   5.300
10532SOL    HW132495   3.564   2.972   5.227
10532SOL    HW232496   3.586   2.902   5.373
10533SOL     OW32497   2.407   0.808   6.112
10533SOL    HW132498   2.360   0.736   6.163
10533SOL    HW232499   2.376   0.807   6.017
10534SOL     OW32500   5.833   5.893   1.236
10534SOL    HW132501   5.801   5.838   1.313
10534SOL    HW232502   5.925   5.927   1.255
10535SOL     OW32503   0.253   1.082   2.877
10535SOL    HW132504   0.340   1.046   2.909
10535SOL    HW232505   0.249   1.181   2.894
10536SOL     OW32506   4.600   0.067   3.505
10536SOL    HW132507   4.625   0.124   3.584
10536SOL    HW232508   4.676   0.066   3.440
10537SOL     OW32509   0.493   4.711   1.248
10537SOL    HW132510   0.530   4.775   1.181
10537SOL    HW232511   0.471   4.625   1.202
10538SOL     OW32512   5.280   3.588   0.039
10538SOL    HW132513   5.374   3.612   0.066
10538SOL    HW232514   5.266   3.489   0.051
10539SOL     OW32515   0.910   3.179   6.002
10539SOL    HW132516   0.918   3.278   5.998
10539SOL    HW232517   0.867   3.152   6.088
10540SOL     OW32518   2.830   0.540   0.018
10540SOL    HW132519   2.837   0.520   6.941
10540SOL    HW232520   2.752   0.492   0.057
10541SOL     OW32521   4.102   2.661   0.649
10541SOL    HW132522   4.173   2.592   0.656
10541SOL    HW232523   4.071   2.687   0.740
10542SOL     OW32524   1.091   2.499   0.146
10542SOL    HW132525   1.146   2.571   0.187
10542SOL    HW232526   1.033   2.458   0.216
10543SOL     OW32527   2.182   1.010   5.440
10543SOL    HW132528   2.229   0.999   5.528
10543SOL    HW232529   2.089   1.042   5.456
10544SOL     OW32530   0.713   2.579   1.877
10544SOL    HW132531   0.699   2.670   1.838
10544SOL    HW232532   0.637   2.556   1.937
10545SOL     OW32533   5.491   0.415   2.322
10545SOL    HW132534   5.500   0.515   2.322
10545SOL    HW232535   5.531   0.378   2.406
10546SOL     OW32536   3.385   1.004   4.570
10546SOL    HW132537   3.445   0.925   4.559
10546SOL    HW232538   3.412   1.075   4.505
10547SOL     OW32539   4.309   1.464   0.703
10547SOL    HW132540   4.302   1.436   0.608
10547SOL    HW232541   4.231   1.428   0.755
10548SOL     OW32542   4.718   4.310   5.200
10548SOL    HW132543   4.655   4.233   5.213
10548SOL    HW232544   4.665   4.393   5.181
10549SOL     OW32545   1.320   0.874   1.784
10549SOL    HW132546   1.403   0.902   1.832
10549SOL    HW232547   1.245   0.864   1.850
10550SOL     OW32548   5.037   6.911   5.412
10550SOL    HW132549   5.006   6.862   5.493
10550SOL    HW232550   5.040   7.009   5.432
10551SOL     OW32551   1.305   2.496   5.650
10551SOL    HW132552   1.350   2.522   5.564
10551SOL    HW232553   1.211   2.529   5.650
10552SOL     OW32554   3.048   2.164   5.302
10552SOL    HW132555   2.967   2.153   5.243
10552SOL    HW232556   3.094   2.250   5.279
10553SOL     OW32557   2.853   4.414   6.706
10553SOL    HW132558   2.778   4.371   6.654
10553SOL    HW232559   2.825   4.507   6.733
10554SOL     OW32560   6.441   4.343   5.537
10554SOL    HW132561   6.459   4.387   5.625
10554SOL    HW232562   6.374   4.397   5.485
10555SOL     OW32563   3.249   2.081   1.188
10555SOL    HW132564   3.206   1.991   1.181
10555SOL    HW232565   3.287   2.092   1.280
10556SOL     OW32566   2.173   3.321   4.002
10556SOL    HW132567   2.183   3.299   4.099
10556SOL    HW232568   2.166   3.420   3.990
10557SOL     OW32569   6.213   2.117   3.544
10557SOL    HW132570   6.280   2.049   3.574
10557SOL    HW232571   6.222   2.131   3.445
10558SOL     OW32572   5.038   6.402   5.176
10558SOL    HW132573   4.980   6.441   5.104
10558SOL    HW232574   5.039   6.464   5.255
10559SOL     OW32575   4.467   2.845   0.303
10559SOL    HW132576   4.535   2.830   0.230
10559SOL    HW232577   4.514   2.868   0.388
10560SOL     OW32578   0.436   2.671   4.607
10560SOL    HW132579   0.468   2.617   4.685
10560SOL    HW232580   0.424   2.766   4.635
10561SOL     OW32581   2.684   4.263   6.527
10561SOL    HW132582   2.596   4.243   6.485
10561SOL    HW232583   2.757   4.244   6.461
10562SOL     OW32584   3.397   1.362   0.447
10562SOL    HW132585   3.320   1.336   0.505
10562SOL    HW232586   3.416   1.288   0.382
10563SOL     OW32587   1.770   1.552   4.219
10563SOL    HW132588   1.719   1.551   4.133
10563SOL    HW232589   1.823   1.636   4.226
10564SOL     OW32590   6.609   2.160   2.339
10564SOL    HW132591   6.536   2.094   2.320
10564SOL    HW232592   6.572   2.253   2.335
10565SOL     OW32593   5.297   1.824   5.015
10565SOL    HW132594   5.244   1.896   5.060
10565SOL    HW232595   5.272   1.820   4.918
10566SOL     OW32596   3.992   4.251   7.002
10566SOL    HW132597   4.059   4.211   0.044
10566SOL    HW232598   3.969   4.344   0.012
10567SOL     OW32599   1.361   5.126   3.992
10567SOL    HW132600   1.429   5.200   3.989
10567SOL    HW232601   1.376   5.064   3.915
10568SOL     OW32602   4.293   1.475   3.250
10568SOL    HW132603   4.294   1.561   3.301
10568SOL    HW232604   4.363   1.477   3.179
10569SOL     OW32605   6.324   2.834   3.582
10569SOL    HW132606   6.350   2.920   3.538
10569SOL    HW232607   6.263   2.853   3.659
10570SOL     OW32608   1.269   4.279   2.208
10570SOL    HW132609   1.369   4.279   2.197
10570SOL    HW232610   1.243   4.205   2.270
10571SOL     OW32611   5.993   0.080   4.414
10571SOL    HW132612   5.899   0.067   4.446
10571SOL    HW232613   6.056   0.033   4.475
10572SOL     OW32614   6.535   3.367   2.071
10572SOL    HW132615   6.565   3.272   2.062
10572SOL    HW232616   6.461   3.372   2.139
10573SOL     OW32617   6.310   4.493   5.862
10573SOL    HW132618   6.218   4.529   5.842
10573SOL    HW232619   6.304   4.425   5.934
10574SOL     OW32620   0.459   1.543   2.964
10574SOL    HW132621   0.542   1.493   2.988
10574SOL    HW232622   0.424   1.511   2.876
10575SOL     OW32623   0.985   0.118   5.658
10575SOL    HW132624   0.971   0.144   5.754
10575SOL    HW232625   0.903   0.070   5.625
10576SOL     OW32626   1.745   4.732   3.236
10576SOL    HW132627   1.651   4.763   3.252
10576SOL    HW232628   1.754   4.702   3.141
10577SOL     OW32629   0.770   2.677   5.294
10577SOL    HW132630   0.805   2.584   5.290
10577SOL    HW232631   0.670   2.675   5.293
10578SOL     OW32632   6.039   0.913   5.889
10578SOL    HW132633   6.075   0.950   5.803
10578SOL    HW232634   6.016   0.816   5.877
10579SOL     OW32635   4.713   0.916   0.623
10579SOL    HW132636   4.749   0.917   0.716
10579SOL    HW232637   4.613   0.923   0.626
10580SOL     OW32638   6.764   6.158   0.221
10580SOL    HW132639   6.770   6.181   0.318
10580SOL    HW232640   6.852   6.172   0.177
10581SOL     OW32641   4.431   1.427   3.982
10581SOL    HW132642   4.483   1.512   3.986
10581SOL    HW232643   4.399   1.412   3.888
10582SOL     OW32644   3.302   4.390   6.994
10582SOL    HW132645   3.331   4.330   6.921
10582SOL    HW232646   3.292   4.338   0.058
10583SOL     OW32647   4.441   2.191   0.637
10583SOL    HW132648   4.501   2.223   0.710
10583SOL    HW232649   4.350   2.230   0.650
10584SOL     OW32650   6.405   0.667   1.630
10584SOL    HW132651   6.384   0.747   1.574
10584SOL    HW232652   6.383   0.584   1.579
10585SOL     OW32653   1.546   4.037   6.408
10585SOL    HW132654   1.577   4.117   6.356
10585SOL    HW232655   1.625   3.990   6.447
10586SOL     OW32656   3.699   1.022   0.443
10586SOL    HW132657   3.694   0.924   0.425
10586SOL    HW232658   3.783   1.042   0.495
10587SOL     OW32659   6.039   3.864   1.178
10587SOL    HW132660   5.966   3.809   1.220
10587SOL    HW232661   6.081   3.812   1.103
10588SOL     OW32662   0.495   5.221   2.783
10588SOL    HW132663   0.426   5.270   2.836
10588SOL    HW232664   0.481   5.123   2.793
10589SOL     OW32665   6.467   1.996   4.049
10589SOL    HW132666   6.382   2.033   4.086
10589SOL    HW232667   6.539   2.065   4.057
10590SOL     OW32668   1.650   0.864   4.281
10590SOL    HW132669   1.702   0.846   4.197
10590SOL    HW232670   1.553   0.868   4.260
10591SOL     OW32671   1.402   2.672   0.750
10591SOL    HW132672   1.394   2.572   0.755
10591SOL    HW232673   1.314   2.713   0.768
10592SOL     OW32674   6.268   1.809   0.044
10592SOL    HW132675   6.228   1.897   0.020
10592SOL    HW232676   6.324   1.818   0.126
10593SOL     OW32677   2.270   4.945   1.123
10593SOL    HW132678   2.315   4.912   1.040
10593SOL    HW232679   2.234   4.867   1.174
10594SOL     OW32680   1.157   2.132   4.388
10594SOL    HW132681   1.208   2.211   4.356
10594SOL    HW232682   1.090   2.105   4.318
10595SOL     OW32683   2.579   6.160   5.600
10595SOL    HW132684   2.679   6.153   5.600
10595SOL    HW232685   2.539   6.071   5.622
10596SOL     OW32686   3.506   0.980   1.971
10596SOL    HW132687   3.433   1.029   2.018
10596SOL    HW232688   3.590   1.036   1.973
10597SOL     OW32689   1.814   6.857   4.374
10597SOL    HW132690   1.897   6.896   4.414
10597SOL    HW232691   1.773   6.793   4.440
10598SOL     OW32692   1.655   1.968   0.228
10598SOL    HW132693   1.700   2.006   0.309
10598SOL    HW232694   1.655   2.036   0.155
10599SOL     OW32695   5.000   0.703   6.943
10599SOL    HW132696   4.914   0.692   6.995
10599SOL    HW232697   5.076   0.713   7.008
10600SOL     OW32698   1.773   2.741   6.111
10600SOL    HW132699   1.778   2.840   6.102
10600SOL    HW232700   1.687   2.715   6.156
10601SOL     OW32701   3.622   6.313   5.871
10601SOL    HW132702   3.694   6.363   5.823
10601SOL    HW232703   3.583   6.372   5.943
10602SOL     OW32704   4.475   0.844   2.056
10602SOL    HW132705   4.543   0.823   1.987
10602SOL    HW232706   4.397   0.891   2.014
10603SOL     OW32707   1.485   5.402   4.267
10603SOL    HW132708   1.533   5.462   4.331
10603SOL    HW232709   1.418   5.347   4.317
10604SOL     OW32710   6.976   4.695   5.229
10604SOL    HW132711   6.898   4.750   5.260
10604SOL    HW232712   6.953   4.653   5.142
10605SOL     OW32713   2.059   4.470   6.398
10605SOL    HW132714   2.040   4.385   6.349
10605SOL    HW232715   2.054   4.547   6.334
10606SOL     OW32716   0.907   0.635   2.803
10606SOL    HW132717   0.827   0.652   2.860
10606SOL    HW232718   0.896   0.681   2.715
10607SOL     OW32719   5.828   4.995   0.352
10607SOL    HW132720   5.899   4.944   0.301
10607SOL    HW232721   5.863   5.018   0.442
10608SOL     OW32722   6.308   1.259   3.345
10608SOL    HW132723   6.324   1.166   3.378
10608SOL    HW232724   6.211   1.272   3.325
10609SOL     OW32725   4.323   6.519   1.951
10609SOL    HW132726   4.291   6.575   1.875
10609SOL    HW232727   4.282   6.428   1.944
10610SOL     OW32728   1.563   3.222   4.977
10610SOL    HW132729   1.553   3.245   5.074
10610SOL    HW232730   1.646   3.168   4.964
10611SOL     OW32731   4.844   2.432   6.375
10611SOL    HW132732   4.746   2.428   6.395
10611SOL    HW232733   4.860   2.401   6.281
10612SOL     OW32734   1.346   6.995   0.871
10612SOL    HW132735   1.373   6.994   0.775
10612SOL    HW232736   1.426   6.980   0.929
10613SOL     OW32737   0.571   6.920   6.368
10613SOL    HW132738   0.603   6.937   6.275
10613SOL    HW232739   0.643   6.946   6.433
10614SOL     OW32740   6.380   1.197   4.721
10614SOL    HW132741   6.319   1.193   4.800
10614SOL    HW232742   6.470   1.161   4.746
10615SOL     OW32743   6.480   5.687   5.350
10615SOL    HW132744   6.395   5.657   5.307
10615SOL    HW232745   6.508   5.619   5.418
10616SOL     OW32746   3.152   6.129   0.374
10616SOL    HW132747   3.105   6.198   0.319
10616SOL    HW232748   3.168   6.047   0.318
10617SOL     OW32749   0.915   2.253   6.412
10617SOL    HW132750   0.830   2.228   6.368
10617SOL    HW232751   0.937   2.186   6.483
10618SOL     OW32752   5.768   4.173   1.277
10618SOL    HW132753   5.841   4.206   1.336
10618SOL    HW232754   5.680   4.188   1.321
10619SOL     OW32755   1.104   4.546   4.053
10619SOL    HW132756   1.182   4.586   4.103
10619SOL    HW232757   1.100   4.584   3.961
10620SOL     OW32758   1.139   5.729   4.149
10620SOL    HW132759   1.128   5.654   4.213
10620SOL    HW232760   1.212   5.707   4.084
10621SOL     OW32761   2.608   6.306   0.970
10621SOL    HW132762   2.621   6.375   1.041
10621SOL    HW232763   2.673   6.231   0.983
10622SOL     OW32764   4.423   1.437   1.596
10622SOL    HW132765   4.512   1.438   1.550
10622SOL    HW232766   4.436   1.428   1.694
10623SOL     OW32767   6.775   1.351   3.792
10623SOL    HW132768   6.828   1.269   3.773
10623SOL    HW232769   6.746   1.394   3.706
10624SOL     OW32770   2.464   0.963   4.526
10624SOL    HW132771   2.503   1.047   4.488
10624SOL    HW232772   2.366   0.975   4.539
10625SOL     OW32773   0.175   3.397   0.060
10625SOL    HW132774   0.236   3.461   0.107
10625SOL    HW232775   0.095   3.379   0.117
10626SOL     OW32776   6.924   1.978   1.153
10626SOL    HW132777   6.994   1.942   1.092
10626SOL    HW232778   6.960   2.057   1.203
10627SOL     OW32779   6.138   5.273   4.330
10627SOL    HW132780   6.085   5.309   4.253
10627SOL    HW232781   6.087   5.289   4.415
10628SOL     OW32782   6.416   5.793   6.142
10628SOL    HW132783   6.347   5.815   6.074
10628SOL    HW232784   6.438   5.874   6.196
10629SOL     OW32785   2.700   5.504   6.140
10629SOL    HW132786   2.735   5.460   6.057
10629SOL    HW232787   2.603   5.527   6.127
10630SOL     OW32788   6.734   1.256   2.907
10630SOL    HW132789   6.785   1.255   2.821
10630SOL    HW232790   6.715   1.350   2.933
10631SOL     OW32791   1.178   6.716   4.709
10631SOL    HW132792   1.251   6.677   4.653
10631SOL    HW232793   1.140   6.797   4.664
10632SOL     OW32794   0.545   2.826   4.981
10632SOL    HW132795   0.482   2.899   4.954
10632SOL    HW232796   0.526   2.799   5.076
10633SOL     OW32797   1.071   5.018   0.740
10633SOL    HW132798   1.100   5.094   0.682
10633SOL    HW232799   0.978   5.035   0.773
10634SOL     OW32800   3.824   6.969   1.666
10634SOL    HW132801   3.911   7.012   1.690
10634SOL    HW232802   3.754   6.998   1.732
10635SOL     OW32803   1.954   1.014   0.985
10635SOL    HW132804   1.988   0.944   1.047
10635SOL    HW232805   1.959   0.981   0.891
10636SOL     OW32806   6.711   1.785   1.142
10636SOL    HW132807   6.713   1.771   1.043
10636SOL    HW232808   6.792   1.835   1.171
10637SOL     OW32809   3.897   4.811   5.513
10637SOL    HW132810   3.874   4.733   5.455
10637SOL    HW232811   3.853   4.894   5.476
10638SOL     OW32812   6.936   0.136   5.237
10638SOL    HW132813   6.947   0.235   5.246
10638SOL    HW232814   6.959   0.108   5.144
10639SOL     OW32815   3.237   1.231   4.966
10639SOL    HW132816   3.188   1.162   4.913
10639SOL    HW232817   3.186   1.317   4.962
10640SOL     OW32818   3.572   6.891   0.470
10640SOL    HW132819   3.530   6.800   0.471
10640SOL    HW232820   3.660   6.888   0.516
10641SOL     OW32821   4.198   0.644   6.320
10641SOL    HW132822   4.117   0.590   6.342
10641SOL    HW232823   4.270   0.624   6.386
10642SOL     OW32824   0.037   3.611   0.751
10642SOL    HW132825   7.014   3.696   0.781
10642SOL    HW232826   0.135   3.616   0.772
10643SOL     OW32827   4.135   3.768   5.675
10643SOL    HW132828   4.164   3.683   5.630
10643SOL    HW232829   4.052   3.802   5.631
10644SOL     OW32830   3.535   1.463   5.009
10644SOL    HW132831   3.594   1.489   5.085
10644SOL    HW232832   3.517   1.365   5.013
10645SOL     OW32833   2.362   7.015   5.033
10645SOL    HW132834   2.460   7.004   5.016
10645SOL    HW232835   2.343   6.998   5.130
10646SOL     OW32836   0.883   3.695   6.475
10646SOL    HW132837   0.817   3.724   6.546
10646SOL    HW232838   0.899   3.597   6.483
10647SOL     OW32839   6.816   4.893   0.430
10647SOL    HW132840   6.851   4.987   0.435
10647SOL    HW232841   6.884   4.835   0.386
10648SOL     OW32842   5.065   4.247   6.508
10648SOL    HW132843   5.090   4.234   6.604
10648SOL    HW232844   5.129   4.310   6.464
10649SOL     OW32845   0.721   4.081   5.929
10649SOL    HW132846   0.752   4.071   6.024
10649SOL    HW232847   0.639   4.139   5.927
10650SOL     OW32848   2.807   0.113   3.944
10650SOL    HW132849   2.820   0.086   3.849
10650SOL    HW232850   2.888   0.162   3.976
10651SOL     OW32851   3.274   6.850   5.935
10651SOL    HW132852   3.181   6.887   5.926
10651SOL    HW232853   3.317   6.887   6.017
10652SOL     OW32854   3.441   1.132   0.280
10652SOL    HW132855   3.444   1.090   0.189
10652SOL    HW232856   3.520   1.102   0.334
10653SOL     OW32857   5.895   3.010   3.969
10653SOL    HW132858   5.799   3.025   3.947
10653SOL    HW232859   5.927   3.085   4.027
10654SOL     OW32860   4.489   1.159   1.231
10654SOL    HW132861   4.504   1.255   1.207
10654SOL    HW232862   4.391   1.139   1.230
10655SOL     OW32863   3.374   5.759   1.616
10655SOL    HW132864   3.416   5.849   1.616
10655SOL    HW232865   3.311   5.752   1.539
10656SOL     OW32866   6.068   3.279   6.130
10656SOL    HW132867   6.096   3.185   6.150
10656SOL    HW232868   6.085   3.299   6.034
10657SOL     OW32869   5.934   0.678   1.793
10657SOL    HW132870   6.025   0.676   1.835
10657SOL    HW232871   5.915   0.589   1.751
10658SOL     OW32872   0.778   6.022   4.631
10658SOL    HW132873   0.820   6.085   4.566
10658SOL    HW232874   0.679   6.040   4.636
10659SOL     OW32875   5.520   0.967   1.029
10659SOL    HW132876   5.496   1.050   0.980
10659SOL    HW232877   5.590   0.916   0.978
10660SOL     OW32878   5.182   4.763   5.526
10660SOL    HW132879   5.135   4.676   5.541
10660SOL    HW232880   5.191   4.812   5.613
10661SOL     OW32881   0.244   0.309   2.411
10661SOL    HW132882   0.177   0.361   2.358
10661SOL    HW232883   0.304   0.372   2.460
10662SOL     OW32884   5.706   1.534   0.661
10662SOL    HW132885   5.702   1.528   0.561
10662SOL    HW232886   5.794   1.572   0.689
10663SOL     OW32887   0.286   0.633   0.137
10663SOL    HW132888   0.288   0.732   0.150
10663SOL    HW232889   0.325   0.610   0.048
10664SOL     OW32890   2.000   4.535   6.695
10664SOL    HW132891   2.009   4.521   6.597
10664SOL    HW232892   2.021   4.450   6.743
10665SOL     OW32893   6.130   0.853   6.818
10665SOL    HW132894   6.099   0.895   6.903
10665SOL    HW232895   6.218   0.893   6.791
10666SOL     OW32896   0.996   0.317   6.805
10666SOL    HW132897   0.925   0.257   6.841
10666SOL    HW232898   1.077   0.312   6.863
10667SOL     OW32899   3.338   2.302   5.383
10667SOL    HW132900   3.362   2.226   5.323
10667SOL    HW232901   3.270   2.360   5.337
10668SOL     OW32902   2.155   1.099   6.088
10668SOL    HW132903   2.253   1.091   6.110
10668SOL    HW232904   2.124   1.014   6.044
10669SOL     OW32905   1.098   6.612   6.717
10669SOL    HW132906   1.083   6.648   6.809
10669SOL    HW232907   1.168   6.666   6.671
10670SOL     OW32908   0.193   4.923   5.458
10670SOL    HW132909   0.181   4.856   5.384
10670SOL    HW232910   0.272   4.981   5.438
10671SOL     OW32911   1.475   1.943   3.061
10671SOL    HW132912   1.542   2.001   3.015
10671SOL    HW232913   1.514   1.852   3.076
10672SOL     OW32914   0.307   2.747   0.811
10672SOL    HW132915   0.273   2.838   0.834
10672SOL    HW232916   0.245   2.703   0.746
10673SOL     OW32917   3.167   3.520   4.877
10673SOL    HW132918   3.218   3.604   4.857
10673SOL    HW232919   3.201   3.447   4.818
10674SOL     OW32920   4.186   1.848   2.049
10674SOL    HW132921   4.163   1.911   1.975
10674SOL    HW232922   4.281   1.818   2.039
10675SOL     OW32923   0.144   1.125   6.471
10675SOL    HW132924   0.114   1.037   6.507
10675SOL    HW232925   0.123   1.197   6.538
10676SOL     OW32926   6.647   0.371   6.999
10676SOL    HW132927   6.611   0.337   6.912
10676SOL    HW232928   6.691   0.296   0.028
10677SOL     OW32929   6.765   0.954   0.164
10677SOL    HW132930   6.722   0.964   0.074
10677SOL    HW232931   6.821   1.035   0.183
10678SOL     OW32932   2.339   5.667   2.925
10678SOL    HW132933   2.267   5.600   2.940
10678SOL    HW232934   2.353   5.720   3.009
10679SOL     OW32935   5.495   4.929   3.551
10679SOL    HW132936   5.412   4.895   3.594
10679SOL    HW232937   5.490   5.029   3.543
10680SOL     OW32938   1.729   2.196   3.716
10680SOL    HW132939   1.742   2.205   3.815
10680SOL    HW232940   1.651   2.250   3.687
10681SOL     OW32941   0.710   1.782   6.183
10681SOL    HW132942   0.789   1.800   6.241
10681SOL    HW232943   0.701   1.683   6.167
10682SOL     OW32944   6.528   1.707   2.988
10682SOL    HW132945   6.573   1.770   2.926
10682SOL    HW232946   6.493   1.757   3.067
10683SOL     OW32947   1.965   0.913   3.976
10683SOL    HW132948   1.883   0.970   3.976
10683SOL    HW232949   1.978   0.874   3.885
10684SOL     OW32950   6.246   6.197   0.471
10684SOL    HW132951   6.172   6.132   0.460
10684SOL    HW232952   6.294   6.208   0.384
10685SOL     OW32953   6.724   1.900   2.204
10685SOL    HW132954   6.681   1.895   2.114
10685SOL    HW232955   6.722   1.995   2.237
10686SOL     OW32956   4.007   4.285   0.954
10686SOL    HW132957   4.059   4.218   1.007
10686SOL    HW232958   3.909   4.266   0.965
10687SOL     OW32959   0.588   4.716   1.502
10687SOL    HW132960   0.582   4.688   1.406
10687SOL    HW232961   0.648   4.795   1.510
10688SOL     OW32962   6.725   5.959   1.582
10688SOL    HW132963   6.787   5.920   1.513
10688SOL    HW232964   6.644   5.901   1.590
10689SOL     OW32965   0.629   0.515   1.631
10689SOL    HW132966   0.584   0.604   1.630
10689SOL    HW232967   0.660   0.493   1.724
10690SOL     OW32968   4.588   6.113   2.386
10690SOL    HW132969   4.490   6.134   2.377
10690SOL    HW232970   4.642   6.185   2.344
10691SOL     OW32971   6.411   1.791   1.006
10691SOL    HW132972   6.491   1.753   0.960
10691SOL    HW232973   6.427   1.792   1.105
10692SOL     OW32974   5.164   6.235   4.651
10692SOL    HW132975   5.173   6.242   4.750
10692SOL    HW232976   5.144   6.140   4.626
10693SOL     OW32977   5.057   2.429   3.059
10693SOL    HW132978   4.979   2.452   3.118
10693SOL    HW232979   5.110   2.356   3.102
10694SOL     OW32980   3.585   6.071   0.705
10694SOL    HW132981   3.611   6.166   0.718
10694SOL    HW232982   3.517   6.065   0.631
10695SOL     OW32983   6.290   3.027   5.178
10695SOL    HW132984   6.220   3.071   5.121
10695SOL    HW232985   6.260   3.028   5.274
10696SOL     OW32986   6.130   6.972   1.646
10696SOL    HW132987   6.056   7.013   1.591
10696SOL    HW232988   6.139   6.875   1.623
10697SOL     OW32989   2.603   5.699   2.972
10697SOL    HW132990   2.513   5.689   2.929
10697SOL    HW232991   2.637   5.792   2.955
10698SOL     OW32992   2.723   0.835   3.575
10698SOL    HW132993   2.719   0.840   3.475
10698SOL    HW232994   2.639   0.795   3.610
10699SOL     OW32995   2.238   2.331   3.247
10699SOL    HW132996   2.315   2.392   3.265
10699SOL    HW232997   2.155   2.385   3.230
10700SOL     OW32998   6.518   0.889   2.108
10700SOL    HW132999   6.578   0.844   2.175
10700SOL    HW233000   6.514   0.833   2.025
10701SOL     OW33001   3.443   6.589   1.148
10701SOL    HW133002   3.515   6.656   1.129
10701SOL    HW233003   3.397   6.613   1.234
10702SOL     OW33004   5.118   3.454   0.679
10702SOL    HW133005   5.083   3.428   0.770
10702SOL    HW233006   5.114   3.375   0.618
10703SOL     OW33007   3.628   3.153   4.223
10703SOL    HW133008   3.718   3.109   4.234
10703SOL    HW233009   3.563   3.112   4.287
10704SOL     OW33010   5.689   6.348   2.244
10704SOL    HW133011   5.618   6.349   2.315
10704SOL    HW233012   5.696   6.438   2.202
10705SOL     OW33013   1.937   3.381   6.383
10705SOL    HW133014   1.917   3.361   6.479
10705SOL    HW233015   2.036   3.384   6.369
10706SOL     OW33016   3.631   2.048   1.387
10706SOL    HW133017   3.660   2.122   1.447
10706SOL    HW233018   3.702   2.030   1.319
10707SOL     OW33019   6.377   0.006   6.212
10707SOL    HW133020   6.416   0.075   6.150
10707SOL    HW233021   6.283   7.007   6.184
10708SOL     OW33022   4.835   1.046   1.684
10708SOL    HW133023   4.829   1.055   1.584
10708SOL    HW233024   4.817   1.135   1.726
10709SOL     OW33025   0.790   6.892   5.914
10709SOL    HW133026   0.853   6.860   5.843
10709SOL    HW233027   0.764   6.815   5.973
10710SOL     OW33028   6.321   5.572   3.717
10710SOL    HW133029   6.276   5.643   3.664
10710SOL    HW233030   6.253   5.507   3.751
10711SOL     OW33031   2.571   5.797   4.792
10711SOL    HW133032   2.625   5.880   4.780
10711SOL    HW233033   2.629   5.724   4.827
10712SOL     OW33034   4.326   1.278   5.537
10712SOL    HW133035   4.285   1.358   5.579
10712SOL    HW233036   4.362   1.217   5.608
10713SOL     OW33037   1.749   6.038   1.042
10713SOL    HW133038   1.716   6.084   1.124
10713SOL    HW233039   1.671   6.003   0.989
10714SOL     OW33040   6.467   5.538   6.042
10714SOL    HW133041   6.394   5.510   5.979
10714SOL    HW233042   6.444   5.627   6.081
10715SOL     OW33043   6.024   1.146   3.499
10715SOL    HW133044   5.962   1.219   3.471
10715SOL    HW233045   6.064   1.168   3.588
10716SOL     OW33046   6.476   1.084   2.648
10716SOL    HW133047   6.407   1.152   2.627
10716SOL    HW233048   6.478   1.068   2.747
10717SOL     OW33049   6.602   6.515   2.394
10717SOL    HW133050   6.562   6.586   2.450
10717SOL    HW233051   6.544   6.498   2.314
10718SOL     OW33052   1.090   3.771   5.622
10718SOL    HW133053   1.011   3.831   5.616
10718SOL    HW233054   1.106   3.746   5.718
10719SOL     OW33055   3.998   0.046   2.528
10719SOL    HW133056   4.094   0.028   2.507
10719SOL    HW233057   3.991   0.128   2.585
10720SOL     OW33058   0.280   2.919   6.624
10720SOL    HW133059   0.371   2.951   6.599
10720SOL    HW233060   0.278   2.898   6.722
10721SOL     OW33061   4.781   2.568   4.589
10721SOL    HW133062   4.842   2.528   4.657
10721SOL    HW233063   4.759   2.499   4.520
10722SOL     OW33064   6.994   4.428   0.808
10722SOL    HW133065   6.921   4.462   0.867
10722SOL    HW233066   0.062   4.453   0.847
10723SOL     OW33067   5.980   4.969   0.589
10723SOL    HW133068   6.059   4.931   0.540
10723SOL    HW233069   5.970   4.922   0.677
10724SOL     OW33070   3.409   6.949   5.694
10724SOL    HW133071   3.403   0.022   5.729
10724SOL    HW233072   3.356   6.887   5.753
10725SOL     OW33073   6.635   0.111   5.242
10725SOL    HW133074   6.734   0.117   5.255
10725SOL    HW233075   6.613   0.132   5.147
10726SOL     OW33076   5.766   1.332   4.330
10726SOL    HW133077   5.853   1.375   4.356
10726SOL    HW233078   5.718   1.301   4.413
10727SOL     OW33079   2.944   6.560   6.970
10727SOL    HW133080   2.881   6.637   6.961
10727SOL    HW233081   3.017   6.584   0.013
10728SOL     OW33082   5.706   5.802   3.843
10728SOL    HW133083   5.699   5.749   3.758
10728SOL    HW233084   5.617   5.805   3.888
10729SOL     OW33085   5.787   2.950   4.532
10729SOL    HW133086   5.828   2.970   4.621
10729SOL    HW233087   5.712   2.885   4.544
10730SOL     OW33088   1.498   5.532   3.424
10730SOL    HW133089   1.445   5.571   3.349
10730SOL    HW233090   1.436   5.508   3.499
10731SOL     OW33091   5.090   5.778   6.662
10731SOL    HW133092   5.127   5.831   6.738
10731SOL    HW233093   5.035   5.702   6.697
10732SOL     OW33094   5.975   5.827   2.715
10732SOL    HW133095   6.072   5.803   2.715
10732SOL    HW233096   5.964   5.923   2.739
10733SOL     OW33097   0.518   1.624   5.792
10733SOL    HW133098   0.479   1.704   5.837
10733SOL    HW233099   0.556   1.651   5.703
10734SOL     OW33100   1.328   0.224   4.935
10734SOL    HW133101   1.255   0.196   4.998
10734SOL    HW233102   1.386   0.146   4.915
10735SOL     OW33103   0.077   6.912   1.718
10735SOL    HW133104   0.084   6.996   1.665
10735SOL    HW233105   0.166   6.866   1.720
10736SOL     OW33106   5.114   6.141   3.629
10736SOL    HW133107   5.032   6.195   3.643
10736SOL    HW233108   5.089   6.049   3.599
10737SOL     OW33109   6.268   1.147   1.694
10737SOL    HW133110   6.343   1.087   1.723
10737SOL    HW233111   6.183   1.117   1.738
10738SOL     OW33112   2.782   0.003   1.162
10738SOL    HW133113   2.873   0.024   1.129
10738SOL    HW233114   2.715   0.061   1.115
10739SOL     OW33115   5.501   2.960   4.254
10739SOL    HW133116   5.476   2.914   4.340
10739SOL    HW233117   5.455   3.049   4.249
10740SOL     OW33118   3.103   0.259   6.148
10740SOL    HW133119   3.172   0.293   6.084
10740SOL    HW233120   3.052   0.336   6.186
10741SOL     OW33121   1.482   2.324   3.721
10741SOL    HW133122   1.434   2.346   3.806
10741SOL    HW233123   1.420   2.273   3.660
10742SOL     OW33124   6.434   6.687   1.818
10742SOL    HW133125   6.366   6.737   1.764
10742SOL    HW233126   6.518   6.742   1.824
10743SOL     OW33127   3.344   1.780   5.504
10743SOL    HW133128   3.414   1.805   5.437
10743SOL    HW233129   3.257   1.823   5.479
10744SOL     OW33130   2.909   1.138   0.866
10744SOL    HW133131   2.833   1.128   0.803
10744SOL    HW233132   2.903   1.227   0.912
10745SOL     OW33133   2.251   4.526   1.426
10745SOL    HW133134   2.345   4.556   1.442
10745SOL    HW233135   2.227   4.543   1.331
10746SOL     OW33136   2.388   5.737   6.459
10746SOL    HW133137   2.325   5.670   6.420
10746SOL    HW233138   2.397   5.721   6.557
10747SOL     OW33139   6.628   1.331   4.428
10747SOL    HW133140   6.666   1.343   4.520
10747SOL    HW233141   6.656   1.408   4.370
10748SOL     OW33142   3.371   6.875   2.001
10748SOL    HW133143   3.412   6.875   2.092
10748SOL    HW233144   3.302   6.947   1.996
10749SOL     OW33145   6.072   4.523   1.563
10749SOL    HW133146   6.106   4.554   1.653
10749SOL    HW233147   6.122   4.571   1.491
10750SOL     OW33148   4.239   1.911   4.632
10750SOL    HW133149   4.256   1.842   4.561
10750SOL    HW233150   4.148   1.896   4.670
10751SOL     OW33151   6.981   5.460   4.236
10751SOL    HW133152   6.946   5.445   4.328
10751SOL    HW233153   6.929   5.533   4.192
10752SOL     OW33154   6.721   6.248   0.497
10752SOL    HW133155   6.625   6.251   0.527
10752SOL    HW233156   6.774   6.195   0.563
10753SOL     OW33157   4.804   0.103   4.932
10753SOL    HW133158   4.830   0.194   4.900
10753SOL    HW233159   4.764   0.051   4.857
10754SOL     OW33160   1.076   4.939   2.012
10754SOL    HW133161   1.129   5.024   2.013
10754SOL    HW233162   1.124   4.869   2.064
10755SOL     OW33163   0.385   2.512   1.474
10755SOL    HW133164   0.472   2.524   1.427
10755SOL    HW233165   0.315   2.484   1.407
10756SOL     OW33166   1.466   0.783   0.269
10756SOL    HW133167   1.551   0.833   0.284
10756SOL    HW233168   1.449   0.722   0.346
10757SOL     OW33169   0.379   2.608   2.216
10757SOL    HW133170   0.306   2.665   2.254
10757SOL    HW233171   0.380   2.616   2.116
10758SOL     OW33172   0.762   0.710   6.844
10758SOL    HW133173   0.751   0.732   6.941
10758SOL    HW233174   0.672   0.692   6.804
10759SOL     OW33175   2.991   3.054   5.115
10759SOL    HW133176   2.922   3.114   5.156
10759SOL    HW233177   2.992   3.067   5.016
10760SOL     OW33178   0.971   4.460   7.015
10760SOL    HW133179   0.969   4.466   0.094
10760SOL    HW233180   0.952   4.550   6.976
10761SOL     OW33181   1.079   1.499   5.845
10761SOL    HW133182   1.163   1.543   5.875
10761SOL    HW233183   1.041   1.444   5.919
10762SOL     OW33184   2.277   6.128   6.656
10762SOL    HW133185   2.349   6.116   6.724
10762SOL    HW233186   2.289   6.062   6.582
10763SOL     OW33187   4.803   0.714   3.196
10763SOL    HW133188   4.741   0.688   3.270
10763SOL    HW233189   4.771   0.675   3.110
10764SOL     OW33190   5.067   6.608   4.725
10764SOL    HW133191   5.020   6.520   4.739
10764SOL    HW233192   5.116   6.605   4.637
10765SOL     OW33193   0.639   1.838   1.538
10765SOL    HW133194   0.588   1.917   1.572
10765SOL    HW233195   0.658   1.850   1.441
10766SOL     OW33196   2.572   5.048   6.745
10766SOL    HW133197   2.544   4.992   6.667
10766SOL    HW233198   2.651   5.104   6.718
10767SOL     OW33199   1.711   5.026   0.050
10767SOL    HW133200   1.673   4.982   0.131
10767SOL    HW233201   1.658   5.109   0.030
10768SOL     OW33202   5.161   6.301   6.701
10768SOL    HW133203   5.217   6.251   6.768
10768SOL    HW233204   5.220   6.348   6.636
10769SOL     OW33205   2.945   3.294   4.611
10769SOL    HW133206   3.015   3.343   4.559
10769SOL    HW233207   2.956   3.196   4.598
10770SOL     OW33208   5.643   0.223   3.584
10770SOL    HW133209   5.735   0.199   3.553
10770SOL    HW233210   5.628   0.187   3.676
10771SOL     OW33211   4.962   5.765   5.875
10771SOL    HW133212   4.924   5.801   5.790
10771SOL    HW233213   4.910   5.803   5.953
10772SOL     OW33214   6.010   5.056   2.077
10772SOL    HW133215   5.977   4.998   2.152
10772SOL    HW233216   6.074   5.003   2.020
10773SOL     OW33217   0.573   3.934   1.433
10773SOL    HW133218   0.650   3.994   1.456
10773SOL    HW233219   0.607   3.842   1.412
10774SOL     OW33220   0.999   3.191   0.654
10774SOL    HW133221   1.039   3.121   0.713
10774SOL    HW233222   1.053   3.275   0.662
10775SOL     OW33223   1.826   4.140   0.695
10775SOL    HW133224   1.817   4.176   0.602
10775SOL    HW233225   1.867   4.049   0.692
10776SOL     OW33226   0.702   2.720   3.584
10776SOL    HW133227   0.675   2.768   3.500
10776SOL    HW233228   0.622   2.709   3.643
10777SOL     OW33229   1.713   0.207   0.887
10777SOL    HW133230   1.670   0.260   0.814
10777SOL    HW233231   1.653   0.204   0.967
10778SOL     OW33232   4.988   0.400   3.067
10778SOL    HW133233   4.979   0.478   3.006
10778SOL    HW233234   4.920   0.330   3.043
10779SOL     OW33235   5.584   3.318   5.707
10779SOL    HW133236   5.545   3.410   5.705
10779SOL    HW233237   5.512   3.251   5.691
10780SOL     OW33238   2.163   5.171   4.189
10780SOL    HW133239   2.170   5.232   4.110
10780SOL    HW233240   2.093   5.207   4.251
10781SOL     OW33241   5.729   2.288   4.728
10781SOL    HW133242   5.762   2.361   4.668
10781SOL    HW233243   5.751   2.199   4.688
10782SOL     OW33244   0.921   1.962   5.687
10782SOL    HW133245   0.884   2.055   5.692
10782SOL    HW233246   0.888   1.909   5.765
10783SOL     OW33247   1.303   2.901   3.564
10783SOL    HW133248   1.299   2.811   3.608
10783SOL    HW233249   1.271   2.893   3.469
10784SOL     OW33250   4.347   5.767   3.604
10784SOL    HW133251   4.263   5.749   3.553
10784SOL    HW233252   4.334   5.846   3.664
10785SOL     OW33253   1.688   5.533   1.819
10785SOL    HW133254   1.739   5.605   1.865
10785SOL    HW233255   1.729   5.444   1.841
10786SOL     OW33256   4.476   2.044   2.083
10786SOL    HW133257   4.484   1.944   2.076
10786SOL    HW233258   4.404   2.076   2.021
10787SOL     OW33259   3.792   2.089   3.525
10787SOL    HW133260   3.703   2.044   3.524
10787SOL    HW233261   3.825   2.096   3.619
10788SOL     OW33262   1.832   4.207   0.446
10788SOL    HW133263   1.928   4.231   0.435
10788SOL    HW233264   1.780   4.241   0.367
10789SOL     OW33265   6.657   1.487   2.634
10789SOL    HW133266   6.729   1.422   2.656
10789SOL    HW233267   6.596   1.447   2.565
10790SOL     OW33268   6.823   1.793   5.748
10790SOL    HW133269   6.756   1.832   5.812
10790SOL    HW233270   6.892   1.861   5.726
10791SOL     OW33271   1.996   2.254   3.642
10791SOL    HW133272   1.897   2.247   3.653
10791SOL    HW233273   2.021   2.226   3.550
10792SOL     OW33274   3.511   1.720   2.320
10792SOL    HW133275   3.571   1.642   2.336
10792SOL    HW233276   3.514   1.744   2.223
10793SOL     OW33277   3.414   1.858   4.925
10793SOL    HW133278   3.344   1.905   4.871
10793SOL    HW233279   3.460   1.789   4.868
10794SOL     OW33280   5.411   2.208   0.367
10794SOL    HW133281   5.487   2.271   0.387
10794SOL    HW233282   5.332   2.232   0.425
10795SOL     OW33283   0.089   3.558   3.280
10795SOL    HW133284   0.042   3.471   3.264
10795SOL    HW233285   0.097   3.608   3.194
10796SOL     OW33286   7.011   0.365   6.119
10796SOL    HW133287   0.082   0.335   6.093
10796SOL    HW233288   6.943   0.305   6.076
10797SOL     OW33289   4.273   4.747   0.374
10797SOL    HW133290   4.281   4.657   0.331
10797SOL    HW233291   4.234   4.737   0.466
10798SOL     OW33292   1.998   6.202   6.681
10798SOL    HW133293   1.979   6.231   6.775
10798SOL    HW233294   2.085   6.154   6.678
10799SOL     OW33295   2.748   1.335   2.732
10799SOL    HW133296   2.773   1.422   2.775
10799SOL    HW233297   2.739   1.348   2.633
10800SOL     OW33298   2.325   6.925   5.307
10800SOL    HW133299   2.327   6.975   5.393
10800SOL    HW233300   2.229   6.905   5.283
10801SOL     OW33301   2.950   6.568   5.988
10801SOL    HW133302   3.001   6.561   6.074
10801SOL    HW233303   3.007   6.534   5.913
10802SOL     OW33304   0.350   5.225   4.245
10802SOL    HW133305   0.445   5.250   4.227
10802SOL    HW233306   0.290   5.299   4.216
10803SOL     OW33307   0.138   4.549   4.434
10803SOL    HW133308   0.116   4.544   4.336
10803SOL    HW233309   0.156   4.457   4.469
10804SOL     OW33310   4.835   4.513   0.873
10804SOL    HW133311   4.821   4.522   0.971
10804SOL    HW233312   4.883   4.427   0.853
10805SOL     OW33313   3.835   6.436   0.556
10805SOL    HW133314   3.842   6.337   0.563
10805SOL    HW233315   3.738   6.463   0.551
10806SOL     OW33316   6.255   4.290   6.597
10806SOL    HW133317   6.338   4.312   6.546
10806SOL    HW233318   6.174   4.317   6.544
10807SOL     OW33319   4.280   1.568   4.325
10807SOL    HW133320   4.238   1.538   4.240
10807SOL    HW233321   4.210   1.584   4.394
10808SOL     OW33322   6.930   2.043   0.178
10808SOL    HW133323   6.892   2.035   0.086
10808SOL    HW233324   0.006   2.068   0.173
10809SOL     OW33325   2.624   1.483   2.017
10809SOL    HW133326   2.685   1.413   2.056
10809SOL    HW233327   2.531   1.446   2.010
10810SOL     OW33328   1.793   1.249   6.384
10810SOL    HW133329   1.849   1.231   6.465
10810SOL    HW233330   1.851   1.283   6.310
10811SOL     OW33331   4.951   4.944   6.396
10811SOL    HW133332   5.018   4.936   6.322
10811SOL    HW233333   4.859   4.940   6.357
10812SOL     OW33334   6.626   2.667   2.111
10812SOL    HW133335   6.562   2.590   2.112
10812SOL    HW233336   6.676   2.667   2.025
10813SOL     OW33337   3.239   5.992   2.604
10813SOL    HW133338   3.259   5.995   2.702
10813SOL    HW233339   3.316   5.951   2.556
10814SOL     OW33340   2.193   5.526   4.260
10814SOL    HW133341   2.155   5.485   4.177
10814SOL    HW233342   2.120   5.543   4.326
10815SOL     OW33343   4.342   2.171   4.294
10815SOL    HW133344   4.362   2.074   4.310
10815SOL    HW233345   4.417   2.227   4.328
10816SOL     OW33346   2.267   2.230   1.938
10816SOL    HW133347   2.200   2.303   1.923
10816SOL    HW233348   2.318   2.213   1.854
10817SOL     OW33349   4.166   0.672   1.851
10817SOL    HW133350   4.112   0.605   1.902
10817SOL    HW233351   4.198   0.631   1.766
10818SOL     OW33352   4.378   2.915   6.940
10818SOL    HW133353   4.387   2.824   6.899
10818SOL    HW233354   4.412   2.984   6.875
10819SOL     OW33355   0.751   3.881   5.417
10819SOL    HW133356   0.831   3.875   5.358
10819SOL    HW233357   0.753   3.806   5.483
10820SOL     OW33358   0.303   6.799   4.286
10820SOL    HW133359   0.217   6.819   4.240
10820SOL    HW233360   0.375   6.859   4.251
10821SOL     OW33361   0.329   6.962   0.919
10821SOL    HW133362   0.316   7.008   0.831
10821SOL    HW233363   0.402   6.895   0.912
10822SOL     OW33364   0.256   4.047   6.862
10822SOL    HW133365   0.254   3.952   6.891
10822SOL    HW233366   0.308   4.101   6.927
10823SOL     OW33367   2.063   2.110   1.270
10823SOL    HW133368   2.045   2.201   1.234
10823SOL    HW233369   2.126   2.116   1.347
10824SOL     OW33370   5.097   0.881   3.471
10824SOL    HW133371   5.010   0.833   3.476
10824SOL    HW233372   5.166   0.821   3.430
10825SOL     OW33373   3.640   0.746   2.268
10825SOL    HW133374   3.715   0.734   2.204
10825SOL    HW233375   3.553   0.727   2.222
10826SOL     OW33376   6.579   2.968   1.315
10826SOL    HW133377   6.537   2.877   1.314
10826SOL    HW233378   6.636   2.977   1.396
10827SOL     OW33379   1.137   3.395   4.262
10827SOL    HW133380   1.204   3.324   4.282
10827SOL    HW233381   1.179   3.465   4.204
10828SOL     OW33382   1.296   5.918   0.485
10828SOL    HW133383   1.278   5.821   0.505
10828SOL    HW233384   1.279   5.935   0.388
10829SOL     OW33385   2.083   3.346   1.802
10829SOL    HW133386   2.130   3.423   1.844
10829SOL    HW233387   1.992   3.335   1.842
10830SOL     OW33388   5.064   1.368   3.425
10830SOL    HW133389   5.158   1.377   3.394
10830SOL    HW233390   5.060   1.301   3.499
10831SOL     OW33391   5.564   3.529   2.192
10831SOL    HW133392   5.496   3.578   2.248
10831SOL    HW233393   5.528   3.439   2.167
10832SOL     OW33394   0.352   3.486   3.109
10832SOL    HW133395   0.280   3.496   3.178
10832SOL    HW233396   0.355   3.392   3.076
10833SOL     OW33397   2.481   0.042   3.491
10833SOL    HW133398   2.440   6.984   3.445
10833SOL    HW233399   2.462   0.125   3.439
10834SOL     OW33400   6.952   1.023   5.456
10834SOL    HW133401   7.001   0.989   5.376
10834SOL    HW233402   6.872   1.075   5.428
10835SOL     OW33403   0.242   3.061   1.661
10835SOL    HW133404   0.247   2.961   1.655
10835SOL    HW233405   0.244   3.100   1.569
10836SOL     OW33406   1.991   2.894   0.726
10836SOL    HW133407   2.091   2.888   0.717
10836SOL    HW233408   1.949   2.818   0.677
10837SOL     OW33409   1.028   5.902   0.994
10837SOL    HW133410   0.973   5.913   1.077
10837SOL    HW233411   1.024   5.986   0.940
10838SOL     OW33412   6.191   6.858   0.355
10838SOL    HW133413   6.234   6.802   0.284
10838SOL    HW233414   6.161   6.798   0.430
10839SOL     OW33415   1.647   1.511   0.105
10839SOL    HW133416   1.573   1.551   0.051
10839SOL    HW233417   1.668   1.420   0.071
10840SOL     OW33418   3.296   6.338   2.440
10840SOL    HW133419   3.359   6.261   2.449
10840SOL    HW233420   3.287   6.362   2.343
10841SOL     OW33421   5.548   2.630   0.085
10841SOL    HW133422   5.471   2.575   0.117
10841SOL    HW233423   5.529   2.662   7.013
10842SOL     OW33424   5.973   2.879   1.374
10842SOL    HW133425   5.918   2.879   1.457
10842SOL    HW233426   6.001   2.786   1.352
10843SOL     OW33427   0.038   1.336   1.654
10843SOL    HW133428   6.984   1.271   1.667
10843SOL    HW233429   0.081   1.355   1.743
10844SOL     OW33430   3.991   0.288   3.381
10844SOL    HW133431   3.977   0.387   3.385
10844SOL    HW233432   4.010   0.260   3.287
10845SOL     OW33433   2.247   2.933   0.729
10845SOL    HW133434   2.330   2.909   0.780
10845SOL    HW233435   2.261   3.022   0.685
10846SOL     OW33436   3.734   1.732   1.655
10846SOL    HW133437   3.705   1.817   1.699
10846SOL    HW233438   3.654   1.677   1.633
10847SOL     OW33439   4.589   2.849   5.527
10847SOL    HW133440   4.678   2.895   5.528
10847SOL    HW233441   4.556   2.843   5.432
10848SOL     OW33442   1.420   0.948   6.413
10848SOL    HW133443   1.351   0.875   6.416
10848SOL    HW233444   1.498   0.922   6.470
10849SOL     OW33445   2.056   5.349   3.542
10849SOL    HW133446   2.154   5.342   3.523
10849SOL    HW233447   2.020   5.434   3.504
10850SOL     OW33448   5.694   0.560   2.160
10850SOL    HW133449   5.768   0.619   2.128
10850SOL    HW233450   5.612   0.616   2.175
10851SOL     OW33451   4.704   1.956   6.494
10851SOL    HW133452   4.639   2.030   6.510
10851SOL    HW233453   4.789   1.993   6.458
10852SOL     OW33454   6.924   0.452   5.835
10852SOL    HW133455   6.845   0.403   5.871
10852SOL    HW233456   6.985   0.475   5.911
10853SOL     OW33457   2.611   0.678   4.635
10853SOL    HW133458   2.594   0.755   4.574
10853SOL    HW233459   2.706   0.648   4.624
10854SOL     OW33460   0.079   6.828   0.689
10854SOL    HW133461   0.031   6.840   0.776
10854SOL    HW233462   0.175   6.855   0.700
10855SOL     OW33463   0.502   5.353   1.264
10855SOL    HW133464   0.568   5.352   1.339
10855SOL    HW233465   0.492   5.261   1.226
10856SOL     OW33466   5.675   0.407   6.692
10856SOL    HW133467   5.605   0.460   6.644
10856SOL    HW233468   5.645   0.388   6.785
10857SOL     OW33469   6.808   0.403   4.844
10857SOL    HW133470   6.781   0.499   4.838
10857SOL    HW233471   6.900   0.396   4.882
10858SOL     OW33472   1.928   2.091   0.288
10858SOL    HW133473   1.981   2.082   0.204
10858SOL    HW233474   1.884   2.181   0.291
10859SOL     OW33475   1.253   5.822   1.942
10859SOL    HW133476   1.335   5.877   1.957
10859SOL    HW233477   1.257   5.781   1.851
10860SOL     OW33478   6.251   2.807   1.611
10860SOL    HW133479   6.187   2.759   1.551
10860SOL    HW233480   6.282   2.891   1.567
10861SOL     OW33481   2.267   3.845   1.445
10861SOL    HW133482   2.319   3.904   1.383
10861SOL    HW233483   2.327   3.814   1.518
10862SOL     OW33484   3.581   4.352   5.237
10862SOL    HW133485   3.500   4.295   5.247
10862SOL    HW233486   3.649   4.304   5.182
10863SOL     OW33487   2.096   0.571   3.326
10863SOL    HW133488   2.013   0.584   3.381
10863SOL    HW233489   2.138   0.484   3.350
10864SOL     OW33490   3.013   4.196   1.763
10864SOL    HW133491   2.983   4.285   1.796
10864SOL    HW233492   3.106   4.204   1.726
10865SOL     OW33493   3.952   1.650   2.470
10865SOL    HW133494   3.926   1.708   2.547
10865SOL    HW233495   3.945   1.703   2.385
10866SOL     OW33496   1.053   3.463   3.855
10866SOL    HW133497   1.141   3.507   3.836
10866SOL    HW233498   1.009   3.509   3.932
10867SOL     OW33499   4.665   2.642   6.936
10867SOL    HW133500   4.566   2.642   6.926
10867SOL    HW233501   4.701   2.551   6.914
10868SOL     OW33502   1.485   6.809   5.022
10868SOL    HW133503   1.543   6.727   5.026
10868SOL    HW233504   1.389   6.781   5.026
10869NA      NA33505   6.713   1.103   6.196
10870NA      NA33506   4.234   4.615   5.280
10871NA      NA33507   1.448   4.772   2.849
10872NA      NA33508   5.520   3.666   2.835
10873NA      NA33509   3.663   2.698   5.668
10874NA      NA33510   2.314   4.938   0.075
10875NA      NA33511   1.745   5.429   6.549
10876NA      NA33512   4.151   4.921   1.442
10877NA      NA33513   5.264   4.564   0.675
10878NA      NA33514   3.547   1.557   0.501
10879NA      NA33515   5.434   6.869   1.774
10880NA      NA33516   2.475   6.498   5.125
10881NA      NA33517   4.294   4.955   2.426
10882NA      NA33518   4.252   3.983   6.835
   7.02060   7.02060   7.02060
