Generated by trjconv : CNT in water t= 308.00000
33518
    1C        C    1   2.844   2.772   4.751
    1C        C    2   2.902   2.724   4.871
    1C        C    3   2.849   2.783   4.986
    1C        C    4   2.855   2.778   4.265
    1C        C    5   2.904   2.728   4.388
    1C        C    6   2.844   2.772   4.509
    1C        C    7   3.016   2.645   4.628
    1C        C    8   2.900   2.725   4.630
    1C        C    9   3.079   2.608   4.749
    1C        C   10   3.012   2.635   4.870
    1C        C   11   3.186   2.499   4.982
    1C        C   12   3.061   2.562   4.978
    1C        C   13   2.852   2.772   3.773
    1C        C   14   2.905   2.727   3.896
    1C        C   15   2.854   2.777   4.018
    1C        C   16   3.020   2.650   4.140
    1C        C   17   2.907   2.734   4.141
    1C        C   18   3.081   2.615   4.262
    1C        C   19   3.021   2.649   4.386
    1C        C   20   3.214   2.562   4.506
    1C        C   21   3.082   2.610   4.507
    1C        C   22   3.281   2.542   4.629
    1C        C   23   3.209   2.550   4.751
    1C        C   24   3.416   2.487   4.868
    1C        C   25   3.274   2.505   4.869
    1C        C   26   3.492   2.480   4.985
    1C        C   27   2.849   2.770   3.283
    1C        C   28   2.907   2.728   3.405
    1C        C   29   2.856   2.776   3.528
    1C        C   30   3.023   2.647   3.652
    1C        C   31   2.910   2.732   3.651
    1C        C   32   3.082   2.605   3.773
    1C        C   33   3.017   2.640   3.894
    1C        C   34   3.209   2.555   4.018
    1C        C   35   3.078   2.609   4.017
    1C        C   36   3.277   2.538   4.140
    1C        C   37   3.211   2.559   4.263
    1C        C   38   3.420   2.509   4.382
    1C        C   39   3.282   2.540   4.384
    1C        C   40   3.488   2.497   4.505
    1C        C   41   3.416   2.502   4.627
    1C        C   42   3.631   2.495   4.746
    1C        C   43   3.489   2.486   4.746
    1C        C   44   3.706   2.493   4.866
    1C        C   45   3.631   2.481   4.984
    1C        C   46   2.841   2.760   2.796
    1C        C   47   2.897   2.713   2.917
    1C        C   48   2.852   2.768   3.039
    1C        C   49   3.022   2.643   3.165
    1C        C   50   2.906   2.724   3.162
    1C        C   51   3.083   2.602   3.286
    1C        C   52   3.022   2.645   3.406
    1C        C   53   3.211   2.553   3.529
    1C        C   54   3.082   2.611   3.529
    1C        C   55   3.279   2.528   3.651
    1C        C   56   3.213   2.551   3.774
    1C        C   57   3.418   2.507   3.896
    1C        C   58   3.279   2.535   3.897
    1C        C   59   3.488   2.510   4.019
    1C        C   60   3.417   2.518   4.141
    1C        C   61   3.632   2.504   4.262
    1C        C   62   3.491   2.503   4.260
    1C        C   63   3.704   2.513   4.383
    1C        C   64   3.630   2.502   4.503
    1C        C   65   3.837   2.550   4.628
    1C        C   66   3.701   2.512   4.624
    1C        C   67   3.910   2.562   4.748
    1C        C   68   3.840   2.535   4.868
    1C        C   69   4.049   2.593   4.984
    1C        C   70   3.921   2.535   4.982
    1C        C   71   2.823   2.736   2.313
    1C        C   72   2.886   2.698   2.434
    1C        C   73   2.831   2.747   2.555
    1C        C   74   3.014   2.633   2.677
    1C        C   75   2.896   2.710   2.675
    1C        C   76   3.076   2.598   2.799
    1C        C   77   3.015   2.635   2.921
    1C        C   78   3.209   2.547   3.038
    1C        C   79   3.080   2.604   3.043
    1C        C   80   3.278   2.529   3.160
    1C        C   81   3.213   2.547   3.284
    1C        C   82   3.418   2.504   3.404
    1C        C   83   3.279   2.531   3.408
    1C        C   84   3.486   2.498   3.528
    1C        C   85   3.418   2.506   3.652
    1C        C   86   3.631   2.501   3.772
    1C        C   87   3.489   2.503   3.774
    1C        C   88   3.700   2.512   3.894
    1C        C   89   3.629   2.510   4.016
    1C        C   90   3.836   2.549   4.140
    1C        C   91   3.700   2.513   4.139
    1C        C   92   3.904   2.575   4.262
    1C        C   93   3.841   2.550   4.385
    1C        C   94   4.031   2.642   4.503
    1C        C   95   3.905   2.577   4.508
    1C        C   96   4.092   2.675   4.626
    1C        C   97   4.038   2.624   4.746
    1C        C   98   4.194   2.769   4.864
    1C        C   99   4.100   2.661   4.869
    1C        C  100   4.218   2.844   4.980
    1C        C  101   2.824   2.729   2.073
    1C        C  102   2.993   2.597   2.196
    1C        C  103   2.877   2.682   2.194
    1C        C  104   3.069   2.584   2.315
    1C        C  105   3.006   2.625   2.435
    1C        C  106   3.205   2.542   2.552
    1C        C  107   3.075   2.597   2.555
    1C        C  108   3.274   2.521   2.674
    1C        C  109   3.209   2.550   2.796
    1C        C  110   3.418   2.502   2.916
    1C        C  111   3.279   2.528   2.916
    1C        C  112   3.489   2.495   3.038
    1C        C  113   3.418   2.510   3.159
    1C        C  114   3.629   2.499   3.283
    1C        C  115   3.488   2.496   3.281
    1C        C  116   3.698   2.513   3.405
    1C        C  117   3.627   2.504   3.528
    1C        C  118   3.836   2.546   3.650
    1C        C  119   3.700   2.511   3.649
    1C        C  120   3.902   2.572   3.773
    1C        C  121   3.836   2.550   3.896
    1C        C  122   4.026   2.644   4.017
    1C        C  123   3.901   2.579   4.018
    1C        C  124   4.092   2.675   4.138
    1C        C  125   4.030   2.639   4.260
    1C        C  126   4.200   2.769   4.380
    1C        C  127   4.092   2.679   4.381
    1C        C  128   4.246   2.823   4.502
    1C        C  129   4.194   2.773   4.623
    1C        C  130   4.327   2.940   4.742
    1C        C  131   4.247   2.823   4.744
    1C        C  132   4.352   3.010   4.862
    1C        C  133   4.286   2.965   4.977
    1C        C  134   3.177   2.484   2.082
    1C        C  135   3.041   2.518   2.087
    1C        C  136   3.262   2.482   2.193
    1C        C  137   3.200   2.528   2.311
    1C        C  138   3.410   2.487   2.432
    1C        C  139   3.271   2.508   2.432
    1C        C  140   3.484   2.482   2.552
    1C        C  141   3.414   2.499   2.673
    1C        C  142   3.629   2.496   2.794
    1C        C  143   3.488   2.489   2.793
    1C        C  144   3.700   2.504   2.916
    1C        C  145   3.630   2.493   3.038
    1C        C  146   3.836   2.543   3.158
    1C        C  147   3.700   2.503   3.160
    1C        C  148   3.902   2.567   3.281
    1C        C  149   3.836   2.543   3.403
    1C        C  150   4.027   2.631   3.524
    1C        C  151   3.901   2.566   3.526
    1C        C  152   4.088   2.668   3.646
    1C        C  153   4.030   2.632   3.769
    1C        C  154   4.194   2.765   3.891
    1C        C  155   4.082   2.680   3.892
    1C        C  156   4.247   2.815   4.013
    1C        C  157   4.200   2.765   4.136
    1C        C  158   4.339   2.928   4.255
    1C        C  159   4.253   2.816   4.257
    1C        C  160   4.375   2.989   4.377
    1C        C  161   4.331   2.936   4.500
    1C        C  162   4.436   3.123   4.619
    1C        C  163   4.370   2.998   4.621
    1C        C  164   4.472   3.188   4.740
    1C        C  165   4.438   3.123   4.860
    1C        C  166   4.518   3.323   4.978
    1C        C  167   4.477   3.190   4.977
    1C        C  168   3.478   2.439   2.075
    1C        C  169   3.402   2.463   2.191
    1C        C  170   3.621   2.469   2.308
    1C        C  171   3.479   2.472   2.309
    1C        C  172   3.695   2.490   2.426
    1C        C  173   3.625   2.490   2.549
    1C        C  174   3.833   2.538   2.666
    1C        C  175   3.696   2.505   2.670
    1C        C  176   3.901   2.557   2.789
    1C        C  177   3.838   2.536   2.913
    1C        C  178   4.031   2.625   3.034
    1C        C  179   3.903   2.566   3.036
    1C        C  180   4.090   2.665   3.156
    1C        C  181   4.029   2.628   3.279
    1C        C  182   4.196   2.758   3.401
    1C        C  183   4.087   2.667   3.401
    1C        C  184   4.248   2.807   3.523
    1C        C  185   4.196   2.760   3.646
    1C        C  186   4.338   2.918   3.764
    1C        C  187   4.244   2.813   3.768
    1C        C  188   4.369   2.984   3.885
    1C        C  189   4.330   2.929   4.009
    1C        C  190   4.439   3.111   4.131
    1C        C  191   4.374   2.986   4.131
    1C        C  192   4.469   3.177   4.252
    1C        C  193   4.442   3.114   4.376
    1C        C  194   4.509   3.319   4.492
    1C        C  195   4.465   3.185   4.496
    1C        C  196   4.522   3.390   4.613
    1C        C  197   4.515   3.323   4.737
    1C        C  198   4.555   3.536   4.858
    1C        C  199   4.533   3.394   4.859
    1C        C  200   4.587   3.622   4.967
    1C        C  201   3.617   2.424   2.073
    1C        C  202   3.830   2.508   2.186
    1C        C  203   3.696   2.459   2.188
    1C        C  204   3.903   2.538   2.304
    1C        C  205   3.834   2.519   2.426
    1C        C  206   4.029   2.613   2.544
    1C        C  207   3.905   2.545   2.545
    1C        C  208   4.088   2.655   2.666
    1C        C  209   4.026   2.622   2.788
    1C        C  210   4.197   2.752   2.911
    1C        C  211   4.084   2.666   2.910
    1C        C  212   4.252   2.802   3.031
    1C        C  213   4.198   2.756   3.153
    1C        C  214   4.331   2.915   3.273
    1C        C  215   4.245   2.804   3.277
    1C        C  216   4.369   2.974   3.396
    1C        C  217   4.331   2.921   3.521
    1C        C  218   4.437   3.106   3.640
    1C        C  219   4.376   2.979   3.642
    1C        C  220   4.464   3.172   3.762
    1C        C  221   4.435   3.110   3.885
    1C        C  222   4.503   3.311   4.005
    1C        C  223   4.464   3.175   4.007
    1C        C  224   4.517   3.381   4.126
    1C        C  225   4.504   3.313   4.250
    1C        C  226   4.525   3.528   4.371
    1C        C  227   4.524   3.387   4.369
    1C        C  228   4.523   3.602   4.491
    1C        C  229   4.535   3.531   4.613
    1C        C  230   4.512   3.743   4.730
    1C        C  231   4.538   3.604   4.734
    1C        C  232   4.506   3.823   4.846
    1C        C  233   4.545   3.756   4.963
    1C        C  234   4.015   2.616   2.065
    1C        C  235   3.898   2.542   2.068
    1C        C  236   4.088   2.649   2.180
    1C        C  237   4.027   2.607   2.300
    1C        C  238   4.203   2.733   2.424
    1C        C  239   4.090   2.647   2.421
    1C        C  240   4.251   2.790   2.543
    1C        C  241   4.199   2.743   2.666
    1C        C  242   4.336   2.907   2.784
    1C        C  243   4.246   2.798   2.787
    1C        C  244   4.379   2.969   2.904
    1C        C  245   4.338   2.914   3.027
    1C        C  246   4.442   3.096   3.153
    1C        C  247   4.373   2.973   3.151
    1C        C  248   4.458   3.165   3.275
    1C        C  249   4.432   3.101   3.398
    1C        C  250   4.498   3.307   3.516
    1C        C  251   4.465   3.170   3.517
    1C        C  252   4.512   3.377   3.638
    1C        C  253   4.501   3.308   3.761
    1C        C  254   4.522   3.521   3.880
    1C        C  255   4.517   3.379   3.882
    1C        C  256   4.519   3.591   4.003
    1C        C  257   4.523   3.523   4.126
    1C        C  258   4.490   3.734   4.243
    1C        C  259   4.520   3.596   4.247
    1C        C  260   4.471   3.806   4.364
    1C        C  261   4.493   3.740   4.487
    1C        C  262   4.432   3.942   4.608
    1C        C  263   4.480   3.809   4.609
    1C        C  264   4.406   4.015   4.726
    1C        C  265   4.440   3.948   4.846
    1C        C  266   4.327   4.129   4.961
    1C        C  267   4.399   4.011   4.964
    1C        C  268   4.261   2.781   2.063
    1C        C  269   4.199   2.736   2.181
    1C        C  270   4.345   2.891   2.300
    1C        C  271   4.256   2.780   2.302
    1C        C  272   4.379   2.961   2.419
    1C        C  273   4.337   2.903   2.540
    1C        C  274   4.450   3.085   2.663
    1C        C  275   4.376   2.964   2.661
    1C        C  276   4.476   3.155   2.782
    1C        C  277   4.445   3.094   2.906
    1C        C  278   4.503   3.294   3.027
    1C        C  279   4.475   3.156   3.029
    1C        C  280   4.511   3.368   3.147
    1C        C  281   4.499   3.300   3.271
    1C        C  282   4.522   3.514   3.392
    1C        C  283   4.510   3.373   3.392
    1C        C  284   4.521   3.586   3.514
    1C        C  285   4.522   3.518   3.638
    1C        C  286   4.494   3.730   3.754
    1C        C  287   4.523   3.592   3.758
    1C        C  288   4.473   3.793   3.878
    1C        C  289   4.492   3.730   4.003
    1C        C  290   4.434   3.939   4.119
    1C        C  291   4.479   3.805   4.122
    1C        C  292   4.402   4.002   4.241
    1C        C  293   4.424   3.939   4.366
    1C        C  294   4.329   4.130   4.481
    1C        C  295   4.398   4.007   4.487
    1C        C  296   4.294   4.193   4.603
    1C        C  297   4.337   4.139   4.726
    1C        C  298   4.207   4.317   4.840
    1C        C  299   4.291   4.201   4.846
    1C        C  300   4.178   4.408   4.946
    1C        C  301   4.355   2.883   2.065
    1C        C  302   4.470   3.070   2.181
    1C        C  303   4.402   2.944   2.182
    1C        C  304   4.485   3.147   2.299
    1C        C  305   4.448   3.084   2.420
    1C        C  306   4.513   3.287   2.539
    1C        C  307   4.479   3.150   2.541
    1C        C  308   4.518   3.361   2.659
    1C        C  309   4.505   3.293   2.783
    1C        C  310   4.527   3.505   2.903
    1C        C  311   4.517   3.364   2.905
    1C        C  312   4.525   3.580   3.023
    1C        C  313   4.517   3.509   3.145
    1C        C  314   4.493   3.720   3.266
    1C        C  315   4.511   3.580   3.268
    1C        C  316   4.482   3.791   3.387
    1C        C  317   4.503   3.726   3.510
    1C        C  318   4.431   3.929   3.631
    1C        C  319   4.486   3.799   3.630
    1C        C  320   4.394   3.990   3.752
    1C        C  321   4.422   3.925   3.874
    1C        C  322   4.321   4.114   3.991
    1C        C  323   4.393   3.993   3.995
    1C        C  324   4.278   4.170   4.114
    1C        C  325   4.329   4.123   4.237
    1C        C  326   4.190   4.286   4.356
    1C        C  327   4.289   4.185   4.357
    1C        C  328   4.137   4.336   4.477
    1C        C  329   4.195   4.293   4.599
    1C        C  330   4.029   4.435   4.717
    1C        C  331   4.144   4.351   4.717
    1C        C  332   3.973   4.485   4.836
    1C        C  333   4.056   4.477   4.949
    1C        C  334   4.561   3.268   2.065
    1C        C  335   4.538   3.130   2.070
    1C        C  336   4.536   3.353   2.174
    1C        C  337   4.514   3.287   2.297
    1C        C  338   4.529   3.499   2.412
    1C        C  339   4.525   3.358   2.418
    1C        C  340   4.526   3.571   2.534
    1C        C  341   4.525   3.502   2.657
    1C        C  342   4.497   3.711   2.775
    1C        C  343   4.523   3.573   2.779
    1C        C  344   4.480   3.784   2.895
    1C        C  345   4.499   3.718   3.019
    1C        C  346   4.434   3.920   3.139
    1C        C  347   4.477   3.786   3.141
    1C        C  348   4.401   3.985   3.260
    1C        C  349   4.430   3.923   3.383
    1C        C  350   4.324   4.106   3.505
    1C        C  351   4.399   3.986   3.506
    1C        C  352   4.282   4.168   3.625
    1C        C  353   4.321   4.112   3.748
    1C        C  354   4.183   4.274   3.868
    1C        C  355   4.280   4.171   3.869
    1C        C  356   4.126   4.317   3.990
    1C        C  357   4.177   4.268   4.112
    1C        C  358   4.015   4.404   4.232
    1C        C  359   4.130   4.323   4.234
    1C        C  360   3.959   4.453   4.353
    1C        C  361   4.021   4.416   4.474
    1C        C  362   3.833   4.518   4.595
    1C        C  363   3.962   4.460   4.595
    1C        C  364   3.767   4.549   4.716
    1C        C  365   3.844   4.542   4.835
    1C        C  366   3.636   4.602   4.949
    1C        C  367   3.773   4.580   4.949
    1C        C  368   4.524   3.569   2.054
    1C        C  369   4.529   3.494   2.173
    1C        C  370   4.502   3.711   2.288
    1C        C  371   4.525   3.571   2.291
    1C        C  372   4.490   3.781   2.410
    1C        C  373   4.506   3.711   2.532
    1C        C  374   4.432   3.912   2.652
    1C        C  375   4.485   3.781   2.653
    1C        C  376   4.403   3.979   2.773
    1C        C  377   4.432   3.917   2.896
    1C        C  378   4.323   4.101   3.015
    1C        C  379   4.400   3.982   3.017
    1C        C  380   4.276   4.155   3.137
    1C        C  381   4.320   4.101   3.260
    1C        C  382   4.181   4.260   3.380
    1C        C  383   4.283   4.162   3.382
    1C        C  384   4.128   4.309   3.501
    1C        C  385   4.184   4.270   3.625
    1C        C  386   4.008   4.391   3.744
    1C        C  387   4.130   4.320   3.745
    1C        C  388   3.944   4.425   3.865
    1C        C  389   4.010   4.398   3.987
    1C        C  390   3.822   4.492   4.113
    1C        C  391   3.951   4.434   4.110
    1C        C  392   3.758   4.525   4.234
    1C        C  393   3.830   4.510   4.355
    1C        C  394   3.620   4.555   4.476
    1C        C  395   3.760   4.531   4.475
    1C        C  396   3.549   4.571   4.597
    1C        C  397   3.627   4.564   4.715
    1C        C  398   3.417   4.555   4.843
    1C        C  399   3.556   4.579   4.836
    1C        C  400   3.347   4.531   4.962
    1C        C  401   4.517   3.708   2.054
    1C        C  402   4.459   3.921   2.168
    1C        C  403   4.503   3.787   2.169
    1C        C  404   4.418   3.982   2.289
    1C        C  405   4.445   3.915   2.410
    1C        C  406   4.325   4.094   2.528
    1C        C  407   4.403   3.976   2.530
    1C        C  408   4.280   4.151   2.649
    1C        C  409   4.320   4.093   2.772
    1C        C  410   4.172   4.248   2.892
    1C        C  411   4.278   4.154   2.892
    1C        C  412   4.123   4.299   3.014
    1C        C  413   4.175   4.254   3.137
    1C        C  414   4.005   4.381   3.259
    1C        C  415   4.122   4.303   3.259
    1C        C  416   3.944   4.415   3.382
    1C        C  417   4.007   4.383   3.504
    1C        C  418   3.813   4.478   3.621
    1C        C  419   3.945   4.428   3.623
    1C        C  420   3.749   4.504   3.744
    1C        C  421   3.817   4.486   3.867
    1C        C  422   3.613   4.534   3.989
    1C        C  423   3.752   4.509   3.991
    1C        C  424   3.547   4.544   4.113
    1C        C  425   3.618   4.543   4.235
    1C        C  426   3.405   4.558   4.358
    1C        C  427   3.546   4.560   4.356
    1C        C  428   3.335   4.557   4.481
    1C        C  429   3.408   4.563   4.602
    1C        C  430   3.201   4.520   4.726
    1C        C  431   3.340   4.547   4.725
    1C        C  432   3.132   4.497   4.848
    1C        C  433   3.211   4.501   4.963
    1C        C  434   4.386   4.128   2.055
    1C        C  435   4.449   4.003   2.055
    1C        C  436   4.303   4.164   2.165
    1C        C  437   4.339   4.100   2.287
    1C        C  438   4.189   4.257   2.405
    1C        C  439   4.288   4.156   2.407
    1C        C  440   4.132   4.304   2.526
    1C        C  441   4.183   4.254   2.647
    1C        C  442   4.008   4.377   2.769
    1C        C  443   4.122   4.293   2.768
    1C        C  444   3.944   4.411   2.890
    1C        C  445   4.006   4.379   3.013
    1C        C  446   3.813   4.464   3.134
    1C        C  447   3.946   4.415   3.135
    1C        C  448   3.744   4.487   3.255
    1C        C  449   3.814   4.470   3.377
    1C        C  450   3.610   4.535   3.499
    1C        C  451   3.746   4.496   3.498
    1C        C  452   3.541   4.545   3.622
    1C        C  453   3.611   4.536   3.745
    1C        C  454   3.401   4.554   3.868
    1C        C  455   3.543   4.548   3.867
    1C        C  456   3.332   4.544   3.991
    1C        C  457   3.406   4.548   4.111
    1C        C  458   3.203   4.503   4.239
    1C        C  459   3.338   4.544   4.235
    1C        C  460   3.135   4.484   4.362
    1C        C  461   3.199   4.518   4.483
    1C        C  462   3.006   4.430   4.605
    1C        C  463   3.133   4.493   4.605
    1C        C  464   2.939   4.400   4.726
    1C        C  465   2.997   4.448   4.846
    1C        C  466   2.809   4.339   4.965
    1C        C  467   2.912   4.434   4.960
    1C        C  468   4.131   4.294   2.044
    1C        C  469   4.187   4.249   2.164
    1C        C  470   4.010   4.374   2.283
    1C        C  471   4.132   4.302   2.284
    1C        C  472   3.941   4.402   2.403
    1C        C  473   4.009   4.374   2.524
    1C        C  474   3.816   4.461   2.648
    1C        C  475   3.947   4.411   2.645
    1C        C  476   3.749   4.493   2.768
    1C        C  477   3.816   4.471   2.890
    1C        C  478   3.609   4.520   3.011
    1C        C  479   3.747   4.492   3.012
    1C        C  480   3.538   4.533   3.132
    1C        C  481   3.609   4.528   3.254
    1C        C  482   3.398   4.545   3.377
    1C        C  483   3.539   4.538   3.377
    1C        C  484   3.329   4.537   3.501
    1C        C  485   3.400   4.542   3.623
    1C        C  486   3.197   4.497   3.750
    1C        C  487   3.332   4.539   3.746
    1C        C  488   3.132   4.474   3.873
    1C        C  489   3.196   4.504   3.995
    1C        C  490   3.007   4.416   4.119
    1C        C  491   3.132   4.482   4.119
    1C        C  492   2.950   4.376   4.242
    1C        C  493   3.010   4.419   4.363
    1C        C  494   2.833   4.303   4.490
    1C        C  495   2.946   4.387   4.485
    1C        C  496   2.776   4.257   4.611
    1C        C  497   2.826   4.313   4.730
    1C        C  498   2.671   4.167   4.846
    1C        C  499   2.758   4.278   4.849
    1C        C  500   2.600   4.118   4.957
    1C        C  501   4.009   4.361   2.044
    1C        C  502   3.820   4.469   2.156
    1C        C  503   3.946   4.405   2.161
    1C        C  504   3.748   4.484   2.277
    1C        C  505   3.812   4.460   2.400
    1C        C  506   3.610   4.506   2.523
    1C        C  507   3.749   4.482   2.525
    1C        C  508   3.539   4.517   2.644
    1C        C  509   3.610   4.518   2.766
    1C        C  510   3.397   4.528   2.887
    1C        C  511   3.539   4.523   2.888
    1C        C  512   3.325   4.529   3.008
    1C        C  513   3.397   4.531   3.130
    1C        C  514   3.193   4.492   3.256
    1C        C  515   3.330   4.529   3.255
    1C        C  516   3.128   4.469   3.379
    1C        C  517   3.193   4.498   3.501
    1C        C  518   3.005   4.411   3.629
    1C        C  519   3.132   4.474   3.626
    1C        C  520   2.946   4.373   3.752
    1C        C  521   3.008   4.406   3.874
    1C        C  522   2.838   4.286   3.999
    1C        C  523   2.947   4.375   3.998
    1C        C  524   2.789   4.241   4.124
    1C        C  525   2.838   4.290   4.247
    1C        C  526   2.700   4.132   4.368
    1C        C  527   2.787   4.244   4.370
    1C        C  528   2.660   4.074   4.490
    1C        C  529   2.697   4.140   4.609
    1C        C  530   2.584   3.961   4.733
    1C        C  531   2.647   4.089   4.731
    1C        C  532   2.544   3.901   4.855
    1C        C  533   2.536   3.994   4.965
    1C        C  534   3.621   4.564   2.043
    1C        C  535   3.754   4.519   2.043
    1C        C  536   3.540   4.540   2.158
    1C        C  537   3.609   4.515   2.280
    1C        C  538   3.397   4.520   2.402
    1C        C  539   3.538   4.517   2.402
    1C        C  540   3.324   4.515   2.523
    1C        C  541   3.397   4.517   2.644
    1C        C  542   3.189   4.484   2.765
    1C        C  543   3.326   4.517   2.766
    1C        C  544   3.121   4.470   2.889
    1C        C  545   3.188   4.494   3.011
    1C        C  546   2.998   4.406   3.137
    1C        C  547   3.124   4.469   3.135
    1C        C  548   2.940   4.366   3.260
    1C        C  549   3.004   4.403   3.381
    1C        C  550   2.841   4.278   3.507
    1C        C  551   2.948   4.371   3.507
    1C        C  552   2.787   4.231   3.629
    1C        C  553   2.838   4.281   3.751
    1C        C  554   2.700   4.127   3.876
    1C        C  555   2.792   4.234   3.876
    1C        C  556   2.669   4.067   4.001
    1C        C  557   2.703   4.129   4.124
    1C        C  558   2.605   3.943   4.247
    1C        C  559   2.661   4.073   4.246
    1C        C  560   2.574   3.879   4.369
    1C        C  561   2.604   3.944   4.490
    1C        C  562   2.533   3.750   4.617
    1C        C  563   2.570   3.886   4.614
    1C        C  564   2.515   3.681   4.739
    1C        C  565   2.517   3.761   4.857
    1C        C  566   2.529   3.546   4.980
    1C        C  567   2.521   3.685   4.975
    1C        C  568   3.335   4.475   2.041
    1C        C  569   3.400   4.515   2.158
    1C        C  570   3.189   4.479   2.279
    1C        C  571   3.326   4.517   2.279
    1C        C  572   3.119   4.464   2.401
    1C        C  573   3.186   4.487   2.524
    1C        C  574   2.990   4.403   2.648
    1C        C  575   3.117   4.466   2.645
    1C        C  576   2.936   4.362   2.772
    1C        C  577   2.998   4.401   2.892
    1C        C  578   2.829   4.276   3.019
    1C        C  579   2.936   4.368   3.015
    1C        C  580   2.784   4.224   3.142
    1C        C  581   2.831   4.277   3.265
    1C        C  582   2.703   4.112   3.388
    1C        C  583   2.787   4.225   3.388
    1C        C  584   2.659   4.060   3.512
    1C        C  585   2.697   4.122   3.633
    1C        C  586   2.600   3.937   3.758
    1C        C  587   2.657   4.066   3.756
    1C        C  588   2.576   3.874   3.882
    1C        C  589   2.610   3.939   4.003
    1C        C  590   2.542   3.739   4.128
    1C        C  591   2.582   3.875   4.125
    1C        C  592   2.525   3.673   4.252
    1C        C  593   2.540   3.742   4.374
    1C        C  594   2.509   3.535   4.498
    1C        C  595   2.521   3.676   4.498
    1C        C  596   2.511   3.467   4.622
    1C        C  597   2.515   3.539   4.744
    1C        C  598   2.525   3.326   4.863
    1C        C  599   2.520   3.467   4.864
    1C        C  600   2.534   3.251   4.981
    1C        C  601   3.203   4.433   2.044
    1C        C  602   2.987   4.397   2.162
    1C        C  603   3.124   4.441   2.159
    1C        C  604   2.928   4.358   2.286
    1C        C  605   2.992   4.402   2.404
    1C        C  606   2.824   4.271   2.532
    1C        C  607   2.932   4.361   2.526
    1C        C  608   2.774   4.223   2.655
    1C        C  609   2.828   4.270   2.776
    1C        C  610   2.691   4.110   2.896
    1C        C  611   2.780   4.220   2.899
    1C        C  612   2.660   4.051   3.021
    1C        C  613   2.698   4.112   3.142
    1C        C  614   2.595   3.930   3.270
    1C        C  615   2.661   4.055   3.266
    1C        C  616   2.572   3.864   3.392
    1C        C  617   2.599   3.932   3.513
    1C        C  618   2.543   3.730   3.640
    1C        C  619   2.577   3.867   3.637
    1C        C  620   2.523   3.664   3.764
    1C        C  621   2.541   3.737   3.883
    1C        C  622   2.511   3.529   4.010
    1C        C  623   2.530   3.669   4.007
    1C        C  624   2.519   3.458   4.132
    1C        C  625   2.522   3.531   4.253
    1C        C  626   2.538   3.323   4.382
    1C        C  627   2.519   3.463   4.377
    1C        C  628   2.557   3.255   4.504
    1C        C  629   2.537   3.328   4.623
    1C        C  630   2.595   3.120   4.743
    1C        C  631   2.553   3.256   4.743
    1C        C  632   2.613   3.051   4.866
    1C        C  633   2.558   3.113   4.984
    1C        C  634   2.787   4.305   2.057
    1C        C  635   2.894   4.395   2.054
    1C        C  636   2.756   4.228   2.170
    1C        C  637   2.813   4.275   2.290
    1C        C  638   2.686   4.105   2.414
    1C        C  639   2.770   4.219   2.412
    1C        C  640   2.643   4.049   2.536
    1C        C  641   2.688   4.110   2.655
    1C        C  642   2.591   3.920   2.780
    1C        C  643   2.653   4.047   2.776
    1C        C  644   2.571   3.854   2.904
    1C        C  645   2.599   3.923   3.024
    1C        C  646   2.531   3.727   3.151
    1C        C  647   2.568   3.863   3.148
    1C        C  648   2.512   3.658   3.273
    1C        C  649   2.531   3.728   3.394
    1C        C  650   2.512   3.520   3.520
    1C        C  651   2.522   3.661   3.518
    1C        C  652   2.511   3.452   3.644
    1C        C  653   2.510   3.523   3.766
    1C        C  654   2.537   3.316   3.891
    1C        C  655   2.510   3.455   3.889
    1C        C  656   2.554   3.249   4.014
    1C        C  657   2.537   3.318   4.135
    1C        C  658   2.608   3.123   4.260
    1C        C  659   2.556   3.254   4.260
    1C        C  660   2.635   3.057   4.382
    1C        C  661   2.602   3.121   4.504
    1C        C  662   2.709   2.935   4.626
    1C        C  663   2.633   3.054   4.624
    1C        C  664   2.752   2.880   4.749
    1C        C  665   2.696   2.935   4.868
    1C        C  666   2.743   2.873   4.985
    1C        C  667   2.684   4.025   2.056
    1C        C  668   2.692   4.102   2.173
    1C        C  669   2.591   3.911   2.294
    1C        C  670   2.653   4.040   2.293
    1C        C  671   2.562   3.850   2.418
    1C        C  672   2.584   3.920   2.538
    1C        C  673   2.519   3.717   2.663
    1C        C  674   2.558   3.853   2.660
    1C        C  675   2.507   3.649   2.786
    1C        C  676   2.532   3.719   2.906
    1C        C  677   2.508   3.513   3.034
    1C        C  678   2.521   3.654   3.031
    1C        C  679   2.504   3.445   3.158
    1C        C  680   2.501   3.517   3.279
    1C        C  681   2.523   3.305   3.404
    1C        C  682   2.503   3.445   3.401
    1C        C  683   2.538   3.238   3.527
    1C        C  684   2.526   3.311   3.648
    1C        C  685   2.593   3.110   3.772
    1C        C  686   2.548   3.244   3.770
    1C        C  687   2.639   3.055   3.894
    1C        C  688   2.609   3.118   4.017
    1C        C  689   2.715   2.937   4.139
    1C        C  690   2.643   3.058   4.140
    1C        C  691   2.766   2.888   4.262
    1C        C  692   2.716   2.941   4.382
    1C        C  693   2.754   2.881   4.504
    1C        C  694   2.638   3.893   2.061
    1C        C  695   2.529   3.704   2.175
    1C        C  696   2.589   3.832   2.177
    1C        C  697   2.511   3.642   2.300
    1C        C  698   2.526   3.714   2.422
    1C        C  699   2.490   3.504   2.545
    1C        C  700   2.504   3.644   2.543
    1C        C  701   2.494   3.434   2.668
    1C        C  702   2.494   3.508   2.789
    1C        C  703   2.528   3.301   2.913
    1C        C  704   2.506   3.440   2.912
    1C        C  705   2.544   3.236   3.037
    1C        C  706   2.530   3.306   3.159
    1C        C  707   2.603   3.108   3.283
    1C        C  708   2.548   3.238   3.282
    1C        C  709   2.633   3.049   3.408
    1C        C  710   2.593   3.108   3.530
    1C        C  711   2.707   2.931   3.651
    1C        C  712   2.618   3.041   3.651
    1C        C  713   2.757   2.877   3.772
    1C        C  714   2.723   2.941   3.893
    1C        C  715   2.760   2.883   4.017
    1C        C  716   2.446   3.500   2.064
    1C        C  717   2.491   3.633   2.060
    1C        C  718   2.461   3.427   2.187
    1C        C  719   2.489   3.502   2.304
    1C        C  720   2.515   3.290   2.427
    1C        C  721   2.489   3.429   2.425
    1C        C  722   2.527   3.220   2.549
    1C        C  723   2.515   3.294   2.668
    1C        C  724   2.595   3.100   2.794
    1C        C  725   2.539   3.230   2.791
    1C        C  726   2.623   3.039   2.918
    1C        C  727   2.599   3.106   3.040
    1C        C  728   2.708   2.923   3.161
    1C        C  729   2.629   3.040   3.162
    1C        C  730   2.756   2.876   3.286
    1C        C  731   2.716   2.935   3.408
    1C        C  732   2.756   2.876   3.531
    1C        C  733   2.489   3.200   2.077
    1C        C  734   2.484   3.286   2.187
    1C        C  735   2.586   3.090   2.309
    1C        C  736   2.529   3.220   2.305
    1C        C  737   2.616   3.024   2.430
    1C        C  738   2.585   3.091   2.550
    1C        C  739   2.695   2.911   2.673
    1C        C  740   2.620   3.031   2.673
    1C        C  741   2.745   2.863   2.797
    1C        C  742   2.702   2.922   2.918
    1C        C  743   2.753   2.869   3.038
    1C        C  744   2.546   3.073   2.077
    1C        C  745   2.686   2.900   2.188
    1C        C  746   2.612   3.020   2.189
    1C        C  747   2.727   2.841   2.309
    1C        C  748   2.689   2.903   2.430
    1C        C  749   2.733   2.848   2.553
    1C        C  750   2.738   2.839   2.073
    1C        C  751   3.667   2.322   1.978
    1C        O  752   3.685   2.201   2.008
    1C        O  753   3.699   2.355   1.845
    1C        C  754   4.633   3.048   1.992
    1C        O  755   4.622   3.045   1.866
    1C        O  756   4.760   3.028   2.046
    1C        C  757   4.454   4.235   1.978
    1C        O  758   4.544   4.304   2.034
    1C        O  759   4.455   4.259   1.840
    1C        C  760   3.595   4.677   1.951
    1C        O  761   3.608   4.794   1.995
    1C        O  762   3.654   4.670   1.824
    1C        C  763   2.881   4.492   1.943
    1C        O  764   2.845   4.452   1.829
    1C        O  765   2.826   4.619   1.963
    1C        C  766   2.341   3.470   1.964
    1C        O  767   2.354   3.454   1.840
    1C        O  768   2.210   3.505   1.996
    1C        C  769   4.689   3.595   5.071
    1C        O  770   4.655   3.618   5.190
    1C        O  771   4.825   3.573   5.051
    1C        C  772   4.288   4.469   5.023
    1C        O  773   4.283   4.486   5.148
    1C        O  774   4.363   4.570   4.962
    1C        C  775   4.148   2.517   5.064
    1C        O  776   4.171   2.397   5.034
    1C        O  777   4.182   2.537   5.199
    1C        C  778   2.861   4.550   5.036
    1C        O  779   2.772   4.631   4.996
    1C        O  780   2.919   4.586   5.158
    1C        C  781   2.453   3.045   5.064
    1C        O  782   2.345   3.008   5.011
    1C        O  783   2.475   2.984   5.187
    1C        C  784   2.406   3.989   5.035
    1C        O  785   2.303   4.023   4.972
    1C        O  786   2.394   4.017   5.172
    1C        C  787   2.964   2.409   2.023
    1C        O  788   2.961   2.389   1.898
    1C        O  789   2.929   2.290   2.086
    1C        C  790   3.185   2.383   5.074
    1C        O  791   3.119   2.278   5.055
    1C        O  792   3.221   2.399   5.209
    1C        H  793   4.260   3.032   5.057
    1C        H  794   4.175   2.815   5.074
    1C        H  795   4.512   3.129   5.057
    1C        H  796   4.562   3.351   5.072
    1C        H  797   4.569   3.815   5.049
    1C        H  798   4.386   3.947   5.049
    1C        H  799   4.259   4.149   5.041
    1C        H  800   4.009   4.487   5.044
    1C        H  801   3.823   4.625   5.032
    1C        H  802   3.597   4.678   5.014
    1C        H  803   3.403   4.504   5.049
    1C        H  804   3.157   4.544   5.045
    1C        H  805   3.891   2.480   5.069
    1C        H  806   3.679   2.519   5.072
    1C        H  807   3.004   2.568   5.069
    1C        H  808   3.445   2.528   5.068
    1C        H  809   2.915   2.792   5.069
    1C        H  810   2.716   2.909   5.082
    1C        H  811   2.509   3.302   5.072
    1C        H  812   2.571   3.506   5.069
    1C        H  813   2.474   3.732   5.059
    1C        H  814   2.561   4.195   5.020
    1C        H  815   2.750   4.331   5.054
    1C        H  816   2.748   2.906   1.989
    1C        H  817   2.873   2.704   1.982
    1C        H  818   3.212   2.437   1.992
    1C        H  819   3.428   2.408   1.986
    1C        H  820   3.847   2.523   1.975
    1C        H  821   4.028   2.684   1.983
    1C        H  822   4.259   2.717   1.977
    1C        H  823   4.383   2.923   1.969
    1C        H  824   4.569   3.315   1.969
    1C        H  825   4.491   3.515   1.968
    1C        H  826   4.556   3.754   1.966
    1C        H  827   3.811   4.524   1.953
    1C        H  828   3.942   4.339   1.964
    1C        H  829   4.192   4.279   1.957
    1C        H  830   4.444   3.952   1.961
    1C        H  831   2.642   3.841   1.967
    1C        H  832   2.711   4.066   1.961
    1C        H  833   2.722   4.312   1.972
    1C        H  834   3.395   4.439   1.959
    1C        H  835   3.155   4.393   1.957
    1C        H  836   2.522   3.015   1.990
    1C        H  837   2.448   3.233   1.984
    1C        H  838   2.433   3.691   1.991
    2V3OU   H29  839   2.807   3.550   3.192
    2V3OU   C27  840   2.793   3.507   3.295
    2V3OU   H27  841   2.740   3.577   3.364
    2V3OU   H28  842   2.738   3.410   3.284
    2V3OU   O11  843   2.921   3.480   3.352
    2V3OU   C15  844   2.934   3.399   3.463
    2V3OU   C13  845   3.060   3.376   3.523
    2V3OU   C14  846   3.088   3.272   3.612
    2V3OU   C16  847   2.983   3.190   3.652
    2V3OU    H6  848   2.999   3.106   3.721
    2V3OU   C12  849   3.225   3.234   3.652
    2V3OU    O2  850   3.245   3.134   3.725
    2V3OU   C10  851   3.334   3.312   3.591
    2V3OU    C8  852   3.465   3.273   3.617
    2V3OU   O10  853   3.494   3.158   3.683
    2V3OU   H26  854   3.410   3.120   3.713
    2V3OU    C6  855   3.571   3.348   3.557
    2V3OU    C5  856   3.544   3.468   3.492
    2V3OU    C4  857   3.709   3.294   3.560
    2V3OU    H4  858   3.727   3.236   3.655
    2V3OU    H5  859   3.717   3.227   3.469
    2V3OU    C2  860   3.818   3.402   3.558
    2V3OU    O6  861   3.813   3.474   3.681
    2V3OU   H21  862   3.766   3.555   3.656
    2V3OU    C3  863   3.787   3.495   3.440
    2V3OU    H2  864   3.865   3.576   3.436
    2V3OU    H3  865   3.783   3.443   3.341
    2V3OU   C25  866   3.952   3.331   3.547
    2V3OU    O7  867   4.000   3.297   3.438
    2V3OU   C26  868   4.034   3.291   3.668
    2V3OU   H22  869   4.073   3.381   3.723
    2V3OU   H23  870   4.121   3.227   3.636
    2V3OU    O8  871   3.969   3.207   3.762
    2V3OU   H24  872   3.923   3.264   3.826
    2V3OU    C1  873   3.655   3.566   3.467
    2V3OU    H1  874   3.625   3.618   3.370
    2V3OU    O3  875   3.660   3.659   3.576
    2V3OU   C19  876   3.625   3.797   3.565
    2V3OU    H9  877   3.524   3.806   3.515
    2V3OU    O4  878   3.718   3.857   3.478
    2V3OU   C20  879   3.846   3.882   3.536
    2V3OU   H10  880   3.891   3.784   3.568
    2V3OU   C24  881   3.614   3.859   3.704
    2V3OU   H16  882   3.545   3.794   3.764
    2V3OU   H17  883   3.567   3.959   3.685
    2V3OU   C23  884   3.751   3.877   3.771
    2V3OU   H15  885   3.799   3.775   3.784
    2V3OU    N1  886   3.742   3.957   3.892
    2V3OU   H19  887   3.805   3.916   3.958
    2V3OU   H20  888   3.651   3.933   3.926
    2V3OU   C21  889   3.846   3.952   3.672
    2V3OU   H11  890   3.948   3.929   3.715
    2V3OU    O5  891   3.827   4.093   3.679
    2V3OU   H18  892   3.781   4.099   3.764
    2V3OU   C22  893   3.915   3.951   3.419
    2V3OU   H12  894   3.870   4.051   3.399
    2V3OU   H13  895   3.906   3.889   3.326
    2V3OU   H14  896   4.026   3.959   3.432
    2V3OU   C11  897   3.165   3.471   3.485
    2V3OU    O1  898   3.133   3.587   3.451
    2V3OU    C9  899   3.304   3.428   3.515
    2V3OU    C7  900   3.409   3.507   3.469
    2V3OU    O9  901   3.388   3.622   3.396
    2V3OU   H25  902   3.294   3.642   3.405
    2V3OU   C17  903   2.830   3.318   3.513
    2V3OU    H7  904   2.731   3.359   3.493
    2V3OU   C18  905   2.855   3.220   3.608
    2V3OU    H8  906   2.785   3.177   3.682
    3SOL     OW  907   2.766   5.143   6.254
    3SOL    HW1  908   2.838   5.184   6.310
    3SOL    HW2  909   2.678   5.153   6.299
    4SOL     OW  910   6.850   0.089   0.893
    4SOL    HW1  911   6.849   7.019   0.908
    4SOL    HW2  912   6.943   0.123   0.905
    5SOL     OW  913   4.789   2.260   2.300
    5SOL    HW1  914   4.888   2.252   2.293
    5SOL    HW2  915   4.766   2.341   2.355
    6SOL     OW  916   4.290   2.006   2.223
    6SOL    HW1  917   4.197   1.972   2.241
    6SOL    HW2  918   4.308   2.002   2.125
    7SOL     OW  919   0.794   4.371   3.713
    7SOL    HW1  920   0.750   4.322   3.788
    7SOL    HW2  921   0.875   4.419   3.747
    8SOL     OW  922   2.411   2.462   5.923
    8SOL    HW1  923   2.364   2.386   5.967
    8SOL    HW2  924   2.508   2.440   5.914
    9SOL     OW  925   6.147   2.592   5.624
    9SOL    HW1  926   6.176   2.667   5.684
    9SOL    HW2  927   6.050   2.574   5.638
   10SOL     OW  928   3.317   5.176   4.989
   10SOL    HW1  929   3.340   5.087   4.950
   10SOL    HW2  930   3.218   5.186   4.993
   11SOL     OW  931   1.994   1.343   5.916
   11SOL    HW1  932   2.017   1.439   5.900
   11SOL    HW2  933   1.909   1.337   5.968
   12SOL     OW  934   3.213   4.898   3.826
   12SOL    HW1  935   3.266   4.870   3.907
   12SOL    HW2  936   3.159   4.979   3.848
   13SOL     OW  937   3.524   6.532   3.997
   13SOL    HW1  938   3.584   6.453   4.007
   13SOL    HW2  939   3.499   6.543   3.901
   14SOL     OW  940   4.076   4.967   6.131
   14SOL    HW1  941   4.145   4.971   6.203
   14SOL    HW2  942   4.070   4.873   6.095
   15SOL     OW  943   0.725   6.031   0.823
   15SOL    HW1  944   0.824   6.033   0.810
   15SOL    HW2  945   0.680   6.016   0.735
   16SOL     OW  946   5.243   2.731   6.532
   16SOL    HW1  947   5.151   2.695   6.539
   16SOL    HW2  948   5.298   2.698   6.609
   17SOL     OW  949   5.201   6.710   6.752
   17SOL    HW1  950   5.272   6.762   6.705
   17SOL    HW2  951   5.125   6.771   6.774
   18SOL     OW  952   3.102   0.995   4.951
   18SOL    HW1  953   3.090   1.070   5.016
   18SOL    HW2  954   3.086   0.908   4.997
   19SOL     OW  955   0.172   2.166   2.332
   19SOL    HW1  956   0.229   2.112   2.269
   19SOL    HW2  957   0.114   2.228   2.280
   20SOL     OW  958   4.664   2.565   5.468
   20SOL    HW1  959   4.592   2.566   5.539
   20SOL    HW2  960   4.709   2.654   5.465
   21SOL     OW  961   2.733   0.864   2.719
   21SOL    HW1  962   2.685   0.779   2.739
   21SOL    HW2  963   2.704   0.899   2.631
   22SOL     OW  964   1.300   6.296   0.257
   22SOL    HW1  965   1.312   6.348   0.172
   22SOL    HW2  966   1.306   6.358   0.335
   23SOL     OW  967   4.136   5.284   2.062
   23SOL    HW1  968   4.132   5.213   1.992
   23SOL    HW2  969   4.083   5.257   2.141
   24SOL     OW  970   3.459   0.504   2.526
   24SOL    HW1  971   3.520   0.535   2.454
   24SOL    HW2  972   3.379   0.564   2.531
   25SOL     OW  973   2.524   6.833   3.740
   25SOL    HW1  974   2.517   6.927   3.704
   25SOL    HW2  975   2.614   6.819   3.780
   26SOL     OW  976   6.666   2.193   0.441
   26SOL    HW1  977   6.622   2.106   0.461
   26SOL    HW2  978   6.754   2.177   0.397
   27SOL     OW  979   1.689   1.420   1.781
   27SOL    HW1  980   1.627   1.364   1.836
   27SOL    HW2  981   1.737   1.361   1.716
   28SOL     OW  982   1.453   0.507   5.033
   28SOL    HW1  983   1.525   0.497   4.964
   28SOL    HW2  984   1.365   0.520   4.988
   29SOL     OW  985   6.490   1.604   1.327
   29SOL    HW1  986   6.405   1.626   1.279
   29SOL    HW2  987   6.496   1.505   1.341
   30SOL     OW  988   4.663   0.630   4.414
   30SOL    HW1  989   4.721   0.571   4.358
   30SOL    HW2  990   4.594   0.674   4.357
   31SOL     OW  991   0.354   2.216   6.353
   31SOL    HW1  992   0.418   2.166   6.411
   31SOL    HW2  993   0.264   2.175   6.358
   32SOL     OW  994   0.888   1.883   2.439
   32SOL    HW1  995   0.935   1.798   2.415
   32SOL    HW2  996   0.798   1.885   2.395
   33SOL     OW  997   0.929   4.832   5.136
   33SOL    HW1  998   1.000   4.763   5.145
   33SOL    HW2  999   0.839   4.788   5.132
   34SOL     OW 1000   2.917   5.854   4.774
   34SOL    HW1 1001   2.996   5.858   4.714
   34SOL    HW2 1002   2.934   5.789   4.849
   35SOL     OW 1003   4.237   2.491   5.778
   35SOL    HW1 1004   4.332   2.497   5.747
   35SOL    HW2 1005   4.231   2.431   5.857
   36SOL     OW 1006   4.063   2.238   4.154
   36SOL    HW1 1007   4.111   2.254   4.240
   36SOL    HW2 1008   4.128   2.235   4.079
   37SOL     OW 1009   1.741   1.892   5.144
   37SOL    HW1 1010   1.780   1.927   5.230
   37SOL    HW2 1011   1.647   1.863   5.159
   38SOL     OW 1012   1.567   4.849   1.760
   38SOL    HW1 1013   1.505   4.916   1.719
   38SOL    HW2 1014   1.591   4.780   1.692
   39SOL     OW 1015   6.362   5.106   6.090
   39SOL    HW1 1016   6.357   5.155   6.177
   39SOL    HW2 1017   6.415   5.161   6.025
   40SOL     OW 1018   3.554   2.488   0.260
   40SOL    HW1 1019   3.642   2.441   0.266
   40SOL    HW2 1020   3.563   2.567   0.200
   41SOL     OW 1021   6.138   3.646   3.380
   41SOL    HW1 1022   6.224   3.693   3.363
   41SOL    HW2 1023   6.148   3.549   3.360
   42SOL     OW 1024   3.486   6.044   4.552
   42SOL    HW1 1025   3.412   6.084   4.498
   42SOL    HW2 1026   3.477   6.073   4.647
   43SOL     OW 1027   4.726   1.095   5.417
   43SOL    HW1 1028   4.768   1.114   5.506
   43SOL    HW2 1029   4.766   1.155   5.348
   44SOL     OW 1030   5.513   2.740   5.372
   44SOL    HW1 1031   5.554   2.702   5.289
   44SOL    HW2 1032   5.582   2.748   5.443
   45SOL     OW 1033   4.544   5.236   1.690
   45SOL    HW1 1034   4.610   5.176   1.645
   45SOL    HW2 1035   4.586   5.278   1.770
   46SOL     OW 1036   0.917   2.563   3.878
   46SOL    HW1 1037   0.880   2.472   3.859
   46SOL    HW2 1038   0.993   2.554   3.942
   47SOL     OW 1039   4.317   4.075   1.229
   47SOL    HW1 1040   4.303   4.013   1.306
   47SOL    HW2 1041   4.400   4.128   1.243
   48SOL     OW 1042   6.869   2.335   6.741
   48SOL    HW1 1043   6.863   2.431   6.713
   48SOL    HW2 1044   6.793   2.314   6.802
   49SOL     OW 1045   5.637   2.812   1.874
   49SOL    HW1 1046   5.559   2.840   1.930
   49SOL    HW2 1047   5.664   2.888   1.814
   50SOL     OW 1048   6.505   1.082   5.430
   50SOL    HW1 1049   6.496   1.096   5.529
   50SOL    HW2 1050   6.439   1.013   5.401
   51SOL     OW 1051   2.105   6.443   3.166
   51SOL    HW1 1052   2.150   6.526   3.198
   51SOL    HW2 1053   2.065   6.460   3.076
   52SOL     OW 1054   5.335   3.447   1.649
   52SOL    HW1 1055   5.432   3.469   1.662
   52SOL    HW2 1056   5.280   3.498   1.715
   53SOL     OW 1057   4.677   1.340   3.735
   53SOL    HW1 1058   4.688   1.404   3.659
   53SOL    HW2 1059   4.757   1.281   3.741
   54SOL     OW 1060   5.644   6.485   1.112
   54SOL    HW1 1061   5.612   6.473   1.018
   54SOL    HW2 1062   5.687   6.400   1.144
   55SOL     OW 1063   2.159   2.800   5.066
   55SOL    HW1 1064   2.221   2.866   5.024
   55SOL    HW2 1065   2.121   2.740   4.995
   56SOL     OW 1066   0.436   0.996   1.036
   56SOL    HW1 1067   0.407   1.091   1.049
   56SOL    HW2 1068   0.482   0.964   1.118
   57SOL     OW 1069   4.204   1.042   1.281
   57SOL    HW1 1070   4.291   0.993   1.276
   57SOL    HW2 1071   4.132   0.980   1.312
   58SOL     OW 1072   0.378   6.553   5.801
   58SOL    HW1 1073   0.463   6.583   5.757
   58SOL    HW2 1074   0.305   6.549   5.732
   59SOL     OW 1075   6.886   3.708   5.867
   59SOL    HW1 1076   6.908   3.612   5.880
   59SOL    HW2 1077   6.919   3.761   5.945
   60SOL     OW 1078   4.983   2.873   4.087
   60SOL    HW1 1079   4.926   2.937   4.138
   60SOL    HW2 1080   5.071   2.916   4.067
   61SOL     OW 1081   0.077   1.405   4.555
   61SOL    HW1 1082   0.164   1.358   4.567
   61SOL    HW2 1083   0.094   1.498   4.522
   62SOL     OW 1084   2.260   1.426   2.233
   62SOL    HW1 1085   2.298   1.357   2.172
   62SOL    HW2 1086   2.190   1.479   2.184
   63SOL     OW 1087   3.719   0.187   4.424
   63SOL    HW1 1088   3.771   0.103   4.437
   63SOL    HW2 1089   3.623   0.171   4.450
   64SOL     OW 1090   0.264   2.521   6.322
   64SOL    HW1 1091   0.343   2.572   6.288
   64SOL    HW2 1092   0.265   2.429   6.283
   65SOL     OW 1093   0.161   5.199   5.954
   65SOL    HW1 1094   0.158   5.289   5.997
   65SOL    HW2 1095   0.172   5.210   5.856
   66SOL     OW 1096   3.334   0.516   3.338
   66SOL    HW1 1097   3.309   0.425   3.307
   66SOL    HW2 1098   3.421   0.543   3.295
   67SOL     OW 1099   0.671   3.160   6.266
   67SOL    HW1 1100   0.607   3.188   6.195
   67SOL    HW2 1101   0.627   3.092   6.325
   68SOL     OW 1102   0.488   1.935   6.889
   68SOL    HW1 1103   0.427   2.007   6.919
   68SOL    HW2 1104   0.500   1.868   6.963
   69SOL     OW 1105   1.160   2.826   5.579
   69SOL    HW1 1106   1.233   2.864   5.522
   69SOL    HW2 1107   1.108   2.900   5.621
   70SOL     OW 1108   5.082   4.740   4.622
   70SOL    HW1 1109   5.164   4.717   4.570
   70SOL    HW2 1110   5.030   4.809   4.573
   71SOL     OW 1111   4.957   2.193   3.442
   71SOL    HW1 1112   4.936   2.289   3.425
   71SOL    HW2 1113   5.056   2.179   3.443
   72SOL     OW 1114   0.953   1.232   3.037
   72SOL    HW1 1115   0.956   1.194   3.129
   72SOL    HW2 1116   0.862   1.217   2.998
   73SOL     OW 1117   3.562   0.282   0.861
   73SOL    HW1 1118   3.563   0.378   0.892
   73SOL    HW2 1119   3.557   0.222   0.941
   74SOL     OW 1120   3.249   1.214   0.042
   74SOL    HW1 1121   3.187   1.259   0.106
   74SOL    HW2 1122   3.288   1.133   0.086
   75SOL     OW 1123   4.413   1.188   1.684
   75SOL    HW1 1124   4.460   1.184   1.772
   75SOL    HW2 1125   4.334   1.249   1.691
   76SOL     OW 1126   3.363   3.207   6.860
   76SOL    HW1 1127   3.399   3.124   6.818
   76SOL    HW2 1128   3.263   3.210   6.849
   77SOL     OW 1129   1.400   6.996   3.171
   77SOL    HW1 1130   1.444   6.913   3.136
   77SOL    HW2 1131   1.346   0.010   3.099
   78SOL     OW 1132   4.731   1.382   1.021
   78SOL    HW1 1133   4.642   1.338   1.006
   78SOL    HW2 1134   4.732   1.471   0.974
   79SOL     OW 1135   2.915   6.395   1.556
   79SOL    HW1 1136   2.876   6.318   1.606
   79SOL    HW2 1137   2.922   6.474   1.617
   80SOL     OW 1138   4.053   1.869   4.221
   80SOL    HW1 1139   4.008   1.923   4.291
   80SOL    HW2 1140   4.059   1.922   4.136
   81SOL     OW 1141   1.853   6.796   1.945
   81SOL    HW1 1142   1.928   6.780   1.882
   81SOL    HW2 1143   1.768   6.763   1.905
   82SOL     OW 1144   5.658   5.888   1.293
   82SOL    HW1 1145   5.694   5.796   1.279
   82SOL    HW2 1146   5.577   5.884   1.352
   83SOL     OW 1147   0.759   1.060   6.596
   83SOL    HW1 1148   0.803   0.981   6.553
   83SOL    HW2 1149   0.734   1.037   6.690
   84SOL     OW 1150   5.638   3.604   3.261
   84SOL    HW1 1151   5.736   3.585   3.272
   84SOL    HW2 1152   5.626   3.694   3.220
   85SOL     OW 1153   1.726   1.253   3.213
   85SOL    HW1 1154   1.733   1.344   3.172
   85SOL    HW2 1155   1.808   1.235   3.267
   86SOL     OW 1156   6.871   1.251   6.760
   86SOL    HW1 1157   6.876   1.350   6.751
   86SOL    HW2 1158   6.953   1.217   6.806
   87SOL     OW 1159   4.166   4.074   0.996
   87SOL    HW1 1160   4.207   4.073   1.087
   87SOL    HW2 1161   4.097   4.002   0.989
   88SOL     OW 1162   3.177   2.239   5.782
   88SOL    HW1 1163   3.206   2.295   5.704
   88SOL    HW2 1164   3.241   2.251   5.858
   89SOL     OW 1165   3.006   2.715   7.010
   89SOL    HW1 1166   3.099   2.676   7.015
   89SOL    HW2 1167   2.953   2.667   6.940
   90SOL     OW 1168   3.549   5.196   2.800
   90SOL    HW1 1169   3.478   5.193   2.729
   90SOL    HW2 1170   3.639   5.199   2.756
   91SOL     OW 1171   6.355   4.117   5.995
   91SOL    HW1 1172   6.421   4.179   6.037
   91SOL    HW2 1173   6.400   4.062   5.924
   92SOL     OW 1174   4.871   4.589   0.561
   92SOL    HW1 1175   4.774   4.564   0.564
   92SOL    HW2 1176   4.907   4.595   0.655
   93SOL     OW 1177   3.405   2.924   7.014
   93SOL    HW1 1178   3.445   2.956   0.071
   93SOL    HW2 1179   3.459   2.958   6.937
   94SOL     OW 1180   2.783   5.580   6.587
   94SOL    HW1 1181   2.813   5.509   6.650
   94SOL    HW2 1182   2.836   5.663   6.603
   95SOL     OW 1183   2.037   1.301   3.573
   95SOL    HW1 1184   1.951   1.344   3.597
   95SOL    HW2 1185   2.111   1.369   3.574
   96SOL     OW 1186   4.421   5.889   5.660
   96SOL    HW1 1187   4.343   5.928   5.612
   96SOL    HW2 1188   4.438   5.796   5.628
   97SOL     OW 1189   2.004   3.738   5.298
   97SOL    HW1 1190   2.069   3.804   5.335
   97SOL    HW2 1191   2.050   3.680   5.232
   98SOL     OW 1192   0.959   1.583   0.359
   98SOL    HW1 1193   1.025   1.635   0.304
   98SOL    HW2 1194   0.929   1.503   0.308
   99SOL     OW 1195   3.738   3.740   2.222
   99SOL    HW1 1196   3.661   3.729   2.285
   99SOL    HW2 1197   3.723   3.682   2.142
  100SOL     OW 1198   6.866   6.886   4.037
  100SOL    HW1 1199   6.965   6.874   4.040
  100SOL    HW2 1200   6.824   6.808   3.991
  101SOL     OW 1201   0.190   5.151   2.194
  101SOL    HW1 1202   0.239   5.064   2.201
  101SOL    HW2 1203   0.214   5.196   2.108
  102SOL     OW 1204   3.443   5.587   2.222
  102SOL    HW1 1205   3.361   5.544   2.258
  102SOL    HW2 1206   3.423   5.627   2.132
  103SOL     OW 1207   2.295   2.390   2.503
  103SOL    HW1 1208   2.258   2.316   2.559
  103SOL    HW2 1209   2.225   2.460   2.490
  104SOL     OW 1210   1.720   5.343   2.245
  104SOL    HW1 1211   1.674   5.431   2.257
  104SOL    HW2 1212   1.740   5.328   2.149
  105SOL     OW 1213   6.111   1.104   6.560
  105SOL    HW1 1214   6.168   1.036   6.513
  105SOL    HW2 1215   6.024   1.115   6.511
  106SOL     OW 1216   3.884   6.091   3.382
  106SOL    HW1 1217   3.950   6.137   3.323
  106SOL    HW2 1218   3.886   5.993   3.365
  107SOL     OW 1219   0.257   1.045   0.234
  107SOL    HW1 1220   0.180   0.991   0.270
  107SOL    HW2 1221   0.303   1.092   0.309
  108SOL     OW 1222   4.061   6.334   6.601
  108SOL    HW1 1223   4.039   6.245   6.560
  108SOL    HW2 1224   4.111   6.320   6.686
  109SOL     OW 1225   2.662   0.919   2.430
  109SOL    HW1 1226   2.747   0.948   2.386
  109SOL    HW2 1227   2.592   0.988   2.415
  110SOL     OW 1228   3.487   5.176   4.274
  110SOL    HW1 1229   3.538   5.139   4.196
  110SOL    HW2 1230   3.392   5.192   4.246
  111SOL     OW 1231   1.840   1.507   4.048
  111SOL    HW1 1232   1.772   1.557   3.995
  111SOL    HW2 1233   1.930   1.549   4.035
  112SOL     OW 1234   4.705   5.667   0.661
  112SOL    HW1 1235   4.753   5.651   0.748
  112SOL    HW2 1236   4.607   5.669   0.678
  113SOL     OW 1237   1.357   5.979   2.991
  113SOL    HW1 1238   1.399   5.889   3.001
  113SOL    HW2 1239   1.328   5.992   2.896
  114SOL     OW 1240   1.329   6.453   1.897
  114SOL    HW1 1241   1.424   6.435   1.869
  114SOL    HW2 1242   1.297   6.377   1.954
  115SOL     OW 1243   5.179   6.783   3.137
  115SOL    HW1 1244   5.154   6.688   3.156
  115SOL    HW2 1245   5.124   6.818   3.061
  116SOL     OW 1246   0.393   5.683   1.261
  116SOL    HW1 1247   0.351   5.647   1.345
  116SOL    HW2 1248   0.448   5.612   1.218
  117SOL     OW 1249   0.888   0.594   0.607
  117SOL    HW1 1250   0.985   0.581   0.629
  117SOL    HW2 1251   0.831   0.558   0.681
  118SOL     OW 1252   1.397   1.919   2.885
  118SOL    HW1 1253   1.436   1.942   2.974
  118SOL    HW2 1254   1.297   1.923   2.889
  119SOL     OW 1255   0.023   0.484   6.719
  119SOL    HW1 1256   6.973   0.536   6.688
  119SOL    HW2 1257   0.001   0.387   6.719
  120SOL     OW 1258   5.320   0.668   4.470
  120SOL    HW1 1259   5.292   0.654   4.566
  120SOL    HW2 1260   5.291   0.589   4.416
  121SOL     OW 1261   1.364   3.956   0.401
  121SOL    HW1 1262   1.397   4.050   0.393
  121SOL    HW2 1263   1.265   3.956   0.411
  122SOL     OW 1264   1.508   3.380   0.598
  122SOL    HW1 1265   1.530   3.468   0.555
  122SOL    HW2 1266   1.514   3.389   0.697
  123SOL     OW 1267   1.062   1.118   2.042
  123SOL    HW1 1268   1.010   1.136   2.125
  123SOL    HW2 1269   1.030   1.178   1.968
  124SOL     OW 1270   3.331   2.319   0.536
  124SOL    HW1 1271   3.313   2.416   0.552
  124SOL    HW2 1272   3.261   2.263   0.581
  125SOL     OW 1273   3.507   2.645   0.474
  125SOL    HW1 1274   3.530   2.583   0.399
  125SOL    HW2 1275   3.423   2.613   0.518
  126SOL     OW 1276   3.568   2.924   3.019
  126SOL    HW1 1277   3.470   2.911   3.032
  126SOL    HW2 1278   3.614   2.918   3.108
  127SOL     OW 1279   6.982   5.596   6.433
  127SOL    HW1 1280   0.009   5.536   6.490
  127SOL    HW2 1281   6.896   5.551   6.410
  128SOL     OW 1282   5.025   3.069   1.351
  128SOL    HW1 1283   4.939   3.038   1.391
  128SOL    HW2 1284   5.037   3.166   1.370
  129SOL     OW 1285   2.822   3.801   0.049
  129SOL    HW1 1286   2.804   3.769   0.142
  129SOL    HW2 1287   2.787   3.733   7.012
  130SOL     OW 1288   6.661   0.564   4.503
  130SOL    HW1 1289   6.742   0.582   4.559
  130SOL    HW2 1290   6.645   0.466   4.497
  131SOL     OW 1291   5.100   0.246   3.836
  131SOL    HW1 1292   5.191   0.288   3.846
  131SOL    HW2 1293   5.029   0.314   3.853
  132SOL     OW 1294   2.863   2.745   1.050
  132SOL    HW1 1295   2.914   2.784   0.973
  132SOL    HW2 1296   2.910   2.768   1.136
  133SOL     OW 1297   5.249   0.581   3.919
  133SOL    HW1 1298   5.313   0.511   3.950
  133SOL    HW2 1299   5.244   0.654   3.988
  134SOL     OW 1300   6.810   0.470   3.218
  134SOL    HW1 1301   6.729   0.425   3.255
  134SOL    HW2 1302   6.884   0.466   3.285
  135SOL     OW 1303   5.146   3.629   4.356
  135SOL    HW1 1304   5.160   3.667   4.265
  135SOL    HW2 1305   5.054   3.653   4.388
  136SOL     OW 1306   1.980   5.387   4.727
  136SOL    HW1 1307   1.932   5.469   4.759
  136SOL    HW2 1308   2.068   5.414   4.687
  137SOL     OW 1309   4.231   1.218   4.018
  137SOL    HW1 1310   4.183   1.158   3.954
  137SOL    HW2 1311   4.246   1.307   3.976
  138SOL     OW 1312   0.841   4.133   3.129
  138SOL    HW1 1313   0.848   4.162   3.033
  138SOL    HW2 1314   0.885   4.044   3.140
  139SOL     OW 1315   2.007   5.926   5.575
  139SOL    HW1 1316   2.050   5.983   5.645
  139SOL    HW2 1317   2.062   5.928   5.491
  140SOL     OW 1318   1.478   6.531   4.133
  140SOL    HW1 1319   1.542   6.531   4.056
  140SOL    HW2 1320   1.387   6.508   4.100
  141SOL     OW 1321   6.739   2.788   5.690
  141SOL    HW1 1322   6.816   2.822   5.744
  141SOL    HW2 1323   6.744   2.689   5.683
  142SOL     OW 1324   2.057   3.508   2.202
  142SOL    HW1 1325   2.121   3.512   2.125
  142SOL    HW2 1326   2.090   3.567   2.276
  143SOL     OW 1327   5.541   5.994   0.892
  143SOL    HW1 1328   5.533   6.032   0.799
  143SOL    HW2 1329   5.549   6.069   0.958
  144SOL     OW 1330   2.024   4.534   5.300
  144SOL    HW1 1331   2.110   4.506   5.343
  144SOL    HW2 1332   1.949   4.483   5.341
  145SOL     OW 1333   2.365   5.340   1.161
  145SOL    HW1 1334   2.447   5.374   1.116
  145SOL    HW2 1335   2.284   5.367   1.109
  146SOL     OW 1336   4.940   0.671   0.026
  146SOL    HW1 1337   4.893   0.755   0.000
  146SOL    HW2 1338   4.941   0.609   6.977
  147SOL     OW 1339   5.232   1.354   5.992
  147SOL    HW1 1340   5.195   1.289   5.926
  147SOL    HW2 1341   5.317   1.394   5.956
  148SOL     OW 1342   0.794   5.544   1.256
  148SOL    HW1 1343   0.792   5.626   1.198
  148SOL    HW2 1344   0.701   5.519   1.282
  149SOL     OW 1345   3.422   1.896   4.928
  149SOL    HW1 1346   3.406   1.830   4.854
  149SOL    HW2 1347   3.352   1.967   4.926
  150SOL     OW 1348   5.248   0.358   6.329
  150SOL    HW1 1349   5.279   0.297   6.256
  150SOL    HW2 1350   5.159   0.327   6.363
  151SOL     OW 1351   3.844   0.925   2.035
  151SOL    HW1 1352   3.745   0.917   2.045
  151SOL    HW2 1353   3.888   0.843   2.072
  152SOL     OW 1354   0.219   1.985   0.119
  152SOL    HW1 1355   0.257   1.894   0.105
  152SOL    HW2 1356   0.234   2.040   0.037
  153SOL     OW 1357   3.096   6.620   2.942
  153SOL    HW1 1358   3.021   6.571   2.897
  153SOL    HW2 1359   3.158   6.554   2.984
  154SOL     OW 1360   0.453   3.289   0.665
  154SOL    HW1 1361   0.428   3.203   0.622
  154SOL    HW2 1362   0.513   3.271   0.743
  155SOL     OW 1363   0.888   0.802   3.198
  155SOL    HW1 1364   0.978   0.836   3.226
  155SOL    HW2 1365   0.898   0.740   3.120
  156SOL     OW 1366   6.615   0.222   6.903
  156SOL    HW1 1367   6.681   0.271   6.959
  156SOL    HW2 1368   6.652   0.212   6.810
  157SOL     OW 1369   5.416   3.365   0.587
  157SOL    HW1 1370   5.451   3.410   0.669
  157SOL    HW2 1371   5.317   3.377   0.582
  158SOL     OW 1372   1.932   2.581   1.228
  158SOL    HW1 1373   1.960   2.489   1.256
  158SOL    HW2 1374   1.900   2.632   1.308
  159SOL     OW 1375   3.887   5.011   1.237
  159SOL    HW1 1376   3.982   4.987   1.218
  159SOL    HW2 1377   3.848   4.945   1.302
  160SOL     OW 1378   5.826   0.218   0.700
  160SOL    HW1 1379   5.823   0.193   0.603
  160SOL    HW2 1380   5.899   0.285   0.715
  161SOL     OW 1381   1.749   0.130   2.449
  161SOL    HW1 1382   1.769   0.094   2.358
  161SOL    HW2 1383   1.748   0.055   2.515
  162SOL     OW 1384   3.356   6.293   6.959
  162SOL    HW1 1385   3.288   6.336   6.901
  162SOL    HW2 1386   3.447   6.308   6.920
  163SOL     OW 1387   0.779   5.795   2.600
  163SOL    HW1 1388   0.800   5.828   2.693
  163SOL    HW2 1389   0.764   5.696   2.603
  164SOL     OW 1390   0.971   3.354   2.711
  164SOL    HW1 1391   0.936   3.411   2.637
  164SOL    HW2 1392   0.962   3.258   2.688
  165SOL     OW 1393   5.459   5.457   6.947
  165SOL    HW1 1394   5.360   5.458   6.963
  165SOL    HW2 1395   5.499   5.542   6.980
  166SOL     OW 1396   0.027   3.673   1.859
  166SOL    HW1 1397   0.102   3.612   1.885
  166SOL    HW2 1398   6.974   3.649   1.911
  167SOL     OW 1399   6.376   1.445   6.379
  167SOL    HW1 1400   6.282   1.438   6.411
  167SOL    HW2 1401   6.385   1.394   6.293
  168SOL     OW 1402   4.408   2.302   1.302
  168SOL    HW1 1403   4.401   2.321   1.400
  168SOL    HW2 1404   4.464   2.219   1.288
  169SOL     OW 1405   5.522   2.405   6.824
  169SOL    HW1 1406   5.614   2.443   6.822
  169SOL    HW2 1407   5.526   2.307   6.805
  170SOL     OW 1408   0.001   5.756   2.500
  170SOL    HW1 1409   0.035   5.789   2.588
  170SOL    HW2 1410   6.995   5.663   2.511
  171SOL     OW 1411   2.576   4.390   0.411
  171SOL    HW1 1412   2.654   4.444   0.378
  171SOL    HW2 1413   2.517   4.366   0.333
  172SOL     OW 1414   5.634   1.964   2.979
  172SOL    HW1 1415   5.641   1.897   3.052
  172SOL    HW2 1416   5.559   2.027   2.998
  173SOL     OW 1417   5.848   1.533   4.820
  173SOL    HW1 1418   5.901   1.466   4.768
  173SOL    HW2 1419   5.766   1.489   4.856
  174SOL     OW 1420   4.657   5.611   3.319
  174SOL    HW1 1421   4.592   5.610   3.395
  174SOL    HW2 1422   4.739   5.558   3.344
  175SOL     OW 1423   3.267   0.759   0.990
  175SOL    HW1 1424   3.330   0.782   0.915
  175SOL    HW2 1425   3.316   0.710   1.061
  176SOL     OW 1426   5.154   4.809   2.417
  176SOL    HW1 1427   5.239   4.794   2.468
  176SOL    HW2 1428   5.176   4.838   2.324
  177SOL     OW 1429   4.880   3.310   4.614
  177SOL    HW1 1430   4.861   3.222   4.658
  177SOL    HW2 1431   4.877   3.298   4.514
  178SOL     OW 1432   2.872   4.980   5.326
  178SOL    HW1 1433   2.966   4.985   5.291
  178SOL    HW2 1434   2.813   4.941   5.256
  179SOL     OW 1435   4.301   0.316   6.652
  179SOL    HW1 1436   4.286   0.340   6.748
  179SOL    HW2 1437   4.229   0.356   6.596
  180SOL     OW 1438   2.223   7.004   0.544
  180SOL    HW1 1439   2.246   6.966   0.633
  180SOL    HW2 1440   2.172   6.936   0.491
  181SOL     OW 1441   3.035   3.349   6.072
  181SOL    HW1 1442   3.076   3.364   5.982
  181SOL    HW2 1443   3.097   3.381   6.143
  182SOL     OW 1444   4.012   2.483   6.379
  182SOL    HW1 1445   4.096   2.430   6.393
  182SOL    HW2 1446   4.035   2.581   6.380
  183SOL     OW 1447   3.306   2.125   3.715
  183SOL    HW1 1448   3.316   2.067   3.634
  183SOL    HW2 1449   3.218   2.171   3.713
  184SOL     OW 1450   0.474   6.641   3.334
  184SOL    HW1 1451   0.571   6.643   3.308
  184SOL    HW2 1452   0.422   6.702   3.275
  185SOL     OW 1453   1.443   1.307   4.863
  185SOL    HW1 1454   1.492   1.275   4.944
  185SOL    HW2 1455   1.413   1.228   4.809
  186SOL     OW 1456   5.541   0.828   4.551
  186SOL    HW1 1457   5.459   0.779   4.524
  186SOL    HW2 1458   5.526   0.873   4.639
  187SOL     OW 1459   5.706   6.763   2.142
  187SOL    HW1 1460   5.647   6.842   2.126
  187SOL    HW2 1461   5.792   6.793   2.182
  188SOL     OW 1462   0.328   3.241   3.836
  188SOL    HW1 1463   0.390   3.283   3.902
  188SOL    HW2 1464   0.358   3.262   3.743
  189SOL     OW 1465   1.711   4.763   6.667
  189SOL    HW1 1466   1.616   4.757   6.635
  189SOL    HW2 1467   1.747   4.854   6.646
  190SOL     OW 1468   6.147   4.585   6.041
  190SOL    HW1 1469   6.119   4.649   5.969
  190SOL    HW2 1470   6.246   4.569   6.035
  191SOL     OW 1471   6.648   1.210   6.595
  191SOL    HW1 1472   6.733   1.234   6.641
  191SOL    HW2 1473   6.571   1.258   6.639
  192SOL     OW 1474   0.212   4.735   1.475
  192SOL    HW1 1475   0.135   4.697   1.423
  192SOL    HW2 1476   0.298   4.695   1.442
  193SOL     OW 1477   5.078   4.195   5.224
  193SOL    HW1 1478   5.083   4.241   5.313
  193SOL    HW2 1479   5.104   4.099   5.235
  194SOL     OW 1480   3.641   6.234   3.361
  194SOL    HW1 1481   3.647   6.288   3.445
  194SOL    HW2 1482   3.721   6.175   3.353
  195SOL     OW 1483   1.939   1.135   3.359
  195SOL    HW1 1484   1.915   1.041   3.384
  195SOL    HW2 1485   1.961   1.186   3.442
  196SOL     OW 1486   3.102   0.062   6.807
  196SOL    HW1 1487   3.129   7.013   6.864
  196SOL    HW2 1488   3.145   0.146   6.842
  197SOL     OW 1489   2.892   6.992   0.409
  197SOL    HW1 1490   2.915   6.941   0.327
  197SOL    HW2 1491   2.973   7.001   0.467
  198SOL     OW 1492   4.755   6.869   2.218
  198SOL    HW1 1493   4.781   6.960   2.184
  198SOL    HW2 1494   4.753   6.805   2.142
  199SOL     OW 1495   6.784   1.196   2.955
  199SOL    HW1 1496   6.697   1.226   2.994
  199SOL    HW2 1497   6.858   1.257   2.986
  200SOL     OW 1498   0.821   4.295   1.988
  200SOL    HW1 1499   0.799   4.269   2.082
  200SOL    HW2 1500   0.740   4.287   1.931
  201SOL     OW 1501   4.757   6.846   6.628
  201SOL    HW1 1502   4.756   6.870   6.725
  201SOL    HW2 1503   4.675   6.881   6.584
  202SOL     OW 1504   5.910   0.355   5.779
  202SOL    HW1 1505   5.954   0.403   5.855
  202SOL    HW2 1506   5.810   0.360   5.790
  203SOL     OW 1507   5.237   2.136   4.705
  203SOL    HW1 1508   5.229   2.065   4.635
  203SOL    HW2 1509   5.187   2.217   4.675
  204SOL     OW 1510   6.899   1.014   6.564
  204SOL    HW1 1511   6.821   1.050   6.616
  204SOL    HW2 1512   6.982   1.021   6.619
  205SOL     OW 1513   0.793   1.002   2.096
  205SOL    HW1 1514   0.848   1.053   2.162
  205SOL    HW2 1515   0.805   1.042   2.005
  206SOL     OW 1516   0.280   5.002   2.666
  206SOL    HW1 1517   0.235   5.082   2.707
  206SOL    HW2 1518   0.377   5.023   2.650
  207SOL     OW 1519   4.255   0.261   4.509
  207SOL    HW1 1520   4.290   0.170   4.486
  207SOL    HW2 1521   4.309   0.330   4.460
  208SOL     OW 1522   5.140   4.008   5.660
  208SOL    HW1 1523   5.144   3.916   5.622
  208SOL    HW2 1524   5.224   4.057   5.638
  209SOL     OW 1525   1.196   5.175   5.101
  209SOL    HW1 1526   1.181   5.093   5.156
  209SOL    HW2 1527   1.108   5.213   5.072
  210SOL     OW 1528   4.593   2.252   1.609
  210SOL    HW1 1529   4.637   2.168   1.579
  210SOL    HW2 1530   4.616   2.270   1.705
  211SOL     OW 1531   1.211   6.460   4.472
  211SOL    HW1 1532   1.305   6.449   4.439
  211SOL    HW2 1533   1.148   6.419   4.406
  212SOL     OW 1534   2.097   4.495   2.128
  212SOL    HW1 1535   2.001   4.467   2.129
  212SOL    HW2 1536   2.123   4.524   2.036
  213SOL     OW 1537   3.640   0.900   6.322
  213SOL    HW1 1538   3.727   0.915   6.274
  213SOL    HW2 1539   3.588   0.985   6.325
  214SOL     OW 1540   3.619   6.058   2.143
  214SOL    HW1 1541   3.532   6.012   2.159
  214SOL    HW2 1542   3.692   6.008   2.189
  215SOL     OW 1543   3.206   4.158   1.781
  215SOL    HW1 1544   3.114   4.191   1.761
  215SOL    HW2 1545   3.273   4.213   1.731
  216SOL     OW 1546   1.787   6.226   4.956
  216SOL    HW1 1547   1.751   6.134   4.944
  216SOL    HW2 1548   1.733   6.276   5.023
  217SOL     OW 1549   2.294   2.366   4.004
  217SOL    HW1 1550   2.377   2.404   3.963
  217SOL    HW2 1551   2.263   2.288   3.950
  218SOL     OW 1552   0.779   3.339   4.558
  218SOL    HW1 1553   0.772   3.288   4.472
  218SOL    HW2 1554   0.818   3.429   4.541
  219SOL     OW 1555   3.526   6.715   6.456
  219SOL    HW1 1556   3.612   6.669   6.478
  219SOL    HW2 1557   3.469   6.719   6.538
  220SOL     OW 1558   3.595   6.350   6.301
  220SOL    HW1 1559   3.563   6.391   6.216
  220SOL    HW2 1560   3.693   6.334   6.295
  221SOL     OW 1561   7.020   3.842   2.611
  221SOL    HW1 1562   0.016   3.908   2.540
  221SOL    HW2 1563   0.073   3.794   2.642
  222SOL     OW 1564   2.423   4.977   5.673
  222SOL    HW1 1565   2.399   5.062   5.626
  222SOL    HW2 1566   2.345   4.914   5.669
  223SOL     OW 1567   6.028   3.406   0.959
  223SOL    HW1 1568   5.982   3.446   0.880
  223SOL    HW2 1569   5.978   3.324   0.989
  224SOL     OW 1570   2.856   1.750   3.573
  224SOL    HW1 1571   2.887   1.845   3.578
  224SOL    HW2 1572   2.872   1.714   3.482
  225SOL     OW 1573   4.731   1.330   6.141
  225SOL    HW1 1574   4.825   1.363   6.150
  225SOL    HW2 1575   4.718   1.249   6.198
  226SOL     OW 1576   0.470   0.128   6.251
  226SOL    HW1 1577   0.504   0.220   6.268
  226SOL    HW2 1578   0.502   0.097   6.162
  227SOL     OW 1579   1.401   4.304   1.879
  227SOL    HW1 1580   1.330   4.258   1.825
  227SOL    HW2 1581   1.451   4.237   1.933
  228SOL     OW 1582   3.636   6.261   3.674
  228SOL    HW1 1583   3.647   6.339   3.613
  228SOL    HW2 1584   3.555   6.274   3.731
  229SOL     OW 1585   5.649   6.422   0.533
  229SOL    HW1 1586   5.633   6.337   0.484
  229SOL    HW2 1587   5.580   6.490   0.506
  230SOL     OW 1588   2.828   4.695   2.743
  230SOL    HW1 1589   2.849   4.599   2.725
  230SOL    HW2 1590   2.753   4.724   2.683
  231SOL     OW 1591   6.284   2.119   6.197
  231SOL    HW1 1592   6.339   2.036   6.208
  231SOL    HW2 1593   6.217   2.125   6.272
  232SOL     OW 1594   0.946   4.222   5.960
  232SOL    HW1 1595   0.950   4.204   6.058
  232SOL    HW2 1596   0.857   4.193   5.924
  233SOL     OW 1597   2.178   0.896   4.107
  233SOL    HW1 1598   2.249   0.875   4.040
  233SOL    HW2 1599   2.088   0.870   4.071
  234SOL     OW 1600   2.978   5.936   5.481
  234SOL    HW1 1601   3.018   5.858   5.434
  234SOL    HW2 1602   2.879   5.935   5.467
  235SOL     OW 1603   3.026   3.333   2.219
  235SOL    HW1 1604   2.964   3.411   2.209
  235SOL    HW2 1605   3.056   3.326   2.314
  236SOL     OW 1606   6.009   2.742   6.655
  236SOL    HW1 1607   5.979   2.737   6.560
  236SOL    HW2 1608   6.056   2.658   6.680
  237SOL     OW 1609   6.415   6.673   0.862
  237SOL    HW1 1610   6.447   6.578   0.870
  237SOL    HW2 1611   6.472   6.732   0.918
  238SOL     OW 1612   5.996   1.962   6.930
  238SOL    HW1 1613   5.917   1.920   6.975
  238SOL    HW2 1614   6.041   2.025   6.994
  239SOL     OW 1615   6.552   5.910   6.900
  239SOL    HW1 1616   6.602   5.995   6.883
  239SOL    HW2 1617   6.523   5.907   6.995
  240SOL     OW 1618   0.023   3.143   5.771
  240SOL    HW1 1619   0.001   3.241   5.769
  240SOL    HW2 1620   0.110   3.130   5.818
  241SOL     OW 1621   1.096   0.308   4.539
  241SOL    HW1 1622   1.083   0.235   4.472
  241SOL    HW2 1623   1.007   0.339   4.572
  242SOL     OW 1624   2.171   3.211   6.210
  242SOL    HW1 1625   2.261   3.248   6.190
  242SOL    HW2 1626   2.102   3.259   6.155
  243SOL     OW 1627   5.103   6.989   6.580
  243SOL    HW1 1628   5.062   6.931   6.651
  243SOL    HW2 1629   5.090   0.057   6.605
  244SOL     OW 1630   4.835   3.098   4.161
  244SOL    HW1 1631   4.834   3.155   4.080
  244SOL    HW2 1632   4.741   3.085   4.194
  245SOL     OW 1633   0.240   2.404   4.837
  245SOL    HW1 1634   0.196   2.445   4.917
  245SOL    HW2 1635   0.172   2.357   4.782
  246SOL     OW 1636   5.527   2.954   3.292
  246SOL    HW1 1637   5.503   3.032   3.233
  246SOL    HW2 1638   5.444   2.920   3.337
  247SOL     OW 1639   1.863   1.950   2.105
  247SOL    HW1 1640   1.799   1.879   2.073
  247SOL    HW2 1641   1.831   1.986   2.193
  248SOL     OW 1642   4.648   2.213   4.735
  248SOL    HW1 1643   4.701   2.198   4.818
  248SOL    HW2 1644   4.567   2.154   4.735
  249SOL     OW 1645   4.758   7.028   5.281
  249SOL    HW1 1646   4.838   0.001   5.220
  249SOL    HW2 1647   4.709   6.942   5.270
  250SOL     OW 1648   4.801   2.413   5.830
  250SOL    HW1 1649   4.825   2.316   5.817
  250SOL    HW2 1650   4.871   2.470   5.788
  251SOL     OW 1651   4.286   4.777   6.294
  251SOL    HW1 1652   4.282   4.873   6.321
  251SOL    HW2 1653   4.204   4.730   6.326
  252SOL     OW 1654   0.127   0.756   0.189
  252SOL    HW1 1655   0.090   0.691   0.122
  252SOL    HW2 1656   0.052   0.804   0.233
  253SOL     OW 1657   2.191   4.286   0.426
  253SOL    HW1 1658   2.226   4.258   0.516
  253SOL    HW2 1659   2.110   4.232   0.405
  254SOL     OW 1660   6.670   2.763   3.377
  254SOL    HW1 1661   6.585   2.728   3.337
  254SOL    HW2 1662   6.741   2.692   3.372
  255SOL     OW 1663   1.996   3.108   3.878
  255SOL    HW1 1664   2.057   3.117   3.957
  255SOL    HW2 1665   1.950   3.195   3.860
  256SOL     OW 1666   6.468   4.662   0.423
  256SOL    HW1 1667   6.509   4.609   0.497
  256SOL    HW2 1668   6.368   4.652   0.426
  257SOL     OW 1669   3.697   5.368   5.324
  257SOL    HW1 1670   3.699   5.463   5.295
  257SOL    HW2 1671   3.762   5.315   5.269
  258SOL     OW 1672   5.616   4.655   4.728
  258SOL    HW1 1673   5.601   4.557   4.715
  258SOL    HW2 1674   5.563   4.687   4.807
  259SOL     OW 1675   1.856   2.851   2.367
  259SOL    HW1 1676   1.868   2.838   2.465
  259SOL    HW2 1677   1.891   2.941   2.341
  260SOL     OW 1678   4.485   0.921   1.215
  260SOL    HW1 1679   4.447   0.853   1.278
  260SOL    HW2 1680   4.554   0.975   1.262
  261SOL     OW 1681   6.461   3.705   1.343
  261SOL    HW1 1682   6.369   3.686   1.376
  261SOL    HW2 1683   6.478   3.651   1.260
  262SOL     OW 1684   0.449   4.021   1.689
  262SOL    HW1 1685   0.490   3.940   1.645
  262SOL    HW2 1686   0.352   4.026   1.665
  263SOL     OW 1687   0.817   1.179   3.875
  263SOL    HW1 1688   0.916   1.164   3.885
  263SOL    HW2 1689   0.799   1.224   3.787
  264SOL     OW 1690   5.554   4.173   5.064
  264SOL    HW1 1691   5.529   4.085   5.022
  264SOL    HW2 1692   5.614   4.223   5.002
  265SOL     OW 1693   4.783   4.204   3.080
  265SOL    HW1 1694   4.809   4.136   3.012
  265SOL    HW2 1695   4.769   4.158   3.168
  266SOL     OW 1696   3.546   3.125   5.918
  266SOL    HW1 1697   3.588   3.165   5.999
  266SOL    HW2 1698   3.550   3.025   5.924
  267SOL     OW 1699   6.962   2.499   5.872
  267SOL    HW1 1700   6.893   2.546   5.926
  267SOL    HW2 1701   6.917   2.433   5.811
  268SOL     OW 1702   4.824   5.867   5.023
  268SOL    HW1 1703   4.915   5.897   5.051
  268SOL    HW2 1704   4.784   5.933   4.960
  269SOL     OW 1705   1.815   1.736   0.429
  269SOL    HW1 1706   1.912   1.755   0.418
  269SOL    HW2 1707   1.768   1.750   0.342
  270SOL     OW 1708   0.056   0.509   2.037
  270SOL    HW1 1709   0.111   0.446   1.982
  270SOL    HW2 1710   0.112   0.588   2.063
  271SOL     OW 1711   2.866   2.392   0.225
  271SOL    HW1 1712   2.836   2.477   0.182
  271SOL    HW2 1713   2.823   2.383   0.315
  272SOL     OW 1714   3.325   5.405   4.083
  272SOL    HW1 1715   3.282   5.430   3.997
  272SOL    HW2 1716   3.315   5.480   4.149
  273SOL     OW 1717   1.440   5.526   5.261
  273SOL    HW1 1718   1.395   5.494   5.178
  273SOL    HW2 1719   1.412   5.469   5.338
  274SOL     OW 1720   5.588   2.136   4.127
  274SOL    HW1 1721   5.639   2.163   4.209
  274SOL    HW2 1722   5.496   2.174   4.131
  275SOL     OW 1723   0.059   6.047   6.122
  275SOL    HW1 1724   7.019   6.059   6.051
  275SOL    HW2 1725   0.027   5.979   6.188
  276SOL     OW 1726   6.719   5.266   3.883
  276SOL    HW1 1727   6.693   5.174   3.852
  276SOL    HW2 1728   6.663   5.334   3.835
  277SOL     OW 1729   2.962   1.451   6.814
  277SOL    HW1 1730   3.030   1.515   6.782
  277SOL    HW2 1731   2.931   1.393   6.738
  278SOL     OW 1732   6.273   3.591   1.961
  278SOL    HW1 1733   6.360   3.550   1.988
  278SOL    HW2 1734   6.198   3.544   2.008
  279SOL     OW 1735   6.343   2.657   4.241
  279SOL    HW1 1736   6.393   2.683   4.158
  279SOL    HW2 1737   6.272   2.591   4.217
  280SOL     OW 1738   3.857   6.966   2.925
  280SOL    HW1 1739   3.932   0.001   2.911
  280SOL    HW2 1740   3.821   6.937   2.837
  281SOL     OW 1741   2.739   4.733   2.990
  281SOL    HW1 1742   2.651   4.688   3.007
  281SOL    HW2 1743   2.771   4.709   2.898
  282SOL     OW 1744   4.002   2.587   5.393
  282SOL    HW1 1745   4.065   2.594   5.316
  282SOL    HW2 1746   3.961   2.495   5.395
  283SOL     OW 1747   6.288   0.688   6.033
  283SOL    HW1 1748   6.365   0.626   6.047
  283SOL    HW2 1749   6.204   0.634   6.019
  284SOL     OW 1750   0.683   4.756   5.202
  284SOL    HW1 1751   0.669   4.658   5.186
  284SOL    HW2 1752   0.713   4.770   5.296
  285SOL     OW 1753   5.087   5.743   0.119
  285SOL    HW1 1754   5.117   5.775   0.209
  285SOL    HW2 1755   5.167   5.711   0.068
  286SOL     OW 1756   4.125   4.831   4.993
  286SOL    HW1 1757   4.028   4.845   4.975
  286SOL    HW2 1758   4.174   4.917   4.978
  287SOL     OW 1759   0.651   5.388   6.636
  287SOL    HW1 1760   0.581   5.318   6.639
  287SOL    HW2 1761   0.612   5.474   6.603
  288SOL     OW 1762   4.208   1.176   0.437
  288SOL    HW1 1763   4.305   1.194   0.424
  288SOL    HW2 1764   4.154   1.250   0.397
  289SOL     OW 1765   0.272   5.646   5.189
  289SOL    HW1 1766   0.262   5.722   5.253
  289SOL    HW2 1767   0.207   5.656   5.114
  290SOL     OW 1768   4.893   1.473   3.890
  290SOL    HW1 1769   4.970   1.429   3.844
  290SOL    HW2 1770   4.855   1.411   3.959
  291SOL     OW 1771   3.618   0.997   4.241
  291SOL    HW1 1772   3.647   0.908   4.205
  291SOL    HW2 1773   3.690   1.064   4.227
  292SOL     OW 1774   4.274   1.487   3.944
  292SOL    HW1 1775   4.370   1.493   3.972
  292SOL    HW2 1776   4.233   1.578   3.950
  293SOL     OW 1777   3.689   6.251   1.715
  293SOL    HW1 1778   3.728   6.342   1.727
  293SOL    HW2 1779   3.748   6.184   1.759
  294SOL     OW 1780   6.115   5.796   6.897
  294SOL    HW1 1781   6.056   5.842   6.831
  294SOL    HW2 1782   6.109   5.697   6.885
  295SOL     OW 1783   2.391   1.916   5.475
  295SOL    HW1 1784   2.452   1.964   5.412
  295SOL    HW2 1785   2.322   1.980   5.510
  296SOL     OW 1786   6.532   2.462   1.919
  296SOL    HW1 1787   6.557   2.515   1.838
  296SOL    HW2 1788   6.457   2.400   1.896
  297SOL     OW 1789   3.313   4.910   2.924
  297SOL    HW1 1790   3.230   4.854   2.925
  297SOL    HW2 1791   3.305   4.982   2.994
  298SOL     OW 1792   4.291   6.983   6.993
  298SOL    HW1 1793   4.228   0.032   6.987
  298SOL    HW2 1794   4.291   6.934   6.906
  299SOL     OW 1795   4.619   2.363   6.206
  299SOL    HW1 1796   4.561   2.424   6.260
  299SOL    HW2 1797   4.563   2.291   6.165
  300SOL     OW 1798   4.563   0.650   2.590
  300SOL    HW1 1799   4.493   0.579   2.600
  300SOL    HW2 1800   4.566   0.681   2.494
  301SOL     OW 1801   5.018   1.777   0.765
  301SOL    HW1 1802   5.078   1.856   0.776
  301SOL    HW2 1803   5.072   1.693   0.775
  302SOL     OW 1804   6.602   0.758   2.720
  302SOL    HW1 1805   6.552   0.797   2.643
  302SOL    HW2 1806   6.560   0.672   2.748
  303SOL     OW 1807   6.402   5.868   2.317
  303SOL    HW1 1808   6.414   5.789   2.257
  303SOL    HW2 1809   6.484   5.879   2.374
  304SOL     OW 1810   2.039   6.272   6.376
  304SOL    HW1 1811   2.130   6.308   6.352
  304SOL    HW2 1812   1.981   6.347   6.408
  305SOL     OW 1813   1.192   2.848   0.862
  305SOL    HW1 1814   1.179   2.926   0.801
  305SOL    HW2 1815   1.173   2.877   0.956
  306SOL     OW 1816   0.425   1.038   2.758
  306SOL    HW1 1817   0.421   1.055   2.856
  306SOL    HW2 1818   0.518   1.009   2.733
  307SOL     OW 1819   4.651   4.426   0.258
  307SOL    HW1 1820   4.686   4.515   0.230
  307SOL    HW2 1821   4.727   4.370   0.292
  308SOL     OW 1822   5.894   3.187   4.529
  308SOL    HW1 1823   5.849   3.126   4.594
  308SOL    HW2 1824   5.860   3.169   4.436
  309SOL     OW 1825   1.461   6.115   0.160
  309SOL    HW1 1826   1.528   6.158   0.100
  309SOL    HW2 1827   1.409   6.185   0.209
  310SOL     OW 1828   5.327   5.561   4.464
  310SOL    HW1 1829   5.291   5.654   4.456
  310SOL    HW2 1830   5.270   5.509   4.527
  311SOL     OW 1831   3.041   5.313   2.499
  311SOL    HW1 1832   2.961   5.261   2.468
  311SOL    HW2 1833   3.014   5.374   2.574
  312SOL     OW 1834   3.560   1.832   4.408
  312SOL    HW1 1835   3.639   1.773   4.424
  312SOL    HW2 1836   3.579   1.923   4.443
  313SOL     OW 1837   3.453   4.143   2.347
  313SOL    HW1 1838   3.441   4.241   2.332
  313SOL    HW2 1839   3.373   4.094   2.313
  314SOL     OW 1840   2.590   4.579   5.649
  314SOL    HW1 1841   2.605   4.657   5.710
  314SOL    HW2 1842   2.655   4.582   5.573
  315SOL     OW 1843   1.123   2.833   4.215
  315SOL    HW1 1844   1.143   2.897   4.141
  315SOL    HW2 1845   1.175   2.858   4.297
  316SOL     OW 1846   3.468   0.330   4.356
  316SOL    HW1 1847   3.410   0.340   4.437
  316SOL    HW2 1848   3.542   0.397   4.359
  317SOL     OW 1849   0.013   1.996   1.303
  317SOL    HW1 1850   6.946   2.012   1.328
  317SOL    HW2 1851   0.019   1.911   1.251
  318SOL     OW 1852   0.128   6.517   6.883
  318SOL    HW1 1853   0.102   6.613   6.894
  318SOL    HW2 1854   0.049   6.465   6.850
  319SOL     OW 1855   6.551   1.601   3.669
  319SOL    HW1 1856   6.638   1.636   3.633
  319SOL    HW2 1857   6.568   1.552   3.754
  320SOL     OW 1858   5.713   2.566   0.317
  320SOL    HW1 1859   5.636   2.502   0.315
  320SOL    HW2 1860   5.799   2.515   0.313
  321SOL     OW 1861   4.063   2.169   0.113
  321SOL    HW1 1862   3.978   2.117   0.110
  321SOL    HW2 1863   4.112   2.158   0.027
  322SOL     OW 1864   3.146   3.248   4.164
  322SOL    HW1 1865   3.163   3.241   4.262
  322SOL    HW2 1866   3.062   3.300   4.149
  323SOL     OW 1867   1.104   2.601   5.940
  323SOL    HW1 1868   1.058   2.569   5.858
  323SOL    HW2 1869   1.186   2.547   5.956
  324SOL     OW 1870   3.158   0.376   3.101
  324SOL    HW1 1871   3.108   0.328   3.029
  324SOL    HW2 1872   3.103   0.452   3.135
  325SOL     OW 1873   0.387   2.762   1.746
  325SOL    HW1 1874   0.486   2.767   1.742
  325SOL    HW2 1875   0.349   2.774   1.654
  326SOL     OW 1876   0.745   4.072   6.299
  326SOL    HW1 1877   0.689   3.989   6.295
  326SOL    HW2 1878   0.686   4.152   6.303
  327SOL     OW 1879   1.915   4.816   2.326
  327SOL    HW1 1880   2.013   4.818   2.344
  327SOL    HW2 1881   1.869   4.883   2.384
  328SOL     OW 1882   1.632   5.662   1.821
  328SOL    HW1 1883   1.584   5.576   1.832
  328SOL    HW2 1884   1.656   5.674   1.724
  329SOL     OW 1885   2.888   3.503   5.497
  329SOL    HW1 1886   2.930   3.416   5.474
  329SOL    HW2 1887   2.824   3.530   5.425
  330SOL     OW 1888   3.235   6.394   1.221
  330SOL    HW1 1889   3.329   6.405   1.188
  330SOL    HW2 1890   3.174   6.381   1.143
  331SOL     OW 1891   4.236   5.450   0.544
  331SOL    HW1 1892   4.262   5.402   0.629
  331SOL    HW2 1893   4.222   5.546   0.564
  332SOL     OW 1894   5.274   2.892   5.440
  332SOL    HW1 1895   5.296   2.989   5.427
  332SOL    HW2 1896   5.353   2.836   5.413
  333SOL     OW 1897   4.382   0.858   5.620
  333SOL    HW1 1898   4.429   0.797   5.557
  333SOL    HW2 1899   4.373   0.814   5.710
  334SOL     OW 1900   3.443   1.697   0.065
  334SOL    HW1 1901   3.440   1.796   0.047
  334SOL    HW2 1902   3.364   1.672   0.122
  335SOL     OW 1903   3.900   0.002   6.382
  335SOL    HW1 1904   3.920   0.099   6.394
  335SOL    HW2 1905   3.852   6.996   6.462
  336SOL     OW 1906   2.850   1.153   3.164
  336SOL    HW1 1907   2.837   1.081   3.096
  336SOL    HW2 1908   2.803   1.128   3.248
  337SOL     OW 1909   6.975   3.439   5.781
  337SOL    HW1 1910   6.973   3.493   5.697
  337SOL    HW2 1911   6.887   3.393   5.794
  338SOL     OW 1912   2.903   2.447   1.115
  338SOL    HW1 1913   2.883   2.545   1.123
  338SOL    HW2 1914   2.992   2.435   1.069
  339SOL     OW 1915   4.498   5.762   4.682
  339SOL    HW1 1916   4.414   5.760   4.626
  339SOL    HW2 1917   4.511   5.855   4.718
  340SOL     OW 1918   5.590   3.657   4.695
  340SOL    HW1 1919   5.546   3.706   4.770
  340SOL    HW2 1920   5.546   3.567   4.684
  341SOL     OW 1921   6.288   6.664   4.487
  341SOL    HW1 1922   6.238   6.724   4.549
  341SOL    HW2 1923   6.321   6.584   4.537
  342SOL     OW 1924   5.569   3.701   0.575
  342SOL    HW1 1925   5.508   3.728   0.650
  342SOL    HW2 1926   5.548   3.755   0.494
  343SOL     OW 1927   0.969   5.857   1.340
  343SOL    HW1 1928   0.911   5.807   1.276
  343SOL    HW2 1929   0.973   5.954   1.313
  344SOL     OW 1930   0.737   3.283   1.700
  344SOL    HW1 1931   0.780   3.308   1.787
  344SOL    HW2 1932   0.638   3.283   1.711
  345SOL     OW 1933   5.457   2.421   3.480
  345SOL    HW1 1934   5.501   2.504   3.514
  345SOL    HW2 1935   5.407   2.442   3.396
  346SOL     OW 1936   1.900   1.169   2.498
  346SOL    HW1 1937   1.892   1.080   2.543
  346SOL    HW2 1938   1.995   1.185   2.471
  347SOL     OW 1939   2.851   5.549   6.916
  347SOL    HW1 1940   2.833   5.630   6.973
  347SOL    HW2 1941   2.929   5.567   6.857
  348SOL     OW 1942   5.052   4.156   2.761
  348SOL    HW1 1943   5.112   4.222   2.717
  348SOL    HW2 1944   4.957   4.185   2.749
  349SOL     OW 1945   0.028   5.093   1.151
  349SOL    HW1 1946   0.007   5.004   1.190
  349SOL    HW2 1947   0.053   5.082   1.054
  350SOL     OW 1948   3.042   2.056   1.104
  350SOL    HW1 1949   3.096   2.132   1.140
  350SOL    HW2 1950   2.957   2.047   1.156
  351SOL     OW 1951   2.919   3.459   0.818
  351SOL    HW1 1952   2.852   3.389   0.845
  351SOL    HW2 1953   2.920   3.467   0.718
  352SOL     OW 1954   3.269   7.004   3.493
  352SOL    HW1 1955   3.214   6.984   3.412
  352SOL    HW2 1956   3.341   0.040   3.470
  353SOL     OW 1957   3.152   0.370   0.016
  353SOL    HW1 1958   3.159   0.287   0.071
  353SOL    HW2 1959   3.223   0.435   0.043
  354SOL     OW 1960   4.381   2.438   1.573
  354SOL    HW1 1961   4.424   2.524   1.545
  354SOL    HW2 1962   4.452   2.374   1.604
  355SOL     OW 1963   1.532   3.963   2.872
  355SOL    HW1 1964   1.608   3.988   2.932
  355SOL    HW2 1965   1.465   3.910   2.923
  356SOL     OW 1966   2.039   0.417   5.650
  356SOL    HW1 1967   2.027   0.472   5.567
  356SOL    HW2 1968   2.026   0.475   5.730
  357SOL     OW 1969   6.845   6.683   5.253
  357SOL    HW1 1970   6.840   6.583   5.247
  357SOL    HW2 1971   6.921   6.709   5.312
  358SOL     OW 1972   4.832   6.459   0.409
  358SOL    HW1 1973   4.770   6.504   0.346
  358SOL    HW2 1974   4.818   6.494   0.502
  359SOL     OW 1975   3.154   2.153   1.575
  359SOL    HW1 1976   3.235   2.113   1.533
  359SOL    HW2 1977   3.083   2.082   1.583
  360SOL     OW 1978   1.236   4.253   5.567
  360SOL    HW1 1979   1.179   4.198   5.629
  360SOL    HW2 1980   1.178   4.295   5.497
  361SOL     OW 1981   6.883   6.100   2.963
  361SOL    HW1 1982   6.961   6.131   2.909
  361SOL    HW2 1983   6.897   6.125   3.059
  362SOL     OW 1984   3.262   2.639   1.374
  362SOL    HW1 1985   3.168   2.625   1.405
  362SOL    HW2 1986   3.315   2.557   1.390
  363SOL     OW 1987   5.644   3.851   3.090
  363SOL    HW1 1988   5.579   3.856   3.014
  363SOL    HW2 1989   5.734   3.823   3.055
  364SOL     OW 1990   6.122   4.923   6.715
  364SOL    HW1 1991   6.199   4.873   6.678
  364SOL    HW2 1992   6.155   4.998   6.772
  365SOL     OW 1993   5.520   6.976   2.057
  365SOL    HW1 1994   5.554   6.939   1.970
  365SOL    HW2 1995   5.479   0.037   2.041
  366SOL     OW 1996   5.382   1.075   0.091
  366SOL    HW1 1997   5.424   1.011   0.026
  366SOL    HW2 1998   5.284   1.080   0.073
  367SOL     OW 1999   5.785   2.645   1.224
  367SOL    HW1 2000   5.784   2.609   1.317
  367SOL    HW2 2001   5.823   2.576   1.162
  368SOL     OW 2002   0.460   2.818   5.691
  368SOL    HW1 2003   0.536   2.754   5.704
  368SOL    HW2 2004   0.471   2.895   5.754
  369SOL     OW 2005   5.950   5.349   2.773
  369SOL    HW1 2006   5.956   5.424   2.707
  369SOL    HW2 2007   5.996   5.268   2.737
  370SOL     OW 2008   1.747   1.602   4.903
  370SOL    HW1 2009   1.804   1.568   4.829
  370SOL    HW2 2010   1.784   1.688   4.938
  371SOL     OW 2011   1.426   4.495   5.468
  371SOL    HW1 2012   1.442   4.401   5.498
  371SOL    HW2 2013   1.372   4.543   5.537
  372SOL     OW 2014   1.590   6.947   6.307
  372SOL    HW1 2015   1.544   6.958   6.219
  372SOL    HW2 2016   1.667   7.012   6.312
  373SOL     OW 2017   6.237   6.401   4.716
  373SOL    HW1 2018   6.240   6.307   4.749
  373SOL    HW2 2019   6.315   6.452   4.753
  374SOL     OW 2020   2.568   1.719   4.315
  374SOL    HW1 2021   2.612   1.676   4.235
  374SOL    HW2 2022   2.469   1.705   4.309
  375SOL     OW 2023   1.039   4.420   3.818
  375SOL    HW1 2024   1.125   4.386   3.781
  375SOL    HW2 2025   1.048   4.518   3.838
  376SOL     OW 2026   2.127   1.059   5.372
  376SOL    HW1 2027   2.222   1.080   5.349
  376SOL    HW2 2028   2.065   1.115   5.317
  377SOL     OW 2029   1.169   1.833   0.811
  377SOL    HW1 2030   1.088   1.817   0.868
  377SOL    HW2 2031   1.157   1.789   0.722
  378SOL     OW 2032   4.832   2.478   6.652
  378SOL    HW1 2033   4.854   2.444   6.560
  378SOL    HW2 2034   4.767   2.416   6.696
  379SOL     OW 2035   6.257   2.442   1.650
  379SOL    HW1 2036   6.169   2.395   1.661
  379SOL    HW2 2037   6.261   2.518   1.715
  380SOL     OW 2038   3.120   1.360   0.866
  380SOL    HW1 2039   3.090   1.451   0.837
  380SOL    HW2 2040   3.142   1.305   0.786
  381SOL     OW 2041   1.489   4.244   3.074
  381SOL    HW1 2042   1.547   4.165   3.053
  381SOL    HW2 2043   1.394   4.223   3.051
  382SOL     OW 2044   5.949   0.738   7.016
  382SOL    HW1 2045   5.975   0.802   0.060
  382SOL    HW2 2046   6.032   0.703   6.972
  383SOL     OW 2047   4.032   3.902   6.757
  383SOL    HW1 2048   3.986   3.979   6.802
  383SOL    HW2 2049   4.130   3.905   6.777
  384SOL     OW 2050   6.989   5.293   3.989
  384SOL    HW1 2051   6.909   5.261   3.939
  384SOL    HW2 2052   6.973   5.386   4.022
  385SOL     OW 2053   3.094   4.801   5.108
  385SOL    HW1 2054   3.034   4.721   5.111
  385SOL    HW2 2055   3.175   4.784   5.164
  386SOL     OW 2056   2.862   6.815   4.735
  386SOL    HW1 2057   2.863   6.839   4.832
  386SOL    HW2 2058   2.795   6.873   4.687
  387SOL     OW 2059   1.235   6.801   2.228
  387SOL    HW1 2060   1.334   6.803   2.238
  387SOL    HW2 2061   1.210   6.738   2.155
  388SOL     OW 2062   1.141   2.035   5.481
  388SOL    HW1 2063   1.089   1.975   5.542
  388SOL    HW2 2064   1.133   2.002   5.387
  389SOL     OW 2065   3.907   3.645   1.651
  389SOL    HW1 2066   3.844   3.593   1.594
  389SOL    HW2 2067   3.937   3.727   1.602
  390SOL     OW 2068   3.051   1.633   1.751
  390SOL    HW1 2069   3.050   1.602   1.656
  390SOL    HW2 2070   2.979   1.701   1.764
  391SOL     OW 2071   2.116   2.607   6.895
  391SOL    HW1 2072   2.149   2.520   6.858
  391SOL    HW2 2073   2.096   2.597   6.992
  392SOL     OW 2074   1.409   4.296   0.500
  392SOL    HW1 2075   1.474   4.221   0.485
  392SOL    HW2 2076   1.432   4.372   0.440
  393SOL     OW 2077   1.260   4.655   6.286
  393SOL    HW1 2078   1.269   4.557   6.307
  393SOL    HW2 2079   1.287   4.709   6.366
  394SOL     OW 2080   6.748   1.864   0.136
  394SOL    HW1 2081   6.841   1.901   0.147
  394SOL    HW2 2082   6.752   1.783   0.077
  395SOL     OW 2083   4.994   3.776   2.993
  395SOL    HW1 2084   4.963   3.700   2.937
  395SOL    HW2 2085   5.055   3.741   3.065
  396SOL     OW 2086   3.599   3.770   1.541
  396SOL    HW1 2087   3.642   3.852   1.577
  396SOL    HW2 2088   3.571   3.786   1.446
  397SOL     OW 2089   5.878   1.741   5.411
  397SOL    HW1 2090   5.823   1.666   5.447
  397SOL    HW2 2091   5.900   1.723   5.315
  398SOL     OW 2092   0.728   6.898   1.967
  398SOL    HW1 2093   0.710   6.992   1.997
  398SOL    HW2 2094   0.711   6.835   2.043
  399SOL     OW 2095   6.289   6.013   2.873
  399SOL    HW1 2096   6.353   6.060   2.813
  399SOL    HW2 2097   6.218   6.078   2.903
  400SOL     OW 2098   6.401   6.429   5.560
  400SOL    HW1 2099   6.338   6.352   5.552
  400SOL    HW2 2100   6.382   6.496   5.488
  401SOL     OW 2101   5.864   0.819   6.373
  401SOL    HW1 2102   5.852   0.917   6.384
  401SOL    HW2 2103   5.813   0.787   6.293
  402SOL     OW 2104   5.709   0.252   3.622
  402SOL    HW1 2105   5.701   0.348   3.650
  402SOL    HW2 2106   5.693   0.192   3.700
  403SOL     OW 2107   3.708   2.162   4.382
  403SOL    HW1 2108   3.731   2.137   4.288
  403SOL    HW2 2109   3.699   2.261   4.389
  404SOL     OW 2110   1.922   5.010   4.008
  404SOL    HW1 2111   1.935   4.930   4.067
  404SOL    HW2 2112   1.917   5.092   4.065
  405SOL     OW 2113   1.437   3.742   1.918
  405SOL    HW1 2114   1.535   3.744   1.899
  405SOL    HW2 2115   1.417   3.670   1.984
  406SOL     OW 2116   0.991   4.151   4.498
  406SOL    HW1 2117   0.943   4.155   4.586
  406SOL    HW2 2118   1.085   4.184   4.509
  407SOL     OW 2119   1.698   0.520   4.240
  407SOL    HW1 2120   1.704   0.517   4.340
  407SOL    HW2 2121   1.611   0.482   4.211
  408SOL     OW 2122   1.150   2.395   2.925
  408SOL    HW1 2123   1.104   2.376   3.012
  408SOL    HW2 2124   1.225   2.331   2.912
  409SOL     OW 2125   0.016   2.982   1.872
  409SOL    HW1 2126   6.956   2.969   1.828
  409SOL    HW2 2127   0.023   2.923   1.952
  410SOL     OW 2128   1.904   1.353   0.981
  410SOL    HW1 2129   1.875   1.444   0.953
  410SOL    HW2 2130   2.003   1.344   0.967
  411SOL     OW 2131   5.803   6.826   1.886
  411SOL    HW1 2132   5.886   6.789   1.846
  411SOL    HW2 2133   5.780   6.775   1.969
  412SOL     OW 2134   4.313   6.023   4.153
  412SOL    HW1 2135   4.302   6.055   4.247
  412SOL    HW2 2136   4.331   6.102   4.094
  413SOL     OW 2137   4.970   3.566   1.357
  413SOL    HW1 2138   4.937   3.516   1.277
  413SOL    HW2 2139   5.032   3.639   1.327
  414SOL     OW 2140   3.967   5.501   3.495
  414SOL    HW1 2141   4.030   5.472   3.422
  414SOL    HW2 2142   4.000   5.467   3.583
  415SOL     OW 2143   0.757   6.033   6.643
  415SOL    HW1 2144   0.720   6.047   6.735
  415SOL    HW2 2145   0.851   5.998   6.650
  416SOL     OW 2146   4.801   6.622   4.373
  416SOL    HW1 2147   4.785   6.704   4.429
  416SOL    HW2 2148   4.716   6.596   4.328
  417SOL     OW 2149   2.526   5.406   6.585
  417SOL    HW1 2150   2.556   5.498   6.610
  417SOL    HW2 2151   2.525   5.397   6.485
  418SOL     OW 2152   4.546   6.320   0.128
  418SOL    HW1 2153   4.604   6.248   0.090
  418SOL    HW2 2154   4.458   6.321   0.080
  419SOL     OW 2155   2.280   6.881   1.740
  419SOL    HW1 2156   2.246   6.958   1.794
  419SOL    HW2 2157   2.235   6.797   1.771
  420SOL     OW 2158   5.997   1.568   0.133
  420SOL    HW1 2159   6.036   1.558   0.042
  420SOL    HW2 2160   5.904   1.602   0.127
  421SOL     OW 2161   6.759   4.579   5.776
  421SOL    HW1 2162   6.707   4.633   5.710
  421SOL    HW2 2163   6.857   4.593   5.760
  422SOL     OW 2164   5.514   3.687   1.829
  422SOL    HW1 2165   5.420   3.671   1.859
  422SOL    HW2 2166   5.550   3.604   1.787
  423SOL     OW 2167   0.669   1.930   6.169
  423SOL    HW1 2168   0.590   1.887   6.211
  423SOL    HW2 2169   0.723   1.862   6.119
  424SOL     OW 2170   1.865   5.107   0.748
  424SOL    HW1 2171   1.880   5.009   0.759
  424SOL    HW2 2172   1.872   5.152   0.837
  425SOL     OW 2173   4.742   1.647   3.687
  425SOL    HW1 2174   4.749   1.604   3.777
  425SOL    HW2 2175   4.716   1.743   3.698
  426SOL     OW 2176   3.711   2.103   4.640
  426SOL    HW1 2177   3.614   2.100   4.662
  426SOL    HW2 2178   3.723   2.127   4.543
  427SOL     OW 2179   5.377   6.430   3.772
  427SOL    HW1 2180   5.433   6.484   3.709
  427SOL    HW2 2181   5.283   6.466   3.773
  428SOL     OW 2182   4.458   0.468   4.029
  428SOL    HW1 2183   4.496   0.376   4.028
  428SOL    HW2 2184   4.426   0.489   4.122
  429SOL     OW 2185   1.222   4.504   1.265
  429SOL    HW1 2186   1.138   4.460   1.297
  429SOL    HW2 2187   1.286   4.434   1.233
  430SOL     OW 2188   0.634   0.328   4.840
  430SOL    HW1 2189   0.665   0.324   4.935
  430SOL    HW2 2190   0.637   0.236   4.800
  431SOL     OW 2191   2.409   0.333   0.733
  431SOL    HW1 2192   2.463   0.273   0.675
  431SOL    HW2 2193   2.337   0.377   0.678
  432SOL     OW 2194   6.242   1.777   0.704
  432SOL    HW1 2195   6.295   1.702   0.665
  432SOL    HW2 2196   6.286   1.808   0.789
  433SOL     OW 2197   2.212   6.614   4.763
  433SOL    HW1 2198   2.242   6.688   4.823
  433SOL    HW2 2199   2.121   6.635   4.726
  434SOL     OW 2200   3.331   5.353   2.886
  434SOL    HW1 2201   3.314   5.429   2.823
  434SOL    HW2 2202   3.405   5.296   2.851
  435SOL     OW 2203   4.970   2.908   6.775
  435SOL    HW1 2204   4.892   2.863   6.732
  435SOL    HW2 2205   5.046   2.843   6.783
  436SOL     OW 2206   3.238   5.948   1.795
  436SOL    HW1 2207   3.272   6.010   1.724
  436SOL    HW2 2208   3.308   5.936   1.864
  437SOL     OW 2209   0.874   1.355   0.203
  437SOL    HW1 2210   0.903   1.259   0.203
  437SOL    HW2 2211   0.776   1.360   0.187
  438SOL     OW 2212   2.225   4.105   3.425
  438SOL    HW1 2213   2.304   4.163   3.403
  438SOL    HW2 2214   2.208   4.108   3.523
  439SOL     OW 2215   5.893   5.283   2.431
  439SOL    HW1 2216   5.891   5.187   2.404
  439SOL    HW2 2217   5.800   5.317   2.443
  440SOL     OW 2218   2.313   1.410   4.916
  440SOL    HW1 2219   2.409   1.391   4.936
  440SOL    HW2 2220   2.305   1.453   4.826
  441SOL     OW 2221   0.561   3.178   4.164
  441SOL    HW1 2222   0.528   3.256   4.111
  441SOL    HW2 2223   0.630   3.129   4.110
  442SOL     OW 2224   4.051   5.575   5.634
  442SOL    HW1 2225   4.021   5.643   5.701
  442SOL    HW2 2226   4.046   5.615   5.542
  443SOL     OW 2227   6.199   4.464   3.817
  443SOL    HW1 2228   6.151   4.551   3.811
  443SOL    HW2 2229   6.295   4.476   3.791
  444SOL     OW 2230   4.832   0.690   6.379
  444SOL    HW1 2231   4.907   0.671   6.442
  444SOL    HW2 2232   4.824   0.614   6.313
  445SOL     OW 2233   1.051   5.743   2.792
  445SOL    HW1 2234   1.075   5.717   2.699
  445SOL    HW2 2235   0.982   5.815   2.790
  446SOL     OW 2236   3.251   5.354   3.728
  446SOL    HW1 2237   3.275   5.312   3.640
  446SOL    HW2 2238   3.319   5.424   3.750
  447SOL     OW 2239   0.397   2.821   6.265
  447SOL    HW1 2240   0.495   2.835   6.250
  447SOL    HW2 2241   0.352   2.798   6.179
  448SOL     OW 2242   1.868   0.241   3.689
  448SOL    HW1 2243   1.823   0.182   3.756
  448SOL    HW2 2244   1.815   0.242   3.605
  449SOL     OW 2245   3.293   1.118   3.671
  449SOL    HW1 2246   3.197   1.140   3.660
  449SOL    HW2 2247   3.327   1.075   3.588
  450SOL     OW 2248   1.475   5.013   2.466
  450SOL    HW1 2249   1.417   4.963   2.401
  450SOL    HW2 2250   1.458   4.980   2.558
  451SOL     OW 2251   1.394   2.433   3.556
  451SOL    HW1 2252   1.315   2.467   3.609
  451SOL    HW2 2253   1.413   2.497   3.482
  452SOL     OW 2254   5.443   6.621   0.501
  452SOL    HW1 2255   5.360   6.576   0.535
  452SOL    HW2 2256   5.421   6.668   0.415
  453SOL     OW 2257   4.592   0.290   6.304
  453SOL    HW1 2258   4.663   0.351   6.268
  453SOL    HW2 2259   4.566   0.319   6.396
  454SOL     OW 2260   6.586   4.342   5.858
  454SOL    HW1 2261   6.591   4.281   5.937
  454SOL    HW2 2262   6.675   4.383   5.841
  455SOL     OW 2263   5.806   2.147   3.975
  455SOL    HW1 2264   5.729   2.133   4.036
  455SOL    HW2 2265   5.817   2.067   3.916
  456SOL     OW 2266   6.597   6.455   3.851
  456SOL    HW1 2267   6.534   6.391   3.894
  456SOL    HW2 2268   6.669   6.404   3.803
  457SOL     OW 2269   2.080   2.764   4.014
  457SOL    HW1 2270   2.029   2.695   3.962
  457SOL    HW2 2271   2.137   2.719   4.083
  458SOL     OW 2272   4.202   5.699   2.876
  458SOL    HW1 2273   4.187   5.792   2.909
  458SOL    HW2 2274   4.195   5.635   2.952
  459SOL     OW 2275   1.803   6.909   5.803
  459SOL    HW1 2276   1.789   6.919   5.704
  459SOL    HW2 2277   1.899   6.887   5.820
  460SOL     OW 2278   2.702   6.639   4.216
  460SOL    HW1 2279   2.779   6.579   4.236
  460SOL    HW2 2280   2.621   6.608   4.266
  461SOL     OW 2281   6.793   6.020   6.057
  461SOL    HW1 2282   6.770   5.937   6.006
  461SOL    HW2 2283   6.766   6.009   6.153
  462SOL     OW 2284   4.158   3.440   7.000
  462SOL    HW1 2285   4.132   3.448   0.067
  462SOL    HW2 2286   4.170   3.531   6.960
  463SOL     OW 2287   5.767   5.995   3.590
  463SOL    HW1 2288   5.670   6.017   3.582
  463SOL    HW2 2289   5.807   5.985   3.499
  464SOL     OW 2290   2.688   1.617   5.604
  464SOL    HW1 2291   2.616   1.571   5.553
  464SOL    HW2 2292   2.647   1.688   5.662
  465SOL     OW 2293   0.685   2.923   0.550
  465SOL    HW1 2294   0.649   2.879   0.468
  465SOL    HW2 2295   0.660   2.870   0.631
  466SOL     OW 2296   1.306   6.234   3.345
  466SOL    HW1 2297   1.278   6.193   3.259
  466SOL    HW2 2298   1.333   6.162   3.409
  467SOL     OW 2299   1.607   1.027   0.751
  467SOL    HW1 2300   1.696   1.073   0.751
  467SOL    HW2 2301   1.605   0.958   0.823
  468SOL     OW 2302   4.038   6.762   5.790
  468SOL    HW1 2303   4.124   6.711   5.785
  468SOL    HW2 2304   4.059   6.858   5.813
  469SOL     OW 2305   2.798   3.507   6.626
  469SOL    HW1 2306   2.797   3.603   6.651
  469SOL    HW2 2307   2.801   3.451   6.708
  470SOL     OW 2308   4.347   6.406   1.632
  470SOL    HW1 2309   4.257   6.372   1.658
  470SOL    HW2 2310   4.417   6.366   1.692
  471SOL     OW 2311   2.608   2.439   3.748
  471SOL    HW1 2312   2.676   2.415   3.679
  471SOL    HW2 2313   2.590   2.537   3.743
  472SOL     OW 2314   4.171   3.685   6.870
  472SOL    HW1 2315   4.170   3.763   6.932
  472SOL    HW2 2316   4.207   3.714   6.781
  473SOL     OW 2317   1.552   2.319   2.641
  473SOL    HW1 2318   1.618   2.378   2.594
  473SOL    HW2 2319   1.575   2.315   2.739
  474SOL     OW 2320   5.710   5.502   4.720
  474SOL    HW1 2321   5.704   5.473   4.624
  474SOL    HW2 2322   5.748   5.594   4.724
  475SOL     OW 2323   6.113   1.385   6.468
  475SOL    HW1 2324   6.078   1.346   6.383
  475SOL    HW2 2325   6.109   1.316   6.540
  476SOL     OW 2326   0.461   3.421   2.680
  476SOL    HW1 2327   0.424   3.329   2.684
  476SOL    HW2 2328   0.502   3.444   2.769
  477SOL     OW 2329   2.800   6.118   3.084
  477SOL    HW1 2330   2.824   6.208   3.120
  477SOL    HW2 2331   2.884   6.064   3.074
  478SOL     OW 2332   3.566   6.458   2.804
  478SOL    HW1 2333   3.532   6.467   2.897
  478SOL    HW2 2334   3.625   6.378   2.796
  479SOL     OW 2335   3.917   2.403   6.100
  479SOL    HW1 2336   3.878   2.439   6.015
  479SOL    HW2 2337   3.909   2.473   6.172
  480SOL     OW 2338   2.755   0.308   0.065
  480SOL    HW1 2339   2.764   0.406   0.082
  480SOL    HW2 2340   2.714   0.264   0.145
  481SOL     OW 2341   2.107   6.641   1.372
  481SOL    HW1 2342   2.143   6.605   1.286
  481SOL    HW2 2343   2.137   6.736   1.383
  482SOL     OW 2344   3.853   4.894   2.118
  482SOL    HW1 2345   3.782   4.951   2.160
  482SOL    HW2 2346   3.811   4.833   2.051
  483SOL     OW 2347   6.153   2.026   2.426
  483SOL    HW1 2348   6.242   2.001   2.465
  483SOL    HW2 2349   6.080   1.989   2.482
  484SOL     OW 2350   1.676   3.266   5.020
  484SOL    HW1 2351   1.651   3.357   5.051
  484SOL    HW2 2352   1.753   3.272   4.956
  485SOL     OW 2353   3.887   5.218   2.664
  485SOL    HW1 2354   3.877   5.140   2.603
  485SOL    HW2 2355   3.844   5.298   2.623
  486SOL     OW 2356   6.601   1.842   0.374
  486SOL    HW1 2357   6.660   1.862   0.453
  486SOL    HW2 2358   6.656   1.845   0.290
  487SOL     OW 2359   1.045   0.579   3.049
  487SOL    HW1 2360   1.134   0.556   3.009
  487SOL    HW2 2361   1.048   0.562   3.147
  488SOL     OW 2362   0.777   1.108   1.824
  488SOL    HW1 2363   0.776   1.022   1.774
  488SOL    HW2 2364   0.865   1.154   1.810
  489SOL     OW 2365   4.342   5.911   5.927
  489SOL    HW1 2366   4.336   5.908   5.827
  489SOL    HW2 2367   4.438   5.904   5.955
  490SOL     OW 2368   0.608   5.944   3.113
  490SOL    HW1 2369   0.575   6.031   3.148
  490SOL    HW2 2370   0.542   5.907   3.047
  491SOL     OW 2371   1.282   4.086   2.207
  491SOL    HW1 2372   1.376   4.071   2.238
  491SOL    HW2 2373   1.231   3.999   2.210
  492SOL     OW 2374   1.318   0.807   5.254
  492SOL    HW1 2375   1.411   0.829   5.284
  492SOL    HW2 2376   1.302   0.844   5.163
  493SOL     OW 2377   4.572   6.438   5.425
  493SOL    HW1 2378   4.576   6.507   5.497
  493SOL    HW2 2379   4.650   6.449   5.364
  494SOL     OW 2380   0.783   6.696   6.786
  494SOL    HW1 2381   0.721   6.774   6.795
  494SOL    HW2 2382   0.815   6.669   6.877
  495SOL     OW 2383   4.664   5.986   3.585
  495SOL    HW1 2384   4.585   6.004   3.644
  495SOL    HW2 2385   4.732   5.934   3.637
  496SOL     OW 2386   5.062   2.653   1.986
  496SOL    HW1 2387   4.993   2.581   1.988
  496SOL    HW2 2388   5.016   2.742   1.984
  497SOL     OW 2389   2.688   1.845   5.040
  497SOL    HW1 2390   2.706   1.928   5.092
  497SOL    HW2 2391   2.773   1.794   5.028
  498SOL     OW 2392   0.626   4.396   1.582
  498SOL    HW1 2393   0.567   4.442   1.516
  498SOL    HW2 2394   0.687   4.332   1.534
  499SOL     OW 2395   1.332   5.611   4.223
  499SOL    HW1 2396   1.303   5.618   4.318
  499SOL    HW2 2397   1.431   5.599   4.219
  500SOL     OW 2398   6.985   1.966   5.869
  500SOL    HW1 2399   7.007   2.059   5.901
  500SOL    HW2 2400   7.028   1.899   5.929
  501SOL     OW 2401   2.952   0.339   0.794
  501SOL    HW1 2402   2.980   0.243   0.799
  501SOL    HW2 2403   2.926   0.371   0.885
  502SOL     OW 2404   1.015   3.718   6.147
  502SOL    HW1 2405   1.101   3.671   6.168
  502SOL    HW2 2406   1.010   3.803   6.199
  503SOL     OW 2407   6.731   5.029   6.946
  503SOL    HW1 2408   6.711   4.994   0.009
  503SOL    HW2 2409   6.802   4.972   6.904
  504SOL     OW 2410   1.255   4.909   2.317
  504SOL    HW1 2411   1.271   4.859   2.232
  504SOL    HW2 2412   1.210   4.848   2.383
  505SOL     OW 2413   3.247   5.791   4.822
  505SOL    HW1 2414   3.292   5.702   4.814
  505SOL    HW2 2415   3.316   5.864   4.818
  506SOL     OW 2416   3.390   4.894   4.036
  506SOL    HW1 2417   3.317   4.889   4.104
  506SOL    HW2 2418   3.461   4.956   4.068
  507SOL     OW 2419   3.218   6.989   3.203
  507SOL    HW1 2420   3.296   7.028   3.154
  507SOL    HW2 2421   3.147   0.029   3.213
  508SOL     OW 2422   6.880   3.666   2.848
  508SOL    HW1 2423   6.881   3.681   2.749
  508SOL    HW2 2424   6.945   3.728   2.891
  509SOL     OW 2425   2.541   1.440   1.435
  509SOL    HW1 2426   2.557   1.364   1.497
  509SOL    HW2 2427   2.614   1.508   1.445
  510SOL     OW 2428   6.137   4.245   6.713
  510SOL    HW1 2429   6.156   4.342   6.725
  510SOL    HW2 2430   6.039   4.229   6.723
  511SOL     OW 2431   1.024   2.422   6.146
  511SOL    HW1 2432   1.122   2.404   6.146
  511SOL    HW2 2433   1.006   2.511   6.104
  512SOL     OW 2434   7.012   2.882   6.339
  512SOL    HW1 2435   6.999   2.786   6.313
  512SOL    HW2 2436   0.029   2.886   6.428
  513SOL     OW 2437   5.526   6.669   3.640
  513SOL    HW1 2438   5.593   6.739   3.666
  513SOL    HW2 2439   5.491   6.691   3.549
  514SOL     OW 2440   6.166   0.969   4.388
  514SOL    HW1 2441   6.197   0.907   4.461
  514SOL    HW2 2442   6.214   1.056   4.395
  515SOL     OW 2443   0.986   6.101   0.433
  515SOL    HW1 2444   0.993   6.197   0.406
  515SOL    HW2 2445   1.074   6.056   0.417
  516SOL     OW 2446   2.676   4.674   2.250
  516SOL    HW1 2447   2.625   4.757   2.226
  516SOL    HW2 2448   2.697   4.623   2.167
  517SOL     OW 2449   4.193   5.227   1.500
  517SOL    HW1 2450   4.119   5.233   1.432
  517SOL    HW2 2451   4.210   5.131   1.522
  518SOL     OW 2452   2.387   2.034   3.505
  518SOL    HW1 2453   2.293   2.059   3.486
  518SOL    HW2 2454   2.409   1.949   3.457
  519SOL     OW 2455   0.315   6.166   4.084
  519SOL    HW1 2456   0.307   6.205   4.175
  519SOL    HW2 2457   0.407   6.182   4.048
  520SOL     OW 2458   5.912   3.563   6.931
  520SOL    HW1 2459   5.917   3.553   6.831
  520SOL    HW2 2460   5.962   3.644   6.960
  521SOL     OW 2461   6.069   5.791   4.934
  521SOL    HW1 2462   6.095   5.705   4.979
  521SOL    HW2 2463   6.042   5.858   5.002
  522SOL     OW 2464   3.205   3.578   4.610
  522SOL    HW1 2465   3.238   3.503   4.666
  522SOL    HW2 2466   3.115   3.607   4.643
  523SOL     OW 2467   1.140   5.504   1.436
  523SOL    HW1 2468   1.135   5.440   1.513
  523SOL    HW2 2469   1.048   5.526   1.405
  524SOL     OW 2470   0.424   1.842   2.491
  524SOL    HW1 2471   0.492   1.896   2.541
  524SOL    HW2 2472   0.336   1.846   2.539
  525SOL     OW 2473   1.886   4.286   5.934
  525SOL    HW1 2474   1.792   4.304   5.903
  525SOL    HW2 2475   1.934   4.372   5.947
  526SOL     OW 2476   4.023   5.649   4.061
  526SOL    HW1 2477   3.930   5.683   4.049
  526SOL    HW2 2478   4.081   5.685   3.988
  527SOL     OW 2479   6.250   2.755   0.610
  527SOL    HW1 2480   6.163   2.708   0.599
  527SOL    HW2 2481   6.303   2.748   0.525
  528SOL     OW 2482   1.194   2.546   3.686
  528SOL    HW1 2483   1.101   2.560   3.652
  528SOL    HW2 2484   1.200   2.578   3.780
  529SOL     OW 2485   1.551   6.086   4.702
  529SOL    HW1 2486   1.533   6.161   4.639
  529SOL    HW2 2487   1.630   6.034   4.669
  530SOL     OW 2488   3.278   3.470   4.059
  530SOL    HW1 2489   3.256   3.377   4.089
  530SOL    HW2 2490   3.255   3.481   3.963
  531SOL     OW 2491   0.435   1.959   2.994
  531SOL    HW1 2492   0.362   1.939   3.059
  531SOL    HW2 2493   0.407   2.036   2.936
  532SOL     OW 2494   0.566   2.947   6.958
  532SOL    HW1 2495   0.539   2.862   7.004
  532SOL    HW2 2496   0.577   2.928   6.860
  533SOL     OW 2497   4.108   6.804   4.210
  533SOL    HW1 2498   4.059   6.719   4.189
  533SOL    HW2 2499   4.206   6.787   4.210
  534SOL     OW 2500   5.268   6.280   2.013
  534SOL    HW1 2501   5.274   6.217   2.090
  534SOL    HW2 2502   5.324   6.361   2.032
  535SOL     OW 2503   6.882   3.341   4.723
  535SOL    HW1 2504   6.972   3.340   4.766
  535SOL    HW2 2505   6.863   3.251   4.684
  536SOL     OW 2506   6.249   4.993   2.557
  536SOL    HW1 2507   6.322   4.935   2.594
  536SOL    HW2 2508   6.161   4.946   2.568
  537SOL     OW 2509   2.476   6.504   4.674
  537SOL    HW1 2510   2.380   6.499   4.701
  537SOL    HW2 2511   2.520   6.583   4.717
  538SOL     OW 2512   1.653   5.336   3.999
  538SOL    HW1 2513   1.723   5.294   3.941
  538SOL    HW2 2514   1.563   5.302   3.972
  539SOL     OW 2515   2.304   5.650   1.229
  539SOL    HW1 2516   2.297   5.722   1.160
  539SOL    HW2 2517   2.355   5.572   1.192
  540SOL     OW 2518   1.530   1.478   3.337
  540SOL    HW1 2519   1.496   1.552   3.278
  540SOL    HW2 2520   1.490   1.391   3.308
  541SOL     OW 2521   4.672   5.306   3.454
  541SOL    HW1 2522   4.718   5.244   3.390
  541SOL    HW2 2523   4.736   5.335   3.525
  542SOL     OW 2524   5.824   6.103   6.567
  542SOL    HW1 2525   5.728   6.081   6.553
  542SOL    HW2 2526   5.863   6.140   6.482
  543SOL     OW 2527   0.925   3.022   4.616
  543SOL    HW1 2528   1.003   3.047   4.674
  543SOL    HW2 2529   0.885   3.104   4.575
  544SOL     OW 2530   2.283   4.729   0.044
  544SOL    HW1 2531   2.219   4.802   0.020
  544SOL    HW2 2532   2.348   4.763   0.112
  545SOL     OW 2533   3.376   1.428   1.570
  545SOL    HW1 2534   3.456   1.428   1.510
  545SOL    HW2 2535   3.352   1.523   1.593
  546SOL     OW 2536   2.177   3.090   0.478
  546SOL    HW1 2537   2.114   3.148   0.530
  546SOL    HW2 2538   2.126   3.036   0.411
  547SOL     OW 2539   3.231   0.924   0.390
  547SOL    HW1 2540   3.304   0.992   0.382
  547SOL    HW2 2541   3.185   0.934   0.478
  548SOL     OW 2542   3.380   3.367   1.909
  548SOL    HW1 2543   3.446   3.432   1.947
  548SOL    HW2 2544   3.382   3.283   1.963
  549SOL     OW 2545   5.483   3.213   0.992
  549SOL    HW1 2546   5.456   3.193   0.898
  549SOL    HW2 2547   5.403   3.207   1.051
  550SOL     OW 2548   1.017   5.528   4.026
  550SOL    HW1 2549   1.009   5.628   4.033
  550SOL    HW2 2550   1.089   5.506   3.960
  551SOL     OW 2551   1.144   0.579   2.091
  551SOL    HW1 2552   1.231   0.626   2.083
  551SOL    HW2 2553   1.070   0.646   2.100
  552SOL     OW 2554   6.270   4.612   0.038
  552SOL    HW1 2555   6.257   4.523   0.082
  552SOL    HW2 2556   6.182   4.644   0.002
  553SOL     OW 2557   2.870   6.548   2.793
  553SOL    HW1 2558   2.780   6.505   2.801
  553SOL    HW2 2559   2.869   6.613   2.717
  554SOL     OW 2560   5.578   6.921   6.832
  554SOL    HW1 2561   5.499   6.943   6.775
  554SOL    HW2 2562   5.662   6.935   6.779
  555SOL     OW 2563   1.974   4.404   4.245
  555SOL    HW1 2564   1.970   4.411   4.145
  555SOL    HW2 2565   1.882   4.392   4.281
  556SOL     OW 2566   4.047   2.207   3.731
  556SOL    HW1 2567   4.030   2.304   3.710
  556SOL    HW2 2568   4.054   2.195   3.830
  557SOL     OW 2569   0.110   5.596   0.660
  557SOL    HW1 2570   0.139   5.570   0.751
  557SOL    HW2 2571   0.189   5.624   0.606
  558SOL     OW 2572   2.904   3.410   4.094
  558SOL    HW1 2573   2.819   3.385   4.139
  558SOL    HW2 2574   2.891   3.408   3.995
  559SOL     OW 2575   6.810   6.294   0.547
  559SOL    HW1 2576   6.867   6.375   0.551
  559SOL    HW2 2577   6.730   6.305   0.607
  560SOL     OW 2578   5.085   4.545   6.512
  560SOL    HW1 2579   5.168   4.577   6.468
  560SOL    HW2 2580   5.009   4.548   6.446
  561SOL     OW 2581   0.809   1.631   1.727
  561SOL    HW1 2582   0.718   1.639   1.766
  561SOL    HW2 2583   0.871   1.589   1.793
  562SOL     OW 2584   4.924   0.743   6.022
  562SOL    HW1 2585   4.854   0.814   6.028
  562SOL    HW2 2586   4.885   0.662   5.979
  563SOL     OW 2587   2.630   0.476   3.560
  563SOL    HW1 2588   2.690   0.556   3.561
  563SOL    HW2 2589   2.571   0.477   3.641
  564SOL     OW 2590   1.817   1.690   0.118
  564SOL    HW1 2591   1.862   1.623   0.059
  564SOL    HW2 2592   1.773   1.760   0.062
  565SOL     OW 2593   3.180   3.115   5.085
  565SOL    HW1 2594   3.229   3.195   5.120
  565SOL    HW2 2595   3.101   3.095   5.144
  566SOL     OW 2596   6.783   4.944   3.303
  566SOL    HW1 2597   6.736   4.997   3.374
  566SOL    HW2 2598   6.732   4.949   3.218
  567SOL     OW 2599   2.949   2.819   1.339
  567SOL    HW1 2600   2.967   2.898   1.399
  567SOL    HW2 2601   2.982   2.736   1.384
  568SOL     OW 2602   5.121   1.041   0.098
  568SOL    HW1 2603   5.096   1.138   0.107
  568SOL    HW2 2604   5.043   0.991   0.061
  569SOL     OW 2605   1.829   3.236   6.281
  569SOL    HW1 2606   1.818   3.138   6.267
  569SOL    HW2 2607   1.828   3.256   6.379
  570SOL     OW 2608   3.492   6.476   6.751
  570SOL    HW1 2609   3.465   6.437   6.664
  570SOL    HW2 2610   3.471   6.574   6.752
  571SOL     OW 2611   3.086   6.990   1.855
  571SOL    HW1 2612   3.091   0.057   1.883
  571SOL    HW2 2613   3.062   6.934   1.934
  572SOL     OW 2614   2.615   4.901   5.513
  572SOL    HW1 2615   2.555   4.926   5.589
  572SOL    HW2 2616   2.706   4.940   5.527
  573SOL     OW 2617   5.774   1.980   5.500
  573SOL    HW1 2618   5.813   1.888   5.496
  573SOL    HW2 2619   5.734   2.003   5.412
  574SOL     OW 2620   3.264   1.841   4.401
  574SOL    HW1 2621   3.362   1.825   4.411
  574SOL    HW2 2622   3.248   1.937   4.378
  575SOL     OW 2623   5.119   4.108   6.854
  575SOL    HW1 2624   5.093   4.183   6.915
  575SOL    HW2 2625   5.216   4.116   6.829
  576SOL     OW 2626   0.497   2.356   2.754
  576SOL    HW1 2627   0.556   2.393   2.683
  576SOL    HW2 2628   0.534   2.380   2.844
  577SOL     OW 2629   1.523   0.945   2.548
  577SOL    HW1 2630   1.426   0.958   2.565
  577SOL    HW2 2631   1.563   0.890   2.622
  578SOL     OW 2632   5.894   6.206   3.690
  578SOL    HW1 2633   5.821   6.142   3.666
  578SOL    HW2 2634   5.953   6.220   3.610
  579SOL     OW 2635   2.025   3.112   2.675
  579SOL    HW1 2636   1.955   3.044   2.651
  579SOL    HW2 2637   2.111   3.066   2.696
  580SOL     OW 2638   5.875   5.206   0.685
  580SOL    HW1 2639   5.967   5.239   0.706
  580SOL    HW2 2640   5.810   5.244   0.751
  581SOL     OW 2641   2.410   3.366   1.215
  581SOL    HW1 2642   2.435   3.388   1.121
  581SOL    HW2 2643   2.386   3.269   1.221
  582SOL     OW 2644   4.281   6.902   1.492
  582SOL    HW1 2645   4.248   6.958   1.416
  582SOL    HW2 2646   4.344   6.833   1.457
  583SOL     OW 2647   3.032   5.202   5.831
  583SOL    HW1 2648   3.037   5.271   5.759
  583SOL    HW2 2649   3.117   5.149   5.832
  584SOL     OW 2650   3.090   4.277   6.260
  584SOL    HW1 2651   3.031   4.202   6.229
  584SOL    HW2 2652   3.068   4.300   6.355
  585SOL     OW 2653   5.574   3.002   6.314
  585SOL    HW1 2654   5.475   3.000   6.326
  585SOL    HW2 2655   5.602   2.926   6.255
  586SOL     OW 2656   3.925   1.642   5.950
  586SOL    HW1 2657   4.023   1.633   5.969
  586SOL    HW2 2658   3.895   1.566   5.893
  587SOL     OW 2659   4.405   1.541   5.588
  587SOL    HW1 2660   4.384   1.639   5.580
  587SOL    HW2 2661   4.502   1.527   5.572
  588SOL     OW 2662   1.986   4.251   1.810
  588SOL    HW1 2663   1.997   4.237   1.712
  588SOL    HW2 2664   2.018   4.343   1.835
  589SOL     OW 2665   3.262   4.601   1.391
  589SOL    HW1 2666   3.241   4.699   1.389
  589SOL    HW2 2667   3.358   4.588   1.416
  590SOL     OW 2668   4.811   3.060   3.489
  590SOL    HW1 2669   4.874   3.137   3.483
  590SOL    HW2 2670   4.822   3.015   3.578
  591SOL     OW 2671   3.769   5.755   3.970
  591SOL    HW1 2672   3.723   5.810   4.040
  591SOL    HW2 2673   3.718   5.670   3.955
  592SOL     OW 2674   3.340   1.030   1.238
  592SOL    HW1 2675   3.410   1.009   1.307
  592SOL    HW2 2676   3.380   1.019   1.147
  593SOL     OW 2677   4.852   2.466   3.106
  593SOL    HW1 2678   4.872   2.475   3.203
  593SOL    HW2 2679   4.753   2.470   3.092
  594SOL     OW 2680   6.195   2.126   6.754
  594SOL    HW1 2681   6.099   2.100   6.750
  594SOL    HW2 2682   6.250   2.046   6.777
  595SOL     OW 2683   5.773   6.831   3.467
  595SOL    HW1 2684   5.737   6.889   3.393
  595SOL    HW2 2685   5.819   6.889   3.534
  596SOL     OW 2686   1.380   4.922   3.350
  596SOL    HW1 2687   1.385   4.823   3.353
  596SOL    HW2 2688   1.290   4.949   3.315
  597SOL     OW 2689   3.720   0.186   0.216
  597SOL    HW1 2690   3.659   0.193   0.137
  597SOL    HW2 2691   3.753   0.093   0.224
  598SOL     OW 2692   4.099   5.002   5.486
  598SOL    HW1 2693   4.165   5.077   5.488
  598SOL    HW2 2694   4.026   5.020   5.551
  599SOL     OW 2695   2.418   6.339   1.791
  599SOL    HW1 2696   2.491   6.360   1.856
  599SOL    HW2 2697   2.432   6.391   1.707
  600SOL     OW 2698   0.603   1.425   0.215
  600SOL    HW1 2699   0.531   1.370   0.173
  600SOL    HW2 2700   0.582   1.522   0.201
  601SOL     OW 2701   2.631   0.259   4.359
  601SOL    HW1 2702   2.580   0.339   4.329
  601SOL    HW2 2703   2.570   0.198   4.409
  602SOL     OW 2704   1.888   2.965   6.533
  602SOL    HW1 2705   1.884   3.055   6.577
  602SOL    HW2 2706   1.796   2.928   6.525
  603SOL     OW 2707   2.789   2.120   4.742
  603SOL    HW1 2708   2.832   2.127   4.832
  603SOL    HW2 2709   2.734   2.037   4.738
  604SOL     OW 2710   1.153   3.578   1.682
  604SOL    HW1 2711   1.222   3.510   1.704
  604SOL    HW2 2712   1.097   3.596   1.763
  605SOL     OW 2713   6.805   6.535   2.162
  605SOL    HW1 2714   6.830   6.449   2.205
  605SOL    HW2 2715   6.770   6.599   2.231
  606SOL     OW 2716   4.771   0.074   6.892
  606SOL    HW1 2717   4.749   7.006   6.906
  606SOL    HW2 2718   4.846   0.100   6.953
  607SOL     OW 2719   6.736   6.867   6.099
  607SOL    HW1 2720   6.802   6.799   6.131
  607SOL    HW2 2721   6.783   6.938   6.047
  608SOL     OW 2722   2.977   6.416   6.341
  608SOL    HW1 2723   3.041   6.359   6.290
  608SOL    HW2 2724   3.027   6.486   6.392
  609SOL     OW 2725   4.092   3.277   3.191
  609SOL    HW1 2726   4.112   3.370   3.160
  609SOL    HW2 2727   4.054   3.282   3.284
  610SOL     OW 2728   4.955   3.277   2.592
  610SOL    HW1 2729   4.995   3.368   2.604
  610SOL    HW2 2730   4.945   3.258   2.495
  611SOL     OW 2731   3.787   0.130   0.522
  611SOL    HW1 2732   3.811   0.227   0.522
  611SOL    HW2 2733   3.766   0.101   0.616
  612SOL     OW 2734   4.293   6.927   5.817
  612SOL    HW1 2735   4.297   6.830   5.838
  612SOL    HW2 2736   4.343   6.979   5.887
  613SOL     OW 2737   3.969   0.027   5.914
  613SOL    HW1 2738   4.047   7.010   5.956
  613SOL    HW2 2739   3.987   0.125   5.907
  614SOL     OW 2740   4.722   4.652   1.343
  614SOL    HW1 2741   4.720   4.706   1.426
  614SOL    HW2 2742   4.645   4.588   1.343
  615SOL     OW 2743   6.811   2.702   1.932
  615SOL    HW1 2744   6.778   2.770   1.867
  615SOL    HW2 2745   6.766   2.716   2.020
  616SOL     OW 2746   0.766   1.999   3.961
  616SOL    HW1 2747   0.701   1.942   3.910
  616SOL    HW2 2748   0.724   2.087   3.983
  617SOL     OW 2749   6.405   4.302   6.321
  617SOL    HW1 2750   6.426   4.400   6.314
  617SOL    HW2 2751   6.477   4.249   6.275
  618SOL     OW 2752   6.653   2.566   6.469
  618SOL    HW1 2753   6.632   2.664   6.470
  618SOL    HW2 2754   6.572   2.514   6.493
  619SOL     OW 2755   4.244   0.851   0.013
  619SOL    HW1 2756   4.248   0.751   0.014
  619SOL    HW2 2757   4.169   0.881   6.983
  620SOL     OW 2758   4.552   3.372   1.590
  620SOL    HW1 2759   4.458   3.351   1.618
  620SOL    HW2 2760   4.615   3.311   1.637
  621SOL     OW 2761   2.536   5.918   6.595
  621SOL    HW1 2762   2.600   5.993   6.578
  621SOL    HW2 2763   2.522   5.866   6.511
  622SOL     OW 2764   1.440   1.090   5.051
  622SOL    HW1 2765   1.474   1.031   4.977
  622SOL    HW2 2766   1.345   1.065   5.073
  623SOL     OW 2767   0.888   5.824   6.032
  623SOL    HW1 2768   0.968   5.798   5.977
  623SOL    HW2 2769   0.816   5.755   6.020
  624SOL     OW 2770   7.025   1.902   1.944
  624SOL    HW1 2771   6.949   1.955   1.907
  624SOL    HW2 2772   6.994   1.850   2.024
  625SOL     OW 2773   0.940   1.861   1.987
  625SOL    HW1 2774   0.973   1.836   2.078
  625SOL    HW2 2775   0.969   1.792   1.920
  626SOL     OW 2776   0.925   6.016   3.223
  626SOL    HW1 2777   1.009   6.039   3.174
  626SOL    HW2 2778   0.851   6.076   3.191
  627SOL     OW 2779   6.230   6.376   0.757
  627SOL    HW1 2780   6.258   6.293   0.804
  627SOL    HW2 2781   6.228   6.453   0.821
  628SOL     OW 2782   5.474   5.681   5.929
  628SOL    HW1 2783   5.568   5.666   5.897
  628SOL    HW2 2784   5.412   5.620   5.881
  629SOL     OW 2785   0.124   1.020   6.685
  629SOL    HW1 2786   0.185   0.942   6.672
  629SOL    HW2 2787   0.152   1.072   6.766
  630SOL     OW 2788   0.422   1.564   1.167
  630SOL    HW1 2789   0.374   1.613   1.240
  630SOL    HW2 2790   0.359   1.549   1.091
  631SOL     OW 2791   4.263   0.976   5.184
  631SOL    HW1 2792   4.217   0.906   5.238
  631SOL    HW2 2793   4.266   1.062   5.235
  632SOL     OW 2794   3.883   1.713   1.459
  632SOL    HW1 2795   3.960   1.777   1.460
  632SOL    HW2 2796   3.799   1.761   1.434
  633SOL     OW 2797   3.534   3.420   6.822
  633SOL    HW1 2798   3.486   3.337   6.851
  633SOL    HW2 2799   3.628   3.397   6.799
  634SOL     OW 2800   4.106   3.273   2.411
  634SOL    HW1 2801   4.095   3.202   2.341
  634SOL    HW2 2802   4.153   3.352   2.371
  635SOL     OW 2803   4.319   5.245   0.753
  635SOL    HW1 2804   4.298   5.268   0.848
  635SOL    HW2 2805   4.383   5.168   0.750
  636SOL     OW 2806   2.790   6.287   0.360
  636SOL    HW1 2807   2.694   6.308   0.341
  636SOL    HW2 2808   2.818   6.333   0.444
  637SOL     OW 2809   7.026   3.328   2.872
  637SOL    HW1 2810   6.952   3.392   2.892
  637SOL    HW2 2811   0.044   3.302   2.956
  638SOL     OW 2812   5.827   2.318   3.711
  638SOL    HW1 2813   5.842   2.233   3.760
  638SOL    HW2 2814   5.731   2.346   3.721
  639SOL     OW 2815   4.970   3.553   3.268
  639SOL    HW1 2816   4.890   3.534   3.325
  639SOL    HW2 2817   4.972   3.490   3.190
  640SOL     OW 2818   0.536   5.176   4.123
  640SOL    HW1 2819   0.521   5.181   4.222
  640SOL    HW2 2820   0.463   5.226   4.076
  641SOL     OW 2821   0.137   4.815   5.101
  641SOL    HW1 2822   0.072   4.881   5.138
  641SOL    HW2 2823   0.141   4.735   5.162
  642SOL     OW 2824   6.918   2.974   4.030
  642SOL    HW1 2825   6.846   3.000   4.095
  642SOL    HW2 2826   6.885   2.990   3.937
  643SOL     OW 2827   5.421   5.804   6.189
  643SOL    HW1 2828   5.427   5.760   6.099
  643SOL    HW2 2829   5.402   5.901   6.177
  644SOL     OW 2830   1.691   6.837   4.484
  644SOL    HW1 2831   1.749   6.756   4.484
  644SOL    HW2 2832   1.704   6.888   4.399
  645SOL     OW 2833   4.439   0.486   4.490
  645SOL    HW1 2834   4.400   0.504   4.580
  645SOL    HW2 2835   4.527   0.533   4.481
  646SOL     OW 2836   3.427   0.658   4.414
  646SOL    HW1 2837   3.519   0.624   4.393
  646SOL    HW2 2838   3.428   0.758   4.416
  647SOL     OW 2839   5.656   2.047   5.253
  647SOL    HW1 2840   5.687   1.960   5.215
  647SOL    HW2 2841   5.672   2.120   5.186
  648SOL     OW 2842   0.798   3.382   3.251
  648SOL    HW1 2843   0.727   3.336   3.198
  648SOL    HW2 2844   0.807   3.338   3.341
  649SOL     OW 2845   2.668   4.118   0.748
  649SOL    HW1 2846   2.616   4.186   0.696
  649SOL    HW2 2847   2.765   4.131   0.731
  650SOL     OW 2848   5.710   4.248   0.236
  650SOL    HW1 2849   5.722   4.196   0.321
  650SOL    HW2 2850   5.798   4.256   0.189
  651SOL     OW 2851   0.604   6.444   6.345
  651SOL    HW1 2852   0.564   6.352   6.353
  651SOL    HW2 2853   0.555   6.507   6.404
  652SOL     OW 2854   4.876   0.417   3.861
  652SOL    HW1 2855   4.788   0.408   3.813
  652SOL    HW2 2856   4.900   0.514   3.867
  653SOL     OW 2857   0.812   5.639   6.487
  653SOL    HW1 2858   0.794   5.736   6.506
  653SOL    HW2 2859   0.884   5.631   6.418
  654SOL     OW 2860   0.522   5.149   6.685
  654SOL    HW1 2861   0.461   5.088   6.635
  654SOL    HW2 2862   0.540   5.111   6.776
  655SOL     OW 2863   0.296   5.769   1.788
  655SOL    HW1 2864   0.346   5.686   1.813
  655SOL    HW2 2865   0.198   5.747   1.782
  656SOL     OW 2866   1.733   6.453   1.279
  656SOL    HW1 2867   1.808   6.388   1.268
  656SOL    HW2 2868   1.754   6.517   1.353
  657SOL     OW 2869   2.374   3.670   1.660
  657SOL    HW1 2870   2.378   3.630   1.569
  657SOL    HW2 2871   2.381   3.597   1.728
  658SOL     OW 2872   2.318   3.772   6.657
  658SOL    HW1 2873   2.328   3.765   6.557
  658SOL    HW2 2874   2.369   3.852   6.690
  659SOL     OW 2875   1.321   5.772   5.338
  659SOL    HW1 2876   1.233   5.724   5.342
  659SOL    HW2 2877   1.392   5.710   5.307
  660SOL     OW 2878   5.458   3.632   2.181
  660SOL    HW1 2879   5.429   3.551   2.233
  660SOL    HW2 2880   5.553   3.621   2.152
  661SOL     OW 2881   4.929   4.412   2.969
  661SOL    HW1 2882   4.875   4.374   3.044
  661SOL    HW2 2883   4.876   4.406   2.884
  662SOL     OW 2884   4.233   0.591   4.296
  662SOL    HW1 2885   4.284   0.605   4.381
  662SOL    HW2 2886   4.151   0.536   4.315
  663SOL     OW 2887   1.484   3.928   0.012
  663SOL    HW1 2888   1.449   4.016   0.045
  663SOL    HW2 2889   1.575   3.941   7.002
  664SOL     OW 2890   7.017   5.160   6.654
  664SOL    HW1 2891   0.029   5.079   6.696
  664SOL    HW2 2892   7.028   5.154   6.555
  665SOL     OW 2893   4.744   4.621   1.062
  665SOL    HW1 2894   4.778   4.624   1.156
  665SOL    HW2 2895   4.655   4.665   1.056
  666SOL     OW 2896   4.762   1.736   2.894
  666SOL    HW1 2897   4.662   1.736   2.896
  666SOL    HW2 2898   4.795   1.818   2.847
  667SOL     OW 2899   6.661   3.536   3.917
  667SOL    HW1 2900   6.636   3.580   3.831
  667SOL    HW2 2901   6.716   3.456   3.899
  668SOL     OW 2902   4.651   5.764   6.649
  668SOL    HW1 2903   4.706   5.685   6.674
  668SOL    HW2 2904   4.657   5.778   6.550
  669SOL     OW 2905   3.868   6.222   3.810
  669SOL    HW1 2906   3.781   6.222   3.760
  669SOL    HW2 2907   3.891   6.129   3.837
  670SOL     OW 2908   2.284   3.119   1.196
  670SOL    HW1 2909   2.201   3.122   1.251
  670SOL    HW2 2910   2.312   3.024   1.183
  671SOL     OW 2911   2.326   5.781   0.276
  671SOL    HW1 2912   2.305   5.841   0.199
  671SOL    HW2 2913   2.422   5.752   0.270
  672SOL     OW 2914   1.272   4.848   2.050
  672SOL    HW1 2915   1.273   4.935   2.001
  672SOL    HW2 2916   1.342   4.788   2.013
  673SOL     OW 2917   0.335   0.812   1.502
  673SOL    HW1 2918   0.309   0.763   1.419
  673SOL    HW2 2919   0.420   0.863   1.485
  674SOL     OW 2920   0.028   3.138   4.557
  674SOL    HW1 2921   0.125   3.159   4.572
  674SOL    HW2 2922   0.001   3.064   4.618
  675SOL     OW 2923   0.913   0.259   4.256
  675SOL    HW1 2924   0.818   0.257   4.228
  675SOL    HW2 2925   0.953   0.349   4.234
  676SOL     OW 2926   4.163   6.160   2.695
  676SOL    HW1 2927   4.256   6.133   2.718
  676SOL    HW2 2928   4.164   6.238   2.633
  677SOL     OW 2929   6.475   1.640   6.838
  677SOL    HW1 2930   6.463   1.547   6.804
  677SOL    HW2 2931   6.444   1.645   6.933
  678SOL     OW 2932   1.820   1.182   5.039
  678SOL    HW1 2933   1.727   1.196   5.071
  678SOL    HW2 2934   1.828   1.091   4.999
  679SOL     OW 2935   4.457   1.652   4.428
  679SOL    HW1 2936   4.378   1.652   4.367
  679SOL    HW2 2937   4.430   1.615   4.517
  680SOL     OW 2938   5.982   5.502   5.803
  680SOL    HW1 2939   6.022   5.506   5.712
  680SOL    HW2 2940   5.995   5.590   5.849
  681SOL     OW 2941   5.310   5.599   1.544
  681SOL    HW1 2942   5.260   5.629   1.625
  681SOL    HW2 2943   5.314   5.674   1.478
  682SOL     OW 2944   1.398   0.914   0.602
  682SOL    HW1 2945   1.480   0.963   0.632
  682SOL    HW2 2946   1.358   0.866   0.680
  683SOL     OW 2947   3.952   3.064   6.986
  683SOL    HW1 2948   4.012   3.003   6.933
  683SOL    HW2 2949   3.914   3.013   0.035
  684SOL     OW 2950   6.853   1.007   0.189
  684SOL    HW1 2951   6.756   0.987   0.173
  684SOL    HW2 2952   6.906   0.982   0.109
  685SOL     OW 2953   4.844   1.068   4.179
  685SOL    HW1 2954   4.897   1.089   4.097
  685SOL    HW2 2955   4.859   0.972   4.205
  686SOL     OW 2956   5.357   2.186   3.920
  686SOL    HW1 2957   5.291   2.111   3.926
  686SOL    HW2 2958   5.346   2.233   3.833
  687SOL     OW 2959   0.727   2.301   4.098
  687SOL    HW1 2960   0.670   2.235   4.147
  687SOL    HW2 2961   0.821   2.295   4.131
  688SOL     OW 2962   0.999   2.654   0.311
  688SOL    HW1 2963   0.936   2.599   0.365
  688SOL    HW2 2964   1.056   2.709   0.372
  689SOL     OW 2965   0.123   4.201   6.081
  689SOL    HW1 2966   0.076   4.113   6.087
  689SOL    HW2 2967   0.214   4.187   6.040
  690SOL     OW 2968   0.529   4.026   3.101
  690SOL    HW1 2969   0.530   4.042   3.200
  690SOL    HW2 2970   0.617   4.054   3.062
  691SOL     OW 2971   2.988   0.187   6.570
  691SOL    HW1 2972   2.891   0.212   6.580
  691SOL    HW2 2973   3.027   0.168   6.660
  692SOL     OW 2974   3.912   5.939   3.759
  692SOL    HW1 2975   3.886   5.875   3.832
  692SOL    HW2 2976   3.957   5.888   3.686
  693SOL     OW 2977   6.213   0.811   3.381
  693SOL    HW1 2978   6.234   0.873   3.456
  693SOL    HW2 2979   6.278   0.827   3.306
  694SOL     OW 2980   4.099   6.113   2.359
  694SOL    HW1 2981   4.183   6.070   2.328
  694SOL    HW2 2982   4.119   6.203   2.396
  695SOL     OW 2983   4.396   5.974   4.935
  695SOL    HW1 2984   4.351   5.980   4.846
  695SOL    HW2 2985   4.345   6.029   5.001
  696SOL     OW 2986   3.472   5.402   2.494
  696SOL    HW1 2987   3.413   5.410   2.414
  696SOL    HW2 2988   3.534   5.324   2.483
  697SOL     OW 2989   1.908   2.872   3.400
  697SOL    HW1 2990   1.825   2.927   3.412
  697SOL    HW2 2991   1.893   2.807   3.326
  698SOL     OW 2992   5.703   6.589   7.007
  698SOL    HW1 2993   5.637   6.662   6.990
  698SOL    HW2 2994   5.687   6.515   6.942
  699SOL     OW 2995   1.851   3.728   6.044
  699SOL    HW1 2996   1.859   3.828   6.048
  699SOL    HW2 2997   1.943   3.687   6.048
  700SOL     OW 2998   2.527   1.582   3.391
  700SOL    HW1 2999   2.455   1.516   3.411
  700SOL    HW2 3000   2.593   1.541   3.327
  701SOL     OW 3001   5.794   3.721   4.986
  701SOL    HW1 3002   5.801   3.627   5.019
  701SOL    HW2 3003   5.883   3.767   4.997
  702SOL     OW 3004   0.407   6.261   5.945
  702SOL    HW1 3005   0.395   6.359   5.961
  702SOL    HW2 3006   0.479   6.247   5.878
  703SOL     OW 3007   3.628   4.085   6.453
  703SOL    HW1 3008   3.690   4.154   6.416
  703SOL    HW2 3009   3.660   3.994   6.427
  704SOL     OW 3010   1.577   1.537   0.066
  704SOL    HW1 3011   1.607   1.610   0.128
  704SOL    HW2 3012   1.629   1.454   0.086
  705SOL     OW 3013   6.361   6.099   3.187
  705SOL    HW1 3014   6.454   6.090   3.151
  705SOL    HW2 3015   6.341   6.194   3.208
  706SOL     OW 3016   4.767   2.437   4.338
  706SOL    HW1 3017   4.794   2.456   4.244
  706SOL    HW2 3018   4.679   2.482   4.357
  707SOL     OW 3019   5.102   6.806   2.292
  707SOL    HW1 3020   5.107   6.757   2.379
  707SOL    HW2 3021   5.184   6.787   2.238
  708SOL     OW 3022   3.830   0.582   1.439
  708SOL    HW1 3023   3.798   0.607   1.530
  708SOL    HW2 3024   3.918   0.536   1.446
  709SOL     OW 3025   1.206   5.365   1.199
  709SOL    HW1 3026   1.189   5.408   1.288
  709SOL    HW2 3027   1.303   5.373   1.177
  710SOL     OW 3028   3.658   2.879   2.755
  710SOL    HW1 3029   3.611   2.891   2.842
  710SOL    HW2 3030   3.655   2.783   2.728
  711SOL     OW 3031   0.015   2.472   5.452
  711SOL    HW1 3032   0.093   2.522   5.415
  711SOL    HW2 3033   0.047   2.403   5.517
  712SOL     OW 3034   4.077   3.654   1.352
  712SOL    HW1 3035   4.110   3.638   1.445
  712SOL    HW2 3036   4.022   3.737   1.350
  713SOL     OW 3037   3.946   2.871   6.210
  713SOL    HW1 3038   3.988   2.840   6.125
  713SOL    HW2 3039   3.946   2.971   6.213
  714SOL     OW 3040   6.644   4.353   3.933
  714SOL    HW1 3041   6.707   4.279   3.957
  714SOL    HW2 3042   6.655   4.429   3.997
  715SOL     OW 3043   5.872   5.529   0.152
  715SOL    HW1 3044   5.841   5.518   0.058
  715SOL    HW2 3045   5.917   5.617   0.163
  716SOL     OW 3046   1.112   6.974   1.026
  716SOL    HW1 3047   1.173   0.023   1.014
  716SOL    HW2 3048   1.153   6.892   0.985
  717SOL     OW 3049   6.246   4.844   5.852
  717SOL    HW1 3050   6.276   4.879   5.764
  717SOL    HW2 3051   6.246   4.918   5.919
  718SOL     OW 3052   5.072   2.371   6.162
  718SOL    HW1 3053   4.988   2.418   6.187
  718SOL    HW2 3054   5.098   2.397   6.069
  719SOL     OW 3055   6.404   0.327   1.919
  719SOL    HW1 3056   6.348   0.348   1.999
  719SOL    HW2 3057   6.368   0.246   1.873
  720SOL     OW 3058   3.528   1.079   6.740
  720SOL    HW1 3059   3.506   0.984   6.719
  720SOL    HW2 3060   3.443   1.129   6.759
  721SOL     OW 3061   3.063   0.947   3.979
  721SOL    HW1 3062   2.992   0.998   4.028
  721SOL    HW2 3063   3.146   0.945   4.034
  722SOL     OW 3064   2.884   0.904   4.802
  722SOL    HW1 3065   2.836   0.875   4.885
  722SOL    HW2 3066   2.969   0.950   4.827
  723SOL     OW 3067   1.797   3.675   3.105
  723SOL    HW1 3068   1.836   3.657   3.015
  723SOL    HW2 3069   1.830   3.763   3.139
  724SOL     OW 3070   1.045   3.103   4.307
  724SOL    HW1 3071   1.075   3.062   4.221
  724SOL    HW2 3072   1.064   3.040   4.383
  725SOL     OW 3073   3.232   5.644   0.823
  725SOL    HW1 3074   3.176   5.594   0.757
  725SOL    HW2 3075   3.325   5.656   0.786
  726SOL     OW 3076   4.048   4.637   0.868
  726SOL    HW1 3077   3.952   4.618   0.886
  726SOL    HW2 3078   4.105   4.591   0.936
  727SOL     OW 3079   5.730   4.679   5.855
  727SOL    HW1 3080   5.803   4.740   5.823
  727SOL    HW2 3081   5.681   4.642   5.777
  728SOL     OW 3082   6.657   3.102   4.571
  728SOL    HW1 3083   6.588   3.173   4.584
  728SOL    HW2 3084   6.725   3.133   4.504
  729SOL     OW 3085   1.447   2.011   1.238
  729SOL    HW1 3086   1.370   2.061   1.278
  729SOL    HW2 3087   1.413   1.925   1.199
  730SOL     OW 3088   5.696   0.669   3.441
  730SOL    HW1 3089   5.765   0.741   3.433
  730SOL    HW2 3090   5.729   0.586   3.396
  731SOL     OW 3091   5.450   4.344   5.925
  731SOL    HW1 3092   5.432   4.255   5.967
  731SOL    HW2 3093   5.542   4.344   5.886
  732SOL     OW 3094   6.868   2.136   1.890
  732SOL    HW1 3095   6.935   2.197   1.849
  732SOL    HW2 3096   6.815   2.187   1.958
  733SOL     OW 3097   5.925   6.044   5.527
  733SOL    HW1 3098   5.858   6.030   5.600
  733SOL    HW2 3099   6.016   6.052   5.567
  734SOL     OW 3100   0.319   4.804   2.870
  734SOL    HW1 3101   0.334   4.888   2.818
  734SOL    HW2 3102   0.395   4.792   2.935
  735SOL     OW 3103   3.741   1.795   0.446
  735SOL    HW1 3104   3.756   1.727   0.518
  735SOL    HW2 3105   3.715   1.749   0.362
  736SOL     OW 3106   0.899   0.830   3.597
  736SOL    HW1 3107   0.804   0.840   3.567
  736SOL    HW2 3108   0.932   0.739   3.573
  737SOL     OW 3109   4.834   1.980   5.876
  737SOL    HW1 3110   4.846   1.882   5.890
  737SOL    HW2 3111   4.744   1.997   5.836
  738SOL     OW 3112   2.024   4.000   1.586
  738SOL    HW1 3113   1.983   4.056   1.514
  738SOL    HW2 3114   2.122   4.020   1.592
  739SOL     OW 3115   4.158   0.329   4.038
  739SOL    HW1 3116   4.163   0.233   4.008
  739SOL    HW2 3117   4.248   0.371   4.029
  740SOL     OW 3118   5.832   0.352   1.246
  740SOL    HW1 3119   5.761   0.422   1.254
  740SOL    HW2 3120   5.789   0.263   1.229
  741SOL     OW 3121   2.647   6.318   3.358
  741SOL    HW1 3122   2.690   6.244   3.410
  741SOL    HW2 3123   2.553   6.292   3.336
  742SOL     OW 3124   2.646   6.769   2.378
  742SOL    HW1 3125   2.660   6.725   2.288
  742SOL    HW2 3126   2.733   6.771   2.427
  743SOL     OW 3127   0.245   3.676   3.734
  743SOL    HW1 3128   0.188   3.594   3.723
  743SOL    HW2 3129   0.297   3.669   3.819
  744SOL     OW 3130   5.847   0.540   6.809
  744SOL    HW1 3131   5.806   0.614   6.863
  744SOL    HW2 3132   5.939   0.568   6.779
  745SOL     OW 3133   1.066   5.739   5.074
  745SOL    HW1 3134   1.001   5.679   5.027
  745SOL    HW2 3135   1.132   5.774   5.007
  746SOL     OW 3136   0.016   4.761   6.222
  746SOL    HW1 3137   6.992   4.701   6.163
  746SOL    HW2 3138   0.042   4.843   6.172
  747SOL     OW 3139   3.797   6.451   4.651
  747SOL    HW1 3140   3.808   6.451   4.750
  747SOL    HW2 3141   3.772   6.359   4.620
  748SOL     OW 3142   3.696   5.087   2.234
  748SOL    HW1 3143   3.692   5.104   2.332
  748SOL    HW2 3144   3.604   5.066   2.200
  749SOL     OW 3145   6.185   4.359   4.714
  749SOL    HW1 3146   6.117   4.423   4.679
  749SOL    HW2 3147   6.261   4.352   4.649
  750SOL     OW 3148   1.690   2.076   1.131
  750SOL    HW1 3149   1.606   2.058   1.181
  750SOL    HW2 3150   1.701   2.174   1.118
  751SOL     OW 3151   4.138   2.493   6.634
  751SOL    HW1 3152   4.060   2.489   6.697
  751SOL    HW2 3153   4.167   2.588   6.623
  752SOL     OW 3154   3.602   0.956   2.635
  752SOL    HW1 3155   3.638   1.022   2.700
  752SOL    HW2 3156   3.503   0.949   2.645
  753SOL     OW 3157   2.037   3.342   5.300
  753SOL    HW1 3158   2.079   3.416   5.249
  753SOL    HW2 3159   2.065   3.347   5.396
  754SOL     OW 3160   5.081   2.800   5.604
  754SOL    HW1 3161   5.170   2.821   5.564
  754SOL    HW2 3162   5.020   2.879   5.593
  755SOL     OW 3163   1.410   4.130   5.223
  755SOL    HW1 3164   1.326   4.096   5.265
  755SOL    HW2 3165   1.472   4.164   5.293
  756SOL     OW 3166   3.135   6.359   0.280
  756SOL    HW1 3167   3.066   6.377   0.210
  756SOL    HW2 3168   3.226   6.376   0.243
  757SOL     OW 3169   0.915   0.294   3.615
  757SOL    HW1 3170   0.874   0.302   3.706
  757SOL    HW2 3171   0.915   0.198   3.586
  758SOL     OW 3172   3.570   6.917   1.844
  758SOL    HW1 3173   3.511   6.849   1.889
  758SOL    HW2 3174   3.655   6.874   1.814
  759SOL     OW 3175   0.317   1.506   1.470
  759SOL    HW1 3176   0.293   1.598   1.441
  759SOL    HW2 3177   0.414   1.502   1.494
  760SOL     OW 3178   5.476   0.243   5.486
  760SOL    HW1 3179   5.565   0.207   5.514
  760SOL    HW2 3180   5.433   0.180   5.422
  761SOL     OW 3181   5.521   3.169   5.798
  761SOL    HW1 3182   5.520   3.219   5.711
  761SOL    HW2 3183   5.530   3.071   5.781
  762SOL     OW 3184   2.378   0.748   4.807
  762SOL    HW1 3185   2.451   0.680   4.802
  762SOL    HW2 3186   2.407   0.832   4.760
  763SOL     OW 3187   4.164   5.283   6.309
  763SOL    HW1 3188   4.159   5.301   6.211
  763SOL    HW2 3189   4.201   5.364   6.356
  764SOL     OW 3190   5.271   2.021   5.446
  764SOL    HW1 3191   5.345   2.088   5.438
  764SOL    HW2 3192   5.195   2.062   5.497
  765SOL     OW 3193   1.125   6.173   1.528
  765SOL    HW1 3194   1.167   6.082   1.520
  765SOL    HW2 3195   1.143   6.225   1.444
  766SOL     OW 3196   2.541   3.476   6.484
  766SOL    HW1 3197   2.632   3.482   6.526
  766SOL    HW2 3198   2.472   3.464   6.555
  767SOL     OW 3199   6.121   5.742   1.784
  767SOL    HW1 3200   6.127   5.669   1.852
  767SOL    HW2 3201   6.140   5.705   1.693
  768SOL     OW 3202   2.239   6.568   2.082
  768SOL    HW1 3203   2.249   6.475   2.116
  768SOL    HW2 3204   2.145   6.600   2.097
  769SOL     OW 3205   3.295   0.936   4.755
  769SOL    HW1 3206   3.215   0.961   4.810
  769SOL    HW2 3207   3.362   1.010   4.758
  770SOL     OW 3208   2.088   4.314   2.912
  770SOL    HW1 3209   2.027   4.241   2.945
  770SOL    HW2 3210   2.082   4.392   2.974
  771SOL     OW 3211   2.107   5.065   2.624
  771SOL    HW1 3212   2.109   5.125   2.705
  771SOL    HW2 3213   2.170   5.100   2.555
  772SOL     OW 3214   5.789   5.282   0.277
  772SOL    HW1 3215   5.797   5.364   0.220
  772SOL    HW2 3216   5.693   5.268   0.301
  773SOL     OW 3217   0.197   3.785   4.922
  773SOL    HW1 3218   0.175   3.688   4.930
  773SOL    HW2 3219   0.205   3.810   4.826
  774SOL     OW 3220   1.158   1.681   1.599
  774SOL    HW1 3221   1.124   1.773   1.615
  774SOL    HW2 3222   1.226   1.657   1.668
  775SOL     OW 3223   0.303   2.184   2.848
  775SOL    HW1 3224   0.214   2.228   2.854
  775SOL    HW2 3225   0.371   2.251   2.817
  776SOL     OW 3226   1.359   0.210   6.238
  776SOL    HW1 3227   1.316   0.277   6.177
  776SOL    HW2 3228   1.444   0.177   6.198
  777SOL     OW 3229   2.269   5.178   1.706
  777SOL    HW1 3230   2.246   5.222   1.620
  777SOL    HW2 3231   2.184   5.152   1.754
  778SOL     OW 3232   2.625   1.431   2.057
  778SOL    HW1 3233   2.658   1.523   2.078
  778SOL    HW2 3234   2.585   1.390   2.139
  779SOL     OW 3235   6.688   2.771   2.167
  779SOL    HW1 3236   6.720   2.855   2.211
  779SOL    HW2 3237   6.641   2.714   2.234
  780SOL     OW 3238   6.429   3.558   4.085
  780SOL    HW1 3239   6.420   3.628   4.156
  780SOL    HW2 3240   6.510   3.577   4.030
  781SOL     OW 3241   5.692   0.969   6.997
  781SOL    HW1 3242   5.700   0.940   0.063
  781SOL    HW2 3243   5.783   0.976   6.956
  782SOL     OW 3244   1.579   4.428   6.565
  782SOL    HW1 3245   1.510   4.430   6.493
  782SOL    HW2 3246   1.583   4.336   6.604
  783SOL     OW 3247   4.425   4.952   0.854
  783SOL    HW1 3248   4.474   5.014   0.916
  783SOL    HW2 3249   4.470   4.863   0.855
  784SOL     OW 3250   5.037   5.800   0.390
  784SOL    HW1 3251   5.016   5.712   0.434
  784SOL    HW2 3252   4.973   5.869   0.423
  785SOL     OW 3253   0.453   2.248   3.318
  785SOL    HW1 3254   0.480   2.278   3.226
  785SOL    HW2 3255   0.521   2.184   3.353
  786SOL     OW 3256   1.736   1.015   1.898
  786SOL    HW1 3257   1.833   1.032   1.914
  786SOL    HW2 3258   1.719   1.006   1.800
  787SOL     OW 3259   2.823   0.588   6.916
  787SOL    HW1 3260   2.828   0.577   6.817
  787SOL    HW2 3261   2.915   0.593   6.955
  788SOL     OW 3262   3.788   3.320   5.714
  788SOL    HW1 3263   3.757   3.226   5.724
  788SOL    HW2 3264   3.837   3.349   5.796
  789SOL     OW 3265   5.123   3.955   0.584
  789SOL    HW1 3266   5.070   3.901   0.649
  789SOL    HW2 3267   5.203   3.992   0.629
  790SOL     OW 3268   2.390   1.047   3.881
  790SOL    HW1 3269   2.449   1.022   3.805
  790SOL    HW2 3270   2.297   1.062   3.848
  791SOL     OW 3271   3.273   5.726   3.903
  791SOL    HW1 3272   3.336   5.804   3.896
  791SOL    HW2 3273   3.193   5.742   3.844
  792SOL     OW 3274   1.131   6.729   0.611
  792SOL    HW1 3275   1.150   6.671   0.690
  792SOL    HW2 3276   1.209   6.729   0.550
  793SOL     OW 3277   4.976   4.921   3.433
  793SOL    HW1 3278   5.067   4.938   3.471
  793SOL    HW2 3279   4.912   4.904   3.508
  794SOL     OW 3280   3.664   3.619   5.107
  794SOL    HW1 3281   3.617   3.703   5.080
  794SOL    HW2 3282   3.623   3.583   5.191
  795SOL     OW 3283   3.269   6.800   3.924
  795SOL    HW1 3284   3.245   6.869   3.856
  795SOL    HW2 3285   3.231   6.827   4.013
  796SOL     OW 3286   0.357   1.797   6.378
  796SOL    HW1 3287   0.418   1.746   6.439
  796SOL    HW2 3288   0.356   1.754   6.288
  797SOL     OW 3289   5.848   3.222   0.885
  797SOL    HW1 3290   5.891   3.132   0.884
  797SOL    HW2 3291   5.812   3.243   0.794
  798SOL     OW 3292   4.031   0.249   2.395
  798SOL    HW1 3293   3.938   0.262   2.431
  798SOL    HW2 3294   4.091   0.217   2.468
  799SOL     OW 3295   0.163   0.204   5.891
  799SOL    HW1 3296   0.142   0.297   5.862
  799SOL    HW2 3297   0.153   0.196   5.990
  800SOL     OW 3298   5.287   2.041   2.810
  800SOL    HW1 3299   5.334   1.999   2.888
  800SOL    HW2 3300   5.286   1.978   2.733
  801SOL     OW 3301   1.266   3.590   4.287
  801SOL    HW1 3302   1.225   3.500   4.303
  801SOL    HW2 3303   1.337   3.606   4.355
  802SOL     OW 3304   3.950   1.858   1.078
  802SOL    HW1 3305   3.971   1.948   1.115
  802SOL    HW2 3306   3.857   1.858   1.042
  803SOL     OW 3307   0.446   6.742   5.561
  803SOL    HW1 3308   0.422   6.684   5.483
  803SOL    HW2 3309   0.363   6.785   5.596
  804SOL     OW 3310   5.221   5.665   6.911
  804SOL    HW1 3311   5.228   5.759   6.877
  804SOL    HW2 3312   5.276   5.605   6.854
  805SOL     OW 3313   3.700   0.162   5.394
  805SOL    HW1 3314   3.797   0.157   5.415
  805SOL    HW2 3315   3.657   0.232   5.452
  806SOL     OW 3316   5.119   0.912   4.834
  806SOL    HW1 3317   5.128   0.957   4.923
  806SOL    HW2 3318   5.027   0.875   4.825
  807SOL     OW 3319   1.777   1.960   3.956
  807SOL    HW1 3320   1.728   1.875   3.975
  807SOL    HW2 3321   1.717   2.038   3.974
  808SOL     OW 3322   4.745   3.431   6.212
  808SOL    HW1 3323   4.663   3.481   6.239
  808SOL    HW2 3324   4.824   3.469   6.260
  809SOL     OW 3325   6.688   4.972   1.038
  809SOL    HW1 3326   6.741   4.889   1.055
  809SOL    HW2 3327   6.697   4.998   0.942
  810SOL     OW 3328   3.045   3.247   1.609
  810SOL    HW1 3329   2.995   3.218   1.690
  810SOL    HW2 3330   3.045   3.347   1.604
  811SOL     OW 3331   4.302   5.643   5.254
  811SOL    HW1 3332   4.366   5.654   5.178
  811SOL    HW2 3333   4.240   5.567   5.234
  812SOL     OW 3334   0.655   1.514   2.259
  812SOL    HW1 3335   0.606   1.465   2.331
  812SOL    HW2 3336   0.664   1.455   2.178
  813SOL     OW 3337   3.464   6.461   5.196
  813SOL    HW1 3338   3.380   6.513   5.180
  813SOL    HW2 3339   3.451   6.367   5.165
  814SOL     OW 3340   6.626   5.947   2.457
  814SOL    HW1 3341   6.682   5.937   2.374
  814SOL    HW2 3342   6.632   6.041   2.489
  815SOL     OW 3343   0.615   3.326   3.051
  815SOL    HW1 3344   0.531   3.375   3.076
  815SOL    HW2 3345   0.655   3.368   2.970
  816SOL     OW 3346   6.371   6.880   0.692
  816SOL    HW1 3347   6.400   6.789   0.720
  816SOL    HW2 3348   6.397   6.896   0.597
  817SOL     OW 3349   2.170   4.563   0.705
  817SOL    HW1 3350   2.241   4.548   0.635
  817SOL    HW2 3351   2.163   4.661   0.724
  818SOL     OW 3352   6.065   3.203   2.197
  818SOL    HW1 3353   5.969   3.197   2.225
  818SOL    HW2 3354   6.123   3.172   2.273
  819SOL     OW 3355   5.551   2.562   3.221
  819SOL    HW1 3356   5.476   2.626   3.206
  819SOL    HW2 3357   5.638   2.612   3.221
  820SOL     OW 3358   3.004   2.489   5.346
  820SOL    HW1 3359   3.088   2.438   5.324
  820SOL    HW2 3360   3.019   2.586   5.328
  821SOL     OW 3361   1.745   4.695   1.623
  821SOL    HW1 3362   1.710   4.709   1.530
  821SOL    HW2 3363   1.792   4.778   1.653
  822SOL     OW 3364   1.892   4.380   3.765
  822SOL    HW1 3365   1.881   4.444   3.841
  822SOL    HW2 3366   1.837   4.411   3.687
  823SOL     OW 3367   5.000   3.820   6.446
  823SOL    HW1 3368   4.979   3.908   6.489
  823SOL    HW2 3369   5.052   3.836   6.363
  824SOL     OW 3370   5.834   0.993   6.091
  824SOL    HW1 3371   5.855   1.090   6.099
  824SOL    HW2 3372   5.750   0.973   6.142
  825SOL     OW 3373   0.449   4.225   1.335
  825SOL    HW1 3374   0.433   4.128   1.315
  825SOL    HW2 3375   0.532   4.255   1.290
  826SOL     OW 3376   5.528   3.307   5.557
  826SOL    HW1 3377   5.584   3.337   5.481
  826SOL    HW2 3378   5.501   3.386   5.612
  827SOL     OW 3379   2.855   4.997   5.579
  827SOL    HW1 3380   2.906   4.951   5.652
  827SOL    HW2 3381   2.895   4.971   5.490
  828SOL     OW 3382   5.563   6.940   6.357
  828SOL    HW1 3383   5.468   6.943   6.328
  828SOL    HW2 3384   5.578   6.859   6.414
  829SOL     OW 3385   3.494   4.111   2.778
  829SOL    HW1 3386   3.564   4.107   2.850
  829SOL    HW2 3387   3.405   4.090   2.817
  830SOL     OW 3388   5.418   5.072   6.639
  830SOL    HW1 3389   5.446   5.004   6.706
  830SOL    HW2 3390   5.329   5.046   6.600
  831SOL     OW 3391   6.539   0.462   0.250
  831SOL    HW1 3392   6.494   0.413   0.175
  831SOL    HW2 3393   6.579   0.396   0.314
  832SOL     OW 3394   3.167   0.849   1.590
  832SOL    HW1 3395   3.265   0.867   1.586
  832SOL    HW2 3396   3.121   0.922   1.642
  833SOL     OW 3397   0.778   3.941   5.619
  833SOL    HW1 3398   0.807   3.854   5.581
  833SOL    HW2 3399   0.689   3.967   5.581
  834SOL     OW 3400   3.935   3.985   0.349
  834SOL    HW1 3401   3.881   3.951   0.427
  834SOL    HW2 3402   3.917   4.082   0.335
  835SOL     OW 3403   3.828   0.412   5.136
  835SOL    HW1 3404   3.896   0.444   5.071
  835SOL    HW2 3405   3.789   0.490   5.185
  836SOL     OW 3406   3.424   6.336   6.522
  836SOL    HW1 3407   3.408   6.241   6.549
  836SOL    HW2 3408   3.489   6.338   6.446
  837SOL     OW 3409   5.587   0.541   0.477
  837SOL    HW1 3410   5.527   0.481   0.531
  837SOL    HW2 3411   5.678   0.499   0.470
  838SOL     OW 3412   2.404   0.456   4.646
  838SOL    HW1 3413   2.496   0.479   4.613
  838SOL    HW2 3414   2.402   0.360   4.674
  839SOL     OW 3415   1.596   3.122   2.085
  839SOL    HW1 3416   1.689   3.090   2.106
  839SOL    HW2 3417   1.587   3.132   1.986
  840SOL     OW 3418   6.391   6.370   0.317
  840SOL    HW1 3419   6.379   6.398   0.222
  840SOL    HW2 3420   6.442   6.283   0.320
  841SOL     OW 3421   4.215   4.941   6.571
  841SOL    HW1 3422   4.190   4.939   6.667
  841SOL    HW2 3423   4.133   4.932   6.514
  842SOL     OW 3424   4.393   0.314   5.131
  842SOL    HW1 3425   4.478   0.264   5.147
  842SOL    HW2 3426   4.367   0.306   5.035
  843SOL     OW 3427   1.136   1.503   1.123
  843SOL    HW1 3428   1.160   1.565   1.198
  843SOL    HW2 3429   1.219   1.467   1.081
  844SOL     OW 3430   6.345   0.786   0.791
  844SOL    HW1 3431   6.409   0.722   0.750
  844SOL    HW2 3432   6.323   0.858   0.725
  845SOL     OW 3433   5.268   4.541   5.279
  845SOL    HW1 3434   5.319   4.456   5.270
  845SOL    HW2 3435   5.213   4.538   5.362
  846SOL     OW 3436   1.774   2.247   6.744
  846SOL    HW1 3437   1.847   2.241   6.813
  846SOL    HW2 3438   1.695   2.293   6.784
  847SOL     OW 3439   1.616   3.052   1.560
  847SOL    HW1 3440   1.686   3.019   1.498
  847SOL    HW2 3441   1.623   3.151   1.568
  848SOL     OW 3442   6.099   0.738   6.275
  848SOL    HW1 3443   6.101   0.641   6.247
  848SOL    HW2 3444   6.015   0.755   6.326
  849SOL     OW 3445   0.328   4.310   6.288
  849SOL    HW1 3446   0.325   4.376   6.363
  849SOL    HW2 3447   0.271   4.342   6.213
  850SOL     OW 3448   4.962   0.371   3.343
  850SOL    HW1 3449   5.043   0.430   3.350
  850SOL    HW2 3450   4.880   0.429   3.338
  851SOL     OW 3451   0.111   1.411   2.496
  851SOL    HW1 3452   0.046   1.335   2.501
  851SOL    HW2 3453   0.199   1.378   2.462
  852SOL     OW 3454   1.395   3.071   6.923
  852SOL    HW1 3455   1.444   3.085   7.009
  852SOL    HW2 3456   1.403   3.153   6.866
  853SOL     OW 3457   1.765   4.532   2.088
  853SOL    HW1 3458   1.800   4.625   2.081
  853SOL    HW2 3459   1.701   4.514   2.013
  854SOL     OW 3460   4.592   5.864   1.336
  854SOL    HW1 3461   4.496   5.893   1.328
  854SOL    HW2 3462   4.611   5.838   1.431
  855SOL     OW 3463   0.210   0.059   1.744
  855SOL    HW1 3464   0.200   7.006   1.687
  855SOL    HW2 3465   0.172   0.041   1.835
  856SOL     OW 3466   1.317   2.258   5.170
  856SOL    HW1 3467   1.345   2.179   5.225
  856SOL    HW2 3468   1.225   2.243   5.134
  857SOL     OW 3469   5.926   4.387   1.791
  857SOL    HW1 3470   6.002   4.369   1.855
  857SOL    HW2 3471   5.840   4.358   1.833
  858SOL     OW 3472   2.585   3.437   0.998
  858SOL    HW1 3473   2.645   3.357   0.995
  858SOL    HW2 3474   2.580   3.478   0.907
  859SOL     OW 3475   5.410   5.697   5.565
  859SOL    HW1 3476   5.501   5.664   5.539
  859SOL    HW2 3477   5.378   5.645   5.645
  860SOL     OW 3478   5.107   3.335   0.205
  860SOL    HW1 3479   5.117   3.239   0.228
  860SOL    HW2 3480   5.082   3.344   0.109
  861SOL     OW 3481   2.821   5.878   3.410
  861SOL    HW1 3482   2.725   5.849   3.414
  861SOL    HW2 3483   2.880   5.798   3.424
  862SOL     OW 3484   0.878   4.166   4.742
  862SOL    HW1 3485   0.940   4.118   4.805
  862SOL    HW2 3486   0.855   4.255   4.780
  863SOL     OW 3487   6.216   0.550   1.206
  863SOL    HW1 3488   6.164   0.615   1.262
  863SOL    HW2 3489   6.227   0.464   1.257
  864SOL     OW 3490   4.057   4.808   3.676
  864SOL    HW1 3491   4.094   4.760   3.755
  864SOL    HW2 3492   3.957   4.799   3.675
  865SOL     OW 3493   0.468   5.995   5.985
  865SOL    HW1 3494   0.447   6.092   5.987
  865SOL    HW2 3495   0.383   5.942   5.980
  866SOL     OW 3496   1.990   1.988   1.514
  866SOL    HW1 3497   2.062   1.980   1.445
  866SOL    HW2 3498   1.999   2.075   1.561
  867SOL     OW 3499   4.285   3.823   0.812
  867SOL    HW1 3500   4.354   3.895   0.811
  867SOL    HW2 3501   4.288   3.773   0.726
  868SOL     OW 3502   5.960   0.901   1.116
  868SOL    HW1 3503   5.866   0.865   1.110
  868SOL    HW2 3504   5.988   0.905   1.211
  869SOL     OW 3505   0.057   5.426   3.336
  869SOL    HW1 3506   0.126   5.355   3.318
  869SOL    HW2 3507   7.008   5.385   3.383
  870SOL     OW 3508   4.086   3.531   0.765
  870SOL    HW1 3509   4.132   3.443   0.777
  870SOL    HW2 3510   4.140   3.589   0.703
  871SOL     OW 3511   4.726   2.717   3.487
  871SOL    HW1 3512   4.653   2.649   3.494
  871SOL    HW2 3513   4.711   2.772   3.405
  872SOL     OW 3514   5.168   3.981   3.943
  872SOL    HW1 3515   5.147   4.068   3.900
  872SOL    HW2 3516   5.173   3.992   4.042
  873SOL     OW 3517   5.586   6.954   4.072
  873SOL    HW1 3518   5.507   6.896   4.093
  873SOL    HW2 3519   5.626   6.925   3.985
  874SOL     OW 3520   0.999   4.235   6.217
  874SOL    HW1 3521   1.052   4.225   6.301
  874SOL    HW2 3522   0.902   4.238   6.238
  875SOL     OW 3523   3.375   2.908   0.480
  875SOL    HW1 3524   3.410   2.820   0.449
  875SOL    HW2 3525   3.451   2.970   0.499
  876SOL     OW 3526   0.628   5.062   2.888
  876SOL    HW1 3527   0.710   5.086   2.940
  876SOL    HW2 3528   0.547   5.091   2.938
  877SOL     OW 3529   4.307   3.993   6.760
  877SOL    HW1 3530   4.360   3.924   6.711
  877SOL    HW2 3531   4.308   3.972   6.858
  878SOL     OW 3532   4.042   5.945   5.395
  878SOL    HW1 3533   4.066   6.015   5.462
  878SOL    HW2 3534   4.121   5.925   5.337
  879SOL     OW 3535   2.979   2.295   1.414
  879SOL    HW1 3536   2.885   2.263   1.425
  879SOL    HW2 3537   3.041   2.236   1.466
  880SOL     OW 3538   3.378   4.247   5.617
  880SOL    HW1 3539   3.284   4.275   5.635
  880SOL    HW2 3540   3.435   4.328   5.601
  881SOL     OW 3541   4.695   4.209   5.225
  881SOL    HW1 3542   4.655   4.276   5.162
  881SOL    HW2 3543   4.755   4.147   5.174
  882SOL     OW 3544   0.887   1.742   4.322
  882SOL    HW1 3545   0.910   1.839   4.314
  882SOL    HW2 3546   0.833   1.714   4.243
  883SOL     OW 3547   4.805   5.811   5.825
  883SOL    HW1 3548   4.884   5.790   5.882
  883SOL    HW2 3549   4.739   5.736   5.830
  884SOL     OW 3550   0.134   3.728   0.191
  884SOL    HW1 3551   0.157   3.735   0.288
  884SOL    HW2 3552   0.139   3.818   0.149
  885SOL     OW 3553   4.724   5.513   6.723
  885SOL    HW1 3554   4.823   5.515   6.714
  885SOL    HW2 3555   4.698   5.457   6.803
  886SOL     OW 3556   4.012   0.790   1.350
  886SOL    HW1 3557   3.971   0.707   1.388
  886SOL    HW2 3558   4.008   0.786   1.251
  887SOL     OW 3559   3.534   6.820   4.101
  887SOL    HW1 3560   3.559   6.739   4.047
  887SOL    HW2 3561   3.437   6.840   4.087
  888SOL     OW 3562   5.580   5.915   3.298
  888SOL    HW1 3563   5.485   5.891   3.316
  888SOL    HW2 3564   5.600   6.006   3.334
  889SOL     OW 3565   1.906   6.819   6.068
  889SOL    HW1 3566   1.996   6.832   6.028
  889SOL    HW2 3567   1.836   6.834   5.999
  890SOL     OW 3568   2.217   5.245   2.057
  890SOL    HW1 3569   2.291   5.187   2.024
  890SOL    HW2 3570   2.196   5.314   1.987
  891SOL     OW 3571   6.310   4.234   0.405
  891SOL    HW1 3572   6.348   4.273   0.488
  891SOL    HW2 3573   6.357   4.148   0.384
  892SOL     OW 3574   3.751   4.033   5.525
  892SOL    HW1 3575   3.806   3.954   5.555
  892SOL    HW2 3576   3.761   4.046   5.427
  893SOL     OW 3577   2.022   1.075   1.955
  893SOL    HW1 3578   2.083   1.147   1.989
  893SOL    HW2 3579   2.022   0.998   2.017
  894SOL     OW 3580   1.627   2.220   2.897
  894SOL    HW1 3581   1.603   2.308   2.938
  894SOL    HW2 3582   1.725   2.216   2.881
  895SOL     OW 3583   1.465   5.150   4.488
  895SOL    HW1 3584   1.466   5.240   4.446
  895SOL    HW2 3585   1.446   5.159   4.586
  896SOL     OW 3586   6.454   6.249   1.955
  896SOL    HW1 3587   6.453   6.205   1.866
  896SOL    HW2 3588   6.384   6.321   1.958
  897SOL     OW 3589   4.549   0.600   6.869
  897SOL    HW1 3590   4.561   0.562   6.961
  897SOL    HW2 3591   4.460   0.645   6.863
  898SOL     OW 3592   3.719   6.142   2.987
  898SOL    HW1 3593   3.818   6.158   2.987
  898SOL    HW2 3594   3.694   6.088   3.067
  899SOL     OW 3595   0.057   4.741   0.632
  899SOL    HW1 3596   7.019   4.760   0.704
  899SOL    HW2 3597   0.138   4.797   0.647
  900SOL     OW 3598   4.190   6.610   0.608
  900SOL    HW1 3599   4.219   6.705   0.614
  900SOL    HW2 3600   4.219   6.572   0.520
  901SOL     OW 3601   0.916   1.139   5.194
  901SOL    HW1 3602   0.918   1.064   5.261
  901SOL    HW2 3603   0.966   1.217   5.231
  902SOL     OW 3604   0.693   2.198   0.771
  902SOL    HW1 3605   0.710   2.226   0.676
  902SOL    HW2 3606   0.771   2.226   0.828
  903SOL     OW 3607   6.769   4.000   5.652
  903SOL    HW1 3608   6.778   4.067   5.726
  903SOL    HW2 3609   6.763   3.908   5.692
  904SOL     OW 3610   1.929   2.475   3.038
  904SOL    HW1 3611   1.952   2.457   2.942
  904SOL    HW2 3612   1.878   2.398   3.075
  905SOL     OW 3613   4.691   3.911   6.193
  905SOL    HW1 3614   4.638   3.971   6.133
  905SOL    HW2 3615   4.764   3.868   6.140
  906SOL     OW 3616   0.673   3.231   5.898
  906SOL    HW1 3617   0.763   3.260   5.931
  906SOL    HW2 3618   0.646   3.288   5.820
  907SOL     OW 3619   5.823   2.735   2.933
  907SOL    HW1 3620   5.863   2.827   2.932
  907SOL    HW2 3621   5.857   2.683   2.854
  908SOL     OW 3622   1.744   5.899   3.334
  908SOL    HW1 3623   1.738   5.806   3.298
  908SOL    HW2 3624   1.747   5.965   3.259
  909SOL     OW 3625   2.889   6.139   2.114
  909SOL    HW1 3626   2.923   6.115   2.023
  909SOL    HW2 3627   2.957   6.112   2.183
  910SOL     OW 3628   3.091   0.596   0.631
  910SOL    HW1 3629   3.180   0.574   0.672
  910SOL    HW2 3630   3.028   0.520   0.647
  911SOL     OW 3631   0.045   5.235   0.749
  911SOL    HW1 3632   0.042   5.212   0.652
  911SOL    HW2 3633   7.021   5.318   0.766
  912SOL     OW 3634   6.232   0.363   3.789
  912SOL    HW1 3635   6.251   0.287   3.726
  912SOL    HW2 3636   6.313   0.421   3.796
  913SOL     OW 3637   1.509   1.113   3.117
  913SOL    HW1 3638   1.502   1.145   3.022
  913SOL    HW2 3639   1.592   1.150   3.158
  914SOL     OW 3640   2.659   5.889   4.940
  914SOL    HW1 3641   2.704   5.966   4.895
  914SOL    HW2 3642   2.723   5.846   5.004
  915SOL     OW 3643   1.559   3.498   6.987
  915SOL    HW1 3644   1.590   3.464   0.047
  915SOL    HW2 3645   1.593   3.591   6.973
  916SOL     OW 3646   1.126   2.625   1.849
  916SOL    HW1 3647   1.048   2.677   1.813
  916SOL    HW2 3648   1.116   2.529   1.822
  917SOL     OW 3649   5.843   0.574   2.121
  917SOL    HW1 3650   5.763   0.520   2.098
  917SOL    HW2 3651   5.912   0.563   2.049
  918SOL     OW 3652   3.144   6.596   6.946
  918SOL    HW1 3653   3.138   6.591   6.846
  918SOL    HW2 3654   3.107   6.512   6.985
  919SOL     OW 3655   6.507   5.125   2.596
  919SOL    HW1 3656   6.434   5.178   2.553
  919SOL    HW2 3657   6.586   5.122   2.535
  920SOL     OW 3658   2.191   6.019   3.189
  920SOL    HW1 3659   2.230   6.041   3.099
  920SOL    HW2 3660   2.200   6.099   3.249
  921SOL     OW 3661   4.588   4.388   3.021
  921SOL    HW1 3662   4.643   4.309   3.048
  921SOL    HW2 3663   4.491   4.364   3.025
  922SOL     OW 3664   3.321   2.834   5.717
  922SOL    HW1 3665   3.420   2.827   5.718
  922SOL    HW2 3666   3.281   2.758   5.769
  923SOL     OW 3667   3.031   4.542   6.169
  923SOL    HW1 3668   3.047   4.447   6.196
  923SOL    HW2 3669   3.019   4.598   6.251
  924SOL     OW 3670   6.145   2.808   2.677
  924SOL    HW1 3671   6.088   2.827   2.597
  924SOL    HW2 3672   6.168   2.710   2.678
  925SOL     OW 3673   6.868   2.053   6.643
  925SOL    HW1 3674   6.782   2.076   6.690
  925SOL    HW2 3675   6.917   1.984   6.696
  926SOL     OW 3676   5.988   1.736   0.761
  926SOL    HW1 3677   6.087   1.747   0.765
  926SOL    HW2 3678   5.944   1.821   0.791
  927SOL     OW 3679   5.955   3.705   3.587
  927SOL    HW1 3680   6.013   3.700   3.506
  927SOL    HW2 3681   5.881   3.638   3.579
  928SOL     OW 3682   1.105   6.152   0.775
  928SOL    HW1 3683   1.076   6.207   0.697
  928SOL    HW2 3684   1.087   6.055   0.757
  929SOL     OW 3685   0.554   0.631   1.507
  929SOL    HW1 3686   0.455   0.622   1.519
  929SOL    HW2 3687   0.592   0.683   1.583
  930SOL     OW 3688   5.652   6.192   4.586
  930SOL    HW1 3689   5.585   6.133   4.541
  930SOL    HW2 3690   5.608   6.278   4.613
  931SOL     OW 3691   5.517   2.643   2.924
  931SOL    HW1 3692   5.617   2.638   2.934
  931SOL    HW2 3693   5.492   2.622   2.830
  932SOL     OW 3694   3.411   6.709   2.892
  932SOL    HW1 3695   3.417   6.661   2.979
  932SOL    HW2 3696   3.503   6.720   2.853
  933SOL     OW 3697   0.811   5.192   3.503
  933SOL    HW1 3698   0.764   5.169   3.588
  933SOL    HW2 3699   0.766   5.271   3.461
  934SOL     OW 3700   1.814   0.613   5.003
  934SOL    HW1 3701   1.810   0.545   5.077
  934SOL    HW2 3702   1.722   0.644   4.981
  935SOL     OW 3703   4.921   4.416   4.965
  935SOL    HW1 3704   5.005   4.368   4.991
  935SOL    HW2 3705   4.924   4.510   5.000
  936SOL     OW 3706   1.630   0.750   6.626
  936SOL    HW1 3707   1.532   0.769   6.628
  936SOL    HW2 3708   1.650   0.688   6.550
  937SOL     OW 3709   4.959   1.478   5.185
  937SOL    HW1 3710   4.878   1.508   5.134
  937SOL    HW2 3711   5.039   1.481   5.126
  938SOL     OW 3712   0.153   5.482   6.017
  938SOL    HW1 3713   0.084   5.540   5.971
  938SOL    HW2 3714   0.230   5.539   6.046
  939SOL     OW 3715   6.034   0.557   5.943
  939SOL    HW1 3716   5.951   0.609   5.965
  939SOL    HW2 3717   6.074   0.522   6.028
  940SOL     OW 3718   0.759   2.747   1.933
  940SOL    HW1 3719   0.711   2.677   1.985
  940SOL    HW2 3720   0.716   2.758   1.843
  941SOL     OW 3721   6.184   1.194   5.133
  941SOL    HW1 3722   6.190   1.106   5.180
  941SOL    HW2 3723   6.168   1.178   5.035
  942SOL     OW 3724   4.816   0.155   3.494
  942SOL    HW1 3725   4.772   0.095   3.427
  942SOL    HW2 3726   4.857   0.233   3.447
  943SOL     OW 3727   1.947   3.455   3.447
  943SOL    HW1 3728   1.975   3.377   3.502
  943SOL    HW2 3729   2.028   3.510   3.423
  944SOL     OW 3730   6.731   4.100   5.405
  944SOL    HW1 3731   6.753   4.044   5.484
  944SOL    HW2 3732   6.654   4.160   5.428
  945SOL     OW 3733   6.609   4.637   5.250
  945SOL    HW1 3734   6.595   4.591   5.162
  945SOL    HW2 3735   6.707   4.655   5.262
  946SOL     OW 3736   4.599   3.017   5.975
  946SOL    HW1 3737   4.537   3.021   6.053
  946SOL    HW2 3738   4.693   3.012   6.008
  947SOL     OW 3739   3.579   3.108   4.308
  947SOL    HW1 3740   3.565   3.013   4.280
  947SOL    HW2 3741   3.620   3.159   4.233
  948SOL     OW 3742   4.339   0.227   0.907
  948SOL    HW1 3743   4.416   0.269   0.957
  948SOL    HW2 3744   4.254   0.274   0.931
  949SOL     OW 3745   0.907   6.438   6.372
  949SOL    HW1 3746   0.814   6.405   6.389
  949SOL    HW2 3747   0.926   6.517   6.431
  950SOL     OW 3748   4.484   4.993   1.817
  950SOL    HW1 3749   4.465   5.084   1.782
  950SOL    HW2 3750   4.545   4.999   1.896
  951SOL     OW 3751   2.207   0.550   3.164
  951SOL    HW1 3752   2.227   0.623   3.098
  951SOL    HW2 3753   2.287   0.533   3.221
  952SOL     OW 3754   5.173   2.295   2.885
  952SOL    HW1 3755   5.203   2.233   2.813
  952SOL    HW2 3756   5.252   2.343   2.923
  953SOL     OW 3757   5.269   5.304   4.229
  953SOL    HW1 3758   5.358   5.261   4.247
  953SOL    HW2 3759   5.280   5.403   4.228
  954SOL     OW 3760   4.655   6.062   0.742
  954SOL    HW1 3761   4.587   5.989   0.740
  954SOL    HW2 3762   4.745   6.023   0.760
  955SOL     OW 3763   6.637   4.232   2.987
  955SOL    HW1 3764   6.596   4.179   2.912
  955SOL    HW2 3765   6.729   4.198   3.006
  956SOL     OW 3766   6.887   2.315   2.629
  956SOL    HW1 3767   6.855   2.246   2.694
  956SOL    HW2 3768   6.840   2.302   2.542
  957SOL     OW 3769   0.572   4.987   4.990
  957SOL    HW1 3770   0.629   4.909   5.015
  957SOL    HW2 3771   0.611   5.071   5.028
  958SOL     OW 3772   4.285   1.620   3.166
  958SOL    HW1 3773   4.245   1.534   3.198
  958SOL    HW2 3774   4.278   1.689   3.239
  959SOL     OW 3775   3.566   5.207   3.086
  959SOL    HW1 3776   3.566   5.166   2.995
  959SOL    HW2 3777   3.637   5.277   3.092
  960SOL     OW 3778   0.849   5.799   3.355
  960SOL    HW1 3779   0.802   5.726   3.305
  960SOL    HW2 3780   0.869   5.875   3.294
  961SOL     OW 3781   4.390   0.275   3.331
  961SOL    HW1 3782   4.300   0.294   3.292
  961SOL    HW2 3783   4.459   0.277   3.258
  962SOL     OW 3784   1.350   0.933   4.311
  962SOL    HW1 3785   1.383   0.938   4.405
  962SOL    HW2 3786   1.283   1.005   4.295
  963SOL     OW 3787   0.051   2.052   6.236
  963SOL    HW1 3788   0.016   2.112   6.164
  963SOL    HW2 3789   0.057   1.958   6.202
  964SOL     OW 3790   6.165   4.505   6.772
  964SOL    HW1 3791   6.253   4.541   6.801
  964SOL    HW2 3792   6.092   4.545   6.829
  965SOL     OW 3793   5.909   2.095   0.998
  965SOL    HW1 3794   5.963   2.117   1.080
  965SOL    HW2 3795   5.812   2.092   1.023
  966SOL     OW 3796   5.205   2.440   1.802
  966SOL    HW1 3797   5.144   2.497   1.858
  966SOL    HW2 3798   5.159   2.416   1.717
  967SOL     OW 3799   2.136   4.481   1.848
  967SOL    HW1 3800   2.223   4.440   1.818
  967SOL    HW2 3801   2.141   4.580   1.835
  968SOL     OW 3802   3.680   1.573   2.214
  968SOL    HW1 3803   3.727   1.637   2.275
  968SOL    HW2 3804   3.617   1.622   2.155
  969SOL     OW 3805   3.418   6.017   6.360
  969SOL    HW1 3806   3.517   6.033   6.362
  969SOL    HW2 3807   3.382   6.022   6.453
  970SOL     OW 3808   5.029   1.066   6.288
  970SOL    HW1 3809   5.097   1.137   6.302
  970SOL    HW2 3810   5.037   1.029   6.196
  971SOL     OW 3811   6.619   2.023   3.207
  971SOL    HW1 3812   6.523   1.999   3.193
  971SOL    HW2 3813   6.626   2.095   3.276
  972SOL     OW 3814   5.602   3.998   1.686
  972SOL    HW1 3815   5.521   3.991   1.744
  972SOL    HW2 3816   5.578   3.972   1.592
  973SOL     OW 3817   6.856   4.489   6.847
  973SOL    HW1 3818   6.886   4.519   6.938
  973SOL    HW2 3819   6.760   4.514   6.835
  974SOL     OW 3820   5.502   6.743   2.552
  974SOL    HW1 3821   5.534   6.830   2.588
  974SOL    HW2 3822   5.554   6.668   2.594
  975SOL     OW 3823   1.560   5.398   6.520
  975SOL    HW1 3824   1.523   5.484   6.485
  975SOL    HW2 3825   1.614   5.353   6.449
  976SOL     OW 3826   0.210   3.641   3.004
  976SOL    HW1 3827   0.259   3.574   3.059
  976SOL    HW2 3828   0.196   3.605   2.912
  977SOL     OW 3829   1.240   0.440   2.903
  977SOL    HW1 3830   1.250   0.482   2.813
  977SOL    HW2 3831   1.158   0.382   2.903
  978SOL     OW 3832   4.747   3.953   5.540
  978SOL    HW1 3833   4.764   3.922   5.446
  978SOL    HW2 3834   4.824   4.010   5.570
  979SOL     OW 3835   6.700   2.183   1.012
  979SOL    HW1 3836   6.653   2.244   1.075
  979SOL    HW2 3837   6.666   2.198   0.919
  980SOL     OW 3838   4.539   2.581   4.331
  980SOL    HW1 3839   4.471   2.573   4.404
  980SOL    HW2 3840   4.607   2.651   4.355
  981SOL     OW 3841   1.247   1.867   5.274
  981SOL    HW1 3842   1.191   1.793   5.314
  981SOL    HW2 3843   1.286   1.836   5.187
  982SOL     OW 3844   2.217   2.169   3.832
  982SOL    HW1 3845   2.185   2.251   3.784
  982SOL    HW2 3846   2.189   2.087   3.782
  983SOL     OW 3847   5.541   2.349   4.636
  983SOL    HW1 3848   5.641   2.345   4.627
  983SOL    HW2 3849   5.511   2.285   4.706
  984SOL     OW 3850   2.789   1.687   4.517
  984SOL    HW1 3851   2.740   1.723   4.437
  984SOL    HW2 3852   2.878   1.731   4.525
  985SOL     OW 3853   4.983   4.432   5.857
  985SOL    HW1 3854   4.908   4.481   5.815
  985SOL    HW2 3855   5.008   4.476   5.944
  986SOL     OW 3856   5.638   4.252   0.634
  986SOL    HW1 3857   5.666   4.182   0.568
  986SOL    HW2 3858   5.715   4.272   0.695
  987SOL     OW 3859   4.699   7.009   1.875
  987SOL    HW1 3860   4.752   6.996   1.791
  987SOL    HW2 3861   4.697   0.078   1.898
  988SOL     OW 3862   3.312   3.492   3.113
  988SOL    HW1 3863   3.400   3.452   3.139
  988SOL    HW2 3864   3.288   3.566   3.177
  989SOL     OW 3865   6.385   0.633   4.926
  989SOL    HW1 3866   6.454   0.576   4.882
  989SOL    HW2 3867   6.429   0.709   4.973
  990SOL     OW 3868   4.148   0.120   1.930
  990SOL    HW1 3869   4.060   0.126   1.976
  990SOL    HW2 3870   4.190   0.211   1.927
  991SOL     OW 3871   1.335   2.518   5.208
  991SOL    HW1 3872   1.326   2.418   5.211
  991SOL    HW2 3873   1.316   2.550   5.115
  992SOL     OW 3874   6.758   2.294   2.071
  992SOL    HW1 3875   6.700   2.347   2.010
  992SOL    HW2 3876   6.708   2.273   2.155
  993SOL     OW 3877   1.665   4.039   1.759
  993SOL    HW1 3878   1.614   4.069   1.840
  993SOL    HW2 3879   1.740   3.979   1.787
  994SOL     OW 3880   3.301   3.976   2.194
  994SOL    HW1 3881   3.211   4.007   2.163
  994SOL    HW2 3882   3.290   3.896   2.253
  995SOL     OW 3883   3.708   3.003   5.721
  995SOL    HW1 3884   3.661   3.060   5.788
  995SOL    HW2 3885   3.662   2.914   5.715
  996SOL     OW 3886   3.158   4.907   4.193
  996SOL    HW1 3887   3.111   4.867   4.272
  996SOL    HW2 3888   3.160   5.006   4.201
  997SOL     OW 3889   1.337   0.889   3.128
  997SOL    HW1 3890   1.392   0.811   3.156
  997SOL    HW2 3891   1.395   0.969   3.113
  998SOL     OW 3892   4.772   0.162   4.261
  998SOL    HW1 3893   4.848   0.121   4.210
  998SOL    HW2 3894   4.766   0.119   4.351
  999SOL     OW 3895   5.111   4.470   2.073
  999SOL    HW1 3896   5.012   4.473   2.062
  999SOL    HW2 3897   5.152   4.545   2.021
 1000SOL     OW 3898   2.159   0.900   2.328
 1000SOL    HW1 3899   2.078   0.842   2.314
 1000SOL    HW2 3900   2.132   0.996   2.323
 1001SOL     OW 3901   5.424   6.334   0.391
 1001SOL    HW1 3902   5.389   6.271   0.321
 1001SOL    HW2 3903   5.502   6.385   0.354
 1002SOL     OW 3904   6.120   1.785   0.456
 1002SOL    HW1 3905   6.021   1.772   0.451
 1002SOL    HW2 3906   6.148   1.795   0.551
 1003SOL     OW 3907   2.118   6.055   1.538
 1003SOL    HW1 3908   2.117   6.135   1.598
 1003SOL    HW2 3909   2.206   6.050   1.491
 1004SOL     OW 3910   0.196   0.360   1.860
 1004SOL    HW1 3911   0.232   0.342   1.768
 1004SOL    HW2 3912   0.158   0.276   1.898
 1005SOL     OW 3913   1.449   2.639   3.390
 1005SOL    HW1 3914   1.410   2.729   3.371
 1005SOL    HW2 3915   1.536   2.649   3.438
 1006SOL     OW 3916   1.389   4.673   1.090
 1006SOL    HW1 3917   1.317   4.609   1.114
 1006SOL    HW2 3918   1.417   4.658   0.995
 1007SOL     OW 3919   4.864   0.246   5.389
 1007SOL    HW1 3920   4.835   0.160   5.346
 1007SOL    HW2 3921   4.957   0.236   5.425
 1008SOL     OW 3922   1.252   2.441   4.935
 1008SOL    HW1 3923   1.321   2.393   4.882
 1008SOL    HW2 3924   1.169   2.452   4.879
 1009SOL     OW 3925   6.839   5.771   4.726
 1009SOL    HW1 3926   6.901   5.848   4.739
 1009SOL    HW2 3927   6.801   5.775   4.633
 1010SOL     OW 3928   3.233   2.754   5.976
 1010SOL    HW1 3929   3.293   2.832   5.998
 1010SOL    HW2 3930   3.281   2.669   5.996
 1011SOL     OW 3931   2.227   5.113   2.371
 1011SOL    HW1 3932   2.286   5.150   2.299
 1011SOL    HW2 3933   2.217   5.014   2.359
 1012SOL     OW 3934   6.494   0.733   1.635
 1012SOL    HW1 3935   6.510   0.635   1.636
 1012SOL    HW2 3936   6.574   0.780   1.598
 1013SOL     OW 3937   0.684   1.177   5.671
 1013SOL    HW1 3938   0.751   1.103   5.671
 1013SOL    HW2 3939   0.603   1.149   5.619
 1014SOL     OW 3940   5.047   5.820   6.563
 1014SOL    HW1 3941   5.014   5.819   6.657
 1014SOL    HW2 3942   4.994   5.756   6.507
 1015SOL     OW 3943   2.498   6.912   5.735
 1015SOL    HW1 3944   2.471   6.935   5.641
 1015SOL    HW2 3945   2.513   6.995   5.787
 1016SOL     OW 3946   3.886   3.641   6.819
 1016SOL    HW1 3947   3.848   3.610   6.732
 1016SOL    HW2 3948   3.929   3.730   6.807
 1017SOL     OW 3949   3.935   2.488   1.583
 1017SOL    HW1 3950   3.957   2.415   1.648
 1017SOL    HW2 3951   3.852   2.535   1.613
 1018SOL     OW 3952   0.548   3.698   4.318
 1018SOL    HW1 3953   0.619   3.651   4.266
 1018SOL    HW2 3954   0.583   3.786   4.351
 1019SOL     OW 3955   6.819   0.161   1.705
 1019SOL    HW1 3956   6.724   0.173   1.734
 1019SOL    HW2 3957   6.862   0.091   1.763
 1020SOL     OW 3958   0.885   0.091   1.116
 1020SOL    HW1 3959   0.820   0.096   1.040
 1020SOL    HW2 3960   0.965   0.038   1.088
 1021SOL     OW 3961   4.977   6.894   1.362
 1021SOL    HW1 3962   5.045   6.961   1.332
 1021SOL    HW2 3963   4.896   6.900   1.305
 1022SOL     OW 3964   3.977   5.064   5.739
 1022SOL    HW1 3965   4.077   5.068   5.737
 1022SOL    HW2 3966   3.940   5.155   5.754
 1023SOL     OW 3967   0.759   6.819   2.845
 1023SOL    HW1 3968   0.748   6.848   2.940
 1023SOL    HW2 3969   0.856   6.818   2.821
 1024SOL     OW 3970   0.198   2.649   4.195
 1024SOL    HW1 3971   0.247   2.718   4.142
 1024SOL    HW2 3972   0.228   2.652   4.290
 1025SOL     OW 3973   2.507   2.952   0.707
 1025SOL    HW1 3974   2.532   2.881   0.640
 1025SOL    HW2 3975   2.570   2.949   0.784
 1026SOL     OW 3976   2.427   2.620   1.482
 1026SOL    HW1 3977   2.385   2.710   1.492
 1026SOL    HW2 3978   2.441   2.601   1.385
 1027SOL     OW 3979   3.082   6.641   1.269
 1027SOL    HW1 3980   3.132   6.556   1.251
 1027SOL    HW2 3981   3.066   6.688   1.182
 1028SOL     OW 3982   3.028   6.179   0.476
 1028SOL    HW1 3983   3.063   6.224   0.394
 1028SOL    HW2 3984   2.943   6.131   0.455
 1029SOL     OW 3985   1.763   0.288   0.165
 1029SOL    HW1 3986   1.833   0.260   0.230
 1029SOL    HW2 3987   1.675   0.251   0.192
 1030SOL     OW 3988   2.961   3.514   1.791
 1030SOL    HW1 3989   2.951   3.435   1.851
 1030SOL    HW2 3990   2.900   3.504   1.712
 1031SOL     OW 3991   4.849   5.035   0.826
 1031SOL    HW1 3992   4.778   4.970   0.801
 1031SOL    HW2 3993   4.808   5.126   0.838
 1032SOL     OW 3994   2.229   1.798   4.793
 1032SOL    HW1 3995   2.152   1.805   4.856
 1032SOL    HW2 3996   2.238   1.703   4.762
 1033SOL     OW 3997   1.720   6.170   0.897
 1033SOL    HW1 3998   1.785   6.108   0.940
 1033SOL    HW2 3999   1.705   6.249   0.956
 1034SOL     OW 4000   0.463   5.707   4.910
 1034SOL    HW1 4001   0.371   5.680   4.941
 1034SOL    HW2 4002   0.481   5.801   4.939
 1035SOL     OW 4003   0.795   0.773   4.822
 1035SOL    HW1 4004   0.710   0.743   4.866
 1035SOL    HW2 4005   0.801   0.731   4.731
 1036SOL     OW 4006   3.107   1.050   1.993
 1036SOL    HW1 4007   3.084   1.054   1.896
 1036SOL    HW2 4008   3.078   1.134   2.039
 1037SOL     OW 4009   1.521   0.769   1.802
 1037SOL    HW1 4010   1.495   0.779   1.898
 1037SOL    HW2 4011   1.552   0.675   1.786
 1038SOL     OW 4012   1.322   0.045   5.724
 1038SOL    HW1 4013   1.245   0.008   5.777
 1038SOL    HW2 4014   1.407   0.029   5.774
 1039SOL     OW 4015   3.374   3.357   5.995
 1039SOL    HW1 4016   3.316   3.347   5.914
 1039SOL    HW2 4017   3.391   3.268   6.035
 1040SOL     OW 4018   4.818   3.029   2.988
 1040SOL    HW1 4019   4.825   2.961   2.915
 1040SOL    HW2 4020   4.858   3.115   2.958
 1041SOL     OW 4021   6.471   6.894   4.065
 1041SOL    HW1 4022   6.484   6.926   3.971
 1041SOL    HW2 4023   6.441   6.798   4.064
 1042SOL     OW 4024   4.303   4.942   2.174
 1042SOL    HW1 4025   4.311   4.994   2.259
 1042SOL    HW2 4026   4.394   4.912   2.145
 1043SOL     OW 4027   3.651   1.370   4.927
 1043SOL    HW1 4028   3.692   1.298   4.872
 1043SOL    HW2 4029   3.713   1.394   5.002
 1044SOL     OW 4030   5.252   4.307   2.317
 1044SOL    HW1 4031   5.216   4.370   2.249
 1044SOL    HW2 4032   5.294   4.229   2.271
 1045SOL     OW 4033   4.339   6.547   2.374
 1045SOL    HW1 4034   4.417   6.511   2.425
 1045SOL    HW2 4035   4.365   6.561   2.279
 1046SOL     OW 4036   1.381   0.886   0.348
 1046SOL    HW1 4037   1.397   0.885   0.446
 1046SOL    HW2 4038   1.282   0.883   0.330
 1047SOL     OW 4039   1.840   0.781   3.156
 1047SOL    HW1 4040   1.807   0.778   3.061
 1047SOL    HW2 4041   1.895   0.864   3.169
 1048SOL     OW 4042   5.762   6.311   4.248
 1048SOL    HW1 4043   5.737   6.224   4.290
 1048SOL    HW2 4044   5.679   6.363   4.229
 1049SOL     OW 4045   6.498   5.732   4.202
 1049SOL    HW1 4046   6.404   5.759   4.222
 1049SOL    HW2 4047   6.555   5.746   4.284
 1050SOL     OW 4048   4.557   5.104   1.034
 1050SOL    HW1 4049   4.609   5.186   1.010
 1050SOL    HW2 4050   4.482   5.129   1.095
 1051SOL     OW 4051   2.609   5.918   1.179
 1051SOL    HW1 4052   2.568   5.875   1.099
 1051SOL    HW2 4053   2.665   5.996   1.149
 1052SOL     OW 4054   3.826   0.731   4.570
 1052SOL    HW1 4055   3.769   0.723   4.652
 1052SOL    HW2 4056   3.922   0.726   4.595
 1053SOL     OW 4057   5.923   4.876   3.057
 1053SOL    HW1 4058   5.917   4.921   2.968
 1053SOL    HW2 4059   5.993   4.805   3.053
 1054SOL     OW 4060   2.504   4.104   5.856
 1054SOL    HW1 4061   2.410   4.072   5.867
 1054SOL    HW2 4062   2.523   4.119   5.759
 1055SOL     OW 4063   5.005   6.696   4.186
 1055SOL    HW1 4064   4.969   6.775   4.136
 1055SOL    HW2 4065   4.943   6.674   4.262
 1056SOL     OW 4066   2.196   4.847   5.781
 1056SOL    HW1 4067   2.128   4.868   5.711
 1056SOL    HW2 4068   2.194   4.750   5.803
 1057SOL     OW 4069   3.141   3.039   2.479
 1057SOL    HW1 4070   3.172   2.992   2.562
 1057SOL    HW2 4071   3.149   2.977   2.401
 1058SOL     OW 4072   4.516   1.545   3.547
 1058SOL    HW1 4073   4.589   1.590   3.598
 1058SOL    HW2 4074   4.470   1.478   3.605
 1059SOL     OW 4075   2.022   7.028   1.367
 1059SOL    HW1 4076   2.096   6.983   1.416
 1059SOL    HW2 4077   2.048   0.012   1.271
 1060SOL     OW 4078   0.042   4.446   4.308
 1060SOL    HW1 4079   6.993   4.484   4.258
 1060SOL    HW2 4080   0.125   4.497   4.286
 1061SOL     OW 4081   5.545   3.915   1.414
 1061SOL    HW1 4082   5.619   3.935   1.349
 1061SOL    HW2 4083   5.518   3.819   1.404
 1062SOL     OW 4084   5.930   3.851   6.530
 1062SOL    HW1 4085   5.890   3.941   6.512
 1062SOL    HW2 4086   6.026   3.862   6.553
 1063SOL     OW 4087   1.980   4.892   1.856
 1063SOL    HW1 4088   1.946   4.919   1.766
 1063SOL    HW2 4089   1.937   4.951   1.925
 1064SOL     OW 4090   1.902   3.884   1.795
 1064SOL    HW1 4091   1.972   3.836   1.847
 1064SOL    HW2 4092   1.945   3.940   1.724
 1065SOL     OW 4093   3.920   6.958   3.997
 1065SOL    HW1 4094   3.887   0.014   3.953
 1065SOL    HW2 4095   4.015   6.970   4.025
 1066SOL     OW 4096   4.599   0.450   3.770
 1066SOL    HW1 4097   4.538   0.377   3.736
 1066SOL    HW2 4098   4.572   0.474   3.863
 1067SOL     OW 4099   0.599   3.200   0.895
 1067SOL    HW1 4100   0.560   3.128   0.952
 1067SOL    HW2 4101   0.695   3.178   0.875
 1068SOL     OW 4102   5.292   4.898   2.877
 1068SOL    HW1 4103   5.362   4.965   2.853
 1068SOL    HW2 4104   5.325   4.806   2.855
 1069SOL     OW 4105   4.883   4.624   0.828
 1069SOL    HW1 4106   4.824   4.626   0.909
 1069SOL    HW2 4107   4.979   4.629   0.856
 1070SOL     OW 4108   0.181   0.197   2.238
 1070SOL    HW1 4109   0.177   0.148   2.325
 1070SOL    HW2 4110   0.127   0.281   2.244
 1071SOL     OW 4111   1.748   0.405   3.178
 1071SOL    HW1 4112   1.820   0.470   3.202
 1071SOL    HW2 4113   1.760   0.375   3.083
 1072SOL     OW 4114   1.835   0.690   0.904
 1072SOL    HW1 4115   1.831   0.708   0.806
 1072SOL    HW2 4116   1.919   0.640   0.925
 1073SOL     OW 4117   4.579   6.795   1.661
 1073SOL    HW1 4118   4.677   6.774   1.663
 1073SOL    HW2 4119   4.538   6.755   1.579
 1074SOL     OW 4120   2.557   5.176   0.773
 1074SOL    HW1 4121   2.487   5.234   0.732
 1074SOL    HW2 4122   2.558   5.087   0.727
 1075SOL     OW 4123   4.504   6.675   4.022
 1075SOL    HW1 4124   4.597   6.685   3.985
 1075SOL    HW2 4125   4.457   6.763   4.016
 1076SOL     OW 4126   6.651   3.271   5.787
 1076SOL    HW1 4127   6.716   3.248   5.860
 1076SOL    HW2 4128   6.640   3.193   5.727
 1077SOL     OW 4129   5.451   0.364   1.026
 1077SOL    HW1 4130   5.489   0.447   1.066
 1077SOL    HW2 4131   5.419   0.383   0.934
 1078SOL     OW 4132   0.894   1.594   2.385
 1078SOL    HW1 4133   0.831   1.566   2.312
 1078SOL    HW2 4134   0.868   1.550   2.471
 1079SOL     OW 4135   2.228   6.240   1.980
 1079SOL    HW1 4136   2.263   6.259   2.072
 1079SOL    HW2 4137   2.278   6.294   1.913
 1080SOL     OW 4138   1.476   4.490   3.758
 1080SOL    HW1 4139   1.485   4.576   3.808
 1080SOL    HW2 4140   1.498   4.414   3.819
 1081SOL     OW 4141   0.243   6.179   6.287
 1081SOL    HW1 4142   0.188   6.133   6.218
 1081SOL    HW2 4143   0.212   6.274   6.297
 1082SOL     OW 4144   3.903   2.127   5.481
 1082SOL    HW1 4145   3.820   2.108   5.534
 1082SOL    HW2 4146   3.957   2.044   5.472
 1083SOL     OW 4147   4.333   3.922   0.336
 1083SOL    HW1 4148   4.390   3.920   0.254
 1083SOL    HW2 4149   4.385   3.963   0.411
 1084SOL     OW 4150   6.209   5.815   0.243
 1084SOL    HW1 4151   6.218   5.877   0.165
 1084SOL    HW2 4152   6.280   5.746   0.240
 1085SOL     OW 4153   1.081   3.778   4.213
 1085SOL    HW1 4154   1.038   3.815   4.295
 1085SOL    HW2 4155   1.153   3.714   4.238
 1086SOL     OW 4156   6.504   6.418   1.500
 1086SOL    HW1 4157   6.418   6.434   1.453
 1086SOL    HW2 4158   6.525   6.496   1.559
 1087SOL     OW 4159   5.860   2.760   5.196
 1087SOL    HW1 4160   5.889   2.691   5.262
 1087SOL    HW2 4161   5.939   2.815   5.168
 1088SOL     OW 4162   6.292   4.654   3.248
 1088SOL    HW1 4163   6.231   4.732   3.233
 1088SOL    HW2 4164   6.243   4.569   3.232
 1089SOL     OW 4165   1.618   6.326   4.560
 1089SOL    HW1 4166   1.684   6.286   4.496
 1089SOL    HW2 4167   1.557   6.388   4.511
 1090SOL     OW 4168   2.071   1.766   3.372
 1090SOL    HW1 4169   2.024   1.681   3.348
 1090SOL    HW2 4170   2.011   1.822   3.429
 1091SOL     OW 4171   2.466   2.814   5.703
 1091SOL    HW1 4172   2.378   2.853   5.674
 1091SOL    HW2 4173   2.470   2.812   5.803
 1092SOL     OW 4174   1.874   4.215   0.940
 1092SOL    HW1 4175   1.946   4.191   1.006
 1092SOL    HW2 4176   1.899   4.180   0.850
 1093SOL     OW 4177   1.196   1.877   2.190
 1093SOL    HW1 4178   1.280   1.881   2.138
 1093SOL    HW2 4179   1.179   1.783   2.221
 1094SOL     OW 4180   0.971   6.341   3.897
 1094SOL    HW1 4181   0.901   6.410   3.915
 1094SOL    HW2 4182   1.000   6.347   3.801
 1095SOL     OW 4183   0.582   3.001   6.462
 1095SOL    HW1 4184   0.503   2.950   6.497
 1095SOL    HW2 4185   0.650   3.012   6.534
 1096SOL     OW 4186   3.372   4.334   1.599
 1096SOL    HW1 4187   3.436   4.263   1.627
 1096SOL    HW2 4188   3.421   4.407   1.553
 1097SOL     OW 4189   2.230   4.212   4.309
 1097SOL    HW1 4190   2.250   4.127   4.358
 1097SOL    HW2 4191   2.132   4.215   4.288
 1098SOL     OW 4192   4.507   3.533   0.665
 1098SOL    HW1 4193   4.586   3.472   0.674
 1098SOL    HW2 4194   4.525   3.619   0.712
 1099SOL     OW 4195   4.212   1.679   5.162
 1099SOL    HW1 4196   4.216   1.763   5.217
 1099SOL    HW2 4197   4.183   1.603   5.220
 1100SOL     OW 4198   3.322   2.064   6.008
 1100SOL    HW1 4199   3.253   2.056   6.079
 1100SOL    HW2 4200   3.382   1.984   6.010
 1101SOL     OW 4201   6.171   2.041   0.315
 1101SOL    HW1 4202   6.088   2.038   0.261
 1101SOL    HW2 4203   6.177   1.960   0.373
 1102SOL     OW 4204   0.991   5.564   4.402
 1102SOL    HW1 4205   0.892   5.552   4.411
 1102SOL    HW2 4206   1.028   5.491   4.345
 1103SOL     OW 4207   3.704   2.177   0.648
 1103SOL    HW1 4208   3.654   2.221   0.722
 1103SOL    HW2 4209   3.641   2.126   0.590
 1104SOL     OW 4210   2.270   3.530   5.352
 1104SOL    HW1 4211   2.357   3.577   5.363
 1104SOL    HW2 4212   2.237   3.500   5.442
 1105SOL     OW 4213   6.261   4.110   5.125
 1105SOL    HW1 4214   6.201   4.093   5.047
 1105SOL    HW2 4215   6.348   4.063   5.110
 1106SOL     OW 4216   1.114   1.990   1.621
 1106SOL    HW1 4217   1.047   2.063   1.608
 1106SOL    HW2 4218   1.147   1.991   1.715
 1107SOL     OW 4219   2.206   0.319   6.548
 1107SOL    HW1 4220   2.143   0.394   6.566
 1107SOL    HW2 4221   2.254   0.336   6.461
 1108SOL     OW 4222   3.561   0.804   5.578
 1108SOL    HW1 4223   3.632   0.737   5.598
 1108SOL    HW2 4224   3.477   0.780   5.627
 1109SOL     OW 4225   4.663   0.022   4.492
 1109SOL    HW1 4226   4.592   0.036   4.424
 1109SOL    HW2 4227   4.633   0.059   4.580
 1110SOL     OW 4228   2.637   2.099   3.424
 1110SOL    HW1 4229   2.540   2.077   3.437
 1110SOL    HW2 4230   2.657   2.105   3.327
 1111SOL     OW 4231   5.121   5.304   6.152
 1111SOL    HW1 4232   5.050   5.345   6.095
 1111SOL    HW2 4233   5.210   5.339   6.126
 1112SOL     OW 4234   5.049   1.428   2.325
 1112SOL    HW1 4235   5.052   1.411   2.227
 1112SOL    HW2 4236   5.119   1.372   2.371
 1113SOL     OW 4237   6.961   3.608   2.312
 1113SOL    HW1 4238   0.025   3.637   2.291
 1113SOL    HW2 4239   6.964   3.524   2.366
 1114SOL     OW 4240   3.896   2.111   6.512
 1114SOL    HW1 4241   3.994   2.124   6.527
 1114SOL    HW2 4242   3.860   2.184   6.455
 1115SOL     OW 4243   4.097   3.502   0.237
 1115SOL    HW1 4244   4.096   3.595   0.274
 1115SOL    HW2 4245   4.187   3.461   0.252
 1116SOL     OW 4246   5.310   6.401   4.957
 1116SOL    HW1 4247   5.361   6.439   5.034
 1116SOL    HW2 4248   5.261   6.474   4.910
 1117SOL     OW 4249   1.112   2.360   1.740
 1117SOL    HW1 4250   1.037   2.303   1.708
 1117SOL    HW2 4251   1.199   2.317   1.717
 1118SOL     OW 4252   2.599   4.503   1.463
 1118SOL    HW1 4253   2.667   4.569   1.432
 1118SOL    HW2 4254   2.539   4.545   1.531
 1119SOL     OW 4255   4.147   4.289   0.351
 1119SOL    HW1 4256   4.082   4.291   0.275
 1119SOL    HW2 4257   4.237   4.318   0.319
 1120SOL     OW 4258   6.048   0.121   4.768
 1120SOL    HW1 4259   6.050   0.205   4.714
 1120SOL    HW2 4260   6.022   0.142   4.862
 1121SOL     OW 4261   4.802   5.090   2.820
 1121SOL    HW1 4262   4.763   5.025   2.754
 1121SOL    HW2 4263   4.824   5.042   2.904
 1122SOL     OW 4264   5.165   3.669   6.841
 1122SOL    HW1 4265   5.162   3.639   6.745
 1122SOL    HW2 4266   5.120   3.601   6.898
 1123SOL     OW 4267   5.255   1.102   3.391
 1123SOL    HW1 4268   5.180   1.074   3.330
 1123SOL    HW2 4269   5.280   1.024   3.449
 1124SOL     OW 4270   6.440   3.902   5.448
 1124SOL    HW1 4271   6.447   3.907   5.548
 1124SOL    HW2 4272   6.366   3.963   5.418
 1125SOL     OW 4273   3.210   1.531   5.150
 1125SOL    HW1 4274   3.309   1.542   5.138
 1125SOL    HW2 4275   3.169   1.504   5.063
 1126SOL     OW 4276   5.762   5.447   6.635
 1126SOL    HW1 4277   5.732   5.484   6.723
 1126SOL    HW2 4278   5.703   5.371   6.609
 1127SOL     OW 4279   4.689   4.979   4.237
 1127SOL    HW1 4280   4.723   4.891   4.271
 1127SOL    HW2 4281   4.624   5.017   4.303
 1128SOL     OW 4282   5.619   2.162   5.656
 1128SOL    HW1 4283   5.697   2.109   5.621
 1128SOL    HW2 4284   5.565   2.106   5.718
 1129SOL     OW 4285   3.596   0.585   6.983
 1129SOL    HW1 4286   3.615   0.632   6.896
 1129SOL    HW2 4287   3.620   0.489   6.975
 1130SOL     OW 4288   2.283   4.775   0.438
 1130SOL    HW1 4289   2.311   4.688   0.479
 1130SOL    HW2 4290   2.268   4.843   0.510
 1131SOL     OW 4291   0.011   6.459   6.544
 1131SOL    HW1 4292   0.043   6.453   6.449
 1131SOL    HW2 4293   0.070   6.402   6.602
 1132SOL     OW 4294   5.052   0.147   1.314
 1132SOL    HW1 4295   5.078   0.149   1.217
 1132SOL    HW2 4296   5.126   0.109   1.368
 1133SOL     OW 4297   1.007   0.371   1.127
 1133SOL    HW1 4298   0.933   0.430   1.160
 1133SOL    HW2 4299   0.969   0.283   1.100
 1134SOL     OW 4300   5.012   1.287   1.361
 1134SOL    HW1 4301   4.948   1.360   1.336
 1134SOL    HW2 4302   5.016   1.220   1.287
 1135SOL     OW 4303   1.966   1.358   2.872
 1135SOL    HW1 4304   1.897   1.422   2.838
 1135SOL    HW2 4305   1.921   1.286   2.926
 1136SOL     OW 4306   2.977   5.036   4.603
 1136SOL    HW1 4307   2.932   4.957   4.646
 1136SOL    HW2 4308   3.076   5.026   4.612
 1137SOL     OW 4309   1.281   1.320   5.926
 1137SOL    HW1 4310   1.292   1.396   5.990
 1137SOL    HW2 4311   1.332   1.241   5.959
 1138SOL     OW 4312   0.615   1.431   6.740
 1138SOL    HW1 4313   0.556   1.350   6.731
 1138SOL    HW2 4314   0.709   1.402   6.755
 1139SOL     OW 4315   3.678   5.447   1.619
 1139SOL    HW1 4316   3.741   5.449   1.697
 1139SOL    HW2 4317   3.724   5.482   1.537
 1140SOL     OW 4318   4.225   1.104   1.925
 1140SOL    HW1 4319   4.151   1.162   1.893
 1140SOL    HW2 4320   4.189   1.014   1.951
 1141SOL     OW 4321   0.416   6.666   6.430
 1141SOL    HW1 4322   0.417   6.610   6.513
 1141SOL    HW2 4323   0.501   6.719   6.425
 1142SOL     OW 4324   2.996   0.173   5.007
 1142SOL    HW1 4325   2.972   0.077   5.020
 1142SOL    HW2 4326   3.018   0.189   4.911
 1143SOL     OW 4327   1.753   3.498   2.506
 1143SOL    HW1 4328   1.657   3.512   2.529
 1143SOL    HW2 4329   1.760   3.450   2.418
 1144SOL     OW 4330   6.627   5.064   5.392
 1144SOL    HW1 4331   6.709   5.035   5.342
 1144SOL    HW2 4332   6.655   5.115   5.474
 1145SOL     OW 4333   0.062   4.136   2.134
 1145SOL    HW1 4334   0.067   4.063   2.065
 1145SOL    HW2 4335   0.154   4.169   2.155
 1146SOL     OW 4336   6.073   0.651   1.928
 1146SOL    HW1 4337   6.127   0.628   1.847
 1146SOL    HW2 4338   6.077   0.750   1.944
 1147SOL     OW 4339   1.792   5.351   1.402
 1147SOL    HW1 4340   1.710   5.297   1.383
 1147SOL    HW2 4341   1.766   5.440   1.440
 1148SOL     OW 4342   5.039   6.986   0.164
 1148SOL    HW1 4343   5.062   0.013   0.084
 1148SOL    HW2 4344   5.118   6.977   0.223
 1149SOL     OW 4345   6.274   4.144   2.460
 1149SOL    HW1 4346   6.330   4.174   2.383
 1149SOL    HW2 4347   6.316   4.063   2.502
 1150SOL     OW 4348   2.637   3.887   0.408
 1150SOL    HW1 4349   2.594   3.946   0.340
 1150SOL    HW2 4350   2.638   3.793   0.373
 1151SOL     OW 4351   4.049   5.291   6.895
 1151SOL    HW1 4352   4.133   5.257   6.936
 1151SOL    HW2 4353   4.061   5.299   6.796
 1152SOL     OW 4354   6.564   5.293   5.976
 1152SOL    HW1 4355   6.625   5.275   5.898
 1152SOL    HW2 4356   6.519   5.382   5.962
 1153SOL     OW 4357   2.433   7.011   2.063
 1153SOL    HW1 4358   2.333   7.000   2.060
 1153SOL    HW2 4359   2.467   7.028   1.970
 1154SOL     OW 4360   1.042   4.208   1.573
 1154SOL    HW1 4361   0.991   4.290   1.549
 1154SOL    HW2 4362   1.041   4.145   1.495
 1155SOL     OW 4363   1.908   5.340   6.596
 1155SOL    HW1 4364   1.997   5.318   6.555
 1155SOL    HW2 4365   1.835   5.306   6.538
 1156SOL     OW 4366   2.755   1.227   4.632
 1156SOL    HW1 4367   2.732   1.143   4.582
 1156SOL    HW2 4368   2.816   1.283   4.575
 1157SOL     OW 4369   5.880   0.707   5.186
 1157SOL    HW1 4370   5.838   0.779   5.241
 1157SOL    HW2 4371   5.846   0.714   5.092
 1158SOL     OW 4372   6.952   6.046   5.348
 1158SOL    HW1 4373   6.920   6.129   5.392
 1158SOL    HW2 4374   6.875   6.001   5.303
 1159SOL     OW 4375   6.031   6.899   4.160
 1159SOL    HW1 4376   6.117   6.891   4.209
 1159SOL    HW2 4377   6.049   6.907   4.062
 1160SOL     OW 4378   3.636   3.620   1.204
 1160SOL    HW1 4379   3.601   3.553   1.268
 1160SOL    HW2 4380   3.592   3.708   1.220
 1161SOL     OW 4381   6.084   0.624   6.768
 1161SOL    HW1 4382   6.160   0.626   6.834
 1161SOL    HW2 4383   6.116   0.582   6.683
 1162SOL     OW 4384   2.602   2.070   6.272
 1162SOL    HW1 4385   2.504   2.087   6.268
 1162SOL    HW2 4386   2.639   2.111   6.356
 1163SOL     OW 4387   6.558   3.295   1.178
 1163SOL    HW1 4388   6.478   3.344   1.214
 1163SOL    HW2 4389   6.586   3.225   1.243
 1164SOL     OW 4390   5.357   2.743   5.089
 1164SOL    HW1 4391   5.455   2.722   5.094
 1164SOL    HW2 4392   5.314   2.687   5.019
 1165SOL     OW 4393   2.738   4.734   3.911
 1165SOL    HW1 4394   2.779   4.758   4.000
 1165SOL    HW2 4395   2.807   4.746   3.839
 1166SOL     OW 4396   3.760   6.681   7.009
 1166SOL    HW1 4397   3.773   6.764   0.035
 1166SOL    HW2 4398   3.843   6.662   6.957
 1167SOL     OW 4399   4.339   6.569   6.671
 1167SOL    HW1 4400   4.438   6.563   6.686
 1167SOL    HW2 4401   4.296   6.482   6.696
 1168SOL     OW 4402   5.545   1.750   3.871
 1168SOL    HW1 4403   5.507   1.815   3.806
 1168SOL    HW2 4404   5.578   1.798   3.952
 1169SOL     OW 4405   5.418   2.273   6.100
 1169SOL    HW1 4406   5.415   2.370   6.074
 1169SOL    HW2 4407   5.436   2.217   6.019
 1170SOL     OW 4408   5.272   1.149   2.846
 1170SOL    HW1 4409   5.275   1.237   2.893
 1170SOL    HW2 4410   5.200   1.092   2.886
 1171SOL     OW 4411   2.867   6.122   0.048
 1171SOL    HW1 4412   2.787   6.104   0.105
 1171SOL    HW2 4413   2.946   6.071   0.084
 1172SOL     OW 4414   3.500   3.971   2.009
 1172SOL    HW1 4415   3.440   3.963   2.089
 1172SOL    HW2 4416   3.497   3.885   1.957
 1173SOL     OW 4417   3.868   0.563   6.339
 1173SOL    HW1 4418   3.818   0.486   6.377
 1173SOL    HW2 4419   3.848   0.646   6.391
 1174SOL     OW 4420   3.432   4.042   0.090
 1174SOL    HW1 4421   3.446   4.014   0.185
 1174SOL    HW2 4422   3.344   4.088   0.081
 1175SOL     OW 4423   3.832   3.304   6.650
 1175SOL    HW1 4424   3.833   3.397   6.613
 1175SOL    HW2 4425   3.921   3.283   6.690
 1176SOL     OW 4426   5.886   4.772   0.183
 1176SOL    HW1 4427   5.872   4.871   0.194
 1176SOL    HW2 4428   5.934   4.755   0.096
 1177SOL     OW 4429   6.635   1.717   6.153
 1177SOL    HW1 4430   6.635   1.773   6.071
 1177SOL    HW2 4431   6.665   1.624   6.130
 1178SOL     OW 4432   3.322   3.373   1.434
 1178SOL    HW1 4433   3.280   3.363   1.524
 1178SOL    HW2 4434   3.251   3.372   1.364
 1179SOL     OW 4435   3.120   6.448   0.964
 1179SOL    HW1 4436   3.217   6.427   0.967
 1179SOL    HW2 4437   3.076   6.393   0.892
 1180SOL     OW 4438   2.448   5.666   3.710
 1180SOL    HW1 4439   2.480   5.756   3.680
 1180SOL    HW2 4440   2.441   5.664   3.810
 1181SOL     OW 4441   6.989   3.262   5.128
 1181SOL    HW1 4442   6.959   3.167   5.116
 1181SOL    HW2 4443   6.909   3.321   5.136
 1182SOL     OW 4444   3.113   5.319   3.367
 1182SOL    HW1 4445   3.023   5.340   3.404
 1182SOL    HW2 4446   3.110   5.232   3.318
 1183SOL     OW 4447   3.899   6.087   1.809
 1183SOL    HW1 4448   3.900   6.056   1.904
 1183SOL    HW2 4449   3.901   6.007   1.748
 1184SOL     OW 4450   4.992   6.892   6.800
 1184SOL    HW1 4451   5.015   6.966   6.863
 1184SOL    HW2 4452   4.924   6.832   6.843
 1185SOL     OW 4453   0.758   0.854   1.186
 1185SOL    HW1 4454   0.857   0.865   1.196
 1185SOL    HW2 4455   0.736   0.836   1.090
 1186SOL     OW 4456   5.399   6.149   5.651
 1186SOL    HW1 4457   5.473   6.198   5.605
 1186SOL    HW2 4458   5.336   6.112   5.584
 1187SOL     OW 4459   5.729   6.799   5.166
 1187SOL    HW1 4460   5.695   6.822   5.075
 1187SOL    HW2 4461   5.654   6.761   5.221
 1188SOL     OW 4462   3.731   5.861   6.149
 1188SOL    HW1 4463   3.765   5.820   6.064
 1188SOL    HW2 4464   3.669   5.937   6.127
 1189SOL     OW 4465   6.174   0.520   2.150
 1189SOL    HW1 4466   6.135   0.586   2.085
 1189SOL    HW2 4467   6.222   0.569   2.222
 1190SOL     OW 4468   3.247   5.523   3.145
 1190SOL    HW1 4469   3.288   5.491   3.059
 1190SOL    HW2 4470   3.210   5.445   3.195
 1191SOL     OW 4471   3.028   6.153   4.327
 1191SOL    HW1 4472   2.997   6.077   4.384
 1191SOL    HW2 4473   3.034   6.236   4.381
 1192SOL     OW 4474   5.530   6.188   2.949
 1192SOL    HW1 4475   5.471   6.255   2.995
 1192SOL    HW2 4476   5.517   6.098   2.990
 1193SOL     OW 4477   0.471   0.663   5.532
 1193SOL    HW1 4478   0.432   0.571   5.534
 1193SOL    HW2 4479   0.499   0.689   5.624
 1194SOL     OW 4480   0.017   1.786   0.847
 1194SOL    HW1 4481   6.964   1.793   0.791
 1194SOL    HW2 4482   0.026   1.693   0.882
 1195SOL     OW 4483   6.480   3.623   1.041
 1195SOL    HW1 4484   6.572   3.599   1.011
 1195SOL    HW2 4485   6.426   3.539   1.052
 1196SOL     OW 4486   5.906   4.643   2.699
 1196SOL    HW1 4487   5.813   4.609   2.698
 1196SOL    HW2 4488   5.935   4.661   2.793
 1197SOL     OW 4489   4.540   6.643   4.294
 1197SOL    HW1 4490   4.474   6.679   4.360
 1197SOL    HW2 4491   4.506   6.659   4.201
 1198SOL     OW 4492   1.094   3.875   2.566
 1198SOL    HW1 4493   1.011   3.870   2.509
 1198SOL    HW2 4494   1.163   3.812   2.530
 1199SOL     OW 4495   3.701   3.252   2.635
 1199SOL    HW1 4496   3.683   3.212   2.725
 1199SOL    HW2 4497   3.788   3.218   2.600
 1200SOL     OW 4498   4.049   3.779   3.961
 1200SOL    HW1 4499   3.988   3.702   3.980
 1200SOL    HW2 4500   4.111   3.755   3.886
 1201SOL     OW 4501   0.131   1.062   4.724
 1201SOL    HW1 4502   0.168   1.089   4.813
 1201SOL    HW2 4503   0.170   1.120   4.653
 1202SOL     OW 4504   6.535   0.129   5.918
 1202SOL    HW1 4505   6.629   0.151   5.891
 1202SOL    HW2 4506   6.474   0.144   5.841
 1203SOL     OW 4507   0.104   6.687   1.167
 1203SOL    HW1 4508   0.159   6.607   1.143
 1203SOL    HW2 4509   0.030   6.699   1.100
 1204SOL     OW 4510   4.894   1.524   1.554
 1204SOL    HW1 4511   4.876   1.504   1.458
 1204SOL    HW2 4512   4.931   1.442   1.599
 1205SOL     OW 4513   3.643   3.355   0.125
 1205SOL    HW1 4514   3.557   3.304   0.121
 1205SOL    HW2 4515   3.698   3.334   0.044
 1206SOL     OW 4516   1.236   2.961   4.479
 1206SOL    HW1 4517   1.288   2.877   4.494
 1206SOL    HW2 4518   1.185   2.983   4.562
 1207SOL     OW 4519   0.549   0.732   0.464
 1207SOL    HW1 4520   0.592   0.642   0.453
 1207SOL    HW2 4521   0.547   0.779   0.375
 1208SOL     OW 4522   3.482   3.549   1.617
 1208SOL    HW1 4523   3.521   3.623   1.563
 1208SOL    HW2 4524   3.387   3.534   1.589
 1209SOL     OW 4525   5.527   0.400   4.103
 1209SOL    HW1 4526   5.561   0.402   4.008
 1209SOL    HW2 4527   5.593   0.445   4.163
 1210SOL     OW 4528   4.637   6.682   3.660
 1210SOL    HW1 4529   4.574   6.605   3.664
 1210SOL    HW2 4530   4.661   6.711   3.753
 1211SOL     OW 4531   0.921   3.282   3.014
 1211SOL    HW1 4532   0.899   3.357   2.951
 1211SOL    HW2 4533   0.905   3.312   3.108
 1212SOL     OW 4534   6.628   0.727   5.862
 1212SOL    HW1 4535   6.679   0.643   5.880
 1212SOL    HW2 4536   6.601   0.769   5.949
 1213SOL     OW 4537   5.612   1.834   2.735
 1213SOL    HW1 4538   5.580   1.896   2.663
 1213SOL    HW2 4539   5.617   1.884   2.821
 1214SOL     OW 4540   0.372   2.503   6.582
 1214SOL    HW1 4541   0.330   2.524   6.494
 1214SOL    HW2 4542   0.346   2.410   6.611
 1215SOL     OW 4543   1.806   4.947   2.533
 1215SOL    HW1 4544   1.891   4.963   2.583
 1215SOL    HW2 4545   1.768   5.034   2.503
 1216SOL     OW 4546   6.261   1.586   1.177
 1216SOL    HW1 4547   6.280   1.510   1.115
 1216SOL    HW2 4548   6.185   1.641   1.141
 1217SOL     OW 4549   2.851   4.368   0.607
 1217SOL    HW1 4550   2.768   4.358   0.553
 1217SOL    HW2 4551   2.900   4.450   0.578
 1218SOL     OW 4552   1.295   3.330   5.567
 1218SOL    HW1 4553   1.220   3.265   5.552
 1218SOL    HW2 4554   1.378   3.295   5.523
 1219SOL     OW 4555   5.068   5.354   1.333
 1219SOL    HW1 4556   5.038   5.381   1.425
 1219SOL    HW2 4557   5.165   5.330   1.336
 1220SOL     OW 4558   6.760   3.782   2.364
 1220SOL    HW1 4559   6.779   3.879   2.380
 1220SOL    HW2 4560   6.846   3.733   2.350
 1221SOL     OW 4561   5.681   3.605   6.460
 1221SOL    HW1 4562   5.617   3.678   6.484
 1221SOL    HW2 4563   5.635   3.517   6.469
 1222SOL     OW 4564   0.412   0.966   6.830
 1222SOL    HW1 4565   0.406   0.913   6.745
 1222SOL    HW2 4566   0.458   0.912   6.900
 1223SOL     OW 4567   3.447   1.393   0.311
 1223SOL    HW1 4568   3.430   1.407   0.409
 1223SOL    HW2 4569   3.391   1.456   0.258
 1224SOL     OW 4570   3.348   5.733   6.690
 1224SOL    HW1 4571   3.263   5.680   6.693
 1224SOL    HW2 4572   3.400   5.708   6.609
 1225SOL     OW 4573   3.786   2.909   0.110
 1225SOL    HW1 4574   3.795   2.829   0.050
 1225SOL    HW2 4575   3.856   2.905   0.181
 1226SOL     OW 4576   3.886   6.354   0.633
 1226SOL    HW1 4577   3.886   6.451   0.659
 1226SOL    HW2 4578   3.947   6.340   0.555
 1227SOL     OW 4579   5.058   5.551   5.678
 1227SOL    HW1 4580   5.041   5.601   5.593
 1227SOL    HW2 4581   5.055   5.614   5.756
 1228SOL     OW 4582   3.590   2.471   6.498
 1228SOL    HW1 4583   3.516   2.507   6.441
 1228SOL    HW2 4584   3.550   2.418   6.574
 1229SOL     OW 4585   1.537   5.208   6.995
 1229SOL    HW1 4586   1.520   5.273   6.920
 1229SOL    HW2 4587   1.573   5.123   6.958
 1230SOL     OW 4588   5.997   5.903   2.032
 1230SOL    HW1 4589   5.937   5.835   2.072
 1230SOL    HW2 4590   6.032   5.869   1.944
 1231SOL     OW 4591   1.701   1.967   5.507
 1231SOL    HW1 4592   1.694   2.040   5.438
 1231SOL    HW2 4593   1.696   2.007   5.598
 1232SOL     OW 4594   6.702   1.453   4.921
 1232SOL    HW1 4595   6.703   1.519   4.995
 1232SOL    HW2 4596   6.668   1.366   4.954
 1233SOL     OW 4597   0.719   5.512   4.451
 1233SOL    HW1 4598   0.647   5.471   4.507
 1233SOL    HW2 4599   0.699   5.497   4.355
 1234SOL     OW 4600   5.943   2.273   5.164
 1234SOL    HW1 4601   6.013   2.307   5.226
 1234SOL    HW2 4602   5.957   2.175   5.149
 1235SOL     OW 4603   6.002   4.737   1.619
 1235SOL    HW1 4604   5.963   4.827   1.598
 1235SOL    HW2 4605   5.932   4.667   1.606
 1236SOL     OW 4606   4.185   1.553   1.983
 1236SOL    HW1 4607   4.203   1.523   1.890
 1236SOL    HW2 4608   4.267   1.541   2.039
 1237SOL     OW 4609   1.329   4.784   5.170
 1237SOL    HW1 4610   1.393   4.807   5.097
 1237SOL    HW2 4611   1.341   4.688   5.196
 1238SOL     OW 4612   1.178   0.315   5.981
 1238SOL    HW1 4613   1.110   0.250   6.016
 1238SOL    HW2 4614   1.186   0.304   5.882
 1239SOL     OW 4615   0.201   6.989   6.344
 1239SOL    HW1 4616   0.198   6.890   6.332
 1239SOL    HW2 4617   0.283   7.014   6.395
 1240SOL     OW 4618   5.813   6.273   1.183
 1240SOL    HW1 4619   5.866   6.302   1.262
 1240SOL    HW2 4620   5.874   6.241   1.111
 1241SOL     OW 4621   6.067   4.741   5.572
 1241SOL    HW1 4622   6.100   4.791   5.492
 1241SOL    HW2 4623   6.022   4.657   5.543
 1242SOL     OW 4624   2.067   4.493   1.130
 1242SOL    HW1 4625   2.130   4.562   1.165
 1242SOL    HW2 4626   2.117   4.407   1.117
 1243SOL     OW 4627   0.980   0.843   5.002
 1243SOL    HW1 4628   0.914   0.891   5.059
 1243SOL    HW2 4629   0.934   0.803   4.923
 1244SOL     OW 4630   5.001   6.146   4.577
 1244SOL    HW1 4631   5.067   6.179   4.510
 1244SOL    HW2 4632   4.983   6.049   4.560
 1245SOL     OW 4633   5.371   4.115   6.859
 1245SOL    HW1 4634   5.414   4.149   6.776
 1245SOL    HW2 4635   5.431   4.131   6.937
 1246SOL     OW 4636   3.002   1.514   1.500
 1246SOL    HW1 4637   3.048   1.550   1.419
 1246SOL    HW2 4638   3.029   1.418   1.514
 1247SOL     OW 4639   6.990   6.741   6.203
 1247SOL    HW1 4640   0.033   6.740   6.273
 1247SOL    HW2 4641   7.018   6.800   6.127
 1248SOL     OW 4642   1.875   6.324   3.466
 1248SOL    HW1 4643   1.798   6.285   3.517
 1248SOL    HW2 4644   1.878   6.423   3.482
 1249SOL     OW 4645   6.993   2.307   2.226
 1249SOL    HW1 4646   6.928   2.289   2.152
 1249SOL    HW2 4647   6.957   2.380   2.284
 1250SOL     OW 4648   5.515   5.001   3.545
 1250SOL    HW1 4649   5.435   5.007   3.605
 1250SOL    HW2 4650   5.524   4.907   3.512
 1251SOL     OW 4651   1.890   0.926   2.667
 1251SOL    HW1 4652   1.882   0.831   2.635
 1251SOL    HW2 4653   1.843   0.935   2.755
 1252SOL     OW 4654   3.876   4.725   6.866
 1252SOL    HW1 4655   3.892   4.781   6.947
 1252SOL    HW2 4656   3.794   4.669   6.880
 1253SOL     OW 4657   3.987   6.506   2.663
 1253SOL    HW1 4658   3.913   6.551   2.613
 1253SOL    HW2 4659   3.948   6.438   2.726
 1254SOL     OW 4660   0.611   2.140   3.712
 1254SOL    HW1 4661   0.586   2.199   3.635
 1254SOL    HW2 4662   0.574   2.048   3.696
 1255SOL     OW 4663   5.935   1.293   5.778
 1255SOL    HW1 4664   5.839   1.285   5.805
 1255SOL    HW2 4665   5.961   1.389   5.775
 1256SOL     OW 4666   0.236   6.572   4.144
 1256SOL    HW1 4667   0.150   6.558   4.096
 1256SOL    HW2 4668   0.309   6.591   4.077
 1257SOL     OW 4669   0.097   5.360   4.906
 1257SOL    HW1 4670   0.038   5.369   4.985
 1257SOL    HW2 4671   0.089   5.441   4.849
 1258SOL     OW 4672   1.703   4.896   2.929
 1258SOL    HW1 4673   1.779   4.831   2.936
 1258SOL    HW2 4674   1.706   4.941   2.840
 1259SOL     OW 4675   4.242   0.111   4.804
 1259SOL    HW1 4676   4.229   0.051   4.725
 1259SOL    HW2 4677   4.156   0.119   4.854
 1260SOL     OW 4678   3.443   1.749   0.503
 1260SOL    HW1 4679   3.530   1.791   0.478
 1260SOL    HW2 4680   3.373   1.819   0.511
 1261SOL     OW 4681   6.716   5.559   6.620
 1261SOL    HW1 4682   6.654   5.635   6.597
 1261SOL    HW2 4683   6.773   5.585   6.697
 1262SOL     OW 4684   5.312   4.918   1.332
 1262SOL    HW1 4685   5.343   4.824   1.316
 1262SOL    HW2 4686   5.346   4.978   1.260
 1263SOL     OW 4687   6.787   2.141   1.404
 1263SOL    HW1 4688   6.749   2.210   1.465
 1263SOL    HW2 4689   6.719   2.070   1.386
 1264SOL     OW 4690   0.122   3.626   1.376
 1264SOL    HW1 4691   0.137   3.681   1.294
 1264SOL    HW2 4692   0.065   3.677   1.440
 1265SOL     OW 4693   5.511   5.570   3.353
 1265SOL    HW1 4694   5.520   5.670   3.350
 1265SOL    HW2 4695   5.435   5.542   3.295
 1266SOL     OW 4696   1.061   1.050   4.279
 1266SOL    HW1 4697   0.986   1.067   4.343
 1266SOL    HW2 4698   1.032   0.984   4.210
 1267SOL     OW 4699   5.404   6.148   1.322
 1267SOL    HW1 4700   5.365   6.062   1.355
 1267SOL    HW2 4701   5.432   6.204   1.400
 1268SOL     OW 4702   3.899   3.113   0.466
 1268SOL    HW1 4703   3.924   3.052   0.391
 1268SOL    HW2 4704   3.903   3.208   0.435
 1269SOL     OW 4705   5.255   5.840   5.404
 1269SOL    HW1 4706   5.298   5.779   5.470
 1269SOL    HW2 4707   5.286   5.934   5.421
 1270SOL     OW 4708   2.443   4.431   4.061
 1270SOL    HW1 4709   2.403   4.339   4.067
 1270SOL    HW2 4710   2.472   4.448   3.967
 1271SOL     OW 4711   2.730   2.270   3.969
 1271SOL    HW1 4712   2.653   2.294   3.910
 1271SOL    HW2 4713   2.701   2.277   4.065
 1272SOL     OW 4714   5.466   5.707   0.250
 1272SOL    HW1 4715   5.406   5.786   0.256
 1272SOL    HW2 4716   5.431   5.633   0.308
 1273SOL     OW 4717   0.565   4.339   6.813
 1273SOL    HW1 4718   0.510   4.272   6.763
 1273SOL    HW2 4719   0.610   4.294   6.890
 1274SOL     OW 4720   6.523   3.796   1.686
 1274SOL    HW1 4721   6.435   3.756   1.661
 1274SOL    HW2 4722   6.514   3.844   1.774
 1275SOL     OW 4723   3.367   1.736   4.723
 1275SOL    HW1 4724   3.280   1.687   4.716
 1275SOL    HW2 4725   3.442   1.671   4.730
 1276SOL     OW 4726   0.071   6.878   4.651
 1276SOL    HW1 4727   0.010   6.821   4.596
 1276SOL    HW2 4728   0.055   6.975   4.630
 1277SOL     OW 4729   0.958   6.188   6.206
 1277SOL    HW1 4730   0.957   6.262   6.273
 1277SOL    HW2 4731   0.894   6.116   6.236
 1278SOL     OW 4732   1.078   0.335   5.477
 1278SOL    HW1 4733   1.159   0.349   5.534
 1278SOL    HW2 4734   1.093   0.256   5.417
 1279SOL     OW 4735   3.025   6.582   0.449
 1279SOL    HW1 4736   3.070   6.503   0.407
 1279SOL    HW2 4737   2.937   6.554   0.487
 1280SOL     OW 4738   3.034   6.369   4.531
 1280SOL    HW1 4739   3.006   6.459   4.497
 1280SOL    HW2 4740   2.988   6.350   4.618
 1281SOL     OW 4741   1.349   6.443   3.703
 1281SOL    HW1 4742   1.282   6.442   3.629
 1281SOL    HW2 4743   1.430   6.493   3.674
 1282SOL     OW 4744   0.682   1.909   6.699
 1282SOL    HW1 4745   0.623   1.923   6.778
 1282SOL    HW2 4746   0.771   1.951   6.715
 1283SOL     OW 4747   6.683   3.214   5.079
 1283SOL    HW1 4748   6.703   3.185   5.172
 1283SOL    HW2 4749   6.586   3.239   5.072
 1284SOL     OW 4750   4.783   1.567   2.060
 1284SOL    HW1 4751   4.872   1.520   2.058
 1284SOL    HW2 4752   4.714   1.509   2.016
 1285SOL     OW 4753   4.830   2.206   6.258
 1285SOL    HW1 4754   4.742   2.249   6.238
 1285SOL    HW2 4755   4.884   2.266   6.318
 1286SOL     OW 4756   5.219   3.986   2.527
 1286SOL    HW1 4757   5.136   4.012   2.576
 1286SOL    HW2 4758   5.203   3.992   2.428
 1287SOL     OW 4759   5.149   5.391   5.423
 1287SOL    HW1 4760   5.132   5.463   5.490
 1287SOL    HW2 4761   5.092   5.407   5.342
 1288SOL     OW 4762   4.463   3.521   6.956
 1288SOL    HW1 4763   4.366   3.543   6.948
 1288SOL    HW2 4764   4.476   3.422   6.953
 1289SOL     OW 4765   1.065   6.131   2.021
 1289SOL    HW1 4766   1.152   6.181   2.024
 1289SOL    HW2 4767   1.007   6.169   1.950
 1290SOL     OW 4768   0.945   6.641   6.563
 1290SOL    HW1 4769   0.970   6.737   6.565
 1290SOL    HW2 4770   0.865   6.625   6.621
 1291SOL     OW 4771   0.051   3.860   5.326
 1291SOL    HW1 4772   0.013   3.770   5.306
 1291SOL    HW2 4773   0.076   3.865   5.422
 1292SOL     OW 4774   0.550   5.995   2.342
 1292SOL    HW1 4775   0.520   5.921   2.282
 1292SOL    HW2 4776   0.515   6.083   2.308
 1293SOL     OW 4777   1.534   1.829   0.296
 1293SOL    HW1 4778   1.434   1.840   0.297
 1293SOL    HW2 4779   1.578   1.919   0.302
 1294SOL     OW 4780   1.172   3.622   7.018
 1294SOL    HW1 4781   1.271   3.619   7.023
 1294SOL    HW2 4782   1.134   3.535   0.019
 1295SOL     OW 4783   0.175   3.649   2.259
 1295SOL    HW1 4784   0.219   3.561   2.278
 1295SOL    HW2 4785   0.243   3.723   2.267
 1296SOL     OW 4786   3.638   0.163   5.743
 1296SOL    HW1 4787   3.631   0.169   5.843
 1296SOL    HW2 4788   3.710   0.098   5.719
 1297SOL     OW 4789   6.218   1.076   0.946
 1297SOL    HW1 4790   6.251   1.029   0.864
 1297SOL    HW2 4791   6.184   1.008   1.012
 1298SOL     OW 4792   5.986   4.875   2.579
 1298SOL    HW1 4793   5.956   4.785   2.612
 1298SOL    HW2 4794   5.946   4.893   2.489
 1299SOL     OW 4795   1.428   3.688   3.318
 1299SOL    HW1 4796   1.503   3.745   3.352
 1299SOL    HW2 4797   1.429   3.600   3.365
 1300SOL     OW 4798   3.436   2.919   1.829
 1300SOL    HW1 4799   3.507   2.943   1.895
 1300SOL    HW2 4800   3.472   2.855   1.762
 1301SOL     OW 4801   0.772   5.777   1.153
 1301SOL    HW1 4802   0.718   5.823   1.223
 1301SOL    HW2 4803   0.718   5.769   1.069
 1302SOL     OW 4804   4.905   0.468   5.651
 1302SOL    HW1 4805   4.864   0.495   5.563
 1302SOL    HW2 4806   4.994   0.513   5.661
 1303SOL     OW 4807   4.397   1.528   2.166
 1303SOL    HW1 4808   4.460   1.511   2.090
 1303SOL    HW2 4809   4.334   1.451   2.175
 1304SOL     OW 4810   2.049   0.893   6.447
 1304SOL    HW1 4811   2.084   0.837   6.371
 1304SOL    HW2 4812   2.077   0.988   6.434
 1305SOL     OW 4813   4.976   3.141   0.010
 1305SOL    HW1 4814   4.932   3.133   0.099
 1305SOL    HW2 4815   5.057   3.083   0.007
 1306SOL     OW 4816   0.266   4.953   4.581
 1306SOL    HW1 4817   0.233   4.867   4.619
 1306SOL    HW2 4818   0.278   4.943   4.482
 1307SOL     OW 4819   0.456   3.998   4.246
 1307SOL    HW1 4820   0.379   3.966   4.303
 1307SOL    HW2 4821   0.541   3.986   4.296
 1308SOL     OW 4822   5.806   6.413   4.814
 1308SOL    HW1 4823   5.771   6.322   4.837
 1308SOL    HW2 4824   5.862   6.408   4.732
 1309SOL     OW 4825   5.145   3.439   5.517
 1309SOL    HW1 4826   5.085   3.435   5.437
 1309SOL    HW2 4827   5.239   3.455   5.488
 1310SOL     OW 4828   6.975   3.784   4.250
 1310SOL    HW1 4829   7.019   3.712   4.304
 1310SOL    HW2 4830   6.876   3.769   4.249
 1311SOL     OW 4831   0.809   6.568   4.864
 1311SOL    HW1 4832   0.788   6.472   4.884
 1311SOL    HW2 4833   0.811   6.582   4.765
 1312SOL     OW 4834   1.682   0.605   6.352
 1312SOL    HW1 4835   1.663   0.674   6.283
 1312SOL    HW2 4836   1.624   0.525   6.338
 1313SOL     OW 4837   0.749   4.002   3.850
 1313SOL    HW1 4838   0.683   3.983   3.776
 1313SOL    HW2 4839   0.839   4.016   3.810
 1314SOL     OW 4840   4.196   0.881   5.894
 1314SOL    HW1 4841   4.214   0.939   5.815
 1314SOL    HW2 4842   4.107   0.905   5.933
 1315SOL     OW 4843   0.263   1.280   1.339
 1315SOL    HW1 4844   0.297   1.213   1.404
 1315SOL    HW2 4845   0.257   1.370   1.383
 1316SOL     OW 4846   2.352   6.346   5.051
 1316SOL    HW1 4847   2.450   6.347   5.036
 1316SOL    HW2 4848   2.304   6.331   4.964
 1317SOL     OW 4849   1.961   4.091   6.144
 1317SOL    HW1 4850   2.031   4.138   6.197
 1317SOL    HW2 4851   1.926   4.152   6.073
 1318SOL     OW 4852   1.088   1.294   1.332
 1318SOL    HW1 4853   1.068   1.348   1.414
 1318SOL    HW2 4854   1.108   1.355   1.255
 1319SOL     OW 4855   6.722   0.888   6.810
 1319SOL    HW1 4856   6.669   0.944   6.874
 1319SOL    HW2 4857   6.667   0.811   6.779
 1320SOL     OW 4858   4.949   3.782   0.826
 1320SOL    HW1 4859   4.988   3.863   0.869
 1320SOL    HW2 4860   4.891   3.735   0.892
 1321SOL     OW 4861   5.510   1.471   6.477
 1321SOL    HW1 4862   5.533   1.466   6.575
 1321SOL    HW2 4863   5.419   1.512   6.467
 1322SOL     OW 4864   3.797   0.842   3.926
 1322SOL    HW1 4865   3.710   0.803   3.897
 1322SOL    HW2 4866   3.815   0.815   4.021
 1323SOL     OW 4867   4.800   1.192   5.692
 1323SOL    HW1 4868   4.767   1.112   5.742
 1323SOL    HW2 4869   4.827   1.263   5.757
 1324SOL     OW 4870   1.147   3.659   0.749
 1324SOL    HW1 4871   1.223   3.703   0.797
 1324SOL    HW2 4872   1.182   3.616   0.665
 1325SOL     OW 4873   2.115   6.856   2.698
 1325SOL    HW1 4874   2.058   6.889   2.773
 1325SOL    HW2 4875   2.163   6.933   2.656
 1326SOL     OW 4876   5.080   3.220   5.193
 1326SOL    HW1 4877   5.038   3.311   5.199
 1326SOL    HW2 4878   5.029   3.164   5.128
 1327SOL     OW 4879   1.783   4.796   2.082
 1327SOL    HW1 4880   1.821   4.803   2.175
 1327SOL    HW2 4881   1.782   4.887   2.040
 1328SOL     OW 4882   1.219   3.025   1.126
 1328SOL    HW1 4883   1.316   3.006   1.109
 1328SOL    HW2 4884   1.199   3.120   1.102
 1329SOL     OW 4885   0.256   2.164   1.428
 1329SOL    HW1 4886   0.317   2.191   1.353
 1329SOL    HW2 4887   0.172   2.125   1.389
 1330SOL     OW 4888   0.374   1.428   1.808
 1330SOL    HW1 4889   0.306   1.356   1.816
 1330SOL    HW2 4890   0.328   1.515   1.786
 1331SOL     OW 4891   4.885   2.678   3.688
 1331SOL    HW1 4892   4.834   2.707   3.607
 1331SOL    HW2 4893   4.922   2.587   3.674
 1332SOL     OW 4894   3.116   6.867   7.020
 1332SOL    HW1 4895   3.074   6.799   6.960
 1332SOL    HW2 4896   3.196   6.827   0.037
 1333SOL     OW 4897   3.734   3.948   5.255
 1333SOL    HW1 4898   3.751   3.861   5.302
 1333SOL    HW2 4899   3.732   3.932   5.156
 1334SOL     OW 4900   6.653   1.919   4.184
 1334SOL    HW1 4901   6.555   1.939   4.192
 1334SOL    HW2 4902   6.701   1.999   4.147
 1335SOL     OW 4903   2.320   1.716   3.064
 1335SOL    HW1 4904   2.327   1.798   3.007
 1335SOL    HW2 4905   2.338   1.740   3.160
 1336SOL     OW 4906   1.857   2.395   5.442
 1336SOL    HW1 4907   1.948   2.405   5.401
 1336SOL    HW2 4908   1.864   2.406   5.541
 1337SOL     OW 4909   1.977   1.835   4.925
 1337SOL    HW1 4910   1.896   1.891   4.909
 1337SOL    HW2 4911   2.024   1.868   5.007
 1338SOL     OW 4912   5.717   2.204   5.039
 1338SOL    HW1 4913   5.785   2.266   5.076
 1338SOL    HW2 4914   5.635   2.256   5.015
 1339SOL     OW 4915   0.956   1.749   6.372
 1339SOL    HW1 4916   0.895   1.722   6.297
 1339SOL    HW2 4917   0.957   1.677   6.442
 1340SOL     OW 4918   0.190   1.783   2.601
 1340SOL    HW1 4919   0.104   1.741   2.572
 1340SOL    HW2 4920   0.174   1.838   2.683
 1341SOL     OW 4921   5.380   0.207   6.134
 1341SOL    HW1 4922   5.325   0.256   6.066
 1341SOL    HW2 4923   5.465   0.257   6.151
 1342SOL     OW 4924   1.920   5.213   6.152
 1342SOL    HW1 4925   1.972   5.129   6.167
 1342SOL    HW2 4926   1.933   5.244   6.058
 1343SOL     OW 4927   4.829   6.052   3.344
 1343SOL    HW1 4928   4.875   5.965   3.325
 1343SOL    HW2 4929   4.736   6.034   3.376
 1344SOL     OW 4930   6.608   4.721   4.375
 1344SOL    HW1 4931   6.597   4.816   4.401
 1344SOL    HW2 4932   6.692   4.684   4.414
 1345SOL     OW 4933   1.885   0.320   2.624
 1345SOL    HW1 4934   1.968   0.280   2.662
 1345SOL    HW2 4935   1.847   0.259   2.554
 1346SOL     OW 4936   0.939   5.848   4.314
 1346SOL    HW1 4937   0.992   5.777   4.360
 1346SOL    HW2 4938   0.856   5.867   4.366
 1347SOL     OW 4939   6.580   6.258   4.669
 1347SOL    HW1 4940   6.523   6.216   4.739
 1347SOL    HW2 4941   6.642   6.189   4.631
 1348SOL     OW 4942   5.276   5.316   2.652
 1348SOL    HW1 4943   5.222   5.249   2.703
 1348SOL    HW2 4944   5.249   5.315   2.556
 1349SOL     OW 4945   4.440   2.550   6.333
 1349SOL    HW1 4946   4.402   2.630   6.381
 1349SOL    HW2 4947   4.432   2.564   6.234
 1350SOL     OW 4948   5.031   4.537   6.099
 1350SOL    HW1 4949   5.018   4.629   6.063
 1350SOL    HW2 4950   4.988   4.530   6.189
 1351SOL     OW 4951   6.712   1.126   3.529
 1351SOL    HW1 4952   6.775   1.139   3.605
 1351SOL    HW2 4953   6.719   1.203   3.466
 1352SOL     OW 4954   6.860   6.661   2.897
 1352SOL    HW1 4955   6.850   6.576   2.950
 1352SOL    HW2 4956   6.802   6.732   2.938
 1353SOL     OW 4957   7.027   3.626   6.886
 1353SOL    HW1 4958   0.028   3.581   6.802
 1353SOL    HW2 4959   6.963   3.566   6.935
 1354SOL     OW 4960   0.890   3.154   0.609
 1354SOL    HW1 4961   0.830   3.085   0.570
 1354SOL    HW2 4962   0.881   3.154   0.709
 1355SOL     OW 4963   6.782   2.583   5.382
 1355SOL    HW1 4964   6.734   2.496   5.366
 1355SOL    HW2 4965   6.874   2.565   5.415
 1356SOL     OW 4966   2.909   3.654   2.563
 1356SOL    HW1 4967   2.827   3.674   2.617
 1356SOL    HW2 4968   2.889   3.580   2.498
 1357SOL     OW 4969   1.256   3.438   5.080
 1357SOL    HW1 4970   1.305   3.366   5.128
 1357SOL    HW2 4971   1.295   3.527   5.105
 1358SOL     OW 4972   3.699   1.183   5.750
 1358SOL    HW1 4973   3.618   1.180   5.691
 1358SOL    HW2 4974   3.690   1.115   5.823
 1359SOL     OW 4975   5.976   4.680   1.881
 1359SOL    HW1 4976   5.975   4.716   1.788
 1359SOL    HW2 4977   6.070   4.663   1.910
 1360SOL     OW 4978   3.891   2.502   0.332
 1360SOL    HW1 4979   3.910   2.445   0.412
 1360SOL    HW2 4980   3.892   2.598   0.359
 1361SOL     OW 4981   0.146   5.858   5.332
 1361SOL    HW1 4982   0.091   5.822   5.256
 1361SOL    HW2 4983   0.183   5.947   5.306
 1362SOL     OW 4984   3.202   4.100   4.475
 1362SOL    HW1 4985   3.174   4.006   4.454
 1362SOL    HW2 4986   3.122   4.156   4.490
 1363SOL     OW 4987   6.880   5.549   3.747
 1363SOL    HW1 4988   6.954   5.483   3.731
 1363SOL    HW2 4989   6.793   5.500   3.751
 1364SOL     OW 4990   6.485   2.210   1.289
 1364SOL    HW1 4991   6.438   2.187   1.204
 1364SOL    HW2 4992   6.444   2.158   1.365
 1365SOL     OW 4993   0.794   2.845   5.771
 1365SOL    HW1 4994   0.881   2.890   5.751
 1365SOL    HW2 4995   0.726   2.914   5.796
 1366SOL     OW 4996   0.595   4.912   0.445
 1366SOL    HW1 4997   0.581   4.813   0.453
 1366SOL    HW2 4998   0.528   4.949   0.380
 1367SOL     OW 4999   1.444   6.574   2.552
 1367SOL    HW1 5000   1.379   6.515   2.600
 1367SOL    HW2 5001   1.426   6.571   2.454
 1368SOL     OW 5002   6.906   0.429   4.000
 1368SOL    HW1 5003   6.868   0.448   3.909
 1368SOL    HW2 5004   6.836   0.442   4.069
 1369SOL     OW 5005   2.164   0.152   2.202
 1369SOL    HW1 5006   2.195   0.112   2.116
 1369SOL    HW2 5007   2.186   0.090   2.277
 1370SOL     OW 5008   4.238   1.386   2.477
 1370SOL    HW1 5009   4.249   1.365   2.379
 1370SOL    HW2 5010   4.140   1.387   2.499
 1371SOL     OW 5011   6.174   1.543   4.665
 1371SOL    HW1 5012   6.114   1.592   4.602
 1371SOL    HW2 5013   6.144   1.448   4.672
 1372SOL     OW 5014   1.200   2.743   0.516
 1372SOL    HW1 5015   1.292   2.705   0.520
 1372SOL    HW2 5016   1.203   2.841   0.531
 1373SOL     OW 5017   4.522   2.698   6.755
 1373SOL    HW1 5018   4.471   2.779   6.727
 1373SOL    HW2 5019   4.464   2.639   6.811
 1374SOL     OW 5020   4.606   2.086   0.257
 1374SOL    HW1 5021   4.637   2.019   0.190
 1374SOL    HW2 5022   4.537   2.045   0.317
 1375SOL     OW 5023   0.097   5.422   6.591
 1375SOL    HW1 5024   0.057   5.332   6.609
 1375SOL    HW2 5025   0.167   5.414   6.520
 1376SOL     OW 5026   4.461   4.838   5.144
 1376SOL    HW1 5027   4.529   4.840   5.218
 1376SOL    HW2 5028   4.494   4.782   5.069
 1377SOL     OW 5029   0.447   3.037   5.498
 1377SOL    HW1 5030   0.477   2.961   5.556
 1377SOL    HW2 5031   0.447   3.122   5.551
 1378SOL     OW 5032   6.082   1.662   4.919
 1378SOL    HW1 5033   6.010   1.615   4.868
 1378SOL    HW2 5034   6.156   1.686   4.856
 1379SOL     OW 5035   3.911   6.419   3.115
 1379SOL    HW1 5036   3.978   6.350   3.143
 1379SOL    HW2 5037   3.897   6.414   3.016
 1380SOL     OW 5038   0.726   0.131   3.374
 1380SOL    HW1 5039   0.724   0.231   3.367
 1380SOL    HW2 5040   0.788   0.104   3.448
 1381SOL     OW 5041   5.745   1.838   6.917
 1381SOL    HW1 5042   5.679   1.913   6.932
 1381SOL    HW2 5043   5.742   1.809   6.822
 1382SOL     OW 5044   4.880   3.238   0.627
 1382SOL    HW1 5045   4.942   3.298   0.576
 1382SOL    HW2 5046   4.914   3.144   0.623
 1383SOL     OW 5047   0.592   0.490   2.410
 1383SOL    HW1 5048   0.493   0.498   2.399
 1383SOL    HW2 5049   0.637   0.498   2.320
 1384SOL     OW 5050   4.794   0.649   2.106
 1384SOL    HW1 5051   4.855   0.575   2.076
 1384SOL    HW2 5052   4.771   0.707   2.028
 1385SOL     OW 5053   2.403   4.342   3.424
 1385SOL    HW1 5054   2.481   4.305   3.474
 1385SOL    HW2 5055   2.345   4.394   3.487
 1386SOL     OW 5056   3.051   0.453   4.173
 1386SOL    HW1 5057   3.146   0.481   4.162
 1386SOL    HW2 5058   2.990   0.530   4.154
 1387SOL     OW 5059   3.381   6.115   2.814
 1387SOL    HW1 5060   3.351   6.204   2.849
 1387SOL    HW2 5061   3.420   6.061   2.888
 1388SOL     OW 5062   0.842   0.389   3.026
 1388SOL    HW1 5063   0.910   0.335   2.976
 1388SOL    HW2 5064   0.884   0.473   3.060
 1389SOL     OW 5065   6.808   1.394   4.356
 1389SOL    HW1 5066   6.873   1.419   4.284
 1389SOL    HW2 5067   6.728   1.454   4.350
 1390SOL     OW 5068   6.475   3.237   6.094
 1390SOL    HW1 5069   6.518   3.301   6.158
 1390SOL    HW2 5070   6.468   3.147   6.136
 1391SOL     OW 5071   5.964   0.038   5.451
 1391SOL    HW1 5072   6.029   7.013   5.504
 1391SOL    HW2 5073   5.947   0.125   5.497
 1392SOL     OW 5074   6.161   6.819   5.430
 1392SOL    HW1 5075   6.206   6.730   5.443
 1392SOL    HW2 5076   6.226   6.883   5.390
 1393SOL     OW 5077   6.580   4.203   6.104
 1393SOL    HW1 5078   6.584   4.103   6.092
 1393SOL    HW2 5079   6.660   4.233   6.156
 1394SOL     OW 5080   3.298   5.734   5.238
 1394SOL    HW1 5081   3.221   5.728   5.300
 1394SOL    HW2 5082   3.315   5.644   5.197
 1395SOL     OW 5083   1.829   4.211   4.831
 1395SOL    HW1 5084   1.883   4.236   4.911
 1395SOL    HW2 5085   1.889   4.179   4.758
 1396SOL     OW 5086   0.241   0.927   5.014
 1396SOL    HW1 5087   0.337   0.917   5.038
 1396SOL    HW2 5088   0.218   0.863   4.941
 1397SOL     OW 5089   0.454   6.475   4.834
 1397SOL    HW1 5090   0.495   6.508   4.749
 1397SOL    HW2 5091   0.370   6.525   4.852
 1398SOL     OW 5092   2.989   0.828   6.498
 1398SOL    HW1 5093   3.025   0.854   6.587
 1398SOL    HW2 5094   2.894   0.860   6.490
 1399SOL     OW 5095   3.773   5.413   0.524
 1399SOL    HW1 5096   3.797   5.375   0.613
 1399SOL    HW2 5097   3.771   5.339   0.456
 1400SOL     OW 5098   0.625   1.699   4.409
 1400SOL    HW1 5099   0.718   1.734   4.397
 1400SOL    HW2 5100   0.620   1.605   4.376
 1401SOL     OW 5101   5.706   0.522   4.250
 1401SOL    HW1 5102   5.708   0.560   4.343
 1401SOL    HW2 5103   5.783   0.558   4.197
 1402SOL     OW 5104   5.602   4.311   6.370
 1402SOL    HW1 5105   5.687   4.288   6.323
 1402SOL    HW2 5106   5.567   4.398   6.335
 1403SOL     OW 5107   2.425   1.861   0.939
 1403SOL    HW1 5108   2.525   1.849   0.934
 1403SOL    HW2 5109   2.383   1.775   0.967
 1404SOL     OW 5110   6.769   0.629   0.052
 1404SOL    HW1 5111   6.787   0.628   0.150
 1404SOL    HW2 5112   6.853   0.652   0.003
 1405SOL     OW 5113   2.830   3.678   0.953
 1405SOL    HW1 5114   2.733   3.662   0.935
 1405SOL    HW2 5115   2.885   3.608   0.908
 1406SOL     OW 5116   1.565   5.912   0.828
 1406SOL    HW1 5117   1.535   5.969   0.904
 1406SOL    HW2 5118   1.664   5.898   0.833
 1407SOL     OW 5119   0.975   3.806   3.551
 1407SOL    HW1 5120   1.046   3.827   3.484
 1407SOL    HW2 5121   0.896   3.866   3.536
 1408SOL     OW 5122   5.440   0.475   6.476
 1408SOL    HW1 5123   5.479   0.429   6.556
 1408SOL    HW2 5124   5.401   0.407   6.414
 1409SOL     OW 5125   0.672   0.681   5.349
 1409SOL    HW1 5126   0.750   0.629   5.384
 1409SOL    HW2 5127   0.606   0.697   5.422
 1410SOL     OW 5128   1.584   4.180   6.277
 1410SOL    HW1 5129   1.666   4.237   6.289
 1410SOL    HW2 5130   1.521   4.225   6.214
 1411SOL     OW 5131   3.343   6.064   0.349
 1411SOL    HW1 5132   3.248   6.095   0.354
 1411SOL    HW2 5133   3.358   6.012   0.265
 1412SOL     OW 5134   0.751   3.821   1.269
 1412SOL    HW1 5135   0.811   3.782   1.199
 1412SOL    HW2 5136   0.744   3.757   1.346
 1413SOL     OW 5137   2.403   1.259   4.664
 1413SOL    HW1 5138   2.478   1.320   4.636
 1413SOL    HW2 5139   2.339   1.249   4.588
 1414SOL     OW 5140   2.081   1.518   2.021
 1414SOL    HW1 5141   2.074   1.460   1.940
 1414SOL    HW2 5142   1.991   1.558   2.041
 1415SOL     OW 5143   2.718   1.249   3.937
 1415SOL    HW1 5144   2.633   1.301   3.931
 1415SOL    HW2 5145   2.786   1.289   3.876
 1416SOL     OW 5146   4.383   6.611   5.178
 1416SOL    HW1 5147   4.355   6.529   5.129
 1416SOL    HW2 5148   4.357   6.692   5.126
 1417SOL     OW 5149   3.062   2.311   0.051
 1417SOL    HW1 5150   3.147   2.350   0.087
 1417SOL    HW2 5151   2.984   2.345   0.104
 1418SOL     OW 5152   2.818   3.470   1.549
 1418SOL    HW1 5153   2.793   3.479   1.453
 1418SOL    HW2 5154   2.770   3.393   1.590
 1419SOL     OW 5155   3.704   6.218   4.522
 1419SOL    HW1 5156   3.668   6.268   4.443
 1419SOL    HW2 5157   3.654   6.133   4.534
 1420SOL     OW 5158   3.633   5.991   3.218
 1420SOL    HW1 5159   3.613   6.078   3.261
 1420SOL    HW2 5160   3.657   5.923   3.288
 1421SOL     OW 5161   1.449   4.223   4.240
 1421SOL    HW1 5162   1.369   4.265   4.196
 1421SOL    HW2 5163   1.470   4.272   4.324
 1422SOL     OW 5164   1.877   4.021   6.404
 1422SOL    HW1 5165   1.779   4.004   6.406
 1422SOL    HW2 5166   1.911   4.016   6.310
 1423SOL     OW 5167   4.450   7.022   4.316
 1423SOL    HW1 5168   4.357   0.004   4.352
 1423SOL    HW2 5169   4.446   6.988   4.223
 1424SOL     OW 5170   6.700   3.837   6.640
 1424SOL    HW1 5171   6.745   3.842   6.729
 1424SOL    HW2 5172   6.759   3.791   6.575
 1425SOL     OW 5173   1.944   5.451   5.455
 1425SOL    HW1 5174   1.846   5.468   5.472
 1425SOL    HW2 5175   1.997   5.528   5.490
 1426SOL     OW 5176   2.455   2.182   6.658
 1426SOL    HW1 5177   2.512   2.118   6.710
 1426SOL    HW2 5178   2.495   2.197   6.568
 1427SOL     OW 5179   6.990   6.725   4.294
 1427SOL    HW1 5180   0.035   6.670   4.335
 1427SOL    HW2 5181   7.009   6.822   4.307
 1428SOL     OW 5182   0.777   2.335   1.388
 1428SOL    HW1 5183   0.712   2.391   1.440
 1428SOL    HW2 5184   0.870   2.367   1.407
 1429SOL     OW 5185   5.181   1.648   0.429
 1429SOL    HW1 5186   5.195   1.587   0.351
 1429SOL    HW2 5187   5.183   1.594   0.514
 1430SOL     OW 5188   2.110   4.975   3.795
 1430SOL    HW1 5189   2.122   4.880   3.821
 1430SOL    HW2 5190   2.063   5.024   3.869
 1431SOL     OW 5191   2.720   2.183   0.020
 1431SOL    HW1 5192   2.811   2.143   0.030
 1431SOL    HW2 5193   2.697   2.233   0.104
 1432SOL     OW 5194   3.053   1.390   1.140
 1432SOL    HW1 5195   3.084   1.304   1.180
 1432SOL    HW2 5196   3.058   1.384   1.040
 1433SOL     OW 5197   5.113   0.644   5.642
 1433SOL    HW1 5198   5.166   0.717   5.685
 1433SOL    HW2 5199   5.175   0.580   5.597
 1434SOL     OW 5200   0.849   0.794   6.522
 1434SOL    HW1 5201   0.885   0.800   6.615
 1434SOL    HW2 5202   0.920   0.756   6.462
 1435SOL     OW 5203   6.737   0.089   3.020
 1435SOL    HW1 5204   6.698   0.059   3.107
 1435SOL    HW2 5205   6.822   0.039   3.003
 1436SOL     OW 5206   5.688   4.163   6.840
 1436SOL    HW1 5207   5.641   4.155   6.928
 1436SOL    HW2 5208   5.722   4.073   6.812
 1437SOL     OW 5209   3.547   1.556   5.900
 1437SOL    HW1 5210   3.526   1.618   5.976
 1437SOL    HW2 5211   3.479   1.568   5.828
 1438SOL     OW 5212   2.554   0.102   1.815
 1438SOL    HW1 5213   2.629   0.165   1.834
 1438SOL    HW2 5214   2.471   0.154   1.795
 1439SOL     OW 5215   6.888   4.832   0.790
 1439SOL    HW1 5216   6.824   4.908   0.778
 1439SOL    HW2 5217   6.850   4.767   0.856
 1440SOL     OW 5218   3.532   2.853   6.020
 1440SOL    HW1 5219   3.562   2.898   6.104
 1440SOL    HW2 5220   3.598   2.782   5.996
 1441SOL     OW 5221   5.991   2.794   3.880
 1441SOL    HW1 5222   5.998   2.768   3.784
 1441SOL    HW2 5223   6.077   2.838   3.908
 1442SOL     OW 5224   5.971   5.186   6.996
 1442SOL    HW1 5225   5.883   5.211   6.955
 1442SOL    HW2 5226   5.959   5.104   0.023
 1443SOL     OW 5227   0.492   2.919   4.565
 1443SOL    HW1 5228   0.547   2.998   4.538
 1443SOL    HW2 5229   0.418   2.906   4.498
 1444SOL     OW 5230   3.810   6.032   0.901
 1444SOL    HW1 5231   3.882   6.002   0.964
 1444SOL    HW2 5232   3.781   6.124   0.925
 1445SOL     OW 5233   0.241   2.600   1.900
 1445SOL    HW1 5234   0.294   2.670   1.851
 1445SOL    HW2 5235   0.202   2.536   1.835
 1446SOL     OW 5236   4.710   2.413   7.000
 1446SOL    HW1 5237   4.742   2.506   6.985
 1446SOL    HW2 5238   4.788   2.353   7.019
 1447SOL     OW 5239   6.087   6.627   5.751
 1447SOL    HW1 5240   6.149   6.628   5.829
 1447SOL    HW2 5241   6.138   6.647   5.667
 1448SOL     OW 5242   6.444   2.998   0.069
 1448SOL    HW1 5243   6.413   3.078   0.122
 1448SOL    HW2 5244   6.409   3.004   7.005
 1449SOL     OW 5245   0.036   1.155   6.940
 1449SOL    HW1 5246   7.010   1.079   6.973
 1449SOL    HW2 5247   0.123   1.157   6.988
 1450SOL     OW 5248   0.550   2.058   1.873
 1450SOL    HW1 5249   0.643   2.084   1.846
 1450SOL    HW2 5250   0.554   1.982   1.936
 1451SOL     OW 5251   2.391   0.571   2.385
 1451SOL    HW1 5252   2.299   0.539   2.364
 1451SOL    HW2 5253   2.452   0.493   2.397
 1452SOL     OW 5254   4.103   0.931   4.492
 1452SOL    HW1 5255   4.047   0.973   4.421
 1452SOL    HW2 5256   4.199   0.930   4.463
 1453SOL     OW 5257   6.988   4.112   5.298
 1453SOL    HW1 5258   7.027   4.022   5.313
 1453SOL    HW2 5259   6.900   4.119   5.346
 1454SOL     OW 5260   6.549   2.887   2.528
 1454SOL    HW1 5261   6.648   2.904   2.532
 1454SOL    HW2 5262   6.533   2.791   2.505
 1455SOL     OW 5263   1.089   0.128   1.861
 1455SOL    HW1 5264   1.051   0.035   1.860
 1455SOL    HW2 5265   1.158   0.136   1.789
 1456SOL     OW 5266   6.334   7.005   5.328
 1456SOL    HW1 5267   6.295   0.068   5.343
 1456SOL    HW2 5268   6.386   7.005   5.242
 1457SOL     OW 5269   1.282   6.754   1.235
 1457SOL    HW1 5270   1.325   6.664   1.232
 1457SOL    HW2 5271   1.281   6.787   1.330
 1458SOL     OW 5272   5.879   5.878   3.360
 1458SOL    HW1 5273   5.784   5.867   3.332
 1458SOL    HW2 5274   5.927   5.935   3.294
 1459SOL     OW 5275   3.094   5.120   5.398
 1459SOL    HW1 5276   3.090   5.101   5.496
 1459SOL    HW2 5277   3.062   5.213   5.380
 1460SOL     OW 5278   0.354   5.582   5.790
 1460SOL    HW1 5279   0.387   5.612   5.879
 1460SOL    HW2 5280   0.266   5.535   5.802
 1461SOL     OW 5281   0.252   4.964   3.531
 1461SOL    HW1 5282   0.174   4.906   3.554
 1461SOL    HW2 5283   0.324   4.951   3.599
 1462SOL     OW 5284   1.149   0.827   6.389
 1462SOL    HW1 5285   1.167   0.841   6.292
 1462SOL    HW2 5286   1.128   0.915   6.432
 1463SOL     OW 5287   6.994   5.592   6.792
 1463SOL    HW1 5288   7.019   5.556   6.702
 1463SOL    HW2 5289   6.936   5.526   6.839
 1464SOL     OW 5290   5.800   6.992   0.882
 1464SOL    HW1 5291   5.822   0.047   0.832
 1464SOL    HW2 5292   5.702   6.988   0.898
 1465SOL     OW 5293   1.732   1.298   3.651
 1465SOL    HW1 5294   1.681   1.218   3.618
 1465SOL    HW2 5295   1.723   1.304   3.751
 1466SOL     OW 5296   1.162   1.630   2.298
 1466SOL    HW1 5297   1.068   1.610   2.327
 1466SOL    HW2 5298   1.219   1.550   2.314
 1467SOL     OW 5299   2.403   2.032   2.014
 1467SOL    HW1 5300   2.389   2.121   1.970
 1467SOL    HW2 5301   2.321   2.007   2.065
 1468SOL     OW 5302   5.393   5.623   2.926
 1468SOL    HW1 5303   5.470   5.562   2.942
 1468SOL    HW2 5304   5.374   5.629   2.828
 1469SOL     OW 5305   0.579   0.818   2.473
 1469SOL    HW1 5306   0.590   0.837   2.571
 1469SOL    HW2 5307   0.661   0.772   2.439
 1470SOL     OW 5308   1.477   1.710   2.555
 1470SOL    HW1 5309   1.405   1.756   2.503
 1470SOL    HW2 5310   1.436   1.651   2.624
 1471SOL     OW 5311   0.971   0.272   0.490
 1471SOL    HW1 5312   1.055   0.218   0.482
 1471SOL    HW2 5313   0.994   0.366   0.515
 1472SOL     OW 5314   3.867   6.204   5.217
 1472SOL    HW1 5315   3.910   6.119   5.185
 1472SOL    HW2 5316   3.816   6.186   5.301
 1473SOL     OW 5317   5.828   5.945   4.315
 1473SOL    HW1 5318   5.856   5.988   4.400
 1473SOL    HW2 5319   5.731   5.922   4.319
 1474SOL     OW 5320   5.710   5.562   2.967
 1474SOL    HW1 5321   5.776   5.627   2.930
 1474SOL    HW2 5322   5.730   5.471   2.932
 1475SOL     OW 5323   6.217   7.020   2.010
 1475SOL    HW1 5324   6.139   6.979   2.057
 1475SOL    HW2 5325   6.234   0.083   2.047
 1476SOL     OW 5326   2.228   1.230   1.610
 1476SOL    HW1 5327   2.258   1.149   1.558
 1476SOL    HW2 5328   2.305   1.264   1.665
 1477SOL     OW 5329   3.314   0.523   6.550
 1477SOL    HW1 5330   3.316   0.433   6.506
 1477SOL    HW2 5331   3.401   0.540   6.596
 1478SOL     OW 5332   6.138   5.509   0.316
 1478SOL    HW1 5333   6.200   5.582   0.287
 1478SOL    HW2 5334   6.076   5.486   0.240
 1479SOL     OW 5335   1.603   3.361   0.228
 1479SOL    HW1 5336   1.614   3.311   0.314
 1479SOL    HW2 5337   1.524   3.422   0.234
 1480SOL     OW 5338   3.574   0.319   5.962
 1480SOL    HW1 5339   3.518   0.271   6.029
 1480SOL    HW2 5340   3.645   0.371   6.009
 1481SOL     OW 5341   6.539   2.958   5.332
 1481SOL    HW1 5342   6.488   2.882   5.372
 1481SOL    HW2 5343   6.561   2.937   5.237
 1482SOL     OW 5344   4.648   2.631   1.543
 1482SOL    HW1 5345   4.720   2.585   1.492
 1482SOL    HW2 5346   4.688   2.706   1.597
 1483SOL     OW 5347   5.528   1.785   6.577
 1483SOL    HW1 5348   5.494   1.879   6.572
 1483SOL    HW2 5349   5.471   1.725   6.520
 1484SOL     OW 5350   5.762   4.561   3.694
 1484SOL    HW1 5351   5.702   4.598   3.623
 1484SOL    HW2 5352   5.857   4.565   3.662
 1485SOL     OW 5353   3.394   1.783   2.995
 1485SOL    HW1 5354   3.307   1.762   2.951
 1485SOL    HW2 5355   3.396   1.881   3.018
 1486SOL     OW 5356   4.595   1.863   3.189
 1486SOL    HW1 5357   4.685   1.893   3.222
 1486SOL    HW2 5358   4.600   1.766   3.164
 1487SOL     OW 5359   6.557   2.827   6.452
 1487SOL    HW1 5360   6.459   2.812   6.438
 1487SOL    HW2 5361   6.582   2.917   6.419
 1488SOL     OW 5362   5.530   1.384   3.934
 1488SOL    HW1 5363   5.480   1.299   3.916
 1488SOL    HW2 5364   5.466   1.455   3.965
 1489SOL     OW 5365   3.873   5.411   4.478
 1489SOL    HW1 5366   3.879   5.452   4.569
 1489SOL    HW2 5367   3.909   5.318   4.481
 1490SOL     OW 5368   0.999   2.824   1.613
 1490SOL    HW1 5369   0.964   2.754   1.550
 1490SOL    HW2 5370   0.935   2.900   1.617
 1491SOL     OW 5371   6.563   3.884   3.783
 1491SOL    HW1 5372   6.633   3.865   3.852
 1491SOL    HW2 5373   6.494   3.946   3.821
 1492SOL     OW 5374   5.648   0.859   2.168
 1492SOL    HW1 5375   5.739   0.838   2.203
 1492SOL    HW2 5376   5.639   0.821   2.075
 1493SOL     OW 5377   4.378   6.752   4.514
 1493SOL    HW1 5378   4.327   6.836   4.532
 1493SOL    HW2 5379   4.473   6.763   4.543
 1494SOL     OW 5380   5.914   1.857   6.047
 1494SOL    HW1 5381   5.997   1.909   6.028
 1494SOL    HW2 5382   5.859   1.905   6.115
 1495SOL     OW 5383   6.556   2.513   4.814
 1495SOL    HW1 5384   6.599   2.517   4.904
 1495SOL    HW2 5385   6.571   2.422   4.775
 1496SOL     OW 5386   0.614   1.331   1.707
 1496SOL    HW1 5387   0.629   1.405   1.642
 1496SOL    HW2 5388   0.536   1.354   1.766
 1497SOL     OW 5389   6.693   2.978   3.031
 1497SOL    HW1 5390   6.671   3.052   2.967
 1497SOL    HW2 5391   6.782   2.995   3.073
 1498SOL     OW 5392   1.985   4.946   6.174
 1498SOL    HW1 5393   2.081   4.933   6.149
 1498SOL    HW2 5394   1.933   4.864   6.151
 1499SOL     OW 5395   1.097   3.472   6.352
 1499SOL    HW1 5396   1.158   3.536   6.306
 1499SOL    HW2 5397   1.020   3.521   6.392
 1500SOL     OW 5398   6.611   6.191   6.948
 1500SOL    HW1 5399   6.671   6.201   7.027
 1500SOL    HW2 5400   6.616   6.273   6.891
 1501SOL     OW 5401   5.810   1.738   6.310
 1501SOL    HW1 5402   5.874   1.734   6.387
 1501SOL    HW2 5403   5.855   1.700   6.228
 1502SOL     OW 5404   5.465   0.744   0.829
 1502SOL    HW1 5405   5.386   0.765   0.771
 1502SOL    HW2 5406   5.433   0.718   0.920
 1503SOL     OW 5407   1.816   2.695   1.794
 1503SOL    HW1 5408   1.728   2.696   1.842
 1503SOL    HW2 5409   1.881   2.754   1.843
 1504SOL     OW 5410   0.598   0.186   5.510
 1504SOL    HW1 5411   0.661   0.110   5.525
 1504SOL    HW2 5412   0.622   0.232   5.424
 1505SOL     OW 5413   5.942   0.881   5.619
 1505SOL    HW1 5414   5.927   0.975   5.586
 1505SOL    HW2 5415   5.922   0.876   5.717
 1506SOL     OW 5416   1.965   5.459   1.223
 1506SOL    HW1 5417   1.946   5.557   1.211
 1506SOL    HW2 5418   1.899   5.420   1.287
 1507SOL     OW 5419   0.983   1.864   5.612
 1507SOL    HW1 5420   0.952   1.804   5.539
 1507SOL    HW2 5421   1.052   1.818   5.667
 1508SOL     OW 5422   6.892   0.699   2.105
 1508SOL    HW1 5423   6.957   0.648   2.049
 1508SOL    HW2 5424   6.869   0.646   2.187
 1509SOL     OW 5425   4.293   2.899   5.769
 1509SOL    HW1 5426   4.218   2.844   5.733
 1509SOL    HW2 5427   4.256   2.970   5.829
 1510SOL     OW 5428   5.028   2.666   4.835
 1510SOL    HW1 5429   4.974   2.750   4.826
 1510SOL    HW2 5430   5.105   2.670   4.771
 1511SOL     OW 5431   3.092   2.963   1.824
 1511SOL    HW1 5432   3.176   2.909   1.823
 1511SOL    HW2 5433   3.104   3.043   1.882
 1512SOL     OW 5434   0.925   5.158   1.352
 1512SOL    HW1 5435   0.950   5.103   1.432
 1512SOL    HW2 5436   0.977   5.126   1.273
 1513SOL     OW 5437   2.994   0.536   3.500
 1513SOL    HW1 5438   3.069   0.593   3.534
 1513SOL    HW2 5439   2.997   0.534   3.400
 1514SOL     OW 5440   4.147   2.308   5.960
 1514SOL    HW1 5441   4.087   2.317   6.040
 1514SOL    HW2 5442   4.158   2.211   5.938
 1515SOL     OW 5443   5.804   2.379   4.584
 1515SOL    HW1 5444   5.802   2.314   4.508
 1515SOL    HW2 5445   5.814   2.472   4.549
 1516SOL     OW 5446   6.871   0.421   0.679
 1516SOL    HW1 5447   6.792   0.430   0.617
 1516SOL    HW2 5448   6.921   0.337   0.657
 1517SOL     OW 5449   4.449   6.229   3.952
 1517SOL    HW1 5450   4.520   6.246   4.020
 1517SOL    HW2 5451   4.399   6.314   3.935
 1518SOL     OW 5452   0.982   3.455   0.085
 1518SOL    HW1 5453   0.884   3.449   0.102
 1518SOL    HW2 5454   1.027   3.499   0.163
 1519SOL     OW 5455   6.292   4.832   2.172
 1519SOL    HW1 5456   6.262   4.809   2.080
 1519SOL    HW2 5457   6.216   4.821   2.236
 1520SOL     OW 5458   0.512   3.944   2.494
 1520SOL    HW1 5459   0.589   3.977   2.439
 1520SOL    HW2 5460   0.469   4.021   2.541
 1521SOL     OW 5461   1.852   4.231   0.143
 1521SOL    HW1 5462   1.855   4.331   0.141
 1521SOL    HW2 5463   1.759   4.200   0.123
 1522SOL     OW 5464   6.177   7.011   5.071
 1522SOL    HW1 5465   6.217   6.948   5.138
 1522SOL    HW2 5466   6.092   6.973   5.035
 1523SOL     OW 5467   5.303   4.790   0.118
 1523SOL    HW1 5468   5.272   4.704   0.159
 1523SOL    HW2 5469   5.331   4.853   0.191
 1524SOL     OW 5470   1.349   2.387   2.161
 1524SOL    HW1 5471   1.393   2.298   2.169
 1524SOL    HW2 5472   1.260   2.377   2.119
 1525SOL     OW 5473   6.496   2.510   0.253
 1525SOL    HW1 5474   6.457   2.595   0.217
 1525SOL    HW2 5475   6.576   2.532   0.310
 1526SOL     OW 5476   0.263   6.761   0.260
 1526SOL    HW1 5477   0.208   6.679   0.244
 1526SOL    HW2 5478   0.274   6.811   0.174
 1527SOL     OW 5479   3.640   1.329   5.383
 1527SOL    HW1 5480   3.554   1.358   5.342
 1527SOL    HW2 5481   3.674   1.400   5.445
 1528SOL     OW 5482   4.857   6.249   2.537
 1528SOL    HW1 5483   4.845   6.197   2.621
 1528SOL    HW2 5484   4.885   6.188   2.463
 1529SOL     OW 5485   3.718   0.453   0.616
 1529SOL    HW1 5486   3.648   0.417   0.555
 1529SOL    HW2 5487   3.733   0.388   0.691
 1530SOL     OW 5488   3.314   1.265   2.140
 1530SOL    HW1 5489   3.410   1.244   2.160
 1530SOL    HW2 5490   3.289   1.352   2.185
 1531SOL     OW 5491   4.874   0.721   4.914
 1531SOL    HW1 5492   4.786   0.739   4.958
 1531SOL    HW2 5493   4.859   0.675   4.827
 1532SOL     OW 5494   2.780   3.836   6.128
 1532SOL    HW1 5495   2.763   3.935   6.125
 1532SOL    HW2 5496   2.706   3.791   6.178
 1533SOL     OW 5497   6.586   3.317   0.165
 1533SOL    HW1 5498   6.661   3.280   0.220
 1533SOL    HW2 5499   6.559   3.406   0.202
 1534SOL     OW 5500   1.839   4.716   6.186
 1534SOL    HW1 5501   1.786   4.718   6.270
 1534SOL    HW2 5502   1.910   4.646   6.193
 1535SOL     OW 5503   5.013   6.295   4.214
 1535SOL    HW1 5504   5.100   6.337   4.187
 1535SOL    HW2 5505   4.984   6.331   4.302
 1536SOL     OW 5506   4.293   4.323   5.357
 1536SOL    HW1 5507   4.385   4.292   5.381
 1536SOL    HW2 5508   4.297   4.385   5.279
 1537SOL     OW 5509   4.136   6.202   3.811
 1537SOL    HW1 5510   4.047   6.247   3.807
 1537SOL    HW2 5511   4.159   6.180   3.906
 1538SOL     OW 5512   3.896   6.317   5.602
 1538SOL    HW1 5513   3.927   6.356   5.515
 1538SOL    HW2 5514   3.975   6.299   5.661
 1539SOL     OW 5515   4.173   3.694   1.855
 1539SOL    HW1 5516   4.260   3.730   1.821
 1539SOL    HW2 5517   4.120   3.768   1.896
 1540SOL     OW 5518   1.875   5.977   6.200
 1540SOL    HW1 5519   1.872   6.052   6.134
 1540SOL    HW2 5520   1.918   5.897   6.158
 1541SOL     OW 5521   3.735   2.947   2.490
 1541SOL    HW1 5522   3.804   3.010   2.526
 1541SOL    HW2 5523   3.664   2.933   2.559
 1542SOL     OW 5524   6.430   5.651   2.161
 1542SOL    HW1 5525   6.500   5.652   2.089
 1542SOL    HW2 5526   6.427   5.560   2.202
 1543SOL     OW 5527   3.588   4.194   5.091
 1543SOL    HW1 5528   3.640   4.112   5.065
 1543SOL    HW2 5529   3.500   4.193   5.044
 1544SOL     OW 5530   3.302   3.793   2.910
 1544SOL    HW1 5531   3.262   3.881   2.882
 1544SOL    HW2 5532   3.305   3.788   3.010
 1545SOL     OW 5533   5.249   0.806   4.078
 1545SOL    HW1 5534   5.224   0.894   4.119
 1545SOL    HW2 5535   5.329   0.818   4.019
 1546SOL     OW 5536   4.398   6.617   6.153
 1546SOL    HW1 5537   4.388   6.562   6.236
 1546SOL    HW2 5538   4.450   6.566   6.085
 1547SOL     OW 5539   1.555   3.479   3.025
 1547SOL    HW1 5540   1.641   3.443   3.063
 1547SOL    HW2 5541   1.509   3.534   3.094
 1548SOL     OW 5542   4.712   4.339   5.690
 1548SOL    HW1 5543   4.777   4.264   5.692
 1548SOL    HW2 5544   4.638   4.321   5.755
 1549SOL     OW 5545   4.026   1.051   3.250
 1549SOL    HW1 5546   4.037   1.046   3.150
 1549SOL    HW2 5547   4.098   0.998   3.294
 1550SOL     OW 5548   2.456   4.869   6.204
 1550SOL    HW1 5549   2.550   4.875   6.236
 1550SOL    HW2 5550   2.394   4.889   6.280
 1551SOL     OW 5551   2.351   4.106   6.940
 1551SOL    HW1 5552   2.276   4.125   7.003
 1551SOL    HW2 5553   2.313   4.066   6.856
 1552SOL     OW 5554   0.250   0.057   0.654
 1552SOL    HW1 5555   0.239   0.039   0.556
 1552SOL    HW2 5556   0.308   0.137   0.667
 1553SOL     OW 5557   0.123   1.159   5.641
 1553SOL    HW1 5558   0.125   1.106   5.557
 1553SOL    HW2 5559   0.070   1.110   5.710
 1554SOL     OW 5560   3.749   1.727   3.536
 1554SOL    HW1 5561   3.694   1.795   3.583
 1554SOL    HW2 5562   3.797   1.769   3.459
 1555SOL     OW 5563   4.802   2.179   0.430
 1555SOL    HW1 5564   4.845   2.105   0.482
 1555SOL    HW2 5565   4.711   2.148   0.399
 1556SOL     OW 5566   3.106   1.124   0.646
 1556SOL    HW1 5567   3.066   1.033   0.654
 1556SOL    HW2 5568   3.042   1.184   0.597
 1557SOL     OW 5569   2.256   1.345   6.309
 1557SOL    HW1 5570   2.204   1.296   6.239
 1557SOL    HW2 5571   2.232   1.442   6.307
 1558SOL     OW 5572   5.146   1.393   4.066
 1558SOL    HW1 5573   5.225   1.451   4.045
 1558SOL    HW2 5574   5.111   1.415   4.157
 1559SOL     OW 5575   0.032   2.571   0.087
 1559SOL    HW1 5576   6.962   2.576   0.069
 1559SOL    HW2 5577   0.081   2.572   0.001
 1560SOL     OW 5578   2.866   2.017   5.862
 1560SOL    HW1 5579   2.955   1.995   5.823
 1560SOL    HW2 5580   2.795   2.002   5.792
 1561SOL     OW 5581   0.346   6.159   2.687
 1561SOL    HW1 5582   0.322   6.230   2.621
 1561SOL    HW2 5583   0.424   6.107   2.653
 1562SOL     OW 5584   4.068   6.069   1.479
 1562SOL    HW1 5585   3.996   6.065   1.410
 1562SOL    HW2 5586   4.069   6.161   1.520
 1563SOL     OW 5587   2.336   0.850   6.042
 1563SOL    HW1 5588   2.253   0.877   5.993
 1563SOL    HW2 5589   2.324   0.867   6.139
 1564SOL     OW 5590   1.062   2.760   2.631
 1564SOL    HW1 5591   1.031   2.687   2.692
 1564SOL    HW2 5592   1.040   2.736   2.537
 1565SOL     OW 5593   4.273   5.177   4.254
 1565SOL    HW1 5594   4.347   5.242   4.232
 1565SOL    HW2 5595   4.237   5.198   4.345
 1566SOL     OW 5596   5.629   5.178   4.006
 1566SOL    HW1 5597   5.559   5.211   3.943
 1566SOL    HW2 5598   5.718   5.215   3.980
 1567SOL     OW 5599   6.316   6.433   0.035
 1567SOL    HW1 5600   6.217   6.442   0.032
 1567SOL    HW2 5601   6.348   6.379   6.987
 1568SOL     OW 5602   2.478   5.783   1.433
 1568SOL    HW1 5603   2.476   5.739   1.523
 1568SOL    HW2 5604   2.465   5.715   1.362
 1569SOL     OW 5605   2.940   6.889   3.620
 1569SOL    HW1 5606   2.973   6.823   3.553
 1569SOL    HW2 5607   2.902   6.969   3.573
 1570SOL     OW 5608   2.336   6.653   0.722
 1570SOL    HW1 5609   2.331   6.580   0.791
 1570SOL    HW2 5610   2.303   6.619   0.634
 1571SOL     OW 5611   6.037   1.280   2.551
 1571SOL    HW1 5612   5.988   1.264   2.465
 1571SOL    HW2 5613   6.130   1.310   2.531
 1572SOL     OW 5614   1.394   5.942   0.539
 1572SOL    HW1 5615   1.419   5.998   0.618
 1572SOL    HW2 5616   1.337   5.995   0.477
 1573SOL     OW 5617   6.111   3.483   2.139
 1573SOL    HW1 5618   6.130   3.543   2.216
 1573SOL    HW2 5619   6.124   3.388   2.166
 1574SOL     OW 5620   7.028   1.117   3.275
 1574SOL    HW1 5621   0.052   1.201   3.266
 1574SOL    HW2 5622   6.946   1.122   3.218
 1575SOL     OW 5623   2.132   2.301   1.590
 1575SOL    HW1 5624   2.062   2.278   1.658
 1575SOL    HW2 5625   2.206   2.234   1.594
 1576SOL     OW 5626   0.949   0.760   2.819
 1576SOL    HW1 5627   0.958   0.680   2.878
 1576SOL    HW2 5628   1.029   0.767   2.759
 1577SOL     OW 5629   2.733   0.708   5.616
 1577SOL    HW1 5630   2.667   0.727   5.543
 1577SOL    HW2 5631   2.759   0.794   5.661
 1578SOL     OW 5632   5.421   2.556   6.055
 1578SOL    HW1 5633   5.505   2.594   6.017
 1578SOL    HW2 5634   5.344   2.584   5.998
 1579SOL     OW 5635   0.159   1.695   2.249
 1579SOL    HW1 5636   0.206   1.782   2.239
 1579SOL    HW2 5637   0.131   1.683   2.345
 1580SOL     OW 5638   3.581   4.156   4.041
 1580SOL    HW1 5639   3.609   4.138   4.135
 1580SOL    HW2 5640   3.660   4.184   3.987
 1581SOL     OW 5641   6.611   4.491   5.015
 1581SOL    HW1 5642   6.615   4.391   5.016
 1581SOL    HW2 5643   6.549   4.521   4.942
 1582SOL     OW 5644   2.431   6.854   4.063
 1582SOL    HW1 5645   2.485   6.770   4.068
 1582SOL    HW2 5646   2.362   6.846   3.992
 1583SOL     OW 5647   0.882   4.969   2.653
 1583SOL    HW1 5648   0.954   5.001   2.590
 1583SOL    HW2 5649   0.912   4.982   2.747
 1584SOL     OW 5650   0.474   6.213   6.570
 1584SOL    HW1 5651   0.551   6.268   6.602
 1584SOL    HW2 5652   0.482   6.201   6.471
 1585SOL     OW 5653   4.389   1.965   3.866
 1585SOL    HW1 5654   4.337   1.948   3.781
 1585SOL    HW2 5655   4.456   2.037   3.850
 1586SOL     OW 5656   3.442   4.731   1.662
 1586SOL    HW1 5657   3.532   4.738   1.704
 1586SOL    HW2 5658   3.371   4.749   1.731
 1587SOL     OW 5659   2.990   5.918   6.232
 1587SOL    HW1 5660   3.036   5.973   6.162
 1587SOL    HW2 5661   2.938   5.845   6.188
 1588SOL     OW 5662   3.772   1.112   2.800
 1588SOL    HW1 5663   3.704   1.121   2.873
 1588SOL    HW2 5664   3.840   1.185   2.809
 1589SOL     OW 5665   6.719   3.140   1.819
 1589SOL    HW1 5666   6.769   3.201   1.757
 1589SOL    HW2 5667   6.727   3.046   1.787
 1590SOL     OW 5668   4.369   0.598   4.735
 1590SOL    HW1 5669   4.292   0.646   4.694
 1590SOL    HW2 5670   4.406   0.652   4.811
 1591SOL     OW 5671   6.899   5.555   1.728
 1591SOL    HW1 5672   6.841   5.481   1.694
 1591SOL    HW2 5673   6.928   5.612   1.652
 1592SOL     OW 5674   1.728   3.724   6.920
 1592SOL    HW1 5675   1.802   3.764   6.975
 1592SOL    HW2 5676   1.725   3.768   6.831
 1593SOL     OW 5677   1.307   6.265   5.541
 1593SOL    HW1 5678   1.305   6.167   5.524
 1593SOL    HW2 5679   1.230   6.309   5.495
 1594SOL     OW 5680   0.544   6.223   1.826
 1594SOL    HW1 5681   0.508   6.132   1.809
 1594SOL    HW2 5682   0.506   6.287   1.759
 1595SOL     OW 5683   1.982   4.758   0.255
 1595SOL    HW1 5684   2.078   4.775   0.279
 1595SOL    HW2 5685   1.923   4.787   0.331
 1596SOL     OW 5686   0.206   2.173   3.822
 1596SOL    HW1 5687   0.268   2.244   3.789
 1596SOL    HW2 5688   0.120   2.215   3.850
 1597SOL     OW 5689   1.444   6.542   0.297
 1597SOL    HW1 5690   1.431   6.478   0.372
 1597SOL    HW2 5691   1.382   6.518   0.222
 1598SOL     OW 5692   0.021   4.593   5.858
 1598SOL    HW1 5693   0.111   4.551   5.845
 1598SOL    HW2 5694   0.022   4.685   5.818
 1599SOL     OW 5695   4.542   5.334   4.961
 1599SOL    HW1 5696   4.451   5.363   4.932
 1599SOL    HW2 5697   4.601   5.324   4.881
 1600SOL     OW 5698   3.644   1.331   3.155
 1600SOL    HW1 5699   3.562   1.340   3.211
 1600SOL    HW2 5700   3.675   1.422   3.126
 1601SOL     OW 5701   6.752   5.775   4.463
 1601SOL    HW1 5702   6.666   5.785   4.512
 1601SOL    HW2 5703   6.763   5.852   4.399
 1602SOL     OW 5704   4.026   5.997   4.190
 1602SOL    HW1 5705   3.980   5.930   4.131
 1602SOL    HW2 5706   4.125   5.994   4.173
 1603SOL     OW 5707   1.420   6.033   3.531
 1603SOL    HW1 5708   1.431   6.034   3.631
 1603SOL    HW2 5709   1.343   5.973   3.508
 1604SOL     OW 5710   5.534   4.403   1.361
 1604SOL    HW1 5711   5.550   4.428   1.265
 1604SOL    HW2 5712   5.506   4.308   1.365
 1605SOL     OW 5713   6.583   5.085   1.555
 1605SOL    HW1 5714   6.497   5.034   1.542
 1605SOL    HW2 5715   6.596   5.103   1.653
 1606SOL     OW 5716   4.117   0.489   5.766
 1606SOL    HW1 5717   4.134   0.473   5.668
 1606SOL    HW2 5718   4.203   0.513   5.811
 1607SOL     OW 5719   4.335   1.470   0.941
 1607SOL    HW1 5720   4.244   1.472   0.982
 1607SOL    HW2 5721   4.353   1.558   0.896
 1608SOL     OW 5722   1.213   1.097   3.488
 1608SOL    HW1 5723   1.250   1.153   3.562
 1608SOL    HW2 5724   1.114   1.105   3.487
 1609SOL     OW 5725   4.076   0.045   0.404
 1609SOL    HW1 5726   4.156   0.100   0.429
 1609SOL    HW2 5727   3.994   0.085   0.446
 1610SOL     OW 5728   6.169   4.614   6.529
 1610SOL    HW1 5729   6.165   4.545   6.457
 1610SOL    HW2 5730   6.174   4.569   6.618
 1611SOL     OW 5731   2.487   3.946   1.172
 1611SOL    HW1 5732   2.489   3.947   1.072
 1611SOL    HW2 5733   2.551   3.877   1.206
 1612SOL     OW 5734   2.845   0.030   6.857
 1612SOL    HW1 5735   2.792   0.115   6.847
 1612SOL    HW2 5736   2.937   0.045   6.821
 1613SOL     OW 5737   1.243   5.883   2.001
 1613SOL    HW1 5738   1.238   5.842   1.910
 1613SOL    HW2 5739   1.167   5.947   2.012
 1614SOL     OW 5740   5.437   3.036   0.048
 1614SOL    HW1 5741   5.476   2.988   0.127
 1614SOL    HW2 5742   5.508   3.047   7.007
 1615SOL     OW 5743   5.984   5.665   0.512
 1615SOL    HW1 5744   6.043   5.620   0.445
 1615SOL    HW2 5745   5.888   5.653   0.486
 1616SOL     OW 5746   3.290   1.369   5.370
 1616SOL    HW1 5747   3.289   1.468   5.359
 1616SOL    HW2 5748   3.205   1.339   5.413
 1617SOL     OW 5749   5.754   6.606   2.679
 1617SOL    HW1 5750   5.839   6.654   2.697
 1617SOL    HW2 5751   5.710   6.582   2.766
 1618SOL     OW 5752   1.443   5.330   1.954
 1618SOL    HW1 5753   1.422   5.403   2.018
 1618SOL    HW2 5754   1.484   5.253   2.004
 1619SOL     OW 5755   0.610   4.254   1.809
 1619SOL    HW1 5756   0.605   4.322   1.736
 1619SOL    HW2 5757   0.550   4.177   1.788
 1620SOL     OW 5758   2.838   4.747   1.728
 1620SOL    HW1 5759   2.767   4.816   1.714
 1620SOL    HW2 5760   2.812   4.688   1.804
 1621SOL     OW 5761   0.034   1.288   0.700
 1621SOL    HW1 5762   0.090   1.232   0.761
 1621SOL    HW2 5763   0.001   1.369   0.749
 1622SOL     OW 5764   0.530   2.909   4.835
 1622SOL    HW1 5765   0.539   2.899   4.736
 1622SOL    HW2 5766   0.443   2.955   4.856
 1623SOL     OW 5767   2.125   3.173   4.947
 1623SOL    HW1 5768   2.091   3.079   4.954
 1623SOL    HW2 5769   2.199   3.186   5.013
 1624SOL     OW 5770   3.120   1.220   5.175
 1624SOL    HW1 5771   3.154   1.314   5.171
 1624SOL    HW2 5772   3.198   1.157   5.179
 1625SOL     OW 5773   1.483   4.780   0.098
 1625SOL    HW1 5774   1.432   4.717   0.039
 1625SOL    HW2 5775   1.535   4.844   0.041
 1626SOL     OW 5776   4.348   1.664   6.950
 1626SOL    HW1 5777   4.431   1.625   6.988
 1626SOL    HW2 5778   4.331   1.754   6.992
 1627SOL     OW 5779   6.410   3.319   3.466
 1627SOL    HW1 5780   6.384   3.348   3.559
 1627SOL    HW2 5781   6.374   3.227   3.449
 1628SOL     OW 5782   5.139   4.386   6.960
 1628SOL    HW1 5783   5.225   4.341   6.986
 1628SOL    HW2 5784   5.157   4.454   6.889
 1629SOL     OW 5785   3.340   0.732   3.979
 1629SOL    HW1 5786   3.326   0.823   4.018
 1629SOL    HW2 5787   3.326   0.663   4.050
 1630SOL     OW 5788   1.604   4.708   5.448
 1630SOL    HW1 5789   1.555   4.783   5.492
 1630SOL    HW2 5790   1.546   4.626   5.448
 1631SOL     OW 5791   1.204   2.981   0.066
 1631SOL    HW1 5792   1.278   3.021   0.012
 1631SOL    HW2 5793   1.243   2.920   0.135
 1632SOL     OW 5794   5.991   2.383   0.445
 1632SOL    HW1 5795   6.043   2.349   0.524
 1632SOL    HW2 5796   6.047   2.379   0.363
 1633SOL     OW 5797   5.485   3.974   4.300
 1633SOL    HW1 5798   5.471   3.929   4.388
 1633SOL    HW2 5799   5.571   4.025   4.302
 1634SOL     OW 5800   4.041   5.679   4.964
 1634SOL    HW1 5801   4.138   5.659   4.952
 1634SOL    HW2 5802   3.992   5.595   4.987
 1635SOL     OW 5803   6.918   4.829   6.890
 1635SOL    HW1 5804   6.892   4.760   6.957
 1635SOL    HW2 5805   6.998   4.797   6.839
 1636SOL     OW 5806   2.681   4.306   1.671
 1636SOL    HW1 5807   2.680   4.346   1.580
 1636SOL    HW2 5808   2.739   4.361   1.732
 1637SOL     OW 5809   0.477   0.650   2.838
 1637SOL    HW1 5810   0.442   0.597   2.915
 1637SOL    HW2 5811   0.402   0.702   2.796
 1638SOL     OW 5812   6.887   4.275   3.466
 1638SOL    HW1 5813   6.944   4.233   3.536
 1638SOL    HW2 5814   6.792   4.249   3.479
 1639SOL     OW 5815   5.142   0.030   2.151
 1639SOL    HW1 5816   5.124   6.985   2.216
 1639SOL    HW2 5817   5.219   0.085   2.184
 1640SOL     OW 5818   6.447   0.684   0.352
 1640SOL    HW1 5819   6.491   0.601   0.319
 1640SOL    HW2 5820   6.510   0.761   0.342
 1641SOL     OW 5821   4.514   1.914   3.457
 1641SOL    HW1 5822   4.424   1.872   3.464
 1641SOL    HW2 5823   4.543   1.917   3.361
 1642SOL     OW 5824   6.290   3.594   6.486
 1642SOL    HW1 5825   6.273   3.688   6.517
 1642SOL    HW2 5826   6.206   3.558   6.444
 1643SOL     OW 5827   2.897   4.803   4.706
 1643SOL    HW1 5828   2.936   4.758   4.787
 1643SOL    HW2 5829   2.847   4.735   4.652
 1644SOL     OW 5830   5.928   3.617   0.302
 1644SOL    HW1 5831   6.027   3.607   0.300
 1644SOL    HW2 5832   5.885   3.538   0.258
 1645SOL     OW 5833   3.425   5.047   6.131
 1645SOL    HW1 5834   3.502   4.994   6.095
 1645SOL    HW2 5835   3.445   5.145   6.121
 1646SOL     OW 5836   2.992   6.378   0.003
 1646SOL    HW1 5837   2.946   6.292   0.025
 1646SOL    HW2 5838   2.925   6.453   0.005
 1647SOL     OW 5839   5.607   3.190   4.849
 1647SOL    HW1 5840   5.597   3.220   4.754
 1647SOL    HW2 5841   5.520   3.151   4.881
 1648SOL     OW 5842   5.501   5.525   0.754
 1648SOL    HW1 5843   5.543   5.577   0.829
 1648SOL    HW2 5844   5.531   5.563   0.667
 1649SOL     OW 5845   3.260   1.189   4.403
 1649SOL    HW1 5846   3.286   1.281   4.372
 1649SOL    HW2 5847   3.170   1.166   4.366
 1650SOL     OW 5848   1.878   6.145   5.988
 1650SOL    HW1 5849   1.938   6.113   5.915
 1650SOL    HW2 5850   1.783   6.143   5.956
 1651SOL     OW 5851   0.246   1.670   1.761
 1651SOL    HW1 5852   0.267   1.713   1.849
 1651SOL    HW2 5853   0.310   1.702   1.692
 1652SOL     OW 5854   0.894   3.788   2.408
 1652SOL    HW1 5855   0.944   3.738   2.337
 1652SOL    HW2 5856   0.799   3.757   2.410
 1653SOL     OW 5857   0.807   6.727   1.041
 1653SOL    HW1 5858   0.750   6.714   0.959
 1653SOL    HW2 5859   0.884   6.786   1.018
 1654SOL     OW 5860   0.665   3.782   1.874
 1654SOL    HW1 5861   0.652   3.822   1.965
 1654SOL    HW2 5862   0.590   3.719   1.855
 1655SOL     OW 5863   0.851   2.113   5.167
 1655SOL    HW1 5864   0.813   2.038   5.113
 1655SOL    HW2 5865   0.817   2.107   5.261
 1656SOL     OW 5866   2.402   4.435   2.374
 1656SOL    HW1 5867   2.484   4.488   2.353
 1656SOL    HW2 5868   2.397   4.419   2.472
 1657SOL     OW 5869   0.311   1.196   3.809
 1657SOL    HW1 5870   0.280   1.246   3.728
 1657SOL    HW2 5871   0.267   1.233   3.891
 1658SOL     OW 5872   0.222   6.025   1.176
 1658SOL    HW1 5873   0.237   6.002   1.080
 1658SOL    HW2 5874   0.191   6.120   1.184
 1659SOL     OW 5875   3.848   6.782   6.540
 1659SOL    HW1 5876   3.820   6.781   6.444
 1659SOL    HW2 5877   3.945   6.757   6.547
 1660SOL     OW 5878   1.356   5.285   3.960
 1660SOL    HW1 5879   1.332   5.261   3.866
 1660SOL    HW2 5880   1.328   5.211   4.021
 1661SOL     OW 5881   2.490   0.319   1.259
 1661SOL    HW1 5882   2.416   0.363   1.309
 1661SOL    HW2 5883   2.511   0.231   1.301
 1662SOL     OW 5884   6.318   0.820   4.551
 1662SOL    HW1 5885   6.293   0.851   4.643
 1662SOL    HW2 5886   6.387   0.882   4.513
 1663SOL     OW 5887   4.504   6.128   2.971
 1663SOL    HW1 5888   4.528   6.225   2.960
 1663SOL    HW2 5889   4.587   6.074   2.982
 1664SOL     OW 5890   1.930   0.142   4.919
 1664SOL    HW1 5891   1.918   0.239   4.944
 1664SOL    HW2 5892   1.856   0.115   4.858
 1665SOL     OW 5893   0.015   1.733   2.922
 1665SOL    HW1 5894   6.944   1.733   2.928
 1665SOL    HW2 5895   0.046   1.813   2.870
 1666SOL     OW 5896   5.554   2.133   6.743
 1666SOL    HW1 5897   5.568   2.126   6.842
 1666SOL    HW2 5898   5.470   2.085   6.718
 1667SOL     OW 5899   6.833   5.968   1.482
 1667SOL    HW1 5900   6.860   5.943   1.389
 1667SOL    HW2 5901   6.751   6.025   1.478
 1668SOL     OW 5902   5.530   6.415   4.708
 1668SOL    HW1 5903   5.460   6.480   4.736
 1668SOL    HW2 5904   5.619   6.445   4.742
 1669SOL     OW 5905   6.178   5.637   6.447
 1669SOL    HW1 5906   6.082   5.644   6.474
 1669SOL    HW2 5907   6.236   5.646   6.528
 1670SOL     OW 5908   0.429   4.058   5.671
 1670SOL    HW1 5909   0.478   4.026   5.589
 1670SOL    HW2 5910   0.369   3.985   5.704
 1671SOL     OW 5911   5.282   1.572   1.929
 1671SOL    HW1 5912   5.229   1.656   1.941
 1671SOL    HW2 5913   5.225   1.504   1.882
 1672SOL     OW 5914   1.500   3.030   1.110
 1672SOL    HW1 5915   1.537   2.945   1.148
 1672SOL    HW2 5916   1.489   3.097   1.183
 1673SOL     OW 5917   1.432   1.229   4.238
 1673SOL    HW1 5918   1.513   1.196   4.287
 1673SOL    HW2 5919   1.382   1.293   4.296
 1674SOL     OW 5920   0.914   3.168   2.181
 1674SOL    HW1 5921   0.860   3.236   2.230
 1674SOL    HW2 5922   0.936   3.202   2.089
 1675SOL     OW 5923   5.291   6.894   0.251
 1675SOL    HW1 5924   5.349   6.866   0.175
 1675SOL    HW2 5925   5.339   6.961   0.307
 1676SOL     OW 5926   2.197   2.517   2.133
 1676SOL    HW1 5927   2.141   2.499   2.052
 1676SOL    HW2 5928   2.286   2.552   2.105
 1677SOL     OW 5929   3.192   3.652   4.231
 1677SOL    HW1 5930   3.230   3.602   4.153
 1677SOL    HW2 5931   3.259   3.719   4.263
 1678SOL     OW 5932   5.197   3.959   4.204
 1678SOL    HW1 5933   5.149   3.958   4.292
 1678SOL    HW2 5934   5.290   3.994   4.217
 1679SOL     OW 5935   2.360   2.200   4.351
 1679SOL    HW1 5936   2.415   2.192   4.434
 1679SOL    HW2 5937   2.413   2.248   4.281
 1680SOL     OW 5938   0.047   2.942   4.852
 1680SOL    HW1 5939   0.039   2.874   4.779
 1680SOL    HW2 5940   6.990   2.993   4.860
 1681SOL     OW 5941   6.795   5.480   0.271
 1681SOL    HW1 5942   6.772   5.569   0.232
 1681SOL    HW2 5943   6.796   5.411   0.197
 1682SOL     OW 5944   1.619   1.118   4.412
 1682SOL    HW1 5945   1.689   1.106   4.342
 1682SOL    HW2 5946   1.662   1.147   4.498
 1683SOL     OW 5947   5.015   5.462   1.581
 1683SOL    HW1 5948   4.947   5.484   1.651
 1683SOL    HW2 5949   5.104   5.498   1.609
 1684SOL     OW 5950   0.981   5.663   2.312
 1684SOL    HW1 5951   0.939   5.751   2.289
 1684SOL    HW2 5952   0.988   5.607   2.230
 1685SOL     OW 5953   2.797   0.960   4.543
 1685SOL    HW1 5954   2.809   0.937   4.639
 1685SOL    HW2 5955   2.713   0.919   4.508
 1686SOL     OW 5956   2.937   5.918   4.427
 1686SOL    HW1 5957   2.911   5.902   4.332
 1686SOL    HW2 5958   2.904   5.843   4.484
 1687SOL     OW 5959   1.913   3.509   1.473
 1687SOL    HW1 5960   1.873   3.429   1.518
 1687SOL    HW2 5961   1.981   3.479   1.406
 1688SOL     OW 5962   2.351   2.848   4.122
 1688SOL    HW1 5963   2.383   2.943   4.111
 1688SOL    HW2 5964   2.366   2.819   4.216
 1689SOL     OW 5965   5.810   1.422   2.840
 1689SOL    HW1 5966   5.865   1.399   2.919
 1689SOL    HW2 5967   5.804   1.522   2.831
 1690SOL     OW 5968   1.752   2.595   3.547
 1690SOL    HW1 5969   1.678   2.638   3.598
 1690SOL    HW2 5970   1.840   2.622   3.586
 1691SOL     OW 5971   6.367   3.462   3.735
 1691SOL    HW1 5972   6.287   3.490   3.788
 1691SOL    HW2 5973   6.430   3.539   3.727
 1692SOL     OW 5974   5.531   6.256   1.560
 1692SOL    HW1 5975   5.455   6.247   1.624
 1692SOL    HW2 5976   5.560   6.352   1.557
 1693SOL     OW 5977   6.875   1.962   2.162
 1693SOL    HW1 5978   6.959   2.016   2.165
 1693SOL    HW2 5979   6.800   2.014   2.203
 1694SOL     OW 5980   5.588   0.477   2.083
 1694SOL    HW1 5981   5.578   0.561   2.030
 1694SOL    HW2 5982   5.589   0.498   2.180
 1695SOL     OW 5983   3.950   0.963   5.137
 1695SOL    HW1 5984   3.910   1.039   5.189
 1695SOL    HW2 5985   4.050   0.971   5.138
 1696SOL     OW 5986   4.697   4.722   0.274
 1696SOL    HW1 5987   4.627   4.727   0.345
 1696SOL    HW2 5988   4.788   4.720   0.317
 1697SOL     OW 5989   6.062   0.736   0.614
 1697SOL    HW1 5990   5.988   0.676   0.642
 1697SOL    HW2 5991   6.082   0.800   0.688
 1698SOL     OW 5992   4.300   0.585   0.056
 1698SOL    HW1 5993   4.207   0.548   0.048
 1698SOL    HW2 5994   4.348   0.539   0.130
 1699SOL     OW 5995   1.554   0.876   0.994
 1699SOL    HW1 5996   1.632   0.857   1.054
 1699SOL    HW2 5997   1.497   0.794   0.988
 1700SOL     OW 5998   5.849   2.712   4.097
 1700SOL    HW1 5999   5.902   2.744   4.019
 1700SOL    HW2 6000   5.853   2.780   4.171
 1701SOL     OW 6001   4.717   4.386   6.523
 1701SOL    HW1 6002   4.705   4.286   6.520
 1701SOL    HW2 6003   4.647   4.426   6.583
 1702SOL     OW 6004   6.781   2.394   0.597
 1702SOL    HW1 6005   6.745   2.312   0.554
 1702SOL    HW2 6006   6.877   2.380   0.623
 1703SOL     OW 6007   2.879   2.594   1.711
 1703SOL    HW1 6008   2.904   2.512   1.762
 1703SOL    HW2 6009   2.780   2.603   1.707
 1704SOL     OW 6010   1.182   2.445   1.159
 1704SOL    HW1 6011   1.252   2.394   1.108
 1704SOL    HW2 6012   1.110   2.474   1.097
 1705SOL     OW 6013   3.296   1.534   1.864
 1705SOL    HW1 6014   3.289   1.545   1.963
 1705SOL    HW2 6015   3.212   1.565   1.820
 1706SOL     OW 6016   4.792   1.091   2.244
 1706SOL    HW1 6017   4.807   1.029   2.321
 1706SOL    HW2 6018   4.802   1.186   2.274
 1707SOL     OW 6019   4.915   2.002   2.322
 1707SOL    HW1 6020   4.873   1.960   2.403
 1707SOL    HW2 6021   4.850   1.999   2.246
 1708SOL     OW 6022   4.850   5.516   1.779
 1708SOL    HW1 6023   4.788   5.438   1.775
 1708SOL    HW2 6024   4.804   5.592   1.825
 1709SOL     OW 6025   3.369   5.949   2.482
 1709SOL    HW1 6026   3.365   5.945   2.582
 1709SOL    HW2 6027   3.396   6.040   2.453
 1710SOL     OW 6028   5.311   4.794   4.080
 1710SOL    HW1 6029   5.273   4.772   3.990
 1710SOL    HW2 6030   5.236   4.802   4.146
 1711SOL     OW 6031   1.360   4.610   4.186
 1711SOL    HW1 6032   1.307   4.525   4.179
 1711SOL    HW2 6033   1.341   4.655   4.273
 1712SOL     OW 6034   6.556   2.182   5.461
 1712SOL    HW1 6035   6.469   2.218   5.497
 1712SOL    HW2 6036   6.627   2.251   5.471
 1713SOL     OW 6037   4.474   2.864   1.515
 1713SOL    HW1 6038   4.550   2.808   1.548
 1713SOL    HW2 6039   4.396   2.805   1.495
 1714SOL     OW 6040   3.339   1.426   5.676
 1714SOL    HW1 6041   3.280   1.355   5.637
 1714SOL    HW2 6042   3.343   1.416   5.775
 1715SOL     OW 6043   0.401   5.455   3.329
 1715SOL    HW1 6044   0.365   5.544   3.357
 1715SOL    HW2 6045   0.333   5.384   3.348
 1716SOL     OW 6046   4.814   6.733   3.187
 1716SOL    HW1 6047   4.822   6.825   3.149
 1716SOL    HW2 6048   4.815   6.737   3.287
 1717SOL     OW 6049   2.573   6.352   5.893
 1717SOL    HW1 6050   2.475   6.329   5.893
 1717SOL    HW2 6051   2.584   6.449   5.914
 1718SOL     OW 6052   2.398   1.689   1.480
 1718SOL    HW1 6053   2.416   1.739   1.565
 1718SOL    HW2 6054   2.399   1.591   1.499
 1719SOL     OW 6055   1.478   3.334   1.155
 1719SOL    HW1 6056   1.546   3.315   1.225
 1719SOL    HW2 6057   1.521   3.333   1.065
 1720SOL     OW 6058   6.853   3.327   0.269
 1720SOL    HW1 6059   6.923   3.302   0.202
 1720SOL    HW2 6060   6.877   3.287   0.358
 1721SOL     OW 6061   1.521   6.531   1.494
 1721SOL    HW1 6062   1.610   6.572   1.478
 1721SOL    HW2 6063   1.481   6.569   1.578
 1722SOL     OW 6064   3.528   1.498   3.547
 1722SOL    HW1 6065   3.576   1.572   3.500
 1722SOL    HW2 6066   3.486   1.533   3.631
 1723SOL     OW 6067   5.962   2.328   2.535
 1723SOL    HW1 6068   6.057   2.334   2.503
 1723SOL    HW2 6069   5.900   2.335   2.457
 1724SOL     OW 6070   6.916   2.514   1.725
 1724SOL    HW1 6071   6.888   2.548   1.815
 1724SOL    HW2 6072   6.952   2.589   1.670
 1725SOL     OW 6073   1.849   5.003   6.609
 1725SOL    HW1 6074   1.855   5.068   6.685
 1725SOL    HW2 6075   1.816   5.050   6.527
 1726SOL     OW 6076   5.854   4.890   4.895
 1726SOL    HW1 6077   5.847   4.793   4.922
 1726SOL    HW2 6078   5.926   4.934   4.948
 1727SOL     OW 6079   3.455   2.877   4.217
 1727SOL    HW1 6080   3.440   2.869   4.315
 1727SOL    HW2 6081   3.368   2.894   4.171
 1728SOL     OW 6082   4.865   4.667   5.083
 1728SOL    HW1 6083   4.784   4.674   5.023
 1728SOL    HW2 6084   4.847   4.717   5.168
 1729SOL     OW 6085   2.354   4.248   2.920
 1729SOL    HW1 6086   2.394   4.200   2.843
 1729SOL    HW2 6087   2.258   4.269   2.900
 1730SOL     OW 6088   1.285   6.737   6.002
 1730SOL    HW1 6089   1.287   6.688   5.915
 1730SOL    HW2 6090   1.236   6.682   6.069
 1731SOL     OW 6091   6.819   3.747   3.165
 1731SOL    HW1 6092   6.870   3.706   3.090
 1731SOL    HW2 6093   6.874   3.818   3.209
 1732SOL     OW 6094   2.700   5.230   5.461
 1732SOL    HW1 6095   2.643   5.184   5.392
 1732SOL    HW2 6096   2.783   5.176   5.476
 1733SOL     OW 6097   1.972   4.586   1.542
 1733SOL    HW1 6098   1.885   4.622   1.576
 1733SOL    HW2 6099   2.026   4.659   1.501
 1734SOL     OW 6100   4.529   3.173   0.966
 1734SOL    HW1 6101   4.486   3.264   0.968
 1734SOL    HW2 6102   4.460   3.104   0.944
 1735SOL     OW 6103   4.929   6.048   0.533
 1735SOL    HW1 6104   4.882   6.042   0.621
 1735SOL    HW2 6105   4.862   6.057   0.459
 1736SOL     OW 6106   3.193   3.468   0.534
 1736SOL    HW1 6107   3.271   3.455   0.472
 1736SOL    HW2 6108   3.196   3.561   0.571
 1737SOL     OW 6109   3.042   1.064   4.270
 1737SOL    HW1 6110   2.960   1.068   4.213
 1737SOL    HW2 6111   3.039   0.982   4.327
 1738SOL     OW 6112   2.167   2.527   4.164
 1738SOL    HW1 6113   2.236   2.464   4.129
 1738SOL    HW2 6114   2.165   2.523   4.264
 1739SOL     OW 6115   0.222   2.313   5.241
 1739SOL    HW1 6116   0.308   2.280   5.203
 1739SOL    HW2 6117   0.228   2.313   5.341
 1740SOL     OW 6118   6.928   2.044   5.504
 1740SOL    HW1 6119   7.015   1.996   5.500
 1740SOL    HW2 6120   6.855   1.983   5.474
 1741SOL     OW 6121   2.131   0.332   3.527
 1741SOL    HW1 6122   2.042   0.373   3.510
 1741SOL    HW2 6123   2.180   0.386   3.596
 1742SOL     OW 6124   5.827   0.484   6.526
 1742SOL    HW1 6125   5.806   0.497   6.623
 1742SOL    HW2 6126   5.757   0.426   6.485
 1743SOL     OW 6127   0.910   2.179   1.638
 1743SOL    HW1 6128   0.888   2.131   1.723
 1743SOL    HW2 6129   0.828   2.183   1.581
 1744SOL     OW 6130   6.381   1.922   2.494
 1744SOL    HW1 6131   6.451   1.980   2.453
 1744SOL    HW2 6132   6.372   1.837   2.441
 1745SOL     OW 6133   5.811   5.766   2.192
 1745SOL    HW1 6134   5.747   5.705   2.238
 1745SOL    HW2 6135   5.904   5.744   2.220
 1746SOL     OW 6136   0.974   3.882   4.466
 1746SOL    HW1 6137   0.999   3.977   4.485
 1746SOL    HW2 6138   1.039   3.821   4.511
 1747SOL     OW 6139   4.774   1.386   3.191
 1747SOL    HW1 6140   4.839   1.454   3.157
 1747SOL    HW2 6141   4.708   1.363   3.120
 1748SOL     OW 6142   1.267   1.076   5.415
 1748SOL    HW1 6143   1.314   1.003   5.364
 1748SOL    HW2 6144   1.203   1.035   5.479
 1749SOL     OW 6145   2.611   0.556   4.843
 1749SOL    HW1 6146   2.703   0.581   4.811
 1749SOL    HW2 6147   2.610   0.461   4.873
 1750SOL     OW 6148   5.489   6.172   4.225
 1750SOL    HW1 6149   5.492   6.270   4.245
 1750SOL    HW2 6150   5.400   6.149   4.184
 1751SOL     OW 6151   3.785   6.584   4.894
 1751SOL    HW1 6152   3.767   6.681   4.908
 1751SOL    HW2 6153   3.882   6.570   4.875
 1752SOL     OW 6154   6.581   2.131   1.701
 1752SOL    HW1 6155   6.675   2.107   1.726
 1752SOL    HW2 6156   6.526   2.140   1.784
 1753SOL     OW 6157   0.411   1.242   1.112
 1753SOL    HW1 6158   0.362   1.246   1.199
 1753SOL    HW2 6159   0.426   1.336   1.079
 1754SOL     OW 6160   1.336   4.506   6.691
 1754SOL    HW1 6161   1.366   4.456   6.610
 1754SOL    HW2 6162   1.266   4.453   6.738
 1755SOL     OW 6163   6.793   5.909   2.235
 1755SOL    HW1 6164   6.783   5.867   2.145
 1755SOL    HW2 6165   6.890   5.915   2.258
 1756SOL     OW 6166   4.005   6.007   5.776
 1756SOL    HW1 6167   3.929   5.945   5.756
 1756SOL    HW2 6168   4.036   5.992   5.870
 1757SOL     OW 6169   2.261   5.201   4.696
 1757SOL    HW1 6170   2.292   5.127   4.756
 1757SOL    HW2 6171   2.305   5.286   4.724
 1758SOL     OW 6172   2.346   0.067   4.113
 1758SOL    HW1 6173   2.388   0.120   4.040
 1758SOL    HW2 6174   2.383   7.003   4.113
 1759SOL     OW 6175   1.560   5.867   6.254
 1759SOL    HW1 6176   1.636   5.844   6.315
 1759SOL    HW2 6177   1.595   5.903   6.168
 1760SOL     OW 6178   5.244   1.396   3.040
 1760SOL    HW1 6179   5.317   1.406   3.108
 1760SOL    HW2 6180   5.155   1.411   3.084
 1761SOL     OW 6181   0.286   0.689   0.608
 1761SOL    HW1 6182   0.359   0.705   0.542
 1761SOL    HW2 6183   0.316   0.715   0.699
 1762SOL     OW 6184   0.495   1.032   5.075
 1762SOL    HW1 6185   0.539   1.114   5.111
 1762SOL    HW2 6186   0.526   0.952   5.127
 1763SOL     OW 6187   1.383   3.858   4.027
 1763SOL    HW1 6188   1.288   3.884   4.040
 1763SOL    HW2 6189   1.423   3.913   3.954
 1764SOL     OW 6190   2.122   3.579   2.564
 1764SOL    HW1 6191   2.023   3.593   2.566
 1764SOL    HW2 6192   2.142   3.482   2.556
 1765SOL     OW 6193   3.584   1.029   0.980
 1765SOL    HW1 6194   3.529   1.108   0.953
 1765SOL    HW2 6195   3.678   1.058   0.998
 1766SOL     OW 6196   5.214   4.378   2.611
 1766SOL    HW1 6197   5.314   4.373   2.608
 1766SOL    HW2 6198   5.176   4.351   2.523
 1767SOL     OW 6199   0.201   3.517   2.743
 1767SOL    HW1 6200   0.290   3.483   2.713
 1767SOL    HW2 6201   0.129   3.461   2.704
 1768SOL     OW 6202   3.960   2.119   6.238
 1768SOL    HW1 6203   4.058   2.132   6.254
 1768SOL    HW2 6204   3.911   2.204   6.258
 1769SOL     OW 6205   4.427   1.643   6.095
 1769SOL    HW1 6206   4.521   1.665   6.069
 1769SOL    HW2 6207   4.391   1.715   6.154
 1770SOL     OW 6208   6.909   4.332   4.540
 1770SOL    HW1 6209   6.975   4.296   4.606
 1770SOL    HW2 6210   6.959   4.378   4.466
 1771SOL     OW 6211   1.933   5.333   0.271
 1771SOL    HW1 6212   1.906   5.262   0.336
 1771SOL    HW2 6213   1.854   5.388   0.245
 1772SOL     OW 6214   3.363   0.251   3.205
 1772SOL    HW1 6215   3.447   0.254   3.150
 1772SOL    HW2 6216   3.284   0.269   3.146
 1773SOL     OW 6217   3.105   3.732   6.551
 1773SOL    HW1 6218   3.062   3.742   6.461
 1773SOL    HW2 6219   3.194   3.777   6.550
 1774SOL     OW 6220   4.452   0.248   1.727
 1774SOL    HW1 6221   4.550   0.270   1.729
 1774SOL    HW2 6222   4.417   0.244   1.820
 1775SOL     OW 6223   1.762   5.366   5.192
 1775SOL    HW1 6224   1.729   5.454   5.226
 1775SOL    HW2 6225   1.774   5.303   5.268
 1776SOL     OW 6226   4.742   0.913   6.119
 1776SOL    HW1 6227   4.683   0.843   6.161
 1776SOL    HW2 6228   4.783   0.969   6.191
 1777SOL     OW 6229   2.823   5.623   5.661
 1777SOL    HW1 6230   2.812   5.643   5.564
 1777SOL    HW2 6231   2.799   5.527   5.678
 1778SOL     OW 6232   4.535   2.221   4.417
 1778SOL    HW1 6233   4.494   2.140   4.374
 1778SOL    HW2 6234   4.632   2.203   4.435
 1779SOL     OW 6235   3.735   1.796   4.722
 1779SOL    HW1 6236   3.691   1.881   4.693
 1779SOL    HW2 6237   3.735   1.731   4.646
 1780SOL     OW 6238   2.071   4.115   5.802
 1780SOL    HW1 6239   2.005   4.173   5.849
 1780SOL    HW2 6240   2.131   4.173   5.746
 1781SOL     OW 6241   5.117   4.684   3.327
 1781SOL    HW1 6242   5.163   4.736   3.254
 1781SOL    HW2 6243   5.065   4.748   3.385
 1782SOL     OW 6244   2.886   1.613   3.347
 1782SOL    HW1 6245   2.945   1.652   3.276
 1782SOL    HW2 6246   2.821   1.549   3.306
 1783SOL     OW 6247   2.316   3.536   5.792
 1783SOL    HW1 6248   2.340   3.489   5.878
 1783SOL    HW2 6249   2.382   3.510   5.721
 1784SOL     OW 6250   2.462   1.118   2.374
 1784SOL    HW1 6251   2.505   1.209   2.376
 1784SOL    HW2 6252   2.416   1.106   2.286
 1785SOL     OW 6253   5.338   5.493   3.578
 1785SOL    HW1 6254   5.413   5.517   3.517
 1785SOL    HW2 6255   5.301   5.576   3.620
 1786SOL     OW 6256   0.903   3.784   0.381
 1786SOL    HW1 6257   0.834   3.795   0.309
 1786SOL    HW2 6258   0.859   3.755   0.466
 1787SOL     OW 6259   2.275   0.806   5.281
 1787SOL    HW1 6260   2.210   0.873   5.316
 1787SOL    HW2 6261   2.281   0.729   5.345
 1788SOL     OW 6262   3.563   3.904   6.935
 1788SOL    HW1 6263   3.519   3.970   6.996
 1788SOL    HW2 6264   3.511   3.818   6.936
 1789SOL     OW 6265   5.734   2.373   2.344
 1789SOL    HW1 6266   5.677   2.292   2.333
 1789SOL    HW2 6267   5.699   2.447   2.287
 1790SOL     OW 6268   3.985   6.799   4.613
 1790SOL    HW1 6269   3.944   6.790   4.704
 1790SOL    HW2 6270   3.971   6.714   4.562
 1791SOL     OW 6271   0.674   1.315   4.572
 1791SOL    HW1 6272   0.740   1.357   4.634
 1791SOL    HW2 6273   0.585   1.309   4.617
 1792SOL     OW 6274   0.864   1.117   4.477
 1792SOL    HW1 6275   0.904   1.132   4.568
 1792SOL    HW2 6276   0.786   1.178   4.464
 1793SOL     OW 6277   6.459   0.369   3.574
 1793SOL    HW1 6278   6.380   0.430   3.564
 1793SOL    HW2 6279   6.432   0.276   3.553
 1794SOL     OW 6280   5.054   6.616   6.335
 1794SOL    HW1 6281   5.088   6.703   6.299
 1794SOL    HW2 6282   5.120   6.580   6.401
 1795SOL     OW 6283   6.481   4.924   1.802
 1795SOL    HW1 6284   6.462   4.873   1.718
 1795SOL    HW2 6285   6.491   4.860   1.878
 1796SOL     OW 6286   2.425   1.242   4.165
 1796SOL    HW1 6287   2.473   1.322   4.129
 1796SOL    HW2 6288   2.413   1.175   4.092
 1797SOL     OW 6289   1.483   6.898   6.073
 1797SOL    HW1 6290   1.501   6.955   5.993
 1797SOL    HW2 6291   1.398   6.847   6.058
 1798SOL     OW 6292   4.951   2.986   5.329
 1798SOL    HW1 6293   5.019   3.020   5.394
 1798SOL    HW2 6294   4.997   2.955   5.246
 1799SOL     OW 6295   5.768   2.516   6.530
 1799SOL    HW1 6296   5.865   2.538   6.516
 1799SOL    HW2 6297   5.714   2.559   6.457
 1800SOL     OW 6298   5.201   4.223   3.444
 1800SOL    HW1 6299   5.260   4.304   3.443
 1800SOL    HW2 6300   5.251   4.144   3.411
 1801SOL     OW 6301   1.054   1.428   3.158
 1801SOL    HW1 6302   1.007   1.359   3.103
 1801SOL    HW2 6303   1.136   1.387   3.199
 1802SOL     OW 6304   6.111   5.969   3.194
 1802SOL    HW1 6305   6.105   5.922   3.282
 1802SOL    HW2 6306   6.198   6.018   3.188
 1803SOL     OW 6307   6.656   6.206   1.393
 1803SOL    HW1 6308   6.750   6.237   1.405
 1803SOL    HW2 6309   6.595   6.286   1.391
 1804SOL     OW 6310   3.612   3.448   5.302
 1804SOL    HW1 6311   3.580   3.377   5.240
 1804SOL    HW2 6312   3.683   3.410   5.363
 1805SOL     OW 6313   1.054   4.455   5.900
 1805SOL    HW1 6314   1.014   4.368   5.930
 1805SOL    HW2 6315   1.038   4.467   5.802
 1806SOL     OW 6316   1.731   2.275   1.929
 1806SOL    HW1 6317   1.818   2.259   1.976
 1806SOL    HW2 6318   1.675   2.192   1.934
 1807SOL     OW 6319   6.028   2.481   6.115
 1807SOL    HW1 6320   5.993   2.545   6.047
 1807SOL    HW2 6321   6.011   2.388   6.084
 1808SOL     OW 6322   5.798   4.746   4.558
 1808SOL    HW1 6323   5.854   4.828   4.547
 1808SOL    HW2 6324   5.763   4.742   4.652
 1809SOL     OW 6325   2.688   2.384   4.732
 1809SOL    HW1 6326   2.675   2.424   4.823
 1809SOL    HW2 6327   2.681   2.284   4.739
 1810SOL     OW 6328   1.555   6.826   5.285
 1810SOL    HW1 6329   1.585   6.755   5.349
 1810SOL    HW2 6330   1.455   6.829   5.285
 1811SOL     OW 6331   4.371   4.658   3.243
 1811SOL    HW1 6332   4.298   4.662   3.175
 1811SOL    HW2 6333   4.442   4.725   3.221
 1812SOL     OW 6334   5.194   0.101   5.927
 1812SOL    HW1 6335   5.290   0.101   5.897
 1812SOL    HW2 6336   5.159   0.008   5.930
 1813SOL     OW 6337   4.582   4.904   1.215
 1813SOL    HW1 6338   4.496   4.856   1.197
 1813SOL    HW2 6339   4.599   4.971   1.143
 1814SOL     OW 6340   6.533   0.658   0.929
 1814SOL    HW1 6341   6.624   0.677   0.891
 1814SOL    HW2 6342   6.468   0.724   0.892
 1815SOL     OW 6343   6.117   0.791   2.572
 1815SOL    HW1 6344   6.034   0.828   2.616
 1815SOL    HW2 6345   6.098   0.699   2.539
 1816SOL     OW 6346   2.717   4.820   0.539
 1816SOL    HW1 6347   2.642   4.887   0.540
 1816SOL    HW2 6348   2.684   4.736   0.495
 1817SOL     OW 6349   3.808   6.864   3.183
 1817SOL    HW1 6350   3.800   6.904   3.092
 1817SOL    HW2 6351   3.898   6.887   3.222
 1818SOL     OW 6352   2.384   6.029   1.351
 1818SOL    HW1 6353   2.402   5.931   1.364
 1818SOL    HW2 6354   2.467   6.074   1.317
 1819SOL     OW 6355   0.785   6.336   1.895
 1819SOL    HW1 6356   0.858   6.289   1.845
 1819SOL    HW2 6357   0.697   6.301   1.867
 1820SOL     OW 6358   3.291   0.242   2.171
 1820SOL    HW1 6359   3.252   0.232   2.079
 1820SOL    HW2 6360   3.271   0.334   2.206
 1821SOL     OW 6361   2.620   0.761   1.266
 1821SOL    HW1 6362   2.717   0.753   1.244
 1821SOL    HW2 6363   2.603   0.851   1.307
 1822SOL     OW 6364   0.824   2.645   1.446
 1822SOL    HW1 6365   0.899   2.600   1.396
 1822SOL    HW2 6366   0.751   2.579   1.463
 1823SOL     OW 6367   3.380   5.809   2.822
 1823SOL    HW1 6368   3.310   5.742   2.800
 1823SOL    HW2 6369   3.460   5.762   2.860
 1824SOL     OW 6370   3.797   3.751   0.499
 1824SOL    HW1 6371   3.808   3.659   0.537
 1824SOL    HW2 6372   3.739   3.747   0.418
 1825SOL     OW 6373   1.658   2.169   4.580
 1825SOL    HW1 6374   1.746   2.216   4.575
 1825SOL    HW2 6375   1.602   2.210   4.651
 1826SOL     OW 6376   3.138   1.846   1.395
 1826SOL    HW1 6377   3.204   1.921   1.392
 1826SOL    HW2 6378   3.186   1.759   1.385
 1827SOL     OW 6379   6.597   5.342   1.380
 1827SOL    HW1 6380   6.540   5.284   1.437
 1827SOL    HW2 6381   6.624   5.293   1.298
 1828SOL     OW 6382   1.705   2.749   0.480
 1828SOL    HW1 6383   1.615   2.708   0.488
 1828SOL    HW2 6384   1.697   2.848   0.468
 1829SOL     OW 6385   3.539   0.594   3.186
 1829SOL    HW1 6386   3.542   0.691   3.160
 1829SOL    HW2 6387   3.519   0.539   3.106
 1830SOL     OW 6388   5.837   5.731   4.713
 1830SOL    HW1 6389   5.898   5.739   4.792
 1830SOL    HW2 6390   5.887   5.751   4.629
 1831SOL     OW 6391   5.612   6.781   1.589
 1831SOL    HW1 6392   5.691   6.795   1.529
 1831SOL    HW2 6393   5.636   6.809   1.682
 1832SOL     OW 6394   4.237   2.190   1.061
 1832SOL    HW1 6395   4.272   2.246   0.985
 1832SOL    HW2 6396   4.310   2.172   1.126
 1833SOL     OW 6397   5.333   0.652   1.096
 1833SOL    HW1 6398   5.394   0.686   1.167
 1833SOL    HW2 6399   5.249   0.617   1.137
 1834SOL     OW 6400   2.206   3.892   0.828
 1834SOL    HW1 6401   2.193   3.836   0.746
 1834SOL    HW2 6402   2.302   3.888   0.856
 1835SOL     OW 6403   0.125   4.626   1.800
 1835SOL    HW1 6404   0.185   4.697   1.763
 1835SOL    HW2 6405   0.079   4.579   1.725
 1836SOL     OW 6406   5.091   2.345   1.555
 1836SOL    HW1 6407   5.042   2.268   1.514
 1836SOL    HW2 6408   5.156   2.381   1.488
 1837SOL     OW 6409   0.623   6.767   5.069
 1837SOL    HW1 6410   0.703   6.734   5.120
 1837SOL    HW2 6411   0.642   6.759   4.971
 1838SOL     OW 6412   6.857   1.491   5.720
 1838SOL    HW1 6413   6.805   1.565   5.763
 1838SOL    HW2 6414   6.808   1.459   5.639
 1839SOL     OW 6415   0.222   1.550   5.259
 1839SOL    HW1 6416   0.311   1.523   5.222
 1839SOL    HW2 6417   0.150   1.500   5.212
 1840SOL     OW 6418   3.886   0.227   1.451
 1840SOL    HW1 6419   3.891   0.266   1.542
 1840SOL    HW2 6420   3.842   0.291   1.389
 1841SOL     OW 6421   2.339   1.374   3.419
 1841SOL    HW1 6422   2.276   1.383   3.342
 1841SOL    HW2 6423   2.338   1.279   3.452
 1842SOL     OW 6424   1.385   5.597   0.345
 1842SOL    HW1 6425   1.287   5.601   0.364
 1842SOL    HW2 6426   1.400   5.582   0.248
 1843SOL     OW 6427   6.480   1.381   4.548
 1843SOL    HW1 6428   6.552   1.314   4.563
 1843SOL    HW2 6429   6.492   1.458   4.611
 1844SOL     OW 6430   3.214   6.572   5.157
 1844SOL    HW1 6431   3.188   6.507   5.086
 1844SOL    HW2 6432   3.171   6.660   5.139
 1845SOL     OW 6433   3.154   6.823   5.023
 1845SOL    HW1 6434   3.074   6.878   5.044
 1845SOL    HW2 6435   3.144   6.781   4.933
 1846SOL     OW 6436   3.566   1.146   2.238
 1846SOL    HW1 6437   3.656   1.122   2.201
 1846SOL    HW2 6438   3.575   1.221   2.303
 1847SOL     OW 6439   1.377   0.545   6.292
 1847SOL    HW1 6440   1.412   0.532   6.199
 1847SOL    HW2 6441   1.345   0.639   6.303
 1848SOL     OW 6442   2.212   6.266   3.353
 1848SOL    HW1 6443   2.149   6.288   3.427
 1848SOL    HW2 6444   2.187   6.318   3.271
 1849SOL     OW 6445   4.161   2.726   1.702
 1849SOL    HW1 6446   4.221   2.656   1.742
 1849SOL    HW2 6447   4.164   2.720   1.603
 1850SOL     OW 6448   7.000   2.534   2.738
 1850SOL    HW1 6449   6.941   2.457   2.714
 1850SOL    HW2 6450   0.067   2.508   2.728
 1851SOL     OW 6451   0.714   3.579   6.859
 1851SOL    HW1 6452   0.740   3.501   6.915
 1851SOL    HW2 6453   0.698   3.658   6.918
 1852SOL     OW 6454   6.561   4.577   2.525
 1852SOL    HW1 6455   6.657   4.570   2.499
 1852SOL    HW2 6456   6.531   4.491   2.565
 1853SOL     OW 6457   0.482   2.341   3.574
 1853SOL    HW1 6458   0.413   2.306   3.510
 1853SOL    HW2 6459   0.564   2.367   3.524
 1854SOL     OW 6460   2.223   5.417   3.028
 1854SOL    HW1 6461   2.295   5.484   3.044
 1854SOL    HW2 6462   2.134   5.462   3.035
 1855SOL     OW 6463   5.398   4.068   5.362
 1855SOL    HW1 6464   5.410   4.142   5.428
 1855SOL    HW2 6465   5.301   4.051   5.348
 1856SOL     OW 6466   5.364   4.105   6.051
 1856SOL    HW1 6467   5.272   4.065   6.052
 1856SOL    HW2 6468   5.373   4.167   6.129
 1857SOL     OW 6469   3.938   2.426   6.836
 1857SOL    HW1 6470   3.853   2.374   6.823
 1857SOL    HW2 6471   3.969   2.416   6.930
 1858SOL     OW 6472   5.501   3.267   3.260
 1858SOL    HW1 6473   5.460   3.236   3.346
 1858SOL    HW2 6474   5.587   3.314   3.280
 1859SOL     OW 6475   4.543   1.947   4.327
 1859SOL    HW1 6476   4.636   1.985   4.326
 1859SOL    HW2 6477   4.517   1.921   4.234
 1860SOL     OW 6478   0.596   0.603   4.857
 1860SOL    HW1 6479   0.531   0.606   4.781
 1860SOL    HW2 6480   0.622   0.508   4.876
 1861SOL     OW 6481   6.409   6.823   2.318
 1861SOL    HW1 6482   6.469   6.886   2.268
 1861SOL    HW2 6483   6.368   6.758   2.254
 1862SOL     OW 6484   2.926   0.453   6.170
 1862SOL    HW1 6485   2.995   0.469   6.242
 1862SOL    HW2 6486   2.970   0.458   6.081
 1863SOL     OW 6487   0.220   2.194   3.441
 1863SOL    HW1 6488   0.210   2.268   3.507
 1863SOL    HW2 6489   0.302   2.209   3.386
 1864SOL     OW 6490   1.917   6.018   4.858
 1864SOL    HW1 6491   1.872   5.934   4.890
 1864SOL    HW2 6492   1.906   6.090   4.927
 1865SOL     OW 6493   4.139   0.183   6.978
 1865SOL    HW1 6494   4.223   0.229   6.947
 1865SOL    HW2 6495   4.062   0.245   6.969
 1866SOL     OW 6496   6.067   4.920   3.682
 1866SOL    HW1 6497   5.979   4.967   3.672
 1866SOL    HW2 6498   6.059   4.850   3.753
 1867SOL     OW 6499   1.090   3.991   0.409
 1867SOL    HW1 6500   1.047   3.906   0.379
 1867SOL    HW2 6501   1.027   4.067   0.395
 1868SOL     OW 6502   4.702   3.799   6.670
 1868SOL    HW1 6503   4.751   3.780   6.585
 1868SOL    HW2 6504   4.753   3.867   6.723
 1869SOL     OW 6505   0.151   3.573   4.674
 1869SOL    HW1 6506   0.160   3.481   4.711
 1869SOL    HW2 6507   0.239   3.606   4.641
 1870SOL     OW 6508   1.429   2.851   5.133
 1870SOL    HW1 6509   1.526   2.860   5.154
 1870SOL    HW2 6510   1.419   2.814   5.041
 1871SOL     OW 6511   0.557   0.653   6.523
 1871SOL    HW1 6512   0.611   0.722   6.571
 1871SOL    HW2 6513   0.577   0.563   6.562
 1872SOL     OW 6514   4.721   1.903   0.045
 1872SOL    HW1 6515   4.668   1.968   7.020
 1872SOL    HW2 6516   4.771   1.842   7.013
 1873SOL     OW 6517   6.556   1.176   5.723
 1873SOL    HW1 6518   6.564   1.243   5.797
 1873SOL    HW2 6519   6.600   1.091   5.749
 1874SOL     OW 6520   2.174   0.809   6.693
 1874SOL    HW1 6521   2.115   0.818   6.613
 1874SOL    HW2 6522   2.246   0.742   6.674
 1875SOL     OW 6523   6.859   1.048   1.163
 1875SOL    HW1 6524   6.830   0.954   1.179
 1875SOL    HW2 6525   6.912   1.081   1.241
 1876SOL     OW 6526   3.697   6.472   5.681
 1876SOL    HW1 6527   3.640   6.495   5.602
 1876SOL    HW2 6528   3.774   6.415   5.651
 1877SOL     OW 6529   0.680   1.317   3.666
 1877SOL    HW1 6530   0.720   1.349   3.580
 1877SOL    HW2 6531   0.638   1.227   3.652
 1878SOL     OW 6532   6.914   2.735   4.408
 1878SOL    HW1 6533   6.853   2.678   4.353
 1878SOL    HW2 6534   6.966   2.795   4.348
 1879SOL     OW 6535   2.008   5.543   3.645
 1879SOL    HW1 6536   1.936   5.526   3.577
 1879SOL    HW2 6537   1.967   5.556   3.735
 1880SOL     OW 6538   0.561   1.562   3.746
 1880SOL    HW1 6539   0.600   1.483   3.699
 1880SOL    HW2 6540   0.507   1.616   3.682
 1881SOL     OW 6541   1.370   2.198   3.218
 1881SOL    HW1 6542   1.372   2.237   3.125
 1881SOL    HW2 6543   1.383   2.271   3.285
 1882SOL     OW 6544   1.105   4.310   6.470
 1882SOL    HW1 6545   1.027   4.330   6.530
 1882SOL    HW2 6546   1.147   4.224   6.497
 1883SOL     OW 6547   0.991   3.245   3.434
 1883SOL    HW1 6548   1.021   3.245   3.530
 1883SOL    HW2 6549   1.024   3.328   3.389
 1884SOL     OW 6550   6.497   2.777   0.421
 1884SOL    HW1 6551   6.562   2.706   0.449
 1884SOL    HW2 6552   6.524   2.865   0.460
 1885SOL     OW 6553   0.067   2.161   6.793
 1885SOL    HW1 6554   0.078   2.226   6.868
 1885SOL    HW2 6555   7.002   2.164   6.759
 1886SOL     OW 6556   2.428   1.148   1.128
 1886SOL    HW1 6557   2.450   1.096   1.046
 1886SOL    HW2 6558   2.468   1.240   1.121
 1887SOL     OW 6559   0.498   5.628   6.574
 1887SOL    HW1 6560   0.456   5.562   6.512
 1887SOL    HW2 6561   0.563   5.685   6.523
 1888SOL     OW 6562   2.982   2.205   6.660
 1888SOL    HW1 6563   2.978   2.107   6.680
 1888SOL    HW2 6564   2.907   2.252   6.707
 1889SOL     OW 6565   5.406   2.701   6.320
 1889SOL    HW1 6566   5.355   2.740   6.244
 1889SOL    HW2 6567   5.347   2.698   6.401
 1890SOL     OW 6568   1.750   5.818   5.541
 1890SOL    HW1 6569   1.693   5.899   5.525
 1890SOL    HW2 6570   1.843   5.847   5.564
 1891SOL     OW 6571   5.535   2.945   4.045
 1891SOL    HW1 6572   5.560   2.869   3.986
 1891SOL    HW2 6573   5.502   3.021   3.990
 1892SOL     OW 6574   3.774   0.677   0.766
 1892SOL    HW1 6575   3.747   0.607   0.700
 1892SOL    HW2 6576   3.873   0.693   0.759
 1893SOL     OW 6577   3.135   2.050   6.195
 1893SOL    HW1 6578   3.036   2.035   6.195
 1893SOL    HW2 6579   3.171   2.032   6.286
 1894SOL     OW 6580   3.645   3.643   2.991
 1894SOL    HW1 6581   3.707   3.689   2.927
 1894SOL    HW2 6582   3.677   3.549   3.006
 1895SOL     OW 6583   5.535   0.936   2.524
 1895SOL    HW1 6584   5.482   1.021   2.534
 1895SOL    HW2 6585   5.633   0.957   2.528
 1896SOL     OW 6586   0.642   0.869   2.756
 1896SOL    HW1 6587   0.604   0.787   2.799
 1896SOL    HW2 6588   0.737   0.851   2.730
 1897SOL     OW 6589   0.709   4.959   2.442
 1897SOL    HW1 6590   0.751   4.936   2.354
 1897SOL    HW2 6591   0.775   4.944   2.515
 1898SOL     OW 6592   3.399   4.903   2.391
 1898SOL    HW1 6593   3.434   4.883   2.483
 1898SOL    HW2 6594   3.323   4.843   2.370
 1899SOL     OW 6595   0.563   2.064   2.625
 1899SOL    HW1 6596   0.531   2.103   2.711
 1899SOL    HW2 6597   0.654   2.100   2.603
 1900SOL     OW 6598   1.265   0.332   5.718
 1900SOL    HW1 6599   1.265   0.232   5.711
 1900SOL    HW2 6600   1.359   0.365   5.717
 1901SOL     OW 6601   1.829   1.248   1.605
 1901SOL    HW1 6602   1.857   1.250   1.509
 1901SOL    HW2 6603   1.774   1.166   1.621
 1902SOL     OW 6604   2.222   2.366   4.945
 1902SOL    HW1 6605   2.165   2.399   5.020
 1902SOL    HW2 6606   2.261   2.278   4.970
 1903SOL     OW 6607   6.362   2.980   3.459
 1903SOL    HW1 6608   6.354   2.886   3.427
 1903SOL    HW2 6609   6.292   2.998   3.527
 1904SOL     OW 6610   5.863   6.641   4.600
 1904SOL    HW1 6611   5.910   6.560   4.565
 1904SOL    HW2 6612   5.769   6.643   4.565
 1905SOL     OW 6613   1.934   0.807   4.008
 1905SOL    HW1 6614   1.893   0.716   4.003
 1905SOL    HW2 6615   1.933   0.848   3.917
 1906SOL     OW 6616   2.657   0.018   5.392
 1906SOL    HW1 6617   2.675   0.096   5.332
 1906SOL    HW2 6618   2.723   0.018   5.466
 1907SOL     OW 6619   3.412   6.971   2.948
 1907SOL    HW1 6620   3.445   6.877   2.943
 1907SOL    HW2 6621   3.348   6.988   2.874
 1908SOL     OW 6622   4.088   0.698   4.647
 1908SOL    HW1 6623   4.096   0.603   4.614
 1908SOL    HW2 6624   4.107   0.761   4.572
 1909SOL     OW 6625   1.086   4.106   2.697
 1909SOL    HW1 6626   1.184   4.114   2.718
 1909SOL    HW2 6627   1.070   4.024   2.643
 1910SOL     OW 6628   0.322   2.899   6.509
 1910SOL    HW1 6629   0.328   2.867   6.414
 1910SOL    HW2 6630   0.229   2.885   6.543
 1911SOL     OW 6631   5.532   3.634   5.032
 1911SOL    HW1 6632   5.617   3.635   4.980
 1911SOL    HW2 6633   5.527   3.715   5.090
 1912SOL     OW 6634   2.797   0.217   1.150
 1912SOL    HW1 6635   2.719   0.157   1.140
 1912SOL    HW2 6636   2.869   0.190   1.086
 1913SOL     OW 6637   1.088   5.631   5.316
 1913SOL    HW1 6638   1.083   5.660   5.220
 1913SOL    HW2 6639   0.999   5.640   5.359
 1914SOL     OW 6640   3.569   2.885   6.513
 1914SOL    HW1 6641   3.485   2.846   6.550
 1914SOL    HW2 6642   3.613   2.818   6.453
 1915SOL     OW 6643   3.650   1.986   5.517
 1915SOL    HW1 6644   3.595   2.068   5.529
 1915SOL    HW2 6645   3.649   1.958   5.421
 1916SOL     OW 6646   3.356   5.499   1.183
 1916SOL    HW1 6647   3.433   5.524   1.124
 1916SOL    HW2 6648   3.386   5.434   1.252
 1917SOL     OW 6649   3.036   3.246   4.636
 1917SOL    HW1 6650   3.042   3.194   4.551
 1917SOL    HW2 6651   3.077   3.193   4.711
 1918SOL     OW 6652   0.895   1.557   6.588
 1918SOL    HW1 6653   0.920   1.462   6.605
 1918SOL    HW2 6654   0.799   1.563   6.562
 1919SOL     OW 6655   2.589   0.531   1.094
 1919SOL    HW1 6656   2.568   0.439   1.128
 1919SOL    HW2 6657   2.584   0.596   1.170
 1920SOL     OW 6658   1.631   4.724   2.576
 1920SOL    HW1 6659   1.693   4.799   2.554
 1920SOL    HW2 6660   1.538   4.749   2.547
 1921SOL     OW 6661   1.499   4.941   0.342
 1921SOL    HW1 6662   1.513   4.881   0.263
 1921SOL    HW2 6663   1.482   5.034   0.311
 1922SOL     OW 6664   2.852   3.923   0.626
 1922SOL    HW1 6665   2.843   3.896   0.722
 1922SOL    HW2 6666   2.763   3.916   0.581
 1923SOL     OW 6667   3.336   0.724   5.715
 1923SOL    HW1 6668   3.280   0.648   5.747
 1923SOL    HW2 6669   3.301   0.810   5.752
 1924SOL     OW 6670   4.908   5.158   1.852
 1924SOL    HW1 6671   4.856   5.119   1.776
 1924SOL    HW2 6672   4.946   5.085   1.908
 1925SOL     OW 6673   1.580   4.147   0.351
 1925SOL    HW1 6674   1.624   4.094   0.278
 1925SOL    HW2 6675   1.646   4.167   0.423
 1926SOL     OW 6676   1.751   6.564   2.985
 1926SOL    HW1 6677   1.839   6.594   2.947
 1926SOL    HW2 6678   1.765   6.524   3.076
 1927SOL     OW 6679   3.356   4.251   6.206
 1927SOL    HW1 6680   3.260   4.248   6.232
 1927SOL    HW2 6681   3.364   4.269   6.108
 1928SOL     OW 6682   6.422   4.611   5.942
 1928SOL    HW1 6683   6.474   4.561   5.873
 1928SOL    HW2 6684   6.358   4.674   5.897
 1929SOL     OW 6685   1.235   5.248   1.557
 1929SOL    HW1 6686   1.171   5.251   1.633
 1929SOL    HW2 6687   1.223   5.162   1.507
 1930SOL     OW 6688   3.656   4.071   6.749
 1930SOL    HW1 6689   3.593   4.098   6.677
 1930SOL    HW2 6690   3.618   3.994   6.800
 1931SOL     OW 6691   0.540   3.094   2.357
 1931SOL    HW1 6692   0.599   3.153   2.412
 1931SOL    HW2 6693   0.568   3.099   2.261
 1932SOL     OW 6694   5.018   3.437   3.654
 1932SOL    HW1 6695   4.993   3.479   3.742
 1932SOL    HW2 6696   4.954   3.363   3.633
 1933SOL     OW 6697   2.395   4.561   0.559
 1933SOL    HW1 6698   2.455   4.504   0.502
 1933SOL    HW2 6699   2.440   4.580   0.646
 1934SOL     OW 6700   0.684   0.445   5.113
 1934SOL    HW1 6701   0.701   0.524   5.171
 1934SOL    HW2 6702   0.771   0.410   5.078
 1935SOL     OW 6703   3.818   6.579   4.195
 1935SOL    HW1 6704   3.770   6.667   4.195
 1935SOL    HW2 6705   3.774   6.517   4.130
 1936SOL     OW 6706   6.386   3.285   3.979
 1936SOL    HW1 6707   6.416   3.310   3.887
 1936SOL    HW2 6708   6.378   3.367   4.035
 1937SOL     OW 6709   4.069   0.412   0.852
 1937SOL    HW1 6710   4.025   0.374   0.934
 1937SOL    HW2 6711   4.113   0.499   0.875
 1938SOL     OW 6712   2.175   1.416   1.408
 1938SOL    HW1 6713   2.212   1.347   1.471
 1938SOL    HW2 6714   2.227   1.415   1.323
 1939SOL     OW 6715   6.696   0.806   4.810
 1939SOL    HW1 6716   6.609   0.844   4.842
 1939SOL    HW2 6717   6.745   0.875   4.757
 1940SOL     OW 6718   5.147   4.854   0.605
 1940SOL    HW1 6719   5.079   4.844   0.532
 1940SOL    HW2 6720   5.103   4.841   0.694
 1941SOL     OW 6721   0.308   4.331   3.728
 1941SOL    HW1 6722   0.282   4.329   3.825
 1941SOL    HW2 6723   0.268   4.412   3.685
 1942SOL     OW 6724   5.659   0.566   1.231
 1942SOL    HW1 6725   5.572   0.583   1.279
 1942SOL    HW2 6726   5.703   0.654   1.210
 1943SOL     OW 6727   3.115   6.180   2.530
 1943SOL    HW1 6728   3.116   6.086   2.563
 1943SOL    HW2 6729   3.206   6.221   2.541
 1944SOL     OW 6730   6.194   2.310   0.276
 1944SOL    HW1 6731   6.195   2.212   0.297
 1944SOL    HW2 6732   6.288   2.343   0.266
 1945SOL     OW 6733   3.407   5.720   1.393
 1945SOL    HW1 6734   3.354   5.664   1.457
 1945SOL    HW2 6735   3.357   5.804   1.374
 1946SOL     OW 6736   6.212   6.970   1.558
 1946SOL    HW1 6737   6.236   6.997   1.465
 1946SOL    HW2 6738   6.231   6.873   1.570
 1947SOL     OW 6739   5.334   6.588   4.726
 1947SOL    HW1 6740   5.336   6.682   4.761
 1947SOL    HW2 6741   5.281   6.585   4.641
 1948SOL     OW 6742   5.421   5.272   3.808
 1948SOL    HW1 6743   5.353   5.251   3.738
 1948SOL    HW2 6744   5.511   5.280   3.766
 1949SOL     OW 6745   3.199   4.515   6.467
 1949SOL    HW1 6746   3.204   4.612   6.444
 1949SOL    HW2 6747   3.269   4.465   6.418
 1950SOL     OW 6748   4.059   4.533   6.968
 1950SOL    HW1 6749   4.067   4.459   6.901
 1950SOL    HW2 6750   4.012   4.611   6.926
 1951SOL     OW 6751   6.066   3.289   6.794
 1951SOL    HW1 6752   6.011   3.245   6.865
 1951SOL    HW2 6753   6.084   3.384   6.819
 1952SOL     OW 6754   4.990   2.725   0.486
 1952SOL    HW1 6755   4.992   2.711   0.387
 1952SOL    HW2 6756   5.040   2.651   0.532
 1953SOL     OW 6757   6.313   1.226   6.163
 1953SOL    HW1 6758   6.328   1.131   6.133
 1953SOL    HW2 6759   6.217   1.250   6.150
 1954SOL     OW 6760   5.562   0.904   3.423
 1954SOL    HW1 6761   5.573   0.806   3.441
 1954SOL    HW2 6762   5.507   0.917   3.341
 1955SOL     OW 6763   0.680   1.984   3.079
 1955SOL    HW1 6764   0.708   2.053   3.012
 1955SOL    HW2 6765   0.586   1.957   3.061
 1956SOL     OW 6766   5.034   6.733   2.805
 1956SOL    HW1 6767   4.984   6.669   2.863
 1956SOL    HW2 6768   4.984   6.819   2.799
 1957SOL     OW 6769   5.891   4.889   4.163
 1957SOL    HW1 6770   5.931   4.918   4.076
 1957SOL    HW2 6771   5.843   4.802   4.150
 1958SOL     OW 6772   4.938   2.248   2.627
 1958SOL    HW1 6773   4.843   2.245   2.660
 1958SOL    HW2 6774   4.974   2.341   2.638
 1959SOL     OW 6775   0.795   0.880   5.223
 1959SOL    HW1 6776   0.830   0.940   5.295
 1959SOL    HW2 6777   0.759   0.796   5.264
 1960SOL     OW 6778   6.641   4.846   2.298
 1960SOL    HW1 6779   6.651   4.747   2.289
 1960SOL    HW2 6780   6.690   4.877   2.379
 1961SOL     OW 6781   5.946   4.223   4.108
 1961SOL    HW1 6782   6.015   4.160   4.143
 1961SOL    HW2 6783   5.864   4.172   4.082
 1962SOL     OW 6784   1.602   6.224   3.882
 1962SOL    HW1 6785   1.565   6.243   3.973
 1962SOL    HW2 6786   1.600   6.126   3.865
 1963SOL     OW 6787   0.800   1.775   1.245
 1963SOL    HW1 6788   0.821   1.793   1.341
 1963SOL    HW2 6789   0.780   1.678   1.232
 1964SOL     OW 6790   4.571   4.524   0.563
 1964SOL    HW1 6791   4.484   4.549   0.604
 1964SOL    HW2 6792   4.592   4.429   0.583
 1965SOL     OW 6793   1.389   3.007   4.825
 1965SOL    HW1 6794   1.443   2.929   4.855
 1965SOL    HW2 6795   1.291   2.985   4.835
 1966SOL     OW 6796   6.905   6.524   0.839
 1966SOL    HW1 6797   6.898   6.509   0.740
 1966SOL    HW2 6798   6.982   6.473   0.875
 1967SOL     OW 6799   5.138   2.186   5.655
 1967SOL    HW1 6800   5.112   2.223   5.744
 1967SOL    HW2 6801   5.096   2.241   5.583
 1968SOL     OW 6802   2.231   0.003   6.416
 1968SOL    HW1 6803   2.186   0.041   6.335
 1968SOL    HW2 6804   2.168   0.006   6.493
 1969SOL     OW 6805   0.557   1.661   1.810
 1969SOL    HW1 6806   0.547   1.715   1.893
 1969SOL    HW2 6807   0.513   1.572   1.823
 1970SOL     OW 6808   2.774   6.395   6.145
 1970SOL    HW1 6809   2.831   6.444   6.211
 1970SOL    HW2 6810   2.833   6.352   6.076
 1971SOL     OW 6811   0.351   0.432   5.554
 1971SOL    HW1 6812   0.268   0.399   5.510
 1971SOL    HW2 6813   0.370   0.378   5.636
 1972SOL     OW 6814   5.378   2.211   2.117
 1972SOL    HW1 6815   5.381   2.280   2.044
 1972SOL    HW2 6816   5.299   2.152   2.104
 1973SOL     OW 6817   3.284   2.225   6.864
 1973SOL    HW1 6818   3.225   2.282   6.922
 1973SOL    HW2 6819   3.227   2.169   6.803
 1974SOL     OW 6820   5.963   6.906   4.901
 1974SOL    HW1 6821   5.940   6.815   4.866
 1974SOL    HW2 6822   6.005   6.959   4.827
 1975SOL     OW 6823   2.236   1.491   3.654
 1975SOL    HW1 6824   2.303   1.444   3.598
 1975SOL    HW2 6825   2.257   1.589   3.656
 1976SOL     OW 6826   0.436   6.603   0.398
 1976SOL    HW1 6827   0.386   6.670   0.343
 1976SOL    HW2 6828   0.377   6.572   0.473
 1977SOL     OW 6829   0.897   2.895   4.912
 1977SOL    HW1 6830   0.821   2.846   4.954
 1977SOL    HW2 6831   0.868   2.929   4.822
 1978SOL     OW 6832   2.034   6.586   2.937
 1978SOL    HW1 6833   2.070   6.680   2.931
 1978SOL    HW2 6834   2.070   6.532   2.861
 1979SOL     OW 6835   6.438   4.556   6.227
 1979SOL    HW1 6836   6.478   4.541   6.137
 1979SOL    HW2 6837   6.400   4.648   6.232
 1980SOL     OW 6838   3.047   0.201   4.706
 1980SOL    HW1 6839   3.136   0.179   4.668
 1980SOL    HW2 6840   2.977   0.142   4.667
 1981SOL     OW 6841   6.765   1.868   2.508
 1981SOL    HW1 6842   6.772   1.834   2.602
 1981SOL    HW2 6843   6.790   1.796   2.444
 1982SOL     OW 6844   0.048   4.229   4.993
 1982SOL    HW1 6845   0.021   4.319   4.958
 1982SOL    HW2 6846   6.998   4.168   4.992
 1983SOL     OW 6847   1.093   0.920   2.443
 1983SOL    HW1 6848   1.048   0.907   2.355
 1983SOL    HW2 6849   1.144   1.006   2.443
 1984SOL     OW 6850   5.663   1.697   5.163
 1984SOL    HW1 6851   5.622   1.674   5.251
 1984SOL    HW2 6852   5.592   1.733   5.102
 1985SOL     OW 6853   1.302   6.266   2.109
 1985SOL    HW1 6854   1.394   6.228   2.118
 1985SOL    HW2 6855   1.247   6.240   2.188
 1986SOL     OW 6856   2.021   1.766   6.799
 1986SOL    HW1 6857   2.109   1.720   6.791
 1986SOL    HW2 6858   2.010   1.830   6.724
 1987SOL     OW 6859   1.726   2.441   2.455
 1987SOL    HW1 6860   1.639   2.482   2.427
 1987SOL    HW2 6861   1.802   2.491   2.413
 1988SOL     OW 6862   6.168   4.167   1.083
 1988SOL    HW1 6863   6.168   4.266   1.065
 1988SOL    HW2 6864   6.126   4.149   1.172
 1989SOL     OW 6865   2.162   5.480   5.264
 1989SOL    HW1 6866   2.120   5.464   5.353
 1989SOL    HW2 6867   2.127   5.414   5.197
 1990SOL     OW 6868   3.679   6.249   0.447
 1990SOL    HW1 6869   3.741   6.298   0.508
 1990SOL    HW2 6870   3.592   6.234   0.494
 1991SOL     OW 6871   3.319   5.218   6.796
 1991SOL    HW1 6872   3.373   5.285   6.848
 1991SOL    HW2 6873   3.250   5.177   6.856
 1992SOL     OW 6874   0.829   0.557   0.132
 1992SOL    HW1 6875   0.775   0.528   0.211
 1992SOL    HW2 6876   0.919   0.588   0.163
 1993SOL     OW 6877   3.651   2.804   5.404
 1993SOL    HW1 6878   3.669   2.798   5.306
 1993SOL    HW2 6879   3.604   2.890   5.425
 1994SOL     OW 6880   0.519   1.354   0.709
 1994SOL    HW1 6881   0.564   1.307   0.633
 1994SOL    HW2 6882   0.588   1.394   0.769
 1995SOL     OW 6883   5.279   2.273   3.645
 1995SOL    HW1 6884   5.362   2.316   3.608
 1995SOL    HW2 6885   5.241   2.210   3.577
 1996SOL     OW 6886   1.838   3.800   0.966
 1996SOL    HW1 6887   1.807   3.886   0.926
 1996SOL    HW2 6888   1.795   3.723   0.918
 1997SOL     OW 6889   3.345   1.460   4.373
 1997SOL    HW1 6890   3.434   1.423   4.399
 1997SOL    HW2 6891   3.284   1.456   4.452
 1998SOL     OW 6892   2.015   4.242   6.471
 1998SOL    HW1 6893   1.950   4.168   6.453
 1998SOL    HW2 6894   2.008   4.268   6.568
 1999SOL     OW 6895   2.564   6.694   6.790
 1999SOL    HW1 6896   2.535   6.757   6.718
 1999SOL    HW2 6897   2.488   6.681   6.854
 2000SOL     OW 6898   4.274   2.349   5.458
 2000SOL    HW1 6899   4.282   2.303   5.547
 2000SOL    HW2 6900   4.257   2.446   5.473
 2001SOL     OW 6901   3.441   0.614   1.691
 2001SOL    HW1 6902   3.367   0.555   1.661
 2001SOL    HW2 6903   3.456   0.686   1.623
 2002SOL     OW 6904   0.388   4.713   6.803
 2002SOL    HW1 6905   0.367   4.716   6.705
 2002SOL    HW2 6906   0.475   4.665   6.817
 2003SOL     OW 6907   6.040   5.806   2.569
 2003SOL    HW1 6908   6.128   5.763   2.590
 2003SOL    HW2 6909   6.043   5.902   2.597
 2004SOL     OW 6910   5.337   1.293   5.545
 2004SOL    HW1 6911   5.433   1.282   5.518
 2004SOL    HW2 6912   5.279   1.295   5.464
 2005SOL     OW 6913   0.326   5.125   0.472
 2005SOL    HW1 6914   0.379   5.210   0.475
 2005SOL    HW2 6915   0.229   5.148   0.481
 2006SOL     OW 6916   5.122   6.523   3.935
 2006SOL    HW1 6917   5.053   6.544   3.867
 2006SOL    HW2 6918   5.108   6.579   4.016
 2007SOL     OW 6919   5.136   4.620   0.957
 2007SOL    HW1 6920   5.105   4.542   1.011
 2007SOL    HW2 6921   5.236   4.625   0.959
 2008SOL     OW 6922   2.992   5.039   3.875
 2008SOL    HW1 6923   2.973   5.133   3.849
 2008SOL    HW2 6924   2.968   5.025   3.971
 2009SOL     OW 6925   5.858   1.074   2.061
 2009SOL    HW1 6926   5.825   0.991   2.106
 2009SOL    HW2 6927   5.780   1.132   2.038
 2010SOL     OW 6928   2.017   1.952   0.982
 2010SOL    HW1 6929   2.079   1.917   0.912
 2010SOL    HW2 6930   1.925   1.915   0.967
 2011SOL     OW 6931   6.942   6.009   4.826
 2011SOL    HW1 6932   0.004   6.000   4.786
 2011SOL    HW2 6933   6.944   6.077   4.899
 2012SOL     OW 6934   1.499   3.929   2.337
 2012SOL    HW1 6935   1.556   3.958   2.260
 2012SOL    HW2 6936   1.535   3.968   2.422
 2013SOL     OW 6937   6.128   2.332   3.097
 2013SOL    HW1 6938   6.056   2.346   3.030
 2013SOL    HW2 6939   6.138   2.414   3.154
 2014SOL     OW 6940   2.501   5.268   3.648
 2014SOL    HW1 6941   2.570   5.294   3.580
 2014SOL    HW2 6942   2.424   5.332   3.643
 2015SOL     OW 6943   1.878   0.702   6.750
 2015SOL    HW1 6944   1.794   0.722   6.700
 2015SOL    HW2 6945   1.892   0.771   6.821
 2016SOL     OW 6946   1.437   6.167   5.764
 2016SOL    HW1 6947   1.357   6.119   5.799
 2016SOL    HW2 6948   1.415   6.207   5.675
 2017SOL     OW 6949   3.372   6.883   4.724
 2017SOL    HW1 6950   3.410   6.799   4.685
 2017SOL    HW2 6951   3.415   6.962   4.680
 2018SOL     OW 6952   5.605   0.766   5.941
 2018SOL    HW1 6953   5.566   0.842   5.993
 2018SOL    HW2 6954   5.533   0.716   5.893
 2019SOL     OW 6955   5.222   3.023   6.453
 2019SOL    HW1 6956   5.151   3.072   6.503
 2019SOL    HW2 6957   5.219   2.926   6.477
 2020SOL     OW 6958   1.790   6.480   5.633
 2020SOL    HW1 6959   1.816   6.505   5.726
 2020SOL    HW2 6960   1.807   6.382   5.619
 2021SOL     OW 6961   0.735   5.820   4.501
 2021SOL    HW1 6962   0.647   5.862   4.479
 2021SOL    HW2 6963   0.721   5.724   4.524
 2022SOL     OW 6964   1.750   3.452   3.245
 2022SOL    HW1 6965   1.752   3.541   3.200
 2022SOL    HW2 6966   1.821   3.448   3.315
 2023SOL     OW 6967   6.477   1.001   6.648
 2023SOL    HW1 6968   6.544   1.063   6.608
 2023SOL    HW2 6969   6.485   1.004   6.748
 2024SOL     OW 6970   0.404   6.701   3.613
 2024SOL    HW1 6971   0.368   6.790   3.588
 2024SOL    HW2 6972   0.400   6.640   3.534
 2025SOL     OW 6973   2.844   1.699   2.832
 2025SOL    HW1 6974   2.782   1.751   2.773
 2025SOL    HW2 6975   2.907   1.761   2.878
 2026SOL     OW 6976   6.989   2.886   5.793
 2026SOL    HW1 6977   0.026   2.839   5.734
 2026SOL    HW2 6978   6.994   2.984   5.778
 2027SOL     OW 6979   0.955   6.974   0.185
 2027SOL    HW1 6980   0.923   6.909   0.253
 2027SOL    HW2 6981   0.953   0.038   0.223
 2028SOL     OW 6982   3.084   6.383   5.015
 2028SOL    HW1 6983   3.142   6.403   4.935
 2028SOL    HW2 6984   3.066   6.285   5.019
 2029SOL     OW 6985   6.762   1.005   0.905
 2029SOL    HW1 6986   6.835   1.039   0.965
 2029SOL    HW2 6987   6.779   0.909   0.883
 2030SOL     OW 6988   2.504   0.936   3.063
 2030SOL    HW1 6989   2.531   1.032   3.054
 2030SOL    HW2 6990   2.529   0.887   2.979
 2031SOL     OW 6991   6.240   5.707   1.111
 2031SOL    HW1 6992   6.339   5.713   1.101
 2031SOL    HW2 6993   6.218   5.649   1.189
 2032SOL     OW 6994   4.593   0.331   2.159
 2032SOL    HW1 6995   4.664   0.357   2.225
 2032SOL    HW2 6996   4.553   0.244   2.186
 2033SOL     OW 6997   3.112   4.003   6.101
 2033SOL    HW1 6998   3.057   3.955   6.170
 2033SOL    HW2 6999   3.149   3.937   6.036
 2034SOL     OW 7000   2.611   5.483   5.537
 2034SOL    HW1 7001   2.559   5.471   5.452
 2034SOL    HW2 7002   2.646   5.394   5.566
 2035SOL     OW 7003   6.932   6.872   3.495
 2035SOL    HW1 7004   6.949   6.860   3.593
 2035SOL    HW2 7005   6.979   6.954   3.463
 2036SOL     OW 7006   1.353   4.103   2.734
 2036SOL    HW1 7007   1.435   4.069   2.779
 2036SOL    HW2 7008   1.379   4.151   2.650
 2037SOL     OW 7009   6.637   3.025   5.609
 2037SOL    HW1 7010   6.629   3.032   5.510
 2037SOL    HW2 7011   6.672   2.935   5.634
 2038SOL     OW 7012   1.632   2.794   0.159
 2038SOL    HW1 7013   1.725   2.769   0.186
 2038SOL    HW2 7014   1.625   2.893   0.154
 2039SOL     OW 7015   0.050   5.086   3.817
 2039SOL    HW1 7016   0.055   5.145   3.898
 2039SOL    HW2 7017   0.125   5.020   3.818
 2040SOL     OW 7018   3.373   3.148   5.694
 2040SOL    HW1 7019   3.420   3.127   5.780
 2040SOL    HW2 7020   3.277   3.122   5.702
 2041SOL     OW 7021   0.911   6.243   5.947
 2041SOL    HW1 7022   0.814   6.224   5.933
 2041SOL    HW2 7023   0.939   6.208   6.036
 2042SOL     OW 7024   4.874   6.132   0.173
 2042SOL    HW1 7025   4.811   6.142   0.250
 2042SOL    HW2 7026   4.821   6.118   0.089
 2043SOL     OW 7027   6.684   3.459   3.294
 2043SOL    HW1 7028   6.591   3.424   3.301
 2043SOL    HW2 7029   6.687   3.536   3.231
 2044SOL     OW 7030   6.437   6.651   1.905
 2044SOL    HW1 7031   6.389   6.635   1.991
 2044SOL    HW2 7032   6.525   6.603   1.906
 2045SOL     OW 7033   1.850   5.255   3.817
 2045SOL    HW1 7034   1.863   5.206   3.731
 2045SOL    HW2 7035   1.939   5.287   3.850
 2046SOL     OW 7036   6.721   2.111   3.670
 2046SOL    HW1 7037   6.808   2.063   3.680
 2046SOL    HW2 7038   6.655   2.074   3.735
 2047SOL     OW 7039   6.922   2.777   6.775
 2047SOL    HW1 7040   7.012   2.774   6.817
 2047SOL    HW2 7041   6.901   2.689   6.733
 2048SOL     OW 7042   1.703   6.237   6.319
 2048SOL    HW1 7043   1.636   6.237   6.245
 2048SOL    HW2 7044   1.754   6.151   6.318
 2049SOL     OW 7045   6.347   1.787   4.792
 2049SOL    HW1 7046   6.445   1.806   4.799
 2049SOL    HW2 7047   6.309   1.836   4.713
 2050SOL     OW 7048   6.617   2.001   3.911
 2050SOL    HW1 7049   6.546   2.054   3.956
 2050SOL    HW2 7050   6.707   2.043   3.927
 2051SOL     OW 7051   1.077   5.643   0.041
 2051SOL    HW1 7052   1.141   5.568   0.028
 2051SOL    HW2 7053   0.999   5.631   7.007
 2052SOL     OW 7054   1.402   3.583   1.266
 2052SOL    HW1 7055   1.478   3.642   1.240
 2052SOL    HW2 7056   1.412   3.495   1.220
 2053SOL     OW 7057   6.232   6.421   4.270
 2053SOL    HW1 7058   6.273   6.500   4.316
 2053SOL    HW2 7059   6.210   6.445   4.175
 2054SOL     OW 7060   3.335   4.021   3.090
 2054SOL    HW1 7061   3.315   4.054   3.183
 2054SOL    HW2 7062   3.399   3.944   3.095
 2055SOL     OW 7063   6.159   3.557   3.899
 2055SOL    HW1 7064   6.106   3.635   3.865
 2055SOL    HW2 7065   6.231   3.590   3.960
 2056SOL     OW 7066   4.009   5.814   2.492
 2056SOL    HW1 7067   3.914   5.788   2.473
 2056SOL    HW2 7068   4.011   5.879   2.568
 2057SOL     OW 7069   5.261   4.416   5.730
 2057SOL    HW1 7070   5.170   4.425   5.768
 2057SOL    HW2 7071   5.328   4.405   5.804
 2058SOL     OW 7072   0.449   1.190   3.408
 2058SOL    HW1 7073   0.458   1.107   3.353
 2058SOL    HW2 7074   0.518   1.256   3.381
 2059SOL     OW 7075   1.768   5.927   6.848
 2059SOL    HW1 7076   1.827   5.999   6.810
 2059SOL    HW2 7077   1.765   5.850   6.784
 2060SOL     OW 7078   0.425   4.744   1.798
 2060SOL    HW1 7079   0.365   4.671   1.766
 2060SOL    HW2 7080   0.381   4.833   1.784
 2061SOL     OW 7081   1.127   1.974   2.900
 2061SOL    HW1 7082   1.098   1.973   2.805
 2061SOL    HW2 7083   1.059   2.024   2.955
 2062SOL     OW 7084   6.297   5.799   4.485
 2062SOL    HW1 7085   6.270   5.895   4.493
 2062SOL    HW2 7086   6.277   5.766   4.392
 2063SOL     OW 7087   1.815   6.724   6.322
 2063SOL    HW1 7088   1.868   6.772   6.252
 2063SOL    HW2 7089   1.720   6.753   6.318
 2064SOL     OW 7090   0.674   2.501   5.553
 2064SOL    HW1 7091   0.701   2.520   5.647
 2064SOL    HW2 7092   0.751   2.516   5.491
 2065SOL     OW 7093   6.284   2.620   5.383
 2065SOL    HW1 7094   6.377   2.652   5.397
 2065SOL    HW2 7095   6.227   2.647   5.461
 2066SOL     OW 7096   0.586   4.543   4.528
 2066SOL    HW1 7097   0.540   4.591   4.602
 2066SOL    HW2 7098   0.623   4.457   4.562
 2067SOL     OW 7099   6.325   5.493   1.314
 2067SOL    HW1 7100   6.300   5.396   1.324
 2067SOL    HW2 7101   6.373   5.523   1.397
 2068SOL     OW 7102   2.438   0.124   4.500
 2068SOL    HW1 7103   2.395   0.122   4.590
 2068SOL    HW2 7104   2.377   0.085   4.432
 2069SOL     OW 7105   6.923   1.960   3.776
 2069SOL    HW1 7106   6.930   2.036   3.840
 2069SOL    HW2 7107   6.992   1.972   3.704
 2070SOL     OW 7108   0.808   1.158   1.492
 2070SOL    HW1 7109   0.866   1.089   1.536
 2070SOL    HW2 7110   0.771   1.219   1.562
 2071SOL     OW 7111   6.453   0.455   6.124
 2071SOL    HW1 7112   6.470   0.376   6.183
 2071SOL    HW2 7113   6.533   0.472   6.066
 2072SOL     OW 7114   4.711   5.766   4.267
 2072SOL    HW1 7115   4.655   5.773   4.184
 2072SOL    HW2 7116   4.776   5.690   4.257
 2073SOL     OW 7117   4.596   0.108   5.106
 2073SOL    HW1 7118   4.655   0.078   5.181
 2073SOL    HW2 7119   4.509   0.060   5.112
 2074SOL     OW 7120   1.931   2.697   6.526
 2074SOL    HW1 7121   1.878   2.637   6.585
 2074SOL    HW2 7122   1.923   2.791   6.558
 2075SOL     OW 7123   6.968   2.676   3.000
 2075SOL    HW1 7124   6.927   2.638   2.918
 2075SOL    HW2 7125   6.986   2.602   3.066
 2076SOL     OW 7126   5.972   0.165   6.415
 2076SOL    HW1 7127   5.988   0.072   6.380
 2076SOL    HW2 7128   5.986   0.231   6.342
 2077SOL     OW 7129   5.762   1.991   3.363
 2077SOL    HW1 7130   5.851   2.030   3.386
 2077SOL    HW2 7131   5.714   1.966   3.447
 2078SOL     OW 7132   1.199   5.740   5.727
 2078SOL    HW1 7133   1.116   5.685   5.718
 2078SOL    HW2 7134   1.279   5.679   5.727
 2079SOL     OW 7135   5.700   1.807   3.164
 2079SOL    HW1 7136   5.733   1.858   3.243
 2079SOL    HW2 7137   5.623   1.748   3.191
 2080SOL     OW 7138   1.588   0.076   5.223
 2080SOL    HW1 7139   1.618   0.128   5.302
 2080SOL    HW2 7140   1.581   7.008   5.247
 2081SOL     OW 7141   1.320   5.903   4.923
 2081SOL    HW1 7142   1.275   5.989   4.900
 2081SOL    HW2 7143   1.334   5.850   4.839
 2082SOL     OW 7144   0.715   6.723   3.219
 2082SOL    HW1 7145   0.797   6.668   3.231
 2082SOL    HW2 7146   0.740   6.811   3.178
 2083SOL     OW 7147   0.108   4.880   5.818
 2083SOL    HW1 7148   0.081   4.890   5.913
 2083SOL    HW2 7149   0.171   4.954   5.793
 2084SOL     OW 7150   0.322   4.623   3.815
 2084SOL    HW1 7151   0.396   4.683   3.845
 2084SOL    HW2 7152   0.344   4.529   3.839
 2085SOL     OW 7153   4.713   0.801   0.263
 2085SOL    HW1 7154   4.616   0.778   0.251
 2085SOL    HW2 7155   4.768   0.718   0.254
 2086SOL     OW 7156   3.641   6.580   6.117
 2086SOL    HW1 7157   3.697   6.641   6.172
 2086SOL    HW2 7158   3.699   6.515   6.068
 2087SOL     OW 7159   4.810   0.664   1.295
 2087SOL    HW1 7160   4.798   0.709   1.383
 2087SOL    HW2 7161   4.787   0.727   1.221
 2088SOL     OW 7162   1.447   5.560   0.049
 2088SOL    HW1 7163   1.520   5.564   7.009
 2088SOL    HW2 7164   1.362   5.530   0.005
 2089SOL     OW 7165   5.359   3.172   6.074
 2089SOL    HW1 7166   5.333   3.134   5.985
 2089SOL    HW2 7167   5.456   3.200   6.071
 2090SOL     OW 7168   4.503   3.952   5.941
 2090SOL    HW1 7169   4.481   3.923   5.848
 2090SOL    HW2 7170   4.428   4.006   5.978
 2091SOL     OW 7171   0.378   5.001   1.050
 2091SOL    HW1 7172   0.388   5.001   1.149
 2091SOL    HW2 7173   0.302   4.941   1.024
 2092SOL     OW 7174   5.320   4.092   0.226
 2092SOL    HW1 7175   5.341   4.179   0.182
 2092SOL    HW2 7176   5.258   4.040   0.167
 2093SOL     OW 7177   2.541   2.120   1.112
 2093SOL    HW1 7178   2.445   2.135   1.134
 2093SOL    HW2 7179   2.565   2.025   1.132
 2094SOL     OW 7180   6.039   1.534   2.710
 2094SOL    HW1 7181   5.994   1.447   2.690
 2094SOL    HW2 7182   5.974   1.609   2.697
 2095SOL     OW 7183   6.261   0.214   5.468
 2095SOL    HW1 7184   6.289   0.281   5.536
 2095SOL    HW2 7185   6.166   0.188   5.483
 2096SOL     OW 7186   4.843   3.975   2.893
 2096SOL    HW1 7187   4.791   3.935   2.818
 2096SOL    HW2 7188   4.897   3.904   2.938
 2097SOL     OW 7189   2.636   3.613   6.243
 2097SOL    HW1 7190   2.714   3.562   6.207
 2097SOL    HW2 7191   2.605   3.571   6.328
 2098SOL     OW 7192   4.181   6.331   2.114
 2098SOL    HW1 7193   4.243   6.407   2.095
 2098SOL    HW2 7194   4.093   6.368   2.146
 2099SOL     OW 7195   3.337   2.061   6.377
 2099SOL    HW1 7196   3.427   2.076   6.335
 2099SOL    HW2 7197   3.308   2.143   6.425
 2100SOL     OW 7198   5.075   2.216   6.744
 2100SOL    HW1 7199   5.006   2.204   6.673
 2100SOL    HW2 7200   5.135   2.292   6.719
 2101SOL     OW 7201   0.390   6.617   1.417
 2101SOL    HW1 7202   0.408   6.570   1.331
 2101SOL    HW2 7203   0.476   6.652   1.455
 2102SOL     OW 7204   5.378   4.762   2.588
 2102SOL    HW1 7205   5.433   4.701   2.531
 2102SOL    HW2 7206   5.378   4.729   2.682
 2103SOL     OW 7207   3.294   3.900   6.702
 2103SOL    HW1 7208   3.321   3.918   6.796
 2103SOL    HW2 7209   3.372   3.862   6.651
 2104SOL     OW 7210   1.651   4.462   1.836
 2104SOL    HW1 7211   1.664   4.531   1.765
 2104SOL    HW2 7212   1.580   4.397   1.806
 2105SOL     OW 7213   5.317   4.783   6.134
 2105SOL    HW1 7214   5.296   4.688   6.114
 2105SOL    HW2 7215   5.405   4.808   6.093
 2106SOL     OW 7216   5.302   3.786   1.049
 2106SOL    HW1 7217   5.250   3.706   1.081
 2106SOL    HW2 7218   5.398   3.775   1.074
 2107SOL     OW 7219   6.630   2.386   5.052
 2107SOL    HW1 7220   6.727   2.366   5.043
 2107SOL    HW2 7221   6.587   2.317   5.111
 2108SOL     OW 7222   6.032   5.253   5.346
 2108SOL    HW1 7223   6.051   5.314   5.268
 2108SOL    HW2 7224   5.947   5.204   5.330
 2109SOL     OW 7225   4.246   5.795   2.304
 2109SOL    HW1 7226   4.290   5.884   2.311
 2109SOL    HW2 7227   4.150   5.803   2.330
 2110SOL     OW 7228   2.609   0.745   0.076
 2110SOL    HW1 7229   2.688   0.683   0.086
 2110SOL    HW2 7230   2.532   0.694   0.037
 2111SOL     OW 7231   2.264   3.400   0.319
 2111SOL    HW1 7232   2.312   3.312   0.319
 2111SOL    HW2 7233   2.186   3.395   0.257
 2112SOL     OW 7234   5.233   2.596   0.857
 2112SOL    HW1 7235   5.242   2.693   0.881
 2112SOL    HW2 7236   5.253   2.540   0.937
 2113SOL     OW 7237   2.937   1.554   4.095
 2113SOL    HW1 7238   2.992   1.620   4.147
 2113SOL    HW2 7239   2.979   1.463   4.101
 2114SOL     OW 7240   2.413   1.914   6.538
 2114SOL    HW1 7241   2.356   1.992   6.516
 2114SOL    HW2 7242   2.509   1.941   6.536
 2115SOL     OW 7243   0.700   4.359   3.190
 2115SOL    HW1 7244   0.750   4.275   3.170
 2115SOL    HW2 7245   0.685   4.410   3.105
 2116SOL     OW 7246   0.355   4.185   2.926
 2116SOL    HW1 7247   0.409   4.121   2.980
 2116SOL    HW2 7248   0.396   4.276   2.930
 2117SOL     OW 7249   6.637   4.629   1.781
 2117SOL    HW1 7250   6.734   4.624   1.805
 2117SOL    HW2 7251   6.599   4.536   1.780
 2118SOL     OW 7252   6.300   2.830   2.999
 2118SOL    HW1 7253   6.365   2.842   3.075
 2118SOL    HW2 7254   6.351   2.809   2.915
 2119SOL     OW 7255   1.447   0.047   1.255
 2119SOL    HW1 7256   1.417   0.052   1.159
 2119SOL    HW2 7257   1.368   0.034   1.314
 2120SOL     OW 7258   0.502   4.185   3.569
 2120SOL    HW1 7259   0.536   4.260   3.512
 2120SOL    HW2 7260   0.436   4.221   3.635
 2121SOL     OW 7261   1.278   2.991   5.867
 2121SOL    HW1 7262   1.322   2.915   5.819
 2121SOL    HW2 7263   1.234   2.956   5.950
 2122SOL     OW 7264   5.694   5.035   6.096
 2122SOL    HW1 7265   5.725   5.040   6.001
 2122SOL    HW2 7266   5.704   5.124   6.140
 2123SOL     OW 7267   6.619   5.133   2.254
 2123SOL    HW1 7268   6.689   5.114   2.323
 2123SOL    HW2 7269   6.539   5.077   2.272
 2124SOL     OW 7270   3.100   1.788   1.085
 2124SOL    HW1 7271   3.089   1.887   1.086
 2124SOL    HW2 7272   3.110   1.755   1.179
 2125SOL     OW 7273   2.038   6.870   2.279
 2125SOL    HW1 7274   2.105   6.918   2.336
 2125SOL    HW2 7275   2.021   6.779   2.317
 2126SOL     OW 7276   3.794   2.211   6.847
 2126SOL    HW1 7277   3.801   2.119   6.809
 2126SOL    HW2 7278   3.717   2.215   6.911
 2127SOL     OW 7279   1.217   2.167   5.756
 2127SOL    HW1 7280   1.135   2.125   5.796
 2127SOL    HW2 7281   1.208   2.169   5.657
 2128SOL     OW 7282   6.289   2.682   3.433
 2128SOL    HW1 7283   6.337   2.605   3.475
 2128SOL    HW2 7284   6.210   2.708   3.489
 2129SOL     OW 7285   4.958   3.462   5.275
 2129SOL    HW1 7286   4.892   3.430   5.343
 2129SOL    HW2 7287   4.908   3.508   5.201
 2130SOL     OW 7288   3.271   0.109   2.667
 2130SOL    HW1 7289   3.278   0.142   2.573
 2130SOL    HW2 7290   3.246   0.012   2.666
 2131SOL     OW 7291   4.847   1.703   0.230
 2131SOL    HW1 7292   4.937   1.746   0.238
 2131SOL    HW2 7293   4.783   1.767   0.188
 2132SOL     OW 7294   3.450   1.255   0.872
 2132SOL    HW1 7295   3.436   1.179   0.808
 2132SOL    HW2 7296   3.539   1.297   0.855
 2133SOL     OW 7297   3.368   2.997   1.320
 2133SOL    HW1 7298   3.335   2.984   1.414
 2133SOL    HW2 7299   3.399   2.909   1.284
 2134SOL     OW 7300   1.248   0.783   4.966
 2134SOL    HW1 7301   1.151   0.785   4.990
 2134SOL    HW2 7302   1.266   0.706   4.905
 2135SOL     OW 7303   1.495   2.493   4.549
 2135SOL    HW1 7304   1.480   2.467   4.454
 2135SOL    HW2 7305   1.457   2.423   4.610
 2136SOL     OW 7306   0.682   3.938   4.406
 2136SOL    HW1 7307   0.659   3.973   4.496
 2136SOL    HW2 7308   0.780   3.920   4.401
 2137SOL     OW 7309   0.213   5.903   4.122
 2137SOL    HW1 7310   0.115   5.886   4.125
 2137SOL    HW2 7311   0.231   5.987   4.071
 2138SOL     OW 7312   0.328   1.051   2.046
 2138SOL    HW1 7313   0.399   0.997   2.090
 2138SOL    HW2 7314   0.370   1.127   1.996
 2139SOL     OW 7315   3.335   0.943   2.768
 2139SOL    HW1 7316   3.358   0.858   2.816
 2139SOL    HW2 7317   3.265   0.924   2.699
 2140SOL     OW 7318   3.678   5.992   3.603
 2140SOL    HW1 7319   3.645   6.086   3.608
 2140SOL    HW2 7320   3.768   5.985   3.646
 2141SOL     OW 7321   6.609   4.816   1.332
 2141SOL    HW1 7322   6.559   4.825   1.418
 2141SOL    HW2 7323   6.680   4.886   1.328
 2142SOL     OW 7324   0.877   1.763   2.944
 2142SOL    HW1 7325   0.858   1.840   3.006
 2142SOL    HW2 7326   0.792   1.736   2.898
 2143SOL     OW 7327   2.915   4.394   1.433
 2143SOL    HW1 7328   2.875   4.476   1.392
 2143SOL    HW2 7329   2.856   4.315   1.414
 2144SOL     OW 7330   1.463   5.561   3.541
 2144SOL    HW1 7331   1.419   5.473   3.529
 2144SOL    HW2 7332   1.420   5.629   3.481
 2145SOL     OW 7333   3.982   6.210   4.358
 2145SOL    HW1 7334   3.912   6.200   4.429
 2145SOL    HW2 7335   3.953   6.161   4.275
 2146SOL     OW 7336   2.649   3.733   1.250
 2146SOL    HW1 7337   2.640   3.651   1.308
 2146SOL    HW2 7338   2.735   3.780   1.273
 2147SOL     OW 7339   0.241   1.185   6.514
 2147SOL    HW1 7340   0.180   1.115   6.552
 2147SOL    HW2 7341   0.198   1.275   6.524
 2148SOL     OW 7342   5.227   2.414   4.622
 2148SOL    HW1 7343   5.134   2.431   4.589
 2148SOL    HW2 7344   5.292   2.428   4.547
 2149SOL     OW 7345   4.088   1.527   1.546
 2149SOL    HW1 7346   3.997   1.550   1.512
 2149SOL    HW2 7347   4.157   1.572   1.490
 2150SOL     OW 7348   2.630   2.056   2.295
 2150SOL    HW1 7349   2.685   2.105   2.363
 2150SOL    HW2 7350   2.654   1.959   2.297
 2151SOL     OW 7351   1.786   1.001   4.213
 2151SOL    HW1 7352   1.773   1.086   4.163
 2151SOL    HW2 7353   1.796   0.925   4.148
 2152SOL     OW 7354   3.671   6.720   1.595
 2152SOL    HW1 7355   3.591   6.667   1.622
 2152SOL    HW2 7356   3.644   6.813   1.572
 2153SOL     OW 7357   3.826   0.799   3.121
 2153SOL    HW1 7358   3.727   0.784   3.117
 2153SOL    HW2 7359   3.846   0.897   3.122
 2154SOL     OW 7360   4.883   0.375   4.575
 2154SOL    HW1 7361   4.980   0.396   4.564
 2154SOL    HW2 7362   4.837   0.381   4.487
 2155SOL     OW 7363   1.907   6.184   0.252
 2155SOL    HW1 7364   1.826   6.201   0.308
 2155SOL    HW2 7365   1.890   6.105   0.192
 2156SOL     OW 7366   2.214   0.870   3.128
 2156SOL    HW1 7367   2.141   0.931   3.097
 2156SOL    HW2 7368   2.301   0.901   3.090
 2157SOL     OW 7369   5.937   0.820   3.477
 2157SOL    HW1 7370   5.926   0.905   3.528
 2157SOL    HW2 7371   6.028   0.818   3.434
 2158SOL     OW 7372   3.606   6.287   0.811
 2158SOL    HW1 7373   3.687   6.310   0.866
 2158SOL    HW2 7374   3.606   6.342   0.728
 2159SOL     OW 7375   2.222   6.205   5.272
 2159SOL    HW1 7376   2.256   6.249   5.355
 2159SOL    HW2 7377   2.266   6.245   5.192
 2160SOL     OW 7378   4.714   3.404   0.775
 2160SOL    HW1 7379   4.776   3.338   0.732
 2160SOL    HW2 7380   4.727   3.403   0.874
 2161SOL     OW 7381   5.293   4.002   3.163
 2161SOL    HW1 7382   5.215   4.060   3.140
 2161SOL    HW2 7383   5.285   3.915   3.115
 2162SOL     OW 7384   2.666   0.813   0.481
 2162SOL    HW1 7385   2.620   0.809   0.570
 2162SOL    HW2 7386   2.700   0.722   0.457
 2163SOL     OW 7387   6.825   4.220   6.239
 2163SOL    HW1 7388   6.798   4.269   6.322
 2163SOL    HW2 7389   6.910   4.170   6.257
 2164SOL     OW 7390   1.937   3.052   0.259
 2164SOL    HW1 7391   1.900   3.139   0.292
 2164SOL    HW2 7392   1.951   3.057   0.160
 2165SOL     OW 7393   0.650   1.701   2.786
 2165SOL    HW1 7394   0.579   1.689   2.856
 2165SOL    HW2 7395   0.608   1.710   2.696
 2166SOL     OW 7396   1.791   2.579   5.245
 2166SOL    HW1 7397   1.772   2.671   5.279
 2166SOL    HW2 7398   1.783   2.514   5.320
 2167SOL     OW 7399   1.639   1.123   3.462
 2167SOL    HW1 7400   1.662   1.162   3.373
 2167SOL    HW2 7401   1.574   1.048   3.450
 2168SOL     OW 7402   0.988   1.627   3.602
 2168SOL    HW1 7403   1.067   1.686   3.587
 2168SOL    HW2 7404   0.932   1.665   3.675
 2169SOL     OW 7405   5.485   2.183   5.426
 2169SOL    HW1 7406   5.514   2.178   5.522
 2169SOL    HW2 7407   5.546   2.128   5.370
 2170SOL     OW 7408   6.538   5.373   5.329
 2170SOL    HW1 7409   6.503   5.393   5.421
 2170SOL    HW2 7410   6.491   5.294   5.292
 2171SOL     OW 7411   6.687   3.572   1.712
 2171SOL    HW1 7412   6.675   3.671   1.722
 2171SOL    HW2 7413   6.697   3.550   1.615
 2172SOL     OW 7414   2.345   2.337   0.294
 2172SOL    HW1 7415   2.366   2.388   0.211
 2172SOL    HW2 7416   2.421   2.275   0.315
 2173SOL     OW 7417   4.248   0.567   5.152
 2173SOL    HW1 7418   4.284   0.482   5.192
 2173SOL    HW2 7419   4.321   0.635   5.146
 2174SOL     OW 7420   5.417   5.202   5.730
 2174SOL    HW1 7421   5.491   5.159   5.679
 2174SOL    HW2 7422   5.411   5.160   5.821
 2175SOL     OW 7423   2.646   1.960   4.251
 2175SOL    HW1 7424   2.614   1.869   4.277
 2175SOL    HW2 7425   2.601   2.029   4.308
 2176SOL     OW 7426   0.529   3.233   6.984
 2176SOL    HW1 7427   0.622   3.269   6.999
 2176SOL    HW2 7428   0.533   3.134   6.975
 2177SOL     OW 7429   6.830   1.091   3.949
 2177SOL    HW1 7430   6.823   1.170   4.010
 2177SOL    HW2 7431   6.866   1.120   3.861
 2178SOL     OW 7432   1.150   3.887   0.066
 2178SOL    HW1 7433   1.189   3.909   0.156
 2178SOL    HW2 7434   1.144   3.788   0.056
 2179SOL     OW 7435   1.582   5.536   4.752
 2179SOL    HW1 7436   1.626   5.483   4.679
 2179SOL    HW2 7437   1.497   5.491   4.778
 2180SOL     OW 7438   2.373   3.287   1.647
 2180SOL    HW1 7439   2.356   3.359   1.714
 2180SOL    HW2 7440   2.430   3.216   1.688
 2181SOL     OW 7441   5.013   4.601   5.430
 2181SOL    HW1 7442   4.931   4.544   5.438
 2181SOL    HW2 7443   4.994   4.680   5.373
 2182SOL     OW 7444   0.116   3.323   5.376
 2182SOL    HW1 7445   0.044   3.281   5.321
 2182SOL    HW2 7446   0.084   3.411   5.411
 2183SOL     OW 7447   3.388   3.827   5.942
 2183SOL    HW1 7448   3.426   3.908   5.896
 2183SOL    HW2 7449   3.376   3.754   5.874
 2184SOL     OW 7450   4.402   1.431   5.849
 2184SOL    HW1 7451   4.386   1.497   5.922
 2184SOL    HW2 7452   4.391   1.476   5.760
 2185SOL     OW 7453   1.244   1.814   1.126
 2185SOL    HW1 7454   1.245   1.759   1.209
 2185SOL    HW2 7455   1.199   1.763   1.053
 2186SOL     OW 7456   6.661   5.322   2.025
 2186SOL    HW1 7457   6.652   5.261   2.103
 2186SOL    HW2 7458   6.729   5.392   2.045
 2187SOL     OW 7459   6.662   1.347   1.833
 2187SOL    HW1 7460   6.567   1.354   1.803
 2187SOL    HW2 7461   6.682   1.420   1.899
 2188SOL     OW 7462   5.558   5.920   4.298
 2188SOL    HW1 7463   5.543   5.865   4.216
 2188SOL    HW2 7464   5.554   6.017   4.274
 2189SOL     OW 7465   1.866   6.459   6.977
 2189SOL    HW1 7466   1.942   6.505   7.024
 2189SOL    HW2 7467   1.840   6.513   6.896
 2190SOL     OW 7468   0.565   2.577   2.124
 2190SOL    HW1 7469   0.492   2.645   2.124
 2190SOL    HW2 7470   0.528   2.488   2.097
 2191SOL     OW 7471   2.864   1.995   6.177
 2191SOL    HW1 7472   2.832   1.972   6.085
 2191SOL    HW2 7473   2.787   1.994   6.241
 2192SOL     OW 7474   3.793   0.140   3.333
 2192SOL    HW1 7475   3.818   0.226   3.288
 2192SOL    HW2 7476   3.860   0.069   3.311
 2193SOL     OW 7477   6.842   5.666   6.134
 2193SOL    HW1 7478   6.841   5.577   6.088
 2193SOL    HW2 7479   6.760   5.675   6.191
 2194SOL     OW 7480   2.049   4.915   6.451
 2194SOL    HW1 7481   1.995   4.949   6.528
 2194SOL    HW2 7482   2.011   4.950   6.365
 2195SOL     OW 7483   6.892   0.093   3.744
 2195SOL    HW1 7484   6.968   0.028   3.743
 2195SOL    HW2 7485   6.806   0.044   3.733
 2196SOL     OW 7486   3.442   0.297   5.253
 2196SOL    HW1 7487   3.428   0.391   5.285
 2196SOL    HW2 7488   3.533   0.290   5.211
 2197SOL     OW 7489   3.585   3.327   1.342
 2197SOL    HW1 7490   3.486   3.338   1.348
 2197SOL    HW2 7491   3.606   3.232   1.316
 2198SOL     OW 7492   6.909   1.618   0.029
 2198SOL    HW1 7493   6.963   1.598   0.111
 2198SOL    HW2 7494   6.969   1.648   6.984
 2199SOL     OW 7495   4.693   0.985   3.243
 2199SOL    HW1 7496   4.622   1.043   3.204
 2199SOL    HW2 7497   4.662   0.949   3.331
 2200SOL     OW 7498   3.559   0.396   4.754
 2200SOL    HW1 7499   3.466   0.388   4.719
 2200SOL    HW2 7500   3.573   0.488   4.791
 2201SOL     OW 7501   6.290   2.537   2.776
 2201SOL    HW1 7502   6.194   2.562   2.780
 2201SOL    HW2 7503   6.300   2.439   2.788
 2202SOL     OW 7504   3.043   4.886   2.885
 2202SOL    HW1 7505   2.963   4.837   2.850
 2202SOL    HW2 7506   3.067   4.960   2.822
 2203SOL     OW 7507   2.508   3.062   1.052
 2203SOL    HW1 7508   2.421   3.106   1.073
 2203SOL    HW2 7509   2.559   3.047   1.137
 2204SOL     OW 7510   3.708   1.504   6.591
 2204SOL    HW1 7511   3.785   1.563   6.616
 2204SOL    HW2 7512   3.636   1.560   6.549
 2205SOL     OW 7513   1.985   0.072   6.180
 2205SOL    HW1 7514   2.011   0.138   6.109
 2205SOL    HW2 7515   2.002   7.008   6.147
 2206SOL     OW 7516   2.278   4.241   5.670
 2206SOL    HW1 7517   2.332   4.166   5.631
 2206SOL    HW2 7518   2.334   4.292   5.734
 2207SOL     OW 7519   2.151   3.421   6.820
 2207SOL    HW1 7520   2.067   3.367   6.822
 2207SOL    HW2 7521   2.130   3.516   6.797
 2208SOL     OW 7522   1.583   5.986   2.381
 2208SOL    HW1 7523   1.558   6.082   2.369
 2208SOL    HW2 7524   1.683   5.978   2.387
 2209SOL     OW 7525   0.946   5.625   5.775
 2209SOL    HW1 7526   0.952   5.531   5.809
 2209SOL    HW2 7527   0.850   5.649   5.763
 2210SOL     OW 7528   6.990   4.776   4.522
 2210SOL    HW1 7529   6.921   4.708   4.547
 2210SOL    HW2 7530   0.051   4.744   4.551
 2211SOL     OW 7531   5.457   0.861   0.258
 2211SOL    HW1 7532   5.392   0.932   0.230
 2211SOL    HW2 7533   5.407   0.782   0.291
 2212SOL     OW 7534   2.167   6.446   6.637
 2212SOL    HW1 7535   2.238   6.398   6.585
 2212SOL    HW2 7536   2.122   6.381   6.698
 2213SOL     OW 7537   3.926   2.849   5.415
 2213SOL    HW1 7538   3.964   2.757   5.417
 2213SOL    HW2 7539   3.836   2.849   5.458
 2214SOL     OW 7540   4.555   3.045   5.692
 2214SOL    HW1 7541   4.564   3.058   5.791
 2214SOL    HW2 7542   4.471   3.088   5.660
 2215SOL     OW 7543   6.303   1.827   6.638
 2215SOL    HW1 7544   6.381   1.829   6.574
 2215SOL    HW2 7545   6.334   1.852   6.729
 2216SOL     OW 7546   1.920   0.496   6.040
 2216SOL    HW1 7547   1.961   0.559   5.974
 2216SOL    HW2 7548   1.894   0.411   5.995
 2217SOL     OW 7549   3.778   0.461   1.168
 2217SOL    HW1 7550   3.693   0.486   1.122
 2217SOL    HW2 7551   3.807   0.536   1.228
 2218SOL     OW 7552   0.667   6.624   0.795
 2218SOL    HW1 7553   0.591   6.688   0.805
 2218SOL    HW2 7554   0.631   6.536   0.764
 2219SOL     OW 7555   0.314   2.862   2.093
 2219SOL    HW1 7556   0.303   2.852   2.192
 2219SOL    HW2 7557   0.254   2.798   2.046
 2220SOL     OW 7558   0.714   0.816   4.519
 2220SOL    HW1 7559   0.622   0.851   4.537
 2220SOL    HW2 7560   0.781   0.877   4.559
 2221SOL     OW 7561   6.748   0.574   5.515
 2221SOL    HW1 7562   6.742   0.611   5.422
 2221SOL    HW2 7563   6.661   0.533   5.541
 2222SOL     OW 7564   4.058   0.547   0.389
 2222SOL    HW1 7565   4.085   0.622   0.329
 2222SOL    HW2 7566   3.977   0.502   0.351
 2223SOL     OW 7567   6.083   6.912   3.894
 2223SOL    HW1 7568   6.135   6.826   3.889
 2223SOL    HW2 7569   6.146   6.989   3.890
 2224SOL     OW 7570   1.756   4.259   1.570
 2224SOL    HW1 7571   1.734   4.189   1.638
 2224SOL    HW2 7572   1.685   4.262   1.500
 2225SOL     OW 7573   6.442   5.838   3.046
 2225SOL    HW1 7574   6.362   5.847   2.986
 2225SOL    HW2 7575   6.505   5.914   3.030
 2226SOL     OW 7576   4.184   5.015   0.511
 2226SOL    HW1 7577   4.132   4.937   0.543
 2226SOL    HW2 7578   4.153   5.098   0.558
 2227SOL     OW 7579   5.268   3.524   0.787
 2227SOL    HW1 7580   5.328   3.602   0.771
 2227SOL    HW2 7581   5.225   3.532   0.877
 2228SOL     OW 7582   2.932   5.203   1.280
 2228SOL    HW1 7583   2.864   5.132   1.300
 2228SOL    HW2 7584   2.918   5.238   1.188
 2229SOL     OW 7585   4.081   1.637   4.452
 2229SOL    HW1 7586   4.106   1.690   4.534
 2229SOL    HW2 7587   4.090   1.695   4.371
 2230SOL     OW 7588   6.393   5.498   5.558
 2230SOL    HW1 7589   6.320   5.442   5.596
 2230SOL    HW2 7590   6.354   5.566   5.495
 2231SOL     OW 7591   0.619   1.003   1.385
 2231SOL    HW1 7592   0.695   1.049   1.432
 2231SOL    HW2 7593   0.656   0.932   1.325
 2232SOL     OW 7594   1.744   2.431   4.229
 2232SOL    HW1 7595   1.744   2.528   4.204
 2232SOL    HW2 7596   1.833   2.392   4.209
 2233SOL     OW 7597   2.364   4.397   1.333
 2233SOL    HW1 7598   2.454   4.425   1.364
 2233SOL    HW2 7599   2.366   4.380   1.235
 2234SOL     OW 7600   4.547   2.065   2.032
 2234SOL    HW1 7601   4.466   2.014   2.002
 2234SOL    HW2 7602   4.540   2.084   2.130
 2235SOL     OW 7603   1.962   0.715   1.287
 2235SOL    HW1 7604   2.056   0.747   1.282
 2235SOL    HW2 7605   1.955   0.625   1.243
 2236SOL     OW 7606   0.871   4.289   6.635
 2236SOL    HW1 7607   0.782   4.288   6.591
 2236SOL    HW2 7608   0.878   4.209   6.696
 2237SOL     OW 7609   5.331   4.330   4.279
 2237SOL    HW1 7610   5.428   4.320   4.257
 2237SOL    HW2 7611   5.313   4.285   4.367
 2238SOL     OW 7612   5.689   5.576   1.851
 2238SOL    HW1 7613   5.633   5.637   1.908
 2238SOL    HW2 7614   5.642   5.489   1.839
 2239SOL     OW 7615   3.721   5.333   3.409
 2239SOL    HW1 7616   3.649   5.369   3.348
 2239SOL    HW2 7617   3.779   5.408   3.440
 2240SOL     OW 7618   5.664   5.808   3.804
 2240SOL    HW1 7619   5.726   5.829   3.729
 2240SOL    HW2 7620   5.690   5.721   3.846
 2241SOL     OW 7621   0.087   0.136   1.994
 2241SOL    HW1 7622   0.136   0.154   2.079
 2241SOL    HW2 7623   7.019   0.162   2.005
 2242SOL     OW 7624   4.960   2.480   2.871
 2242SOL    HW1 7625   5.042   2.424   2.882
 2242SOL    HW2 7626   4.900   2.468   2.949
 2243SOL     OW 7627   2.675   6.139   5.188
 2243SOL    HW1 7628   2.733   6.094   5.255
 2243SOL    HW2 7629   2.605   6.074   5.156
 2244SOL     OW 7630   2.689   0.383   2.705
 2244SOL    HW1 7631   2.628   0.450   2.663
 2244SOL    HW2 7632   2.636   0.302   2.732
 2245SOL     OW 7633   0.352   1.513   2.147
 2245SOL    HW1 7634   0.431   1.564   2.179
 2245SOL    HW2 7635   0.268   1.563   2.171
 2246SOL     OW 7636   1.220   1.339   5.468
 2246SOL    HW1 7637   1.278   1.394   5.528
 2246SOL    HW2 7638   1.275   1.267   5.425
 2247SOL     OW 7639   2.684   2.974   5.614
 2247SOL    HW1 7640   2.598   2.929   5.638
 2247SOL    HW2 7641   2.711   3.035   5.688
 2248SOL     OW 7642   4.022   3.744   6.523
 2248SOL    HW1 7643   4.110   3.697   6.535
 2248SOL    HW2 7644   4.015   3.817   6.591
 2249SOL     OW 7645   6.246   6.024   2.464
 2249SOL    HW1 7646   6.307   5.972   2.404
 2249SOL    HW2 7647   6.300   6.069   2.535
 2250SOL     OW 7648   4.535   3.845   0.681
 2250SOL    HW1 7649   4.575   3.808   0.597
 2250SOL    HW2 7650   4.589   3.922   0.713
 2251SOL     OW 7651   5.218   1.479   0.231
 2251SOL    HW1 7652   5.296   1.424   0.201
 2251SOL    HW2 7653   5.133   1.428   0.216
 2252SOL     OW 7654   6.350   1.992   3.197
 2252SOL    HW1 7655   6.258   2.011   3.161
 2252SOL    HW2 7656   6.347   1.911   3.255
 2253SOL     OW 7657   0.999   3.768   6.861
 2253SOL    HW1 7658   1.058   3.708   6.915
 2253SOL    HW2 7659   0.906   3.729   6.859
 2254SOL     OW 7660   2.167   3.388   5.567
 2254SOL    HW1 7661   2.181   3.469   5.623
 2254SOL    HW2 7662   2.199   3.307   5.616
 2255SOL     OW 7663   4.717   2.476   0.277
 2255SOL    HW1 7664   4.672   2.429   0.201
 2255SOL    HW2 7665   4.814   2.489   0.254
 2256SOL     OW 7666   3.851   6.618   1.381
 2256SOL    HW1 7667   3.918   6.647   1.450
 2256SOL    HW2 7668   3.759   6.633   1.416
 2257SOL     OW 7669   6.973   2.273   3.824
 2257SOL    HW1 7670   6.992   2.257   3.727
 2257SOL    HW2 7671   6.909   2.349   3.834
 2258SOL     OW 7672   1.204   4.968   5.331
 2258SOL    HW1 7673   1.220   4.899   5.260
 2258SOL    HW2 7674   1.292   5.002   5.364
 2259SOL     OW 7675   4.961   4.310   6.648
 2259SOL    HW1 7676   4.882   4.314   6.586
 2259SOL    HW2 7677   5.011   4.396   6.644
 2260SOL     OW 7678   6.011   4.605   2.980
 2260SOL    HW1 7679   5.969   4.514   2.986
 2260SOL    HW2 7680   6.109   4.595   2.963
 2261SOL     OW 7681   6.303   6.919   1.070
 2261SOL    HW1 7682   6.205   6.910   1.049
 2261SOL    HW2 7683   6.356   6.880   0.995
 2262SOL     OW 7684   5.103   2.126   2.464
 2262SOL    HW1 7685   5.043   2.069   2.408
 2262SOL    HW2 7686   5.049   2.169   2.536
 2263SOL     OW 7687   2.756   6.100   6.198
 2263SOL    HW1 7688   2.782   6.196   6.188
 2263SOL    HW2 7689   2.836   6.042   6.184
 2264SOL     OW 7690   3.024   3.012   1.088
 2264SOL    HW1 7691   2.992   3.078   1.157
 2264SOL    HW2 7692   3.124   3.007   1.091
 2265SOL     OW 7693   0.480   0.108   3.501
 2265SOL    HW1 7694   0.558   0.105   3.438
 2265SOL    HW2 7695   0.466   0.202   3.532
 2266SOL     OW 7696   6.173   1.655   1.458
 2266SOL    HW1 7697   6.111   1.729   1.433
 2266SOL    HW2 7698   6.187   1.595   1.379
 2267SOL     OW 7699   4.667   2.499   5.058
 2267SOL    HW1 7700   4.588   2.534   5.008
 2267SOL    HW2 7701   4.695   2.412   5.017
 2268SOL     OW 7702   6.180   4.153   6.435
 2268SOL    HW1 7703   6.256   4.203   6.393
 2268SOL    HW2 7704   6.156   4.196   6.522
 2269SOL     OW 7705   5.689   5.912   4.855
 2269SOL    HW1 7706   5.590   5.904   4.839
 2269SOL    HW2 7707   5.738   5.856   4.788
 2270SOL     OW 7708   3.086   2.310   6.277
 2270SOL    HW1 7709   3.092   2.231   6.217
 2270SOL    HW2 7710   3.050   2.388   6.225
 2271SOL     OW 7711   6.212   3.840   0.683
 2271SOL    HW1 7712   6.291   3.864   0.740
 2271SOL    HW2 7713   6.147   3.915   0.683
 2272SOL     OW 7714   5.479   1.391   5.254
 2272SOL    HW1 7715   5.504   1.327   5.326
 2272SOL    HW2 7716   5.487   1.485   5.288
 2273SOL     OW 7717   1.443   0.783   2.067
 2273SOL    HW1 7718   1.476   0.696   2.103
 2273SOL    HW2 7719   1.490   0.859   2.112
 2274SOL     OW 7720   1.752   2.467   6.074
 2274SOL    HW1 7721   1.830   2.514   6.032
 2274SOL    HW2 7722   1.756   2.477   6.173
 2275SOL     OW 7723   5.840   0.663   4.915
 2275SOL    HW1 7724   5.918   0.707   4.869
 2275SOL    HW2 7725   5.846   0.564   4.905
 2276SOL     OW 7726   2.998   4.962   1.102
 2276SOL    HW1 7727   2.931   4.971   1.028
 2276SOL    HW2 7728   3.051   4.878   1.090
 2277SOL     OW 7729   3.698   3.481   4.866
 2277SOL    HW1 7730   3.724   3.550   4.798
 2277SOL    HW2 7731   3.704   3.520   4.958
 2278SOL     OW 7732   6.287   6.030   3.882
 2278SOL    HW1 7733   6.275   6.071   3.972
 2278SOL    HW2 7734   6.265   5.932   3.886
 2279SOL     OW 7735   4.747   5.768   4.530
 2279SOL    HW1 7736   4.661   5.754   4.579
 2279SOL    HW2 7737   4.727   5.790   4.434
 2280SOL     OW 7738   6.919   6.532   4.878
 2280SOL    HW1 7739   6.866   6.608   4.916
 2280SOL    HW2 7740   6.996   6.512   4.938
 2281SOL     OW 7741   3.507   1.008   1.837
 2281SOL    HW1 7742   3.527   0.963   1.924
 2281SOL    HW2 7743   3.430   1.071   1.850
 2282SOL     OW 7744   5.468   6.913   5.068
 2282SOL    HW1 7745   5.422   6.898   4.981
 2282SOL    HW2 7746   5.492   7.009   5.077
 2283SOL     OW 7747   6.471   4.773   1.562
 2283SOL    HW1 7748   6.540   4.726   1.617
 2283SOL    HW2 7749   6.409   4.707   1.521
 2284SOL     OW 7750   2.474   1.559   0.414
 2284SOL    HW1 7751   2.416   1.482   0.386
 2284SOL    HW2 7752   2.449   1.587   0.507
 2285SOL     OW 7753   1.441   2.649   0.571
 2285SOL    HW1 7754   1.412   2.560   0.605
 2285SOL    HW2 7755   1.487   2.700   0.645
 2286SOL     OW 7756   0.456   7.026   4.494
 2286SOL    HW1 7757   0.544   7.000   4.453
 2286SOL    HW2 7758   0.435   0.092   4.469
 2287SOL     OW 7759   2.095   2.481   1.905
 2287SOL    HW1 7760   2.181   2.470   1.856
 2287SOL    HW2 7761   2.020   2.445   1.850
 2288SOL     OW 7762   6.802   4.605   4.559
 2288SOL    HW1 7763   6.852   4.519   4.564
 2288SOL    HW2 7764   6.710   4.592   4.598
 2289SOL     OW 7765   6.149   4.480   2.645
 2289SOL    HW1 7766   6.205   4.553   2.685
 2289SOL    HW2 7767   6.067   4.467   2.700
 2290SOL     OW 7768   1.694   3.711   1.858
 2290SOL    HW1 7769   1.732   3.621   1.835
 2290SOL    HW2 7770   1.768   3.778   1.861
 2291SOL     OW 7771   1.967   2.125   0.537
 2291SOL    HW1 7772   1.980   2.084   0.446
 2291SOL    HW2 7773   1.912   2.064   0.593
 2292SOL     OW 7774   6.019   2.491   3.641
 2292SOL    HW1 7775   5.951   2.418   3.652
 2292SOL    HW2 7776   5.978   2.568   3.593
 2293SOL     OW 7777   6.437   6.809   1.325
 2293SOL    HW1 7778   6.527   6.781   1.291
 2293SOL    HW2 7779   6.375   6.823   1.248
 2294SOL     OW 7780   3.302   1.472   6.445
 2294SOL    HW1 7781   3.304   1.373   6.449
 2294SOL    HW2 7782   3.379   1.509   6.499
 2295SOL     OW 7783   0.364   1.567   2.701
 2295SOL    HW1 7784   0.389   1.558   2.798
 2295SOL    HW2 7785   0.322   1.656   2.686
 2296SOL     OW 7786   3.615   5.592   2.620
 2296SOL    HW1 7787   3.570   5.523   2.563
 2296SOL    HW2 7788   3.591   5.577   2.715
 2297SOL     OW 7789   4.852   4.624   5.673
 2297SOL    HW1 7790   4.906   4.677   5.608
 2297SOL    HW2 7791   4.814   4.544   5.626
 2298SOL     OW 7792   4.146   3.519   2.268
 2298SOL    HW1 7793   4.063   3.566   2.299
 2298SOL    HW2 7794   4.208   3.584   2.225
 2299SOL     OW 7795   4.643   4.866   5.340
 2299SOL    HW1 7796   4.624   4.874   5.438
 2299SOL    HW2 7797   4.738   4.836   5.327
 2300SOL     OW 7798   2.447   6.128   3.435
 2300SOL    HW1 7799   2.439   6.030   3.413
 2300SOL    HW2 7800   2.359   6.172   3.420
 2301SOL     OW 7801   3.888   3.059   3.317
 2301SOL    HW1 7802   3.973   3.078   3.269
 2301SOL    HW2 7803   3.909   3.032   3.411
 2302SOL     OW 7804   3.905   0.853   1.061
 2302SOL    HW1 7805   3.865   0.785   0.999
 2302SOL    HW2 7806   3.960   0.918   1.008
 2303SOL     OW 7807   2.796   3.162   0.727
 2303SOL    HW1 7808   2.893   3.153   0.705
 2303SOL    HW2 7809   2.742   3.107   0.664
 2304SOL     OW 7810   5.596   6.637   4.550
 2304SOL    HW1 7811   5.542   6.553   4.551
 2304SOL    HW2 7812   5.573   6.693   4.630
 2305SOL     OW 7813   1.961   0.144   3.257
 2305SOL    HW1 7814   1.984   0.068   3.318
 2305SOL    HW2 7815   1.871   0.127   3.216
 2306SOL     OW 7816   2.225   5.595   2.028
 2306SOL    HW1 7817   2.269   5.653   1.959
 2306SOL    HW2 7818   2.256   5.624   2.119
 2307SOL     OW 7819   0.315   2.913   4.359
 2307SOL    HW1 7820   0.221   2.948   4.361
 2307SOL    HW2 7821   0.352   2.923   4.266
 2308SOL     OW 7822   2.937   4.933   1.375
 2308SOL    HW1 7823   2.839   4.929   1.396
 2308SOL    HW2 7824   2.950   4.972   1.284
 2309SOL     OW 7825   1.965   0.703   5.463
 2309SOL    HW1 7826   1.997   0.794   5.490
 2309SOL    HW2 7827   2.028   0.665   5.395
 2310SOL     OW 7828   5.579   5.548   1.338
 2310SOL    HW1 7829   5.586   5.559   1.438
 2310SOL    HW2 7830   5.505   5.605   1.304
 2311SOL     OW 7831   2.230   6.545   1.119
 2311SOL    HW1 7832   2.309   6.571   1.063
 2311SOL    HW2 7833   2.247   6.455   1.160
 2312SOL     OW 7834   4.928   5.784   2.972
 2312SOL    HW1 7835   4.836   5.796   3.008
 2312SOL    HW2 7836   4.993   5.837   3.027
 2313SOL     OW 7837   4.560   5.723   2.191
 2313SOL    HW1 7838   4.477   5.671   2.173
 2313SOL    HW2 7839   4.535   5.812   2.229
 2314SOL     OW 7840   5.319   5.898   3.366
 2314SOL    HW1 7841   5.244   5.949   3.408
 2314SOL    HW2 7842   5.283   5.835   3.298
 2315SOL     OW 7843   5.297   2.938   6.207
 2315SOL    HW1 7844   5.313   3.005   6.134
 2315SOL    HW2 7845   5.259   2.984   6.287
 2316SOL     OW 7846   3.712   1.729   3.824
 2316SOL    HW1 7847   3.707   1.768   3.916
 2316SOL    HW2 7848   3.698   1.630   3.829
 2317SOL     OW 7849   0.636   5.652   3.191
 2317SOL    HW1 7850   0.623   5.750   3.177
 2317SOL    HW2 7851   0.597   5.602   3.114
 2318SOL     OW 7852   0.825   2.912   3.672
 2318SOL    HW1 7853   0.758   2.900   3.746
 2318SOL    HW2 7854   0.812   3.001   3.630
 2319SOL     OW 7855   1.981   5.115   3.611
 2319SOL    HW1 7856   2.048   5.174   3.567
 2319SOL    HW2 7857   2.027   5.050   3.671
 2320SOL     OW 7858   1.075   2.228   3.759
 2320SOL    HW1 7859   1.105   2.242   3.665
 2320SOL    HW2 7860   0.995   2.284   3.778
 2321SOL     OW 7861   3.463   0.471   5.757
 2321SOL    HW1 7862   3.456   0.567   5.786
 2321SOL    HW2 7863   3.511   0.419   5.827
 2322SOL     OW 7864   2.591   1.460   4.979
 2322SOL    HW1 7865   2.539   1.544   4.996
 2322SOL    HW2 7866   2.616   1.455   4.882
 2323SOL     OW 7867   2.932   4.899   1.982
 2323SOL    HW1 7868   2.909   4.802   1.974
 2323SOL    HW2 7869   3.031   4.910   1.987
 2324SOL     OW 7870   6.964   6.085   2.575
 2324SOL    HW1 7871   7.002   6.058   2.486
 2324SOL    HW2 7872   6.924   6.005   2.619
 2325SOL     OW 7873   0.612   4.766   1.228
 2325SOL    HW1 7874   0.613   4.864   1.251
 2325SOL    HW2 7875   0.703   4.738   1.198
 2326SOL     OW 7876   3.335   4.778   5.257
 2326SOL    HW1 7877   3.322   4.877   5.257
 2326SOL    HW2 7878   3.274   4.737   5.325
 2327SOL     OW 7879   5.972   3.453   4.629
 2327SOL    HW1 7880   5.953   3.429   4.725
 2327SOL    HW2 7881   5.968   3.371   4.573
 2328SOL     OW 7882   3.689   1.831   3.248
 2328SOL    HW1 7883   3.704   1.922   3.286
 2328SOL    HW2 7884   3.757   1.813   3.177
 2329SOL     OW 7885   1.850   4.829   4.856
 2329SOL    HW1 7886   1.754   4.850   4.873
 2329SOL    HW2 7887   1.858   4.735   4.822
 2330SOL     OW 7888   6.876   4.208   2.288
 2330SOL    HW1 7889   6.906   4.261   2.367
 2330SOL    HW2 7890   6.946   4.213   2.217
 2331SOL     OW 7891   6.509   4.088   0.247
 2331SOL    HW1 7892   6.474   4.144   0.172
 2331SOL    HW2 7893   6.591   4.039   0.217
 2332SOL     OW 7894   3.986   1.849   5.526
 2332SOL    HW1 7895   3.899   1.799   5.530
 2332SOL    HW2 7896   4.029   1.847   5.616
 2333SOL     OW 7897   6.775   5.302   3.032
 2333SOL    HW1 7898   6.695   5.271   3.084
 2333SOL    HW2 7899   6.840   5.227   3.022
 2334SOL     OW 7900   2.267   0.317   0.179
 2334SOL    HW1 7901   2.260   0.225   0.217
 2334SOL    HW2 7902   2.329   0.372   0.235
 2335SOL     OW 7903   5.698   1.008   3.195
 2335SOL    HW1 7904   5.601   1.023   3.174
 2335SOL    HW2 7905   5.708   0.922   3.245
 2336SOL     OW 7906   4.189   1.867   5.338
 2336SOL    HW1 7907   4.110   1.842   5.394
 2336SOL    HW2 7908   4.191   1.967   5.327
 2337SOL     OW 7909   4.397   1.361   3.715
 2337SOL    HW1 7910   4.355   1.420   3.784
 2337SOL    HW2 7911   4.492   1.343   3.739
 2338SOL     OW 7912   1.295   0.900   6.983
 2338SOL    HW1 7913   1.307   0.830   0.025
 2338SOL    HW2 7914   1.252   0.858   6.903
 2339SOL     OW 7915   3.849   3.248   4.791
 2339SOL    HW1 7916   3.770   3.307   4.808
 2339SOL    HW2 7917   3.854   3.177   4.861
 2340SOL     OW 7918   5.267   6.284   6.118
 2340SOL    HW1 7919   5.294   6.241   6.204
 2340SOL    HW2 7920   5.180   6.333   6.131
 2341SOL     OW 7921   4.875   3.410   1.135
 2341SOL    HW1 7922   4.812   3.333   1.147
 2341SOL    HW2 7923   4.832   3.480   1.078
 2342SOL     OW 7924   0.690   5.916   5.846
 2342SOL    HW1 7925   0.611   5.962   5.888
 2342SOL    HW2 7926   0.753   5.887   5.917
 2343SOL     OW 7927   1.899   6.173   1.841
 2343SOL    HW1 7928   1.824   6.176   1.774
 2343SOL    HW2 7929   1.911   6.078   1.872
 2344SOL     OW 7930   1.612   1.361   1.203
 2344SOL    HW1 7931   1.632   1.271   1.166
 2344SOL    HW2 7932   1.682   1.426   1.173
 2345SOL     OW 7933   2.177   5.745   5.206
 2345SOL    HW1 7934   2.166   5.646   5.215
 2345SOL    HW2 7935   2.209   5.783   5.292
 2346SOL     OW 7936   4.927   3.522   4.820
 2346SOL    HW1 7937   4.892   3.541   4.912
 2346SOL    HW2 7938   4.879   3.443   4.781
 2347SOL     OW 7939   1.965   4.213   1.418
 2347SOL    HW1 7940   2.041   4.263   1.459
 2347SOL    HW2 7941   1.882   4.230   1.470
 2348SOL     OW 7942   3.297   6.059   3.133
 2348SOL    HW1 7943   3.348   5.979   3.165
 2348SOL    HW2 7944   3.289   6.125   3.208
 2349SOL     OW 7945   0.625   5.818   6.919
 2349SOL    HW1 7946   0.536   5.816   6.874
 2349SOL    HW2 7947   0.665   5.910   6.911
 2350SOL     OW 7948   4.893   6.981   6.411
 2350SOL    HW1 7949   4.984   6.964   6.447
 2350SOL    HW2 7950   4.826   6.932   6.467
 2351SOL     OW 7951   3.323   4.887   2.662
 2351SOL    HW1 7952   3.290   4.981   2.653
 2351SOL    HW2 7953   3.353   4.872   2.757
 2352SOL     OW 7954   0.444   4.546   2.343
 2352SOL    HW1 7955   0.498   4.629   2.333
 2352SOL    HW2 7956   0.371   4.561   2.410
 2353SOL     OW 7957   2.979   4.830   4.395
 2353SOL    HW1 7958   2.980   4.917   4.445
 2353SOL    HW2 7959   2.896   4.779   4.419
 2354SOL     OW 7960   3.365   2.598   6.329
 2354SOL    HW1 7961   3.319   2.683   6.354
 2354SOL    HW2 7962   3.300   2.523   6.328
 2355SOL     OW 7963   0.865   5.054   6.787
 2355SOL    HW1 7964   0.806   5.033   6.865
 2355SOL    HW2 7965   0.809   5.067   6.705
 2356SOL     OW 7966   2.508   3.889   0.892
 2356SOL    HW1 7967   2.549   3.976   0.867
 2356SOL    HW2 7968   2.563   3.814   0.854
 2357SOL     OW 7969   3.732   5.262   3.869
 2357SOL    HW1 7970   3.829   5.248   3.854
 2357SOL    HW2 7971   3.680   5.227   3.791
 2358SOL     OW 7972   2.912   5.391   4.728
 2358SOL    HW1 7973   2.859   5.326   4.673
 2358SOL    HW2 7974   2.895   5.484   4.695
 2359SOL     OW 7975   1.143   1.628   5.657
 2359SOL    HW1 7976   1.208   1.703   5.662
 2359SOL    HW2 7977   1.190   1.544   5.630
 2360SOL     OW 7978   4.658   6.117   5.223
 2360SOL    HW1 7979   4.752   6.137   5.252
 2360SOL    HW2 7980   4.612   6.064   5.294
 2361SOL     OW 7981   2.485   0.497   4.354
 2361SOL    HW1 7982   2.385   0.495   4.363
 2361SOL    HW2 7983   2.512   0.581   4.308
 2362SOL     OW 7984   4.298   0.109   5.370
 2362SOL    HW1 7985   4.255   0.055   5.443
 2362SOL    HW2 7986   4.234   0.181   5.340
 2363SOL     OW 7987   4.888   2.326   5.489
 2363SOL    HW1 7988   4.822   2.400   5.491
 2363SOL    HW2 7989   4.980   2.363   5.480
 2364SOL     OW 7990   6.102   2.051   2.777
 2364SOL    HW1 7991   6.029   2.079   2.714
 2364SOL    HW2 7992   6.075   1.967   2.823
 2365SOL     OW 7993   5.903   3.910   5.329
 2365SOL    HW1 7994   5.838   3.842   5.361
 2365SOL    HW2 7995   5.979   3.917   5.394
 2366SOL     OW 7996   1.055   3.780   5.673
 2366SOL    HW1 7997   1.078   3.861   5.620
 2366SOL    HW2 7998   1.116   3.705   5.647
 2367SOL     OW 7999   1.811   3.852   6.687
 2367SOL    HW1 8000   1.860   3.930   6.648
 2367SOL    HW2 8001   1.782   3.790   6.614
 2368SOL     OW 8002   5.060   1.339   4.863
 2368SOL    HW1 8003   5.005   1.407   4.814
 2368SOL    HW2 8004   5.127   1.385   4.921
 2369SOL     OW 8005   2.355   2.723   3.882
 2369SOL    HW1 8006   2.367   2.745   3.979
 2369SOL    HW2 8007   2.322   2.803   3.833
 2370SOL     OW 8008   4.358   4.362   6.963
 2370SOL    HW1 8009   4.364   4.461   6.949
 2370SOL    HW2 8010   4.289   4.323   6.902
 2371SOL     OW 8011   1.905   5.915   2.186
 2371SOL    HW1 8012   1.938   5.934   2.094
 2371SOL    HW2 8013   1.863   5.824   2.189
 2372SOL     OW 8014   0.728   1.843   0.238
 2372SOL    HW1 8015   0.768   1.934   0.253
 2372SOL    HW2 8016   0.735   1.789   0.321
 2373SOL     OW 8017   6.426   1.340   6.710
 2373SOL    HW1 8018   6.372   1.367   6.631
 2373SOL    HW2 8019   6.379   1.267   6.759
 2374SOL     OW 8020   6.517   5.645   3.531
 2374SOL    HW1 8021   6.500   5.711   3.458
 2374SOL    HW2 8022   6.554   5.694   3.610
 2375SOL     OW 8023   1.038   6.707   4.468
 2375SOL    HW1 8024   1.071   6.613   4.476
 2375SOL    HW2 8025   1.097   6.768   4.520
 2376SOL     OW 8026   6.124   2.768   3.638
 2376SOL    HW1 8027   6.140   2.866   3.631
 2376SOL    HW2 8028   6.176   2.731   3.716
 2377SOL     OW 8029   3.445   3.414   4.316
 2377SOL    HW1 8030   3.408   3.417   4.223
 2377SOL    HW2 8031   3.455   3.507   4.351
 2378SOL     OW 8032   5.109   2.074   6.418
 2378SOL    HW1 8033   5.025   2.029   6.449
 2378SOL    HW2 8034   5.099   2.174   6.428
 2379SOL     OW 8035   6.807   2.518   7.027
 2379SOL    HW1 8036   6.850   2.440   0.044
 2379SOL    HW2 8037   6.737   2.485   6.964
 2380SOL     OW 8038   6.892   0.778   5.580
 2380SOL    HW1 8039   6.851   0.687   5.585
 2380SOL    HW2 8040   6.969   0.783   5.644
 2381SOL     OW 8041   1.914   4.189   4.545
 2381SOL    HW1 8042   1.850   4.256   4.507
 2381SOL    HW2 8043   1.887   4.097   4.517
 2382SOL     OW 8044   2.352   5.761   2.835
 2382SOL    HW1 8045   2.260   5.730   2.810
 2382SOL    HW2 8046   2.364   5.856   2.805
 2383SOL     OW 8047   5.689   6.401   6.592
 2383SOL    HW1 8048   5.629   6.400   6.672
 2383SOL    HW2 8049   5.774   6.354   6.614
 2384SOL     OW 8050   1.591   1.670   1.707
 2384SOL    HW1 8051   1.653   1.741   1.743
 2384SOL    HW2 8052   1.622   1.580   1.738
 2385SOL     OW 8053   6.617   0.075   1.152
 2385SOL    HW1 8054   6.674   0.112   1.226
 2385SOL    HW2 8055   6.578   0.151   1.099
 2386SOL     OW 8056   3.835   4.936   4.608
 2386SOL    HW1 8057   3.753   4.988   4.583
 2386SOL    HW2 8058   3.834   4.918   4.706
 2387SOL     OW 8059   6.809   2.759   4.879
 2387SOL    HW1 8060   6.725   2.755   4.824
 2387SOL    HW2 8061   6.788   2.796   4.969
 2388SOL     OW 8062   1.441   2.038   5.379
 2388SOL    HW1 8063   1.442   1.980   5.298
 2388SOL    HW2 8064   1.362   2.016   5.435
 2389SOL     OW 8065   4.646   4.520   3.963
 2389SOL    HW1 8066   4.668   4.442   4.021
 2389SOL    HW2 8067   4.688   4.603   4.001
 2390SOL     OW 8068   3.988   3.859   4.686
 2390SOL    HW1 8069   4.053   3.935   4.692
 2390SOL    HW2 8070   4.037   3.776   4.659
 2391SOL     OW 8071   3.368   4.698   5.619
 2391SOL    HW1 8072   3.380   4.787   5.575
 2391SOL    HW2 8073   3.410   4.626   5.563
 2392SOL     OW 8074   3.028   5.156   6.387
 2392SOL    HW1 8075   2.993   5.090   6.454
 2392SOL    HW2 8076   3.124   5.137   6.369
 2393SOL     OW 8077   3.931   5.300   1.244
 2393SOL    HW1 8078   3.881   5.368   1.297
 2393SOL    HW2 8079   3.875   5.217   1.236
 2394SOL     OW 8080   1.366   4.084   4.723
 2394SOL    HW1 8081   1.290   4.085   4.788
 2394SOL    HW2 8082   1.452   4.099   4.773
 2395SOL     OW 8083   0.087   2.451   6.533
 2395SOL    HW1 8084   0.054   2.356   6.530
 2395SOL    HW2 8085   0.162   2.462   6.468
 2396SOL     OW 8086   5.857   6.402   0.825
 2396SOL    HW1 8087   5.763   6.431   0.844
 2396SOL    HW2 8088   5.919   6.443   0.891
 2397SOL     OW 8089   6.309   5.230   0.125
 2397SOL    HW1 8090   6.389   5.248   0.183
 2397SOL    HW2 8091   6.229   5.214   0.183
 2398SOL     OW 8092   2.182   4.791   5.077
 2398SOL    HW1 8093   2.224   4.703   5.054
 2398SOL    HW2 8094   2.203   4.814   5.172
 2399SOL     OW 8095   4.506   1.775   2.741
 2399SOL    HW1 8096   4.458   1.695   2.704
 2399SOL    HW2 8097   4.449   1.821   2.809
 2400SOL     OW 8098   3.706   3.684   0.841
 2400SOL    HW1 8099   3.687   3.653   0.934
 2400SOL    HW2 8100   3.746   3.610   0.788
 2401SOL     OW 8101   3.371   0.847   5.361
 2401SOL    HW1 8102   3.371   0.947   5.361
 2401SOL    HW2 8103   3.436   0.814   5.430
 2402SOL     OW 8104   0.078   2.151   4.549
 2402SOL    HW1 8105   0.039   2.235   4.585
 2402SOL    HW2 8106   0.143   2.172   4.477
 2403SOL     OW 8107   3.267   3.031   0.710
 2403SOL    HW1 8108   3.354   3.040   0.758
 2403SOL    HW2 8109   3.283   2.999   0.617
 2404SOL     OW 8110   5.392   1.516   2.270
 2404SOL    HW1 8111   5.422   1.442   2.331
 2404SOL    HW2 8112   5.436   1.506   2.181
 2405SOL     OW 8113   3.951   3.319   5.408
 2405SOL    HW1 8114   3.919   3.368   5.327
 2405SOL    HW2 8115   3.941   3.220   5.392
 2406SOL     OW 8116   1.970   1.008   3.104
 2406SOL    HW1 8117   1.929   1.055   3.025
 2406SOL    HW2 8118   1.960   1.065   3.185
 2407SOL     OW 8119   4.642   2.180   2.981
 2407SOL    HW1 8120   4.723   2.123   2.998
 2407SOL    HW2 8121   4.593   2.195   3.067
 2408SOL     OW 8122   3.594   5.150   2.477
 2408SOL    HW1 8123   3.535   5.122   2.402
 2408SOL    HW2 8124   3.618   5.071   2.533
 2409SOL     OW 8125   2.479   2.646   1.920
 2409SOL    HW1 8126   2.419   2.715   1.881
 2409SOL    HW2 8127   2.538   2.609   1.849
 2410SOL     OW 8128   6.577   2.937   5.898
 2410SOL    HW1 8129   6.537   2.975   5.814
 2410SOL    HW2 8130   6.644   2.867   5.873
 2411SOL     OW 8131   3.584   4.731   5.382
 2411SOL    HW1 8132   3.550   4.732   5.288
 2411SOL    HW2 8133   3.631   4.645   5.399
 2412SOL     OW 8134   2.681   3.644   0.245
 2412SOL    HW1 8135   2.600   3.628   0.303
 2412SOL    HW2 8136   2.724   3.557   0.222
 2413SOL     OW 8137   6.703   3.433   6.677
 2413SOL    HW1 8138   6.704   3.333   6.679
 2413SOL    HW2 8139   6.609   3.466   6.687
 2414SOL     OW 8140   5.676   3.584   2.905
 2414SOL    HW1 8141   5.653   3.593   3.002
 2414SOL    HW2 8142   5.767   3.543   2.897
 2415SOL     OW 8143   1.879   0.201   1.193
 2415SOL    HW1 8144   1.892   0.144   1.275
 2415SOL    HW2 8145   1.787   0.240   1.194
 2416SOL     OW 8146   2.176   1.199   5.011
 2416SOL    HW1 8147   2.238   1.268   4.975
 2416SOL    HW2 8148   2.122   1.238   5.086
 2417SOL     OW 8149   5.255   2.474   0.067
 2417SOL    HW1 8150   5.270   2.537   7.020
 2417SOL    HW2 8151   5.255   2.380   0.033
 2418SOL     OW 8152   3.389   3.626   4.897
 2418SOL    HW1 8153   3.434   3.693   4.956
 2418SOL    HW2 8154   3.448   3.606   4.819
 2419SOL     OW 8155   0.442   6.805   4.768
 2419SOL    HW1 8156   0.540   6.806   4.750
 2419SOL    HW2 8157   0.392   6.818   4.682
 2420SOL     OW 8158   4.344   7.025   2.455
 2420SOL    HW1 8159   4.391   6.985   2.376
 2420SOL    HW2 8160   4.263   6.970   2.477
 2421SOL     OW 8161   3.022   0.841   4.428
 2421SOL    HW1 8162   2.940   0.870   4.478
 2421SOL    HW2 8163   3.093   0.815   4.493
 2422SOL     OW 8164   5.247   0.518   0.848
 2422SOL    HW1 8165   5.249   0.584   0.923
 2422SOL    HW2 8166   5.248   0.567   0.760
 2423SOL     OW 8167   1.480   6.240   2.474
 2423SOL    HW1 8168   1.384   6.264   2.463
 2423SOL    HW2 8169   1.497   6.211   2.568
 2424SOL     OW 8170   5.205   5.950   6.333
 2424SOL    HW1 8171   5.222   5.870   6.276
 2424SOL    HW2 8172   5.179   5.920   6.425
 2425SOL     OW 8173   6.361   6.866   4.752
 2425SOL    HW1 8174   6.376   6.944   4.691
 2425SOL    HW2 8175   6.264   6.843   4.754
 2426SOL     OW 8176   1.305   4.913   4.372
 2426SOL    HW1 8177   1.246   4.903   4.452
 2426SOL    HW2 8178   1.384   4.969   4.396
 2427SOL     OW 8179   5.980   5.883   6.672
 2427SOL    HW1 8180   5.986   5.793   6.629
 2427SOL    HW2 8181   5.916   5.940   6.622
 2428SOL     OW 8182   1.125   0.116   4.344
 2428SOL    HW1 8183   1.039   0.151   4.308
 2428SOL    HW2 8184   1.114   0.020   4.368
 2429SOL     OW 8185   6.234   5.189   3.207
 2429SOL    HW1 8186   6.297   5.121   3.168
 2429SOL    HW2 8187   6.140   5.166   3.182
 2430SOL     OW 8188   5.524   2.712   0.769
 2430SOL    HW1 8189   5.613   2.712   0.724
 2430SOL    HW2 8190   5.536   2.726   0.867
 2431SOL     OW 8191   4.160   0.674   1.815
 2431SOL    HW1 8192   4.236   0.657   1.752
 2431SOL    HW2 8193   4.190   0.736   1.888
 2432SOL     OW 8194   4.649   6.342   2.909
 2432SOL    HW1 8195   4.666   6.410   2.981
 2432SOL    HW2 8196   4.590   6.382   2.839
 2433SOL     OW 8197   2.346   6.902   6.893
 2433SOL    HW1 8198   2.425   6.932   6.947
 2433SOL    HW2 8199   2.314   6.813   6.926
 2434SOL     OW 8200   4.546   1.353   3.321
 2434SOL    HW1 8201   4.633   1.372   3.275
 2434SOL    HW2 8202   4.525   1.426   3.385
 2435SOL     OW 8203   4.615   5.061   0.271
 2435SOL    HW1 8204   4.694   5.043   0.213
 2435SOL    HW2 8205   4.561   4.978   0.282
 2436SOL     OW 8206   2.008   6.821   0.874
 2436SOL    HW1 8207   1.927   6.784   0.828
 2436SOL    HW2 8208   1.980   6.881   0.949
 2437SOL     OW 8209   5.204   5.806   0.991
 2437SOL    HW1 8210   5.287   5.757   0.964
 2437SOL    HW2 8211   5.230   5.891   1.037
 2438SOL     OW 8212   4.098   0.926   4.839
 2438SOL    HW1 8213   4.081   0.908   4.742
 2438SOL    HW2 8214   4.081   0.843   4.892
 2439SOL     OW 8215   1.091   4.433   0.277
 2439SOL    HW1 8216   1.056   4.503   0.216
 2439SOL    HW2 8217   1.190   4.423   0.263
 2440SOL     OW 8218   3.527   6.859   5.227
 2440SOL    HW1 8219   3.550   6.917   5.148
 2440SOL    HW2 8220   3.467   6.910   5.289
 2441SOL     OW 8221   6.226   1.305   0.619
 2441SOL    HW1 8222   6.165   1.363   0.673
 2441SOL    HW2 8223   6.271   1.361   0.549
 2442SOL     OW 8224   5.767   5.437   3.468
 2442SOL    HW1 8225   5.856   5.482   3.457
 2442SOL    HW2 8226   5.695   5.495   3.433
 2443SOL     OW 8227   3.115   0.606   6.387
 2443SOL    HW1 8228   3.186   0.580   6.452
 2443SOL    HW2 8229   3.066   0.686   6.420
 2444SOL     OW 8230   3.921   4.114   6.897
 2444SOL    HW1 8231   3.938   4.057   6.977
 2444SOL    HW2 8232   3.827   4.100   6.866
 2445SOL     OW 8233   6.741   0.937   2.168
 2445SOL    HW1 8234   6.747   0.844   2.131
 2445SOL    HW2 8235   6.729   1.002   2.093
 2446SOL     OW 8236   0.350   2.886   4.065
 2446SOL    HW1 8237   0.426   2.822   4.079
 2446SOL    HW2 8238   0.340   2.905   3.967
 2447SOL     OW 8239   2.534   1.075   0.867
 2447SOL    HW1 8240   2.510   0.995   0.812
 2447SOL    HW2 8241   2.624   1.062   0.908
 2448SOL     OW 8242   6.540   1.266   4.260
 2448SOL    HW1 8243   6.520   1.274   4.357
 2448SOL    HW2 8244   6.492   1.186   4.223
 2449SOL     OW 8245   0.094   4.107   3.062
 2449SOL    HW1 8246   0.171   4.146   3.012
 2449SOL    HW2 8247   0.043   4.179   3.109
 2450SOL     OW 8248   3.275   5.467   5.865
 2450SOL    HW1 8249   3.184   5.497   5.893
 2450SOL    HW2 8250   3.267   5.392   5.799
 2451SOL     OW 8251   1.495   0.375   3.606
 2451SOL    HW1 8252   1.554   0.329   3.538
 2451SOL    HW2 8253   1.419   0.315   3.630
 2452SOL     OW 8254   3.002   1.988   3.202
 2452SOL    HW1 8255   3.020   1.890   3.210
 2452SOL    HW2 8256   3.088   2.038   3.210
 2453SOL     OW 8257   6.890   3.547   0.869
 2453SOL    HW1 8258   6.804   3.507   0.902
 2453SOL    HW2 8259   6.896   3.534   0.770
 2454SOL     OW 8260   3.815   0.589   6.791
 2454SOL    HW1 8261   3.847   0.615   6.883
 2454SOL    HW2 8262   3.839   0.662   6.727
 2455SOL     OW 8263   4.056   0.321   0.530
 2455SOL    HW1 8264   4.066   0.403   0.475
 2455SOL    HW2 8265   4.051   0.346   0.627
 2456SOL     OW 8266   5.944   2.003   0.172
 2456SOL    HW1 8267   5.867   1.948   0.206
 2456SOL    HW2 8268   5.908   2.083   0.125
 2457SOL     OW 8269   6.694   0.240   6.640
 2457SOL    HW1 8270   6.634   0.312   6.605
 2457SOL    HW2 8271   6.788   0.275   6.647
 2458SOL     OW 8272   2.192   6.324   3.654
 2458SOL    HW1 8273   2.111   6.268   3.674
 2458SOL    HW2 8274   2.184   6.412   3.701
 2459SOL     OW 8275   2.488   6.132   6.040
 2459SOL    HW1 8276   2.515   6.214   5.990
 2459SOL    HW2 8277   2.564   6.100   6.096
 2460SOL     OW 8278   1.907   1.606   1.649
 2460SOL    HW1 8279   1.949   1.643   1.566
 2460SOL    HW2 8280   1.951   1.520   1.674
 2461SOL     OW 8281   4.596   1.366   2.954
 2461SOL    HW1 8282   4.516   1.308   2.939
 2461SOL    HW2 8283   4.677   1.322   2.914
 2462SOL     OW 8284   1.731   5.528   0.176
 2462SOL    HW1 8285   1.639   5.558   0.152
 2462SOL    HW2 8286   1.797   5.597   0.146
 2463SOL     OW 8287   6.337   1.986   5.742
 2463SOL    HW1 8288   6.365   1.931   5.663
 2463SOL    HW2 8289   6.383   2.075   5.739
 2464SOL     OW 8290   2.159   3.854   2.499
 2464SOL    HW1 8291   2.157   3.859   2.399
 2464SOL    HW2 8292   2.147   3.759   2.528
 2465SOL     OW 8293   1.018   0.206   0.791
 2465SOL    HW1 8294   0.981   0.287   0.836
 2465SOL    HW2 8295   1.114   0.194   0.817
 2466SOL     OW 8296   2.238   1.675   2.705
 2466SOL    HW1 8297   2.207   1.584   2.733
 2466SOL    HW2 8298   2.249   1.676   2.605
 2467SOL     OW 8299   4.934   1.341   5.486
 2467SOL    HW1 8300   4.928   1.266   5.552
 2467SOL    HW2 8301   4.843   1.361   5.450
 2468SOL     OW 8302   4.672   6.456   1.962
 2468SOL    HW1 8303   4.650   6.452   2.059
 2468SOL    HW2 8304   4.602   6.408   1.909
 2469SOL     OW 8305   3.977   4.204   5.718
 2469SOL    HW1 8306   3.905   4.180   5.652
 2469SOL    HW2 8307   3.956   4.162   5.806
 2470SOL     OW 8308   3.843   4.292   6.342
 2470SOL    HW1 8309   3.936   4.325   6.330
 2470SOL    HW2 8310   3.798   4.286   6.253
 2471SOL     OW 8311   2.486   6.392   0.718
 2471SOL    HW1 8312   2.537   6.475   0.740
 2471SOL    HW2 8313   2.513   6.318   0.779
 2472SOL     OW 8314   4.977   2.565   4.544
 2472SOL    HW1 8315   4.943   2.533   4.632
 2472SOL    HW2 8316   4.938   2.510   4.471
 2473SOL     OW 8317   2.151   3.791   4.945
 2473SOL    HW1 8318   2.067   3.810   4.996
 2473SOL    HW2 8319   2.207   3.874   4.941
 2474SOL     OW 8320   0.242   5.976   0.907
 2474SOL    HW1 8321   0.262   5.879   0.924
 2474SOL    HW2 8322   0.147   5.986   0.879
 2475SOL     OW 8323   4.687   1.068   2.528
 2475SOL    HW1 8324   4.733   1.141   2.579
 2475SOL    HW2 8325   4.598   1.102   2.496
 2476SOL     OW 8326   6.772   1.607   3.058
 2476SOL    HW1 8327   6.716   1.553   3.121
 2476SOL    HW2 8328   6.713   1.661   2.998
 2477SOL     OW 8329   4.521   1.497   1.926
 2477SOL    HW1 8330   4.506   1.400   1.945
 2477SOL    HW2 8331   4.520   1.512   1.827
 2478SOL     OW 8332   6.321   1.205   2.261
 2478SOL    HW1 8333   6.241   1.221   2.203
 2478SOL    HW2 8334   6.292   1.152   2.341
 2479SOL     OW 8335   1.328   4.267   1.515
 2479SOL    HW1 8336   1.364   4.349   1.560
 2479SOL    HW2 8337   1.233   4.253   1.543
 2480SOL     OW 8338   5.416   4.613   0.858
 2480SOL    HW1 8339   5.419   4.540   0.790
 2480SOL    HW2 8340   5.418   4.702   0.811
 2481SOL     OW 8341   2.277   0.847   0.136
 2481SOL    HW1 8342   2.305   0.807   0.049
 2481SOL    HW2 8343   2.327   0.932   0.152
 2482SOL     OW 8344   4.833   3.655   5.516
 2482SOL    HW1 8345   4.779   3.739   5.522
 2482SOL    HW2 8346   4.772   3.577   5.505
 2483SOL     OW 8347   1.671   1.885   6.972
 2483SOL    HW1 8348   1.579   1.917   6.947
 2483SOL    HW2 8349   1.714   1.954   0.002
 2484SOL     OW 8350   3.327   0.588   0.125
 2484SOL    HW1 8351   3.411   0.595   0.071
 2484SOL    HW2 8352   3.284   0.678   0.132
 2485SOL     OW 8353   5.858   4.140   1.358
 2485SOL    HW1 8354   5.831   4.052   1.319
 2485SOL    HW2 8355   5.823   4.147   1.451
 2486SOL     OW 8356   2.147   5.198   4.419
 2486SOL    HW1 8357   2.225   5.190   4.356
 2486SOL    HW2 8358   2.179   5.183   4.513
 2487SOL     OW 8359   3.731   6.058   0.255
 2487SOL    HW1 8360   3.696   6.127   0.318
 2487SOL    HW2 8361   3.655   6.003   0.220
 2488SOL     OW 8362   2.113   4.300   2.340
 2488SOL    HW1 8363   2.143   4.385   2.295
 2488SOL    HW2 8364   2.101   4.316   2.438
 2489SOL     OW 8365   1.225   6.003   2.759
 2489SOL    HW1 8366   1.191   5.918   2.800
 2489SOL    HW2 8367   1.270   5.983   2.672
 2490SOL     OW 8368   6.761   5.177   1.813
 2490SOL    HW1 8369   6.727   5.228   1.893
 2490SOL    HW2 8370   6.816   5.099   1.844
 2491SOL     OW 8371   2.909   5.384   1.030
 2491SOL    HW1 8372   2.984   5.415   1.088
 2491SOL    HW2 8373   2.890   5.453   0.960
 2492SOL     OW 8374   4.142   2.252   0.659
 2492SOL    HW1 8375   4.204   2.181   0.625
 2492SOL    HW2 8376   4.177   2.342   0.633
 2493SOL     OW 8377   6.191   0.822   2.191
 2493SOL    HW1 8378   6.253   0.757   2.234
 2493SOL    HW2 8379   6.243   0.887   2.135
 2494SOL     OW 8380   5.729   3.677   2.181
 2494SOL    HW1 8381   5.791   3.729   2.122
 2494SOL    HW2 8382   5.760   3.683   2.276
 2495SOL     OW 8383   5.314   0.260   4.190
 2495SOL    HW1 8384   5.383   0.320   4.149
 2495SOL    HW2 8385   5.235   0.313   4.218
 2496SOL     OW 8386   0.531   3.967   5.438
 2496SOL    HW1 8387   0.458   3.902   5.415
 2496SOL    HW2 8388   0.543   4.032   5.363
 2497SOL     OW 8389   0.309   0.461   1.066
 2497SOL    HW1 8390   0.284   0.458   0.969
 2497SOL    HW2 8391   0.346   0.373   1.094
 2498SOL     OW 8392   3.157   1.409   4.587
 2498SOL    HW1 8393   3.201   1.319   4.585
 2498SOL    HW2 8394   3.062   1.401   4.558
 2499SOL     OW 8395   5.749   2.208   4.359
 2499SOL    HW1 8396   5.798   2.121   4.364
 2499SOL    HW2 8397   5.656   2.196   4.395
 2500SOL     OW 8398   4.212   2.865   0.116
 2500SOL    HW1 8399   4.208   2.785   0.055
 2500SOL    HW2 8400   4.303   2.871   0.156
 2501SOL     OW 8401   5.756   5.485   6.917
 2501SOL    HW1 8402   5.682   5.540   6.956
 2501SOL    HW2 8403   5.728   5.390   6.911
 2502SOL     OW 8404   2.021   5.489   2.765
 2502SOL    HW1 8405   2.033   5.588   2.772
 2502SOL    HW2 8406   1.947   5.469   2.700
 2503SOL     OW 8407   3.235   5.465   4.807
 2503SOL    HW1 8408   3.197   5.373   4.810
 2503SOL    HW2 8409   3.266   5.487   4.714
 2504SOL     OW 8410   3.198   5.306   4.503
 2504SOL    HW1 8411   3.171   5.396   4.537
 2504SOL    HW2 8412   3.143   5.283   4.423
 2505SOL     OW 8413   1.154   5.950   3.885
 2505SOL    HW1 8414   1.142   5.875   3.820
 2505SOL    HW2 8415   1.184   6.032   3.836
 2506SOL     OW 8416   6.112   3.105   6.163
 2506SOL    HW1 8417   6.158   3.166   6.227
 2506SOL    HW2 8418   6.152   3.116   6.072
 2507SOL     OW 8419   0.943   4.609   0.829
 2507SOL    HW1 8420   1.011   4.629   0.758
 2507SOL    HW2 8421   0.859   4.577   0.786
 2508SOL     OW 8422   2.447   1.532   1.856
 2508SOL    HW1 8423   2.532   1.517   1.905
 2508SOL    HW2 8424   2.420   1.628   1.864
 2509SOL     OW 8425   6.524   2.633   2.408
 2509SOL    HW1 8426   6.490   2.568   2.476
 2509SOL    HW2 8427   6.498   2.601   2.317
 2510SOL     OW 8428   3.205   4.270   1.336
 2510SOL    HW1 8429   3.173   4.178   1.357
 2510SOL    HW2 8430   3.205   4.283   1.237
 2511SOL     OW 8431   3.004   1.445   3.545
 2511SOL    HW1 8432   3.028   1.357   3.504
 2511SOL    HW2 8433   2.970   1.507   3.474
 2512SOL     OW 8434   4.668   4.653   4.904
 2512SOL    HW1 8435   4.587   4.606   4.869
 2512SOL    HW2 8436   4.747   4.627   4.850
 2513SOL     OW 8437   1.326   3.738   4.772
 2513SOL    HW1 8438   1.304   3.647   4.806
 2513SOL    HW2 8439   1.425   3.747   4.763
 2514SOL     OW 8440   6.589   3.127   4.014
 2514SOL    HW1 8441   6.654   3.202   4.002
 2514SOL    HW2 8442   6.500   3.163   4.040
 2515SOL     OW 8443   1.356   6.389   0.523
 2515SOL    HW1 8444   1.441   6.366   0.571
 2515SOL    HW2 8445   1.278   6.359   0.577
 2516SOL     OW 8446   6.085   0.874   3.133
 2516SOL    HW1 8447   6.034   0.951   3.097
 2516SOL    HW2 8448   6.113   0.893   3.227
 2517SOL     OW 8449   0.488   5.020   6.101
 2517SOL    HW1 8450   0.457   5.032   6.006
 2517SOL    HW2 8451   0.562   5.085   6.119
 2518SOL     OW 8452   1.230   3.971   6.843
 2518SOL    HW1 8453   1.195   3.960   6.936
 2518SOL    HW2 8454   1.320   3.927   6.836
 2519SOL     OW 8455   5.252   6.345   4.129
 2519SOL    HW1 8456   5.260   6.252   4.094
 2519SOL    HW2 8457   5.266   6.410   4.055
 2520SOL     OW 8458   1.811   2.550   6.718
 2520SOL    HW1 8459   1.737   2.482   6.726
 2520SOL    HW2 8460   1.805   2.615   6.794
 2521SOL     OW 8461   1.282   6.879   5.312
 2521SOL    HW1 8462   1.278   6.978   5.296
 2521SOL    HW2 8463   1.226   6.832   5.244
 2522SOL     OW 8464   0.184   3.388   5.914
 2522SOL    HW1 8465   0.090   3.407   5.887
 2522SOL    HW2 8466   0.235   3.474   5.923
 2523SOL     OW 8467   0.519   3.015   2.009
 2523SOL    HW1 8468   0.590   2.988   1.943
 2523SOL    HW2 8469   0.452   2.941   2.017
 2524SOL     OW 8470   0.679   5.742   5.634
 2524SOL    HW1 8471   0.588   5.699   5.632
 2524SOL    HW2 8472   0.683   5.809   5.708
 2525SOL     OW 8473   1.041   2.559   4.252
 2525SOL    HW1 8474   1.056   2.535   4.347
 2525SOL    HW2 8475   1.064   2.655   4.237
 2526SOL     OW 8476   1.790   4.502   5.459
 2526SOL    HW1 8477   1.733   4.574   5.419
 2526SOL    HW2 8478   1.830   4.534   5.544
 2527SOL     OW 8479   5.449   6.148   4.916
 2527SOL    HW1 8480   5.409   6.070   4.867
 2527SOL    HW2 8481   5.398   6.231   4.894
 2528SOL     OW 8482   5.711   4.805   1.431
 2528SOL    HW1 8483   5.759   4.719   1.446
 2528SOL    HW2 8484   5.643   4.818   1.503
 2529SOL     OW 8485   6.941   6.359   6.852
 2529SOL    HW1 8486   6.945   6.289   6.923
 2529SOL    HW2 8487   6.845   6.377   6.829
 2530SOL     OW 8488   2.053   6.884   4.879
 2530SOL    HW1 8489   2.004   6.822   4.818
 2530SOL    HW2 8490   2.007   6.973   4.879
 2531SOL     OW 8491   4.740   6.077   4.256
 2531SOL    HW1 8492   4.733   5.978   4.268
 2531SOL    HW2 8493   4.730   6.122   4.345
 2532SOL     OW 8494   0.441   5.984   0.716
 2532SOL    HW1 8495   0.512   5.918   0.739
 2532SOL    HW2 8496   0.362   5.971   0.777
 2533SOL     OW 8497   3.199   6.847   2.784
 2533SOL    HW1 8498   3.281   6.794   2.804
 2533SOL    HW2 8499   3.119   6.804   2.826
 2534SOL     OW 8500   3.337   1.114   2.998
 2534SOL    HW1 8501   3.310   1.037   2.941
 2534SOL    HW2 8502   3.254   1.160   3.032
 2535SOL     OW 8503   3.079   2.954   6.163
 2535SOL    HW1 8504   3.129   2.868   6.148
 2535SOL    HW2 8505   3.143   3.025   6.193
 2536SOL     OW 8506   6.454   1.831   3.744
 2536SOL    HW1 8507   6.503   1.894   3.805
 2536SOL    HW2 8508   6.509   1.749   3.730
 2537SOL     OW 8509   4.624   6.582   6.669
 2537SOL    HW1 8510   4.691   6.514   6.638
 2537SOL    HW2 8511   4.620   6.582   6.769
 2538SOL     OW 8512   1.453   4.387   4.464
 2538SOL    HW1 8513   1.524   4.348   4.523
 2538SOL    HW2 8514   1.445   4.485   4.480
 2539SOL     OW 8515   5.563   0.919   6.185
 2539SOL    HW1 8516   5.490   0.956   6.128
 2539SOL    HW2 8517   5.534   0.830   6.222
 2540SOL     OW 8518   4.142   1.042   2.605
 2540SOL    HW1 8519   4.064   1.081   2.554
 2540SOL    HW2 8520   4.222   1.038   2.546
 2541SOL     OW 8521   1.975   6.725   5.586
 2541SOL    HW1 8522   1.951   6.717   5.489
 2541SOL    HW2 8523   1.928   6.653   5.638
 2542SOL     OW 8524   4.485   1.434   6.310
 2542SOL    HW1 8525   4.547   1.464   6.237
 2542SOL    HW2 8526   4.527   1.359   6.360
 2543SOL     OW 8527   2.208   2.203   2.679
 2543SOL    HW1 8528   2.154   2.271   2.728
 2543SOL    HW2 8529   2.186   2.112   2.713
 2544SOL     OW 8530   7.014   5.487   1.460
 2544SOL    HW1 8531   6.945   5.426   1.499
 2544SOL    HW2 8532   0.036   5.438   1.388
 2545SOL     OW 8533   2.268   0.685   1.462
 2545SOL    HW1 8534   2.270   0.710   1.365
 2545SOL    HW2 8535   2.184   0.720   1.504
 2546SOL     OW 8536   0.372   2.234   1.654
 2546SOL    HW1 8537   0.306   2.257   1.726
 2546SOL    HW2 8538   0.324   2.217   1.569
 2547SOL     OW 8539   5.942   3.855   6.984
 2547SOL    HW1 8540   5.901   3.863   0.046
 2547SOL    HW2 8541   6.024   3.912   6.979
 2548SOL     OW 8542   2.879   6.859   5.979
 2548SOL    HW1 8543   2.906   6.766   6.003
 2548SOL    HW2 8544   2.841   6.905   6.059
 2549SOL     OW 8545   1.723   0.887   1.387
 2549SOL    HW1 8546   1.773   0.973   1.379
 2549SOL    HW2 8547   1.745   0.827   1.310
 2550SOL     OW 8548   6.832   0.641   6.662
 2550SOL    HW1 8549   6.738   0.623   6.691
 2550SOL    HW2 8550   6.832   0.691   6.575
 2551SOL     OW 8551   3.026   5.565   0.362
 2551SOL    HW1 8552   2.981   5.489   0.314
 2551SOL    HW2 8553   3.097   5.604   0.303
 2552SOL     OW 8554   1.460   5.634   6.137
 2552SOL    HW1 8555   1.544   5.580   6.141
 2552SOL    HW2 8556   1.480   5.729   6.164
 2553SOL     OW 8557   3.859   3.374   6.978
 2553SOL    HW1 8558   3.941   3.319   6.959
 2553SOL    HW2 8559   3.874   3.468   6.946
 2554SOL     OW 8560   1.838   6.359   6.665
 2554SOL    HW1 8561   1.856   6.424   6.592
 2554SOL    HW2 8562   1.871   6.395   6.752
 2555SOL     OW 8563   6.474   6.402   6.611
 2555SOL    HW1 8564   6.481   6.409   6.512
 2555SOL    HW2 8565   6.383   6.368   6.635
 2556SOL     OW 8566   4.329   5.314   0.083
 2556SOL    HW1 8567   4.385   5.232   0.075
 2556SOL    HW2 8568   4.363   5.384   0.020
 2557SOL     OW 8569   2.567   2.309   6.461
 2557SOL    HW1 8570   2.666   2.323   6.450
 2557SOL    HW2 8571   2.518   2.358   6.389
 2558SOL     OW 8572   3.962   3.455   6.018
 2558SOL    HW1 8573   4.052   3.450   6.061
 2558SOL    HW2 8574   3.938   3.366   5.979
 2559SOL     OW 8575   6.458   3.416   4.850
 2559SOL    HW1 8576   6.360   3.435   4.854
 2559SOL    HW2 8577   6.481   3.348   4.920
 2560SOL     OW 8578   5.794   3.237   4.284
 2560SOL    HW1 8579   5.819   3.208   4.192
 2560SOL    HW2 8580   5.789   3.337   4.287
 2561SOL     OW 8581   3.236   0.331   3.798
 2561SOL    HW1 8582   3.182   0.301   3.719
 2561SOL    HW2 8583   3.244   0.430   3.797
 2562SOL     OW 8584   2.093   6.131   2.275
 2562SOL    HW1 8585   2.044   6.046   2.255
 2562SOL    HW2 8586   2.119   6.176   2.190
 2563SOL     OW 8587   4.392   1.919   6.681
 2563SOL    HW1 8588   4.440   1.979   6.746
 2563SOL    HW2 8589   4.440   1.832   6.674
 2564SOL     OW 8590   1.266   6.936   6.371
 2564SOL    HW1 8591   1.246   0.000   6.402
 2564SOL    HW2 8592   1.358   6.934   6.330
 2565SOL     OW 8593   0.260   1.229   0.463
 2565SOL    HW1 8594   0.284   1.173   0.542
 2565SOL    HW2 8595   0.272   1.326   0.485
 2566SOL     OW 8596   1.661   6.912   1.201
 2566SOL    HW1 8597   1.569   6.947   1.219
 2566SOL    HW2 8598   1.711   6.904   1.288
 2567SOL     OW 8599   1.342   1.565   1.777
 2567SOL    HW1 8600   1.342   1.468   1.803
 2567SOL    HW2 8601   1.433   1.591   1.745
 2568SOL     OW 8602   3.695   6.924   6.741
 2568SOL    HW1 8603   3.779   6.880   6.710
 2568SOL    HW2 8604   3.632   6.854   6.776
 2569SOL     OW 8605   3.228   0.541   2.157
 2569SOL    HW1 8606   3.255   0.637   2.155
 2569SOL    HW2 8607   3.129   0.534   2.168
 2570SOL     OW 8608   6.527   0.705   0.048
 2570SOL    HW1 8609   6.489   0.630   0.102
 2570SOL    HW2 8610   6.620   0.681   0.019
 2571SOL     OW 8611   2.006   3.742   5.559
 2571SOL    HW1 8612   1.988   3.742   5.461
 2571SOL    HW2 8613   1.970   3.657   5.599
 2572SOL     OW 8614   2.212   6.047   0.808
 2572SOL    HW1 8615   2.189   5.966   0.756
 2572SOL    HW2 8616   2.250   6.117   0.747
 2573SOL     OW 8617   6.277   1.723   1.956
 2573SOL    HW1 8618   6.223   1.757   1.880
 2573SOL    HW2 8619   6.369   1.764   1.953
 2574SOL     OW 8620   6.346   3.223   0.187
 2574SOL    HW1 8621   6.442   3.251   0.181
 2574SOL    HW2 8622   6.290   3.300   0.216
 2575SOL     OW 8623   4.756   5.296   0.354
 2575SOL    HW1 8624   4.833   5.256   0.404
 2575SOL    HW2 8625   4.685   5.227   0.342
 2576SOL     OW 8626   4.201   6.958   4.574
 2576SOL    HW1 8627   4.125   6.896   4.588
 2576SOL    HW2 8628   4.178   7.025   4.503
 2577SOL     OW 8629   3.976   6.487   2.195
 2577SOL    HW1 8630   3.902   6.443   2.248
 2577SOL    HW2 8631   3.982   6.583   2.219
 2578SOL     OW 8632   4.789   2.046   4.258
 2578SOL    HW1 8633   4.834   2.063   4.346
 2578SOL    HW2 8634   4.827   2.106   4.188
 2579SOL     OW 8635   1.330   0.057   2.914
 2579SOL    HW1 8636   1.401   0.121   2.944
 2579SOL    HW2 8637   1.298   0.083   2.823
 2580SOL     OW 8638   2.548   2.601   6.657
 2580SOL    HW1 8639   2.535   2.563   6.566
 2580SOL    HW2 8640   2.473   2.662   6.680
 2581SOL     OW 8641   6.956   4.212   1.016
 2581SOL    HW1 8642   0.001   4.279   1.005
 2581SOL    HW2 8643   6.966   4.140   0.948
 2582SOL     OW 8644   0.748   4.303   2.247
 2582SOL    HW1 8645   0.822   4.344   2.299
 2582SOL    HW2 8646   0.667   4.294   2.305
 2583SOL     OW 8647   0.609   1.554   1.530
 2583SOL    HW1 8648   0.645   1.557   1.437
 2583SOL    HW2 8649   0.680   1.584   1.594
 2584SOL     OW 8650   4.088   5.672   0.208
 2584SOL    HW1 8651   4.064   5.593   0.151
 2584SOL    HW2 8652   4.020   5.682   0.281
 2585SOL     OW 8653   4.208   2.487   1.268
 2585SOL    HW1 8654   4.211   2.537   1.181
 2585SOL    HW2 8655   4.277   2.414   1.267
 2586SOL     OW 8656   3.196   1.798   3.675
 2586SOL    HW1 8657   3.100   1.786   3.700
 2586SOL    HW2 8658   3.255   1.779   3.754
 2587SOL     OW 8659   0.454   0.350   3.603
 2587SOL    HW1 8660   0.476   0.384   3.695
 2587SOL    HW2 8661   0.466   0.424   3.537
 2588SOL     OW 8662   4.898   0.210   0.076
 2588SOL    HW1 8663   4.822   0.251   0.128
 2588SOL    HW2 8664   4.970   0.278   0.062
 2589SOL     OW 8665   6.808   6.092   6.681
 2589SOL    HW1 8666   6.757   6.105   6.766
 2589SOL    HW2 8667   6.796   6.174   6.624
 2590SOL     OW 8668   3.315   6.389   1.667
 2590SOL    HW1 8669   3.346   6.324   1.737
 2590SOL    HW2 8670   3.296   6.340   1.582
 2591SOL     OW 8671   0.034   5.940   2.330
 2591SOL    HW1 8672   0.023   5.866   2.396
 2591SOL    HW2 8673   0.081   5.904   2.249
 2592SOL     OW 8674   3.627   6.569   1.112
 2592SOL    HW1 8675   3.557   6.561   1.183
 2592SOL    HW2 8676   3.711   6.524   1.144
 2593SOL     OW 8677   3.067   5.691   1.033
 2593SOL    HW1 8678   3.133   5.687   0.958
 2593SOL    HW2 8679   3.099   5.633   1.108
 2594SOL     OW 8680   0.704   5.625   6.037
 2594SOL    HW1 8681   0.734   5.532   6.057
 2594SOL    HW2 8682   0.604   5.628   6.035
 2595SOL     OW 8683   6.579   2.097   4.452
 2595SOL    HW1 8684   6.633   2.063   4.374
 2595SOL    HW2 8685   6.560   2.194   4.440
 2596SOL     OW 8686   3.992   1.924   1.862
 2596SOL    HW1 8687   4.057   1.918   1.786
 2596SOL    HW2 8688   3.990   1.838   1.912
 2597SOL     OW 8689   1.303   4.028   5.797
 2597SOL    HW1 8690   1.261   3.965   5.732
 2597SOL    HW2 8691   1.384   3.986   5.837
 2598SOL     OW 8692   6.281   1.218   4.364
 2598SOL    HW1 8693   6.282   1.208   4.265
 2598SOL    HW2 8694   6.306   1.312   4.389
 2599SOL     OW 8695   2.263   6.902   0.831
 2599SOL    HW1 8696   2.305   6.813   0.816
 2599SOL    HW2 8697   2.164   6.893   0.834
 2600SOL     OW 8698   5.148   3.403   4.085
 2600SOL    HW1 8699   5.200   3.483   4.115
 2600SOL    HW2 8700   5.205   3.321   4.093
 2601SOL     OW 8701   1.799   1.941   0.649
 2601SOL    HW1 8702   1.812   1.865   0.586
 2601SOL    HW2 8703   1.780   1.906   0.741
 2602SOL     OW 8704   6.534   4.398   4.197
 2602SOL    HW1 8705   6.575   4.307   4.206
 2602SOL    HW2 8706   6.442   4.397   4.237
 2603SOL     OW 8707   2.422   1.805   1.835
 2603SOL    HW1 8708   2.324   1.790   1.823
 2603SOL    HW2 8709   2.437   1.863   1.916
 2604SOL     OW 8710   5.066   1.331   2.739
 2604SOL    HW1 8711   4.999   1.404   2.747
 2604SOL    HW2 8712   5.150   1.358   2.785
 2605SOL     OW 8713   2.026   4.321   2.612
 2605SOL    HW1 8714   2.026   4.305   2.711
 2605SOL    HW2 8715   1.941   4.286   2.573
 2606SOL     OW 8716   6.627   4.319   1.560
 2606SOL    HW1 8717   6.684   4.327   1.478
 2606SOL    HW2 8718   6.550   4.258   1.541
 2607SOL     OW 8719   0.429   0.714   7.004
 2607SOL    HW1 8720   0.409   0.767   0.058
 2607SOL    HW2 8721   0.528   0.716   6.986
 2608SOL     OW 8722   4.968   4.850   1.576
 2608SOL    HW1 8723   4.915   4.934   1.592
 2608SOL    HW2 8724   4.908   4.771   1.586
 2609SOL     OW 8725   6.857   1.817   1.543
 2609SOL    HW1 8726   6.950   1.835   1.510
 2609SOL    HW2 8727   6.848   1.721   1.567
 2610SOL     OW 8728   0.227   5.032   4.840
 2610SOL    HW1 8729   0.207   4.955   4.900
 2610SOL    HW2 8730   0.262   4.999   4.753
 2611SOL     OW 8731   4.399   6.347   1.009
 2611SOL    HW1 8732   4.323   6.368   0.947
 2611SOL    HW2 8733   4.365   6.295   1.087
 2612SOL     OW 8734   7.004   6.900   5.935
 2612SOL    HW1 8735   0.067   6.935   5.915
 2612SOL    HW2 8736   6.980   6.831   5.867
 2613SOL     OW 8737   2.851   6.755   6.798
 2613SOL    HW1 8738   2.849   6.849   6.833
 2613SOL    HW2 8739   2.763   6.712   6.816
 2614SOL     OW 8740   6.965   0.818   6.123
 2614SOL    HW1 8741   6.941   0.733   6.076
 2614SOL    HW2 8742   6.945   0.809   6.221
 2615SOL     OW 8743   0.018   2.243   3.248
 2615SOL    HW1 8744   6.966   2.280   3.292
 2615SOL    HW2 8745   0.094   2.240   3.313
 2616SOL     OW 8746   3.503   3.025   5.455
 2616SOL    HW1 8747   3.464   3.077   5.530
 2616SOL    HW2 8748   3.537   3.088   5.385
 2617SOL     OW 8749   3.445   6.209   0.558
 2617SOL    HW1 8750   3.385   6.283   0.591
 2617SOL    HW2 8751   3.403   6.166   0.479
 2618SOL     OW 8752   7.010   0.498   4.347
 2618SOL    HW1 8753   6.994   0.597   4.345
 2618SOL    HW2 8754   6.939   0.452   4.294
 2619SOL     OW 8755   4.212   1.880   3.675
 2619SOL    HW1 8756   4.121   1.845   3.698
 2619SOL    HW2 8757   4.246   1.834   3.593
 2620SOL     OW 8758   0.160   0.147   3.168
 2620SOL    HW1 8759   0.217   0.083   3.116
 2620SOL    HW2 8760   0.172   0.239   3.132
 2621SOL     OW 8761   1.509   5.570   2.773
 2621SOL    HW1 8762   1.586   5.505   2.779
 2621SOL    HW2 8763   1.521   5.629   2.694
 2622SOL     OW 8764   2.070   3.080   5.375
 2622SOL    HW1 8765   2.167   3.065   5.393
 2622SOL    HW2 8766   2.059   3.163   5.321
 2623SOL     OW 8767   1.814   1.560   5.387
 2623SOL    HW1 8768   1.833   1.491   5.457
 2623SOL    HW2 8769   1.815   1.516   5.297
 2624SOL     OW 8770   6.586   1.987   6.012
 2624SOL    HW1 8771   6.614   1.976   5.917
 2624SOL    HW2 8772   6.616   2.076   6.046
 2625SOL     OW 8773   2.243   2.660   5.284
 2625SOL    HW1 8774   2.209   2.722   5.213
 2625SOL    HW2 8775   2.343   2.659   5.282
 2626SOL     OW 8776   0.411   0.216   5.710
 2626SOL    HW1 8777   0.471   0.215   5.630
 2626SOL    HW2 8778   0.452   0.161   5.783
 2627SOL     OW 8779   1.623   1.188   5.571
 2627SOL    HW1 8780   1.545   1.181   5.508
 2627SOL    HW2 8781   1.683   1.261   5.540
 2628SOL     OW 8782   1.821   4.623   5.725
 2628SOL    HW1 8783   1.785   4.706   5.767
 2628SOL    HW2 8784   1.920   4.628   5.721
 2629SOL     OW 8785   2.944   3.026   1.511
 2629SOL    HW1 8786   2.973   3.114   1.550
 2629SOL    HW2 8787   2.895   2.974   1.581
 2630SOL     OW 8788   3.010   1.824   2.532
 2630SOL    HW1 8789   3.015   1.733   2.572
 2630SOL    HW2 8790   3.096   1.873   2.549
 2631SOL     OW 8791   5.304   0.826   5.695
 2631SOL    HW1 8792   5.369   0.778   5.636
 2631SOL    HW2 8793   5.339   0.917   5.716
 2632SOL     OW 8794   4.100   3.070   6.455
 2632SOL    HW1 8795   4.064   3.093   6.364
 2632SOL    HW2 8796   4.058   2.985   6.487
 2633SOL     OW 8797   0.290   1.255   4.571
 2633SOL    HW1 8798   0.351   1.282   4.645
 2633SOL    HW2 8799   0.342   1.206   4.500
 2634SOL     OW 8800   0.657   4.667   3.477
 2634SOL    HW1 8801   0.690   4.696   3.567
 2634SOL    HW2 8802   0.662   4.568   3.469
 2635SOL     OW 8803   6.613   6.146   5.290
 2635SOL    HW1 8804   6.515   6.122   5.290
 2635SOL    HW2 8805   6.637   6.191   5.204
 2636SOL     OW 8806   4.891   0.780   5.545
 2636SOL    HW1 8807   4.816   0.725   5.509
 2636SOL    HW2 8808   4.968   0.719   5.567
 2637SOL     OW 8809   4.648   1.908   3.693
 2637SOL    HW1 8810   4.740   1.938   3.717
 2637SOL    HW2 8811   4.645   1.883   3.596
 2638SOL     OW 8812   6.693   6.927   3.735
 2638SOL    HW1 8813   6.593   6.937   3.735
 2638SOL    HW2 8814   6.718   6.849   3.792
 2639SOL     OW 8815   7.004   6.024   0.850
 2639SOL    HW1 8816   7.001   6.084   0.770
 2639SOL    HW2 8817   6.956   5.939   0.830
 2640SOL     OW 8818   0.597   5.959   5.281
 2640SOL    HW1 8819   0.546   5.939   5.364
 2640SOL    HW2 8820   0.691   5.986   5.305
 2641SOL     OW 8821   4.991   3.188   2.850
 2641SOL    HW1 8822   4.976   3.241   2.767
 2641SOL    HW2 8823   5.088   3.165   2.858
 2642SOL     OW 8824   4.317   6.501   3.874
 2642SOL    HW1 8825   4.377   6.558   3.931
 2642SOL    HW2 8826   4.222   6.520   3.899
 2643SOL     OW 8827   0.468   4.019   3.371
 2643SOL    HW1 8828   0.407   3.943   3.397
 2643SOL    HW2 8829   0.478   4.081   3.448
 2644SOL     OW 8830   5.619   6.355   5.553
 2644SOL    HW1 8831   5.661   6.424   5.612
 2644SOL    HW2 8832   5.681   6.332   5.478
 2645SOL     OW 8833   4.408   5.866   4.411
 2645SOL    HW1 8834   4.474   5.876   4.337
 2645SOL    HW2 8835   4.342   5.941   4.408
 2646SOL     OW 8836   6.239   0.977   7.026
 2646SOL    HW1 8837   6.190   0.961   0.083
 2646SOL    HW2 8838   6.249   0.890   6.977
 2647SOL     OW 8839   6.472   0.198   2.223
 2647SOL    HW1 8840   6.523   0.283   2.210
 2647SOL    HW2 8841   6.532   0.120   2.210
 2648SOL     OW 8842   0.603   0.199   4.238
 2648SOL    HW1 8843   0.665   0.133   4.281
 2648SOL    HW2 8844   0.520   0.153   4.208
 2649SOL     OW 8845   5.414   2.630   6.721
 2649SOL    HW1 8846   5.458   2.551   6.764
 2649SOL    HW2 8847   5.479   2.705   6.717
 2650SOL     OW 8848   1.261   4.209   4.525
 2650SOL    HW1 8849   1.309   4.291   4.494
 2650SOL    HW2 8850   1.311   4.167   4.600
 2651SOL     OW 8851   0.926   1.136   0.576
 2651SOL    HW1 8852   0.924   1.037   0.572
 2651SOL    HW2 8853   1.019   1.167   0.596
 2652SOL     OW 8854   4.079   3.278   4.411
 2652SOL    HW1 8855   4.012   3.275   4.485
 2652SOL    HW2 8856   4.149   3.208   4.427
 2653SOL     OW 8857   5.019   6.873   4.949
 2653SOL    HW1 8858   4.949   6.804   4.928
 2653SOL    HW2 8859   4.975   6.953   4.991
 2654SOL     OW 8860   4.359   6.050   2.294
 2654SOL    HW1 8861   4.325   6.139   2.263
 2654SOL    HW2 8862   4.456   6.042   2.271
 2655SOL     OW 8863   4.246   6.119   4.394
 2655SOL    HW1 8864   4.296   6.197   4.432
 2655SOL    HW2 8865   4.150   6.143   4.383
 2656SOL     OW 8866   3.891   4.926   4.871
 2656SOL    HW1 8867   3.832   4.904   4.949
 2656SOL    HW2 8868   3.924   5.020   4.879
 2657SOL     OW 8869   0.540   3.932   6.037
 2657SOL    HW1 8870   0.568   3.923   6.133
 2657SOL    HW2 8871   0.467   3.867   6.018
 2658SOL     OW 8872   5.038   4.235   0.861
 2658SOL    HW1 8873   4.981   4.236   0.778
 2658SOL    HW2 8874   5.082   4.145   0.869
 2659SOL     OW 8875   5.215   3.067   4.373
 2659SOL    HW1 8876   5.156   2.985   4.371
 2659SOL    HW2 8877   5.291   3.051   4.435
 2660SOL     OW 8878   1.864   0.223   1.515
 2660SOL    HW1 8879   1.898   0.198   1.606
 2660SOL    HW2 8880   1.764   0.231   1.518
 2661SOL     OW 8881   2.502   6.945   0.942
 2661SOL    HW1 8882   2.575   6.973   0.880
 2661SOL    HW2 8883   2.414   6.960   0.898
 2662SOL     OW 8884   5.240   6.565   4.475
 2662SOL    HW1 8885   5.151   6.518   4.478
 2662SOL    HW2 8886   5.231   6.648   4.421
 2663SOL     OW 8887   3.106   4.052   6.623
 2663SOL    HW1 8888   3.174   3.985   6.651
 2663SOL    HW2 8889   3.037   4.061   6.696
 2664SOL     OW 8890   4.421   4.011   5.357
 2664SOL    HW1 8891   4.483   4.089   5.369
 2664SOL    HW2 8892   4.329   4.038   5.385
 2665SOL     OW 8893   2.499   2.740   5.207
 2665SOL    HW1 8894   2.594   2.727   5.181
 2665SOL    HW2 8895   2.474   2.836   5.198
 2666SOL     OW 8896   5.946   4.876   1.269
 2666SOL    HW1 8897   5.886   4.863   1.348
 2666SOL    HW2 8898   6.041   4.860   1.296
 2667SOL     OW 8899   0.480   6.402   3.916
 2667SOL    HW1 8900   0.536   6.366   3.990
 2667SOL    HW2 8901   0.538   6.454   3.853
 2668SOL     OW 8902   0.507   3.367   4.602
 2668SOL    HW1 8903   0.534   3.403   4.691
 2668SOL    HW2 8904   0.588   3.334   4.553
 2669SOL     OW 8905   2.758   4.588   5.380
 2669SOL    HW1 8906   2.791   4.591   5.285
 2669SOL    HW2 8907   2.836   4.578   5.442
 2670SOL     OW 8908   6.047   3.499   6.334
 2670SOL    HW1 8909   5.962   3.510   6.281
 2670SOL    HW2 8910   6.027   3.447   6.417
 2671SOL     OW 8911   4.224   5.413   5.807
 2671SOL    HW1 8912   4.175   5.493   5.771
 2671SOL    HW2 8913   4.245   5.428   5.903
 2672SOL     OW 8914   1.540   5.112   0.855
 2672SOL    HW1 8915   1.499   5.074   0.773
 2672SOL    HW2 8916   1.632   5.147   0.834
 2673SOL     OW 8917   5.693   1.028   2.861
 2673SOL    HW1 8918   5.663   1.037   2.956
 2673SOL    HW2 8919   5.664   1.109   2.809
 2674SOL     OW 8920   1.247   4.222   3.853
 2674SOL    HW1 8921   1.286   4.200   3.764
 2674SOL    HW2 8922   1.209   4.140   3.895
 2675SOL     OW 8923   6.302   5.492   3.562
 2675SOL    HW1 8924   6.375   5.559   3.546
 2675SOL    HW2 8925   6.331   5.402   3.528
 2676SOL     OW 8926   3.857   2.525   1.048
 2676SOL    HW1 8927   3.784   2.553   1.110
 2676SOL    HW2 8928   3.850   2.575   0.962
 2677SOL     OW 8929   2.917   3.469   0.516
 2677SOL    HW1 8930   3.004   3.446   0.471
 2677SOL    HW2 8931   2.844   3.470   0.448
 2678SOL     OW 8932   0.324   2.878   1.506
 2678SOL    HW1 8933   0.357   2.944   1.439
 2678SOL    HW2 8934   0.244   2.916   1.553
 2679SOL     OW 8935   3.008   4.135   0.517
 2679SOL    HW1 8936   2.969   4.048   0.547
 2679SOL    HW2 8937   2.964   4.210   0.565
 2680SOL     OW 8938   1.284   1.869   0.384
 2680SOL    HW1 8939   1.234   1.956   0.383
 2680SOL    HW2 8940   1.249   1.811   0.458
 2681SOL     OW 8941   1.191   3.049   4.067
 2681SOL    HW1 8942   1.140   3.051   3.980
 2681SOL    HW2 8943   1.287   3.026   4.048
 2682SOL     OW 8944   4.806   4.274   2.713
 2682SOL    HW1 8945   4.817   4.356   2.657
 2682SOL    HW2 8946   4.712   4.241   2.706
 2683SOL     OW 8947   2.467   5.049   1.551
 2683SOL    HW1 8948   2.427   4.958   1.536
 2683SOL    HW2 8949   2.405   5.103   1.608
 2684SOL     OW 8950   4.093   5.514   1.923
 2684SOL    HW1 8951   4.091   5.427   1.973
 2684SOL    HW2 8952   4.185   5.530   1.887
 2685SOL     OW 8953   5.948   6.595   6.558
 2685SOL    HW1 8954   5.974   6.539   6.479
 2685SOL    HW2 8955   5.928   6.535   6.635
 2686SOL     OW 8956   1.602   2.208   6.155
 2686SOL    HW1 8957   1.659   2.281   6.193
 2686SOL    HW2 8958   1.578   2.230   6.061
 2687SOL     OW 8959   5.111   4.696   1.829
 2687SOL    HW1 8960   5.196   4.675   1.781
 2687SOL    HW2 8961   5.035   4.646   1.787
 2688SOL     OW 8962   3.768   3.752   0.007
 2688SOL    HW1 8963   3.822   3.702   6.968
 2688SOL    HW2 8964   3.705   3.814   6.989
 2689SOL     OW 8965   1.366   4.107   3.630
 2689SOL    HW1 8966   1.320   4.018   3.629
 2689SOL    HW2 8967   1.427   4.114   3.550
 2690SOL     OW 8968   3.778   3.230   4.003
 2690SOL    HW1 8969   3.753   3.134   3.994
 2690SOL    HW2 8970   3.857   3.238   4.064
 2691SOL     OW 8971   1.903   5.753   2.474
 2691SOL    HW1 8972   1.997   5.785   2.485
 2691SOL    HW2 8973   1.892   5.709   2.385
 2692SOL     OW 8974   3.251   5.155   2.570
 2692SOL    HW1 8975   3.309   5.165   2.490
 2692SOL    HW2 8976   3.164   5.202   2.555
 2693SOL     OW 8977   2.344   5.451   3.329
 2693SOL    HW1 8978   2.245   5.445   3.314
 2693SOL    HW2 8979   2.364   5.533   3.383
 2694SOL     OW 8980   3.667   5.795   3.014
 2694SOL    HW1 8981   3.649   5.874   3.073
 2694SOL    HW2 8982   3.709   5.826   2.928
 2695SOL     OW 8983   5.829   0.063   2.538
 2695SOL    HW1 8984   5.839   0.143   2.596
 2695SOL    HW2 8985   5.851   0.087   2.444
 2696SOL     OW 8986   3.616   3.183   5.227
 2696SOL    HW1 8987   3.714   3.162   5.234
 2696SOL    HW2 8988   3.578   3.137   5.147
 2697SOL     OW 8989   3.267   1.635   2.552
 2697SOL    HW1 8990   3.281   1.684   2.466
 2697SOL    HW2 8991   3.335   1.562   2.561
 2698SOL     OW 8992   2.151   6.281   0.163
 2698SOL    HW1 8993   2.133   6.366   0.113
 2698SOL    HW2 8994   2.067   6.247   0.203
 2699SOL     OW 8995   2.549   6.670   0.353
 2699SOL    HW1 8996   2.631   6.674   0.297
 2699SOL    HW2 8997   2.474   6.715   0.306
 2700SOL     OW 8998   2.343   3.669   0.093
 2700SOL    HW1 8999   2.392   3.631   0.171
 2700SOL    HW2 9000   2.384   3.636   0.008
 2701SOL     OW 9001   5.776   1.663   5.916
 2701SOL    HW1 9002   5.810   1.744   5.963
 2701SOL    HW2 9003   5.699   1.624   5.966
 2702SOL     OW 9004   0.152   2.470   3.560
 2702SOL    HW1 9005   0.194   2.546   3.511
 2702SOL    HW2 9006   0.133   2.498   3.654
 2703SOL     OW 9007   1.172   0.075   1.333
 2703SOL    HW1 9008   1.083   0.118   1.348
 2703SOL    HW2 9009   1.185   0.061   1.235
 2704SOL     OW 9010   6.929   5.701   1.296
 2704SOL    HW1 9011   6.833   5.697   1.327
 2704SOL    HW2 9012   6.988   5.666   1.368
 2705SOL     OW 9013   0.184   5.512   4.577
 2705SOL    HW1 9014   0.147   5.476   4.491
 2705SOL    HW2 9015   0.111   5.517   4.645
 2706SOL     OW 9016   7.018   5.806   1.612
 2706SOL    HW1 9017   6.944   5.872   1.610
 2706SOL    HW2 9018   0.055   5.826   1.539
 2707SOL     OW 9019   3.760   6.870   4.218
 2707SOL    HW1 9020   3.831   6.884   4.150
 2707SOL    HW2 9021   3.670   6.875   4.175
 2708SOL     OW 9022   0.512   2.489   0.041
 2708SOL    HW1 9023   0.509   2.411   0.103
 2708SOL    HW2 9024   0.606   2.504   0.010
 2709SOL     OW 9025   5.493   0.386   6.951
 2709SOL    HW1 9026   5.463   0.480   6.937
 2709SOL    HW2 9027   5.578   0.385   7.005
 2710SOL     OW 9028   0.524   3.949   3.711
 2710SOL    HW1 9029   0.469   3.905   3.639
 2710SOL    HW2 9030   0.512   4.048   3.706
 2711SOL     OW 9031   2.872   0.400   3.178
 2711SOL    HW1 9032   2.833   0.419   3.088
 2711SOL    HW2 9033   2.846   0.472   3.242
 2712SOL     OW 9034   2.983   4.245   1.112
 2712SOL    HW1 9035   2.898   4.215   1.156
 2712SOL    HW2 9036   2.962   4.281   1.021
 2713SOL     OW 9037   2.476   2.608   4.652
 2713SOL    HW1 9038   2.443   2.596   4.745
 2713SOL    HW2 9039   2.570   2.574   4.645
 2714SOL     OW 9040   3.499   2.127   0.436
 2714SOL    HW1 9041   3.456   2.211   0.470
 2714SOL    HW2 9042   3.582   2.151   0.386
 2715SOL     OW 9043   5.066   1.878   0.381
 2715SOL    HW1 9044   5.111   1.790   0.393
 2715SOL    HW2 9045   5.112   1.948   0.437
 2716SOL     OW 9046   5.322   4.106   2.122
 2716SOL    HW1 9047   5.352   4.014   2.148
 2716SOL    HW2 9048   5.223   4.109   2.117
 2717SOL     OW 9049   0.685   6.695   2.514
 2717SOL    HW1 9050   0.596   6.654   2.492
 2717SOL    HW2 9051   0.676   6.794   2.516
 2718SOL     OW 9052   1.738   2.020   4.919
 2718SOL    HW1 9053   1.740   1.974   5.008
 2718SOL    HW2 9054   1.758   2.117   4.931
 2719SOL     OW 9055   0.069   5.511   1.168
 2719SOL    HW1 9056   0.035   5.603   1.188
 2719SOL    HW2 9057   7.021   5.453   1.142
 2720SOL     OW 9058   2.188   5.977   1.964
 2720SOL    HW1 9059   2.269   5.938   2.010
 2720SOL    HW2 9060   2.201   6.075   1.953
 2721SOL     OW 9061   2.999   6.864   3.005
 2721SOL    HW1 9062   3.078   6.897   3.057
 2721SOL    HW2 9063   3.016   6.771   2.972
 2722SOL     OW 9064   6.670   5.385   0.875
 2722SOL    HW1 9065   6.621   5.472   0.862
 2722SOL    HW2 9066   6.768   5.399   0.861
 2723SOL     OW 9067   0.692   0.111   6.605
 2723SOL    HW1 9068   0.611   0.132   6.550
 2723SOL    HW2 9069   0.774   0.131   6.552
 2724SOL     OW 9070   1.548   6.422   6.780
 2724SOL    HW1 9071   1.586   6.375   6.859
 2724SOL    HW2 9072   1.610   6.496   6.752
 2725SOL     OW 9073   5.354   5.023   4.531
 2725SOL    HW1 9074   5.322   5.039   4.624
 2725SOL    HW2 9075   5.413   4.942   4.529
 2726SOL     OW 9076   0.162   2.320   0.858
 2726SOL    HW1 9077   0.105   2.240   0.879
 2726SOL    HW2 9078   0.257   2.300   0.879
 2727SOL     OW 9079   0.570   5.305   3.142
 2727SOL    HW1 9080   0.522   5.220   3.120
 2727SOL    HW2 9081   0.514   5.358   3.207
 2728SOL     OW 9082   4.829   6.741   5.456
 2728SOL    HW1 9083   4.772   6.693   5.522
 2728SOL    HW2 9084   4.777   6.761   5.373
 2729SOL     OW 9085   6.928   5.749   0.759
 2729SOL    HW1 9086   7.007   5.705   0.716
 2729SOL    HW2 9087   6.911   5.706   0.848
 2730SOL     OW 9088   1.542   5.717   1.398
 2730SOL    HW1 9089   1.458   5.704   1.451
 2730SOL    HW2 9090   1.543   5.653   1.321
 2731SOL     OW 9091   3.682   4.097   2.961
 2731SOL    HW1 9092   3.667   4.087   3.060
 2731SOL    HW2 9093   3.780   4.106   2.943
 2732SOL     OW 9094   5.551   2.184   1.836
 2732SOL    HW1 9095   5.537   2.092   1.872
 2732SOL    HW2 9096   5.496   2.196   1.754
 2733SOL     OW 9097   6.673   1.617   4.728
 2733SOL    HW1 9098   6.724   1.608   4.642
 2733SOL    HW2 9099   6.690   1.535   4.784
 2734SOL     OW 9100   2.575   6.233   1.464
 2734SOL    HW1 9101   2.490   6.185   1.441
 2734SOL    HW2 9102   2.628   6.177   1.528
 2735SOL     OW 9103   1.112   3.383   2.292
 2735SOL    HW1 9104   1.059   3.299   2.284
 2735SOL    HW2 9105   1.190   3.367   2.353
 2736SOL     OW 9106   5.223   6.856   5.230
 2736SOL    HW1 9107   5.316   6.854   5.193
 2736SOL    HW2 9108   5.199   6.766   5.266
 2737SOL     OW 9109   3.177   3.411   6.305
 2737SOL    HW1 9110   3.255   3.457   6.263
 2737SOL    HW2 9111   3.209   3.336   6.363
 2738SOL     OW 9112   4.992   6.258   2.069
 2738SOL    HW1 9113   4.973   6.346   2.112
 2738SOL    HW2 9114   5.081   6.261   2.024
 2739SOL     OW 9115   7.020   5.202   1.625
 2739SOL    HW1 9116   6.991   5.110   1.650
 2739SOL    HW2 9117   7.017   5.261   1.706
 2740SOL     OW 9118   0.100   4.008   2.387
 2740SOL    HW1 9119   0.172   3.950   2.349
 2740SOL    HW2 9120   0.044   4.045   2.312
 2741SOL     OW 9121   6.085   0.611   4.736
 2741SOL    HW1 9122   6.071   0.586   4.640
 2741SOL    HW2 9123   6.114   0.531   4.788
 2742SOL     OW 9124   1.957   5.512   6.809
 2742SOL    HW1 9125   1.951   5.434   6.747
 2742SOL    HW2 9126   2.052   5.544   6.813
 2743SOL     OW 9127   6.445   4.445   2.309
 2743SOL    HW1 9128   6.483   4.495   2.387
 2743SOL    HW2 9129   6.461   4.497   2.225
 2744SOL     OW 9130   5.310   2.054   6.219
 2744SOL    HW1 9131   5.332   2.139   6.171
 2744SOL    HW2 9132   5.240   2.072   6.288
 2745SOL     OW 9133   6.824   0.168   6.257
 2745SOL    HW1 9134   6.830   0.143   6.160
 2745SOL    HW2 9135   6.830   0.086   6.313
 2746SOL     OW 9136   2.685   1.656   4.076
 2746SOL    HW1 9137   2.775   1.612   4.073
 2746SOL    HW2 9138   2.692   1.747   4.034
 2747SOL     OW 9139   6.228   3.871   6.498
 2747SOL    HW1 9140   6.210   3.955   6.446
 2747SOL    HW2 9141   6.323   3.869   6.528
 2748SOL     OW 9142   5.009   1.399   1.062
 2748SOL    HW1 9143   4.912   1.391   1.038
 2748SOL    HW2 9144   5.022   1.480   1.119
 2749SOL     OW 9145   7.025   5.112   2.375
 2749SOL    HW1 9146   0.080   5.125   2.321
 2749SOL    HW2 9147   6.952   5.170   2.338
 2750SOL     OW 9148   0.563   5.228   1.065
 2750SOL    HW1 9149   0.489   5.165   1.042
 2750SOL    HW2 9150   0.614   5.251   0.982
 2751SOL     OW 9151   1.206   5.012   1.456
 2751SOL    HW1 9152   1.228   4.946   1.384
 2751SOL    HW2 9153   1.112   4.997   1.487
 2752SOL     OW 9154   4.148   5.692   5.953
 2752SOL    HW1 9155   4.105   5.720   6.039
 2752SOL    HW2 9156   4.196   5.770   5.913
 2753SOL     OW 9157   0.650   6.219   5.823
 2753SOL    HW1 9158   0.637   6.175   5.734
 2753SOL    HW2 9159   0.670   6.316   5.809
 2754SOL     OW 9160   0.451   0.517   2.096
 2754SOL    HW1 9161   0.467   0.593   2.033
 2754SOL    HW2 9162   0.406   0.551   2.179
 2755SOL     OW 9163   2.426   6.741   2.787
 2755SOL    HW1 9164   2.492   6.683   2.834
 2755SOL    HW2 9165   2.334   6.702   2.796
 2756SOL     OW 9166   6.015   4.647   6.991
 2756SOL    HW1 9167   5.941   4.583   7.013
 2756SOL    HW2 9168   5.987   4.706   6.915
 2757SOL     OW 9169   2.700   0.256   6.830
 2757SOL    HW1 9170   2.607   0.286   6.811
 2757SOL    HW2 9171   2.725   0.283   6.923
 2758SOL     OW 9172   3.937   6.579   4.438
 2758SOL    HW1 9173   3.879   6.521   4.495
 2758SOL    HW2 9174   3.903   6.578   4.344
 2759SOL     OW 9175   5.574   6.075   5.359
 2759SOL    HW1 9176   5.577   6.021   5.275
 2759SOL    HW2 9177   5.646   6.144   5.357
 2760SOL     OW 9178   1.074   5.605   2.558
 2760SOL    HW1 9179   1.023   5.527   2.595
 2760SOL    HW2 9180   1.032   5.635   2.472
 2761SOL     OW 9181   2.018   5.123   5.185
 2761SOL    HW1 9182   2.040   5.189   5.114
 2761SOL    HW2 9183   1.921   5.098   5.180
 2762SOL     OW 9184   2.067   0.577   5.224
 2762SOL    HW1 9185   2.017   0.660   5.198
 2762SOL    HW2 9186   2.137   0.557   5.155
 2763SOL     OW 9187   4.884   2.261   3.822
 2763SOL    HW1 9188   4.877   2.185   3.757
 2763SOL    HW2 9189   4.804   2.320   3.812
 2764SOL     OW 9190   6.543   1.036   1.225
 2764SOL    HW1 9191   6.467   1.027   1.289
 2764SOL    HW2 9192   6.618   1.085   1.270
 2765SOL     OW 9193   6.661   0.072   0.564
 2765SOL    HW1 9194   6.753   0.042   0.591
 2765SOL    HW2 9195   6.599   0.066   0.642
 2766SOL     OW 9196   5.162   2.502   0.594
 2766SOL    HW1 9197   5.164   2.507   0.694
 2766SOL    HW2 9198   5.249   2.536   0.558
 2767SOL     OW 9199   6.364   5.057   6.945
 2767SOL    HW1 9200   6.435   5.112   6.901
 2767SOL    HW2 9201   6.318   5.111   7.015
 2768SOL     OW 9202   4.244   0.607   0.990
 2768SOL    HW1 9203   4.216   0.607   1.086
 2768SOL    HW2 9204   4.296   0.524   0.970
 2769SOL     OW 9205   1.903   4.732   5.163
 2769SOL    HW1 9206   1.937   4.652   5.213
 2769SOL    HW2 9207   1.970   4.757   5.093
 2770SOL     OW 9208   4.035   5.814   6.175
 2770SOL    HW1 9209   4.085   5.900   6.188
 2770SOL    HW2 9210   3.958   5.809   6.239
 2771SOL     OW 9211   6.289   0.941   3.622
 2771SOL    HW1 9212   6.351   1.020   3.621
 2771SOL    HW2 9213   6.336   0.863   3.665
 2772SOL     OW 9214   3.937   1.972   0.572
 2772SOL    HW1 9215   3.855   1.920   0.548
 2772SOL    HW2 9216   3.920   2.026   0.655
 2773SOL     OW 9217   6.339   1.970   4.555
 2773SOL    HW1 9218   6.268   2.028   4.516
 2773SOL    HW2 9219   6.425   2.022   4.561
 2774SOL     OW 9220   5.098   2.701   2.970
 2774SOL    HW1 9221   5.110   2.744   2.881
 2774SOL    HW2 9222   5.048   2.615   2.959
 2775SOL     OW 9223   7.017   4.843   5.576
 2775SOL    HW1 9224   0.017   4.867   5.669
 2775SOL    HW2 9225   0.015   4.749   5.556
 2776SOL     OW 9226   4.570   4.841   5.978
 2776SOL    HW1 9227   4.565   4.742   5.960
 2776SOL    HW2 9228   4.575   4.856   6.077
 2777SOL     OW 9229   2.813   1.986   1.234
 2777SOL    HW1 9230   2.795   1.901   1.185
 2777SOL    HW2 9231   2.783   1.977   1.329
 2778SOL     OW 9232   1.756   0.003   5.538
 2778SOL    HW1 9233   1.832   7.003   5.479
 2778SOL    HW2 9234   1.778   0.092   5.579
 2779SOL     OW 9235   5.291   6.753   2.027
 2779SOL    HW1 9236   5.307   6.846   2.060
 2779SOL    HW2 9237   5.376   6.716   1.989
 2780SOL     OW 9238   0.603   6.863   0.107
 2780SOL    HW1 9239   0.691   6.815   0.099
 2780SOL    HW2 9240   0.533   6.812   0.056
 2781SOL     OW 9241   5.780   0.069   1.871
 2781SOL    HW1 9242   5.811   7.002   1.868
 2781SOL    HW2 9243   5.689   0.075   1.830
 2782SOL     OW 9244   4.872   1.710   5.875
 2782SOL    HW1 9245   4.944   1.641   5.880
 2782SOL    HW2 9246   4.814   1.691   5.795
 2783SOL     OW 9247   5.478   3.878   2.869
 2783SOL    HW1 9248   5.559   3.877   2.811
 2783SOL    HW2 9249   5.403   3.830   2.823
 2784SOL     OW 9250   3.193   1.535   2.238
 2784SOL    HW1 9251   3.212   1.623   2.194
 2784SOL    HW2 9252   3.238   1.532   2.327
 2785SOL     OW 9253   5.429   2.530   1.063
 2785SOL    HW1 9254   5.450   2.465   0.990
 2785SOL    HW2 9255   5.486   2.611   1.053
 2786SOL     OW 9256   5.061   0.241   2.404
 2786SOL    HW1 9257   5.037   0.145   2.420
 2786SOL    HW2 9258   5.089   0.284   2.490
 2787SOL     OW 9259   5.458   0.709   6.315
 2787SOL    HW1 9260   5.374   0.763   6.319
 2787SOL    HW2 9261   5.447   0.628   6.373
 2788SOL     OW 9262   2.005   5.574   5.888
 2788SOL    HW1 9263   1.938   5.624   5.832
 2788SOL    HW2 9264   2.094   5.578   5.844
 2789SOL     OW 9265   1.518   2.513   3.901
 2789SOL    HW1 9266   1.552   2.428   3.941
 2789SOL    HW2 9267   1.432   2.495   3.853
 2790SOL     OW 9268   3.763   6.288   2.026
 2790SOL    HW1 9269   3.746   6.192   2.047
 2790SOL    HW2 9270   3.857   6.300   1.995
 2791SOL     OW 9271   0.470   2.750   3.071
 2791SOL    HW1 9272   0.495   2.718   3.162
 2791SOL    HW2 9273   0.394   2.694   3.036
 2792SOL     OW 9274   1.698   6.964   4.240
 2792SOL    HW1 9275   1.719   6.903   4.163
 2792SOL    HW2 9276   1.728   0.028   4.217
 2793SOL     OW 9277   5.622   4.355   1.611
 2793SOL    HW1 9278   5.706   4.301   1.605
 2793SOL    HW2 9279   5.589   4.376   1.519
 2794SOL     OW 9280   0.077   2.164   6.469
 2794SOL    HW1 9281   0.073   2.127   6.377
 2794SOL    HW2 9282   0.041   2.097   6.534
 2795SOL     OW 9283   0.857   3.131   0.893
 2795SOL    HW1 9284   0.945   3.163   0.928
 2795SOL    HW2 9285   0.859   3.032   0.881
 2796SOL     OW 9286   0.402   6.346   3.319
 2796SOL    HW1 9287   0.387   6.444   3.316
 2796SOL    HW2 9288   0.466   6.324   3.393
 2797SOL     OW 9289   4.860   5.546   4.593
 2797SOL    HW1 9290   4.811   5.631   4.575
 2797SOL    HW2 9291   4.794   5.476   4.622
 2798SOL     OW 9292   0.501   5.368   2.101
 2798SOL    HW1 9293   0.532   5.282   2.142
 2798SOL    HW2 9294   0.410   5.355   2.061
 2799SOL     OW 9295   6.015   5.765   5.843
 2799SOL    HW1 9296   6.008   5.850   5.895
 2799SOL    HW2 9297   6.111   5.737   5.837
 2800SOL     OW 9298   4.747   6.346   6.564
 2800SOL    HW1 9299   4.843   6.364   6.585
 2800SOL    HW2 9300   4.735   6.347   6.465
 2801SOL     OW 9301   0.049   5.727   5.838
 2801SOL    HW1 9302   0.061   5.741   5.740
 2801SOL    HW2 9303   6.987   5.759   5.866
 2802SOL     OW 9304   5.547   6.675   5.335
 2802SOL    HW1 9305   5.608   6.679   5.414
 2802SOL    HW2 9306   5.453   6.668   5.366
 2803SOL     OW 9307   4.189   6.113   6.009
 2803SOL    HW1 9308   4.250   6.147   6.080
 2803SOL    HW2 9309   4.236   6.041   5.957
 2804SOL     OW 9310   0.073   4.586   5.508
 2804SOL    HW1 9311   0.115   4.544   5.589
 2804SOL    HW2 9312   0.090   4.528   5.429
 2805SOL     OW 9313   5.962   3.600   2.369
 2805SOL    HW1 9314   5.961   3.699   2.387
 2805SOL    HW2 9315   6.056   3.568   2.366
 2806SOL     OW 9316   0.284   4.304   5.633
 2806SOL    HW1 9317   0.357   4.238   5.654
 2806SOL    HW2 9318   0.205   4.255   5.596
 2807SOL     OW 9319   3.506   6.675   4.341
 2807SOL    HW1 9320   3.574   6.732   4.295
 2807SOL    HW2 9321   3.424   6.730   4.359
 2808SOL     OW 9322   6.528   4.827   2.046
 2808SOL    HW1 9323   6.437   4.835   2.086
 2808SOL    HW2 9324   6.597   4.844   2.117
 2809SOL     OW 9325   5.583   2.759   1.053
 2809SOL    HW1 9326   5.592   2.858   1.043
 2809SOL    HW2 9327   5.653   2.726   1.117
 2810SOL     OW 9328   2.960   5.513   2.993
 2810SOL    HW1 9329   3.047   5.475   3.026
 2810SOL    HW2 9330   2.894   5.514   3.068
 2811SOL     OW 9331   1.330   2.301   4.067
 2811SOL    HW1 9332   1.379   2.233   4.012
 2811SOL    HW2 9333   1.366   2.301   4.160
 2812SOL     OW 9334   5.192   2.691   6.875
 2812SOL    HW1 9335   5.281   2.684   6.830
 2812SOL    HW2 9336   5.198   2.753   6.953
 2813SOL     OW 9337   1.109   0.576   6.792
 2813SOL    HW1 9338   1.100   0.561   6.693
 2813SOL    HW2 9339   1.173   0.509   6.830
 2814SOL     OW 9340   3.883   3.743   5.753
 2814SOL    HW1 9341   3.917   3.685   5.678
 2814SOL    HW2 9342   3.787   3.766   5.737
 2815SOL     OW 9343   6.548   6.183   6.260
 2815SOL    HW1 9344   6.474   6.249   6.264
 2815SOL    HW2 9345   6.623   6.219   6.204
 2816SOL     OW 9346   6.100   5.595   3.430
 2816SOL    HW1 9347   6.074   5.527   3.361
 2816SOL    HW2 9348   6.183   5.566   3.476
 2817SOL     OW 9349   3.095   0.056   1.558
 2817SOL    HW1 9350   3.124   0.091   1.647
 2817SOL    HW2 9351   3.050   6.996   1.570
 2818SOL     OW 9352   0.421   0.225   2.118
 2818SOL    HW1 9353   0.328   0.206   2.150
 2818SOL    HW2 9354   0.431   0.323   2.102
 2819SOL     OW 9355   1.949   0.471   1.834
 2819SOL    HW1 9356   1.908   0.560   1.815
 2819SOL    HW2 9357   1.876   0.403   1.846
 2820SOL     OW 9358   0.706   2.412   3.402
 2820SOL    HW1 9359   0.747   2.326   3.435
 2820SOL    HW2 9360   0.776   2.469   3.360
 2821SOL     OW 9361   3.880   4.070   5.937
 2821SOL    HW1 9362   3.875   4.083   6.036
 2821SOL    HW2 9363   3.895   3.973   5.917
 2822SOL     OW 9364   3.911   2.317   0.535
 2822SOL    HW1 9365   3.833   2.276   0.581
 2822SOL    HW2 9366   3.996   2.278   0.571
 2823SOL     OW 9367   4.959   0.802   0.899
 2823SOL    HW1 9368   4.895   0.804   0.976
 2823SOL    HW2 9369   5.018   0.883   0.903
 2824SOL     OW 9370   2.282   1.505   3.934
 2824SOL    HW1 9371   2.253   1.512   3.839
 2824SOL    HW2 9372   2.210   1.462   3.988
 2825SOL     OW 9373   4.986   6.409   6.651
 2825SOL    HW1 9374   4.977   6.442   6.745
 2825SOL    HW2 9375   5.052   6.467   6.601
 2826SOL     OW 9376   4.630   1.142   6.803
 2826SOL    HW1 9377   4.624   1.201   6.723
 2826SOL    HW2 9378   4.637   1.047   6.773
 2827SOL     OW 9379   1.004   1.733   6.759
 2827SOL    HW1 9380   0.975   1.660   6.698
 2827SOL    HW2 9381   1.063   1.696   6.830
 2828SOL     OW 9382   2.768   1.629   0.414
 2828SOL    HW1 9383   2.744   1.717   0.373
 2828SOL    HW2 9384   2.686   1.574   0.426
 2829SOL     OW 9385   2.890   3.494   4.581
 2829SOL    HW1 9386   2.969   3.433   4.583
 2829SOL    HW2 9387   2.813   3.447   4.538
 2830SOL     OW 9388   3.080   3.781   5.749
 2830SOL    HW1 9389   3.002   3.784   5.813
 2830SOL    HW2 9390   3.046   3.786   5.655
 2831SOL     OW 9391   1.055   4.198   3.359
 2831SOL    HW1 9392   0.970   4.223   3.405
 2831SOL    HW2 9393   1.078   4.268   3.291
 2832SOL     OW 9394   1.008   3.293   1.929
 2832SOL    HW1 9395   1.096   3.326   1.893
 2832SOL    HW2 9396   0.997   3.196   1.904
 2833SOL     OW 9397   2.938   1.481   2.233
 2833SOL    HW1 9398   3.030   1.517   2.222
 2833SOL    HW2 9399   2.871   1.550   2.204
 2834SOL     OW 9400   4.508   6.428   5.916
 2834SOL    HW1 9401   4.564   6.349   5.893
 2834SOL    HW2 9402   4.433   6.436   5.851
 2835SOL     OW 9403   0.594   5.867   1.330
 2835SOL    HW1 9404   0.514   5.811   1.310
 2835SOL    HW2 9405   0.565   5.959   1.358
 2836SOL     OW 9406   0.271   6.438   2.159
 2836SOL    HW1 9407   0.187   6.488   2.135
 2836SOL    HW2 9408   0.345   6.468   2.099
 2837SOL     OW 9409   4.442   4.508   2.197
 2837SOL    HW1 9410   4.491   4.444   2.139
 2837SOL    HW2 9411   4.424   4.593   2.147
 2838SOL     OW 9412   3.827   3.942   0.690
 2838SOL    HW1 9413   3.737   3.987   0.686
 2838SOL    HW2 9414   3.822   3.853   0.643
 2839SOL     OW 9415   6.397   1.889   2.751
 2839SOL    HW1 9416   6.373   1.908   2.656
 2839SOL    HW2 9417   6.317   1.906   2.809
 2840SOL     OW 9418   1.424   0.056   2.214
 2840SOL    HW1 9419   1.332   0.088   2.232
 2840SOL    HW2 9420   1.467   0.115   2.146
 2841SOL     OW 9421   0.205   1.310   6.209
 2841SOL    HW1 9422   0.282   1.300   6.271
 2841SOL    HW2 9423   0.153   1.392   6.232
 2842SOL     OW 9424   7.024   4.392   3.819
 2842SOL    HW1 9425   6.965   4.471   3.803
 2842SOL    HW2 9426   6.985   4.335   3.891
 2843SOL     OW 9427   2.052   1.778   3.065
 2843SOL    HW1 9428   2.035   1.793   3.163
 2843SOL    HW2 9429   2.138   1.730   3.053
 2844SOL     OW 9430   6.147   5.288   6.786
 2844SOL    HW1 9431   6.135   5.241   6.699
 2844SOL    HW2 9432   6.103   5.236   6.859
 2845SOL     OW 9433   5.419   3.393   2.320
 2845SOL    HW1 9434   5.350   3.385   2.248
 2845SOL    HW2 9435   5.402   3.324   2.390
 2846SOL     OW 9436   4.117   0.756   0.231
 2846SOL    HW1 9437   4.166   0.798   0.154
 2846SOL    HW2 9438   4.111   0.820   0.307
 2847SOL     OW 9439   5.544   4.102   3.124
 2847SOL    HW1 9440   5.451   4.073   3.146
 2847SOL    HW2 9441   5.600   4.022   3.105
 2848SOL     OW 9442   2.235   2.915   5.593
 2848SOL    HW1 9443   2.230   2.893   5.495
 2848SOL    HW2 9444   2.156   2.875   5.639
 2849SOL     OW 9445   4.698   6.913   0.797
 2849SOL    HW1 9446   4.737   7.002   0.821
 2849SOL    HW2 9447   4.756   6.840   0.835
 2850SOL     OW 9448   1.855   6.686   2.664
 2850SOL    HW1 9449   1.815   6.650   2.579
 2850SOL    HW2 9450   1.953   6.667   2.666
 2851SOL     OW 9451   5.676   2.395   5.805
 2851SOL    HW1 9452   5.693   2.362   5.897
 2851SOL    HW2 9453   5.658   2.318   5.744
 2852SOL     OW 9454   6.700   4.350   6.466
 2852SOL    HW1 9455   6.688   4.422   6.397
 2852SOL    HW2 9456   6.630   4.361   6.537
 2853SOL     OW 9457   1.926   1.739   6.367
 2853SOL    HW1 9458   1.921   1.642   6.344
 2853SOL    HW2 9459   1.834   1.776   6.378
 2854SOL     OW 9460   4.748   0.781   5.782
 2854SOL    HW1 9461   4.804   0.786   5.699
 2854SOL    HW2 9462   4.718   0.873   5.807
 2855SOL     OW 9463   1.939   2.121   5.866
 2855SOL    HW1 9464   1.968   2.173   5.946
 2855SOL    HW2 9465   2.011   2.123   5.796
 2856SOL     OW 9466   0.340   3.686   5.521
 2856SOL    HW1 9467   0.329   3.719   5.428
 2856SOL    HW2 9468   0.413   3.618   5.524
 2857SOL     OW 9469   2.105   3.025   1.739
 2857SOL    HW1 9470   2.065   3.116   1.727
 2857SOL    HW2 9471   2.053   2.975   1.809
 2858SOL     OW 9472   4.843   4.492   2.014
 2858SOL    HW1 9473   4.811   4.406   2.055
 2858SOL    HW2 9474   4.826   4.567   2.077
 2859SOL     OW 9475   5.730   0.399   0.066
 2859SOL    HW1 9476   5.827   0.403   0.042
 2859SOL    HW2 9477   5.717   0.332   0.139
 2860SOL     OW 9478   2.149   1.702   1.734
 2860SOL    HW1 9479   2.078   1.663   1.793
 2860SOL    HW2 9480   2.117   1.706   1.640
 2861SOL     OW 9481   3.598   5.242   6.027
 2861SOL    HW1 9482   3.551   5.229   5.940
 2861SOL    HW2 9483   3.675   5.178   6.032
 2862SOL     OW 9484   4.382   1.954   2.473
 2862SOL    HW1 9485   4.354   1.989   2.384
 2862SOL    HW2 9486   4.478   1.927   2.468
 2863SOL     OW 9487   4.763   1.848   6.655
 2863SOL    HW1 9488   4.812   1.843   6.742
 2863SOL    HW2 9489   4.678   1.794   6.662
 2864SOL     OW 9490   4.786   1.781   1.656
 2864SOL    HW1 9491   4.818   1.699   1.609
 2864SOL    HW2 9492   4.837   1.794   1.741
 2865SOL     OW 9493   4.081   6.489   5.418
 2865SOL    HW1 9494   4.025   6.515   5.340
 2865SOL    HW2 9495   4.167   6.540   5.416
 2866SOL     OW 9496   6.025   5.548   6.191
 2866SOL    HW1 9497   5.948   5.612   6.188
 2866SOL    HW2 9498   6.078   5.565   6.275
 2867SOL     OW 9499   6.039   6.495   3.376
 2867SOL    HW1 9500   6.018   6.403   3.345
 2867SOL    HW2 9501   5.970   6.524   3.443
 2868SOL     OW 9502   1.983   1.263   5.242
 2868SOL    HW1 9503   1.950   1.357   5.231
 2868SOL    HW2 9504   1.913   1.200   5.208
 2869SOL     OW 9505   6.638   0.707   3.073
 2869SOL    HW1 9506   6.666   0.654   3.153
 2869SOL    HW2 9507   6.595   0.646   3.006
 2870SOL     OW 9508   0.254   1.613   5.527
 2870SOL    HW1 9509   0.258   1.593   5.429
 2870SOL    HW2 9510   0.194   1.547   5.572
 2871SOL     OW 9511   6.833   1.523   6.697
 2871SOL    HW1 9512   6.883   1.575   6.766
 2871SOL    HW2 9513   6.755   1.576   6.665
 2872SOL     OW 9514   2.909   2.031   2.076
 2872SOL    HW1 9515   2.914   2.131   2.088
 2872SOL    HW2 9516   2.902   1.987   2.166
 2873SOL     OW 9517   0.022   5.823   2.789
 2873SOL    HW1 9518   0.074   5.869   2.861
 2873SOL    HW2 9519   6.953   5.838   2.803
 2874SOL     OW 9520   5.001   7.001   3.006
 2874SOL    HW1 9521   5.032   0.022   3.088
 2874SOL    HW2 9522   5.009   0.032   2.926
 2875SOL     OW 9523   5.319   0.226   1.628
 2875SOL    HW1 9524   5.371   0.177   1.699
 2875SOL    HW2 9525   5.376   0.298   1.588
 2876SOL     OW 9526   1.883   0.058   2.205
 2876SOL    HW1 9527   1.913   6.994   2.228
 2876SOL    HW2 9528   1.958   0.122   2.221
 2877SOL     OW 9529   2.251   1.637   5.618
 2877SOL    HW1 9530   2.331   1.696   5.631
 2877SOL    HW2 9531   2.180   1.686   5.569
 2878SOL     OW 9532   4.056   4.169   5.260
 2878SOL    HW1 9533   4.068   4.117   5.345
 2878SOL    HW2 9534   4.143   4.209   5.233
 2879SOL     OW 9535   5.427   4.694   6.895
 2879SOL    HW1 9536   5.475   4.756   6.833
 2879SOL    HW2 9537   5.405   4.742   6.980
 2880SOL     OW 9538   0.330   1.384   2.921
 2880SOL    HW1 9539   0.286   1.352   2.837
 2880SOL    HW2 9540   0.272   1.451   2.966
 2881SOL     OW 9541   4.488   6.077   6.416
 2881SOL    HW1 9542   4.586   6.058   6.423
 2881SOL    HW2 9543   4.464   6.154   6.474
 2882SOL     OW 9544   0.020   5.406   2.195
 2882SOL    HW1 9545   0.083   5.429   2.121
 2882SOL    HW2 9546   6.959   5.447   2.176
 2883SOL     OW 9547   6.210   0.537   3.534
 2883SOL    HW1 9548   6.124   0.514   3.580
 2883SOL    HW2 9549   6.196   0.616   3.475
 2884SOL     OW 9550   1.180   6.788   3.568
 2884SOL    HW1 9551   1.267   6.808   3.524
 2884SOL    HW2 9552   1.105   6.825   3.513
 2885SOL     OW 9553   1.806   3.937   3.664
 2885SOL    HW1 9554   1.819   3.963   3.568
 2885SOL    HW2 9555   1.807   4.019   3.721
 2886SOL     OW 9556   0.897   3.295   6.055
 2886SOL    HW1 9557   0.953   3.230   6.107
 2886SOL    HW2 9558   0.902   3.385   6.099
 2887SOL     OW 9559   0.301   0.830   5.809
 2887SOL    HW1 9560   0.337   0.915   5.846
 2887SOL    HW2 9561   0.201   0.833   5.809
 2888SOL     OW 9562   7.014   4.457   6.430
 2888SOL    HW1 9563   0.019   4.459   6.336
 2888SOL    HW2 9564   6.916   4.477   6.430
 2889SOL     OW 9565   2.554   6.432   2.204
 2889SOL    HW1 9566   2.610   6.382   2.271
 2889SOL    HW2 9567   2.597   6.519   2.183
 2890SOL     OW 9568   1.234   6.036   0.363
 2890SOL    HW1 9569   1.208   5.970   0.292
 2890SOL    HW2 9570   1.262   6.122   0.319
 2891SOL     OW 9571   0.806   4.805   3.247
 2891SOL    HW1 9572   0.906   4.801   3.249
 2891SOL    HW2 9573   0.769   4.740   3.313
 2892SOL     OW 9574   6.439   3.197   0.529
 2892SOL    HW1 9575   6.346   3.168   0.505
 2892SOL    HW2 9576   6.436   3.249   0.615
 2893SOL     OW 9577   0.303   5.227   4.021
 2893SOL    HW1 9578   0.276   5.134   3.998
 2893SOL    HW2 9579   0.276   5.289   3.947
 2894SOL     OW 9580   0.638   3.426   1.941
 2894SOL    HW1 9581   0.552   3.468   1.914
 2894SOL    HW2 9582   0.621   3.358   2.012
 2895SOL     OW 9583   5.012   1.637   5.431
 2895SOL    HW1 9584   4.998   1.573   5.355
 2895SOL    HW2 9585   5.023   1.586   5.516
 2896SOL     OW 9586   4.807   6.479   5.278
 2896SOL    HW1 9587   4.894   6.474   5.327
 2896SOL    HW2 9588   4.813   6.425   5.194
 2897SOL     OW 9589   3.591   4.924   2.947
 2897SOL    HW1 9590   3.494   4.945   2.932
 2897SOL    HW2 9591   3.605   4.896   3.042
 2898SOL     OW 9592   4.435   4.576   4.207
 2898SOL    HW1 9593   4.368   4.623   4.264
 2898SOL    HW2 9594   4.412   4.590   4.111
 2899SOL     OW 9595   0.896   2.089   0.277
 2899SOL    HW1 9596   0.984   2.057   0.311
 2899SOL    HW2 9597   0.905   2.112   0.180
 2900SOL     OW 9598   2.283   3.957   5.875
 2900SOL    HW1 9599   2.284   3.889   5.803
 2900SOL    HW2 9600   2.197   4.009   5.871
 2901SOL     OW 9601   2.235   4.837   3.282
 2901SOL    HW1 9602   2.220   4.820   3.380
 2901SOL    HW2 9603   2.296   4.767   3.245
 2902SOL     OW 9604   5.715   5.246   3.183
 2902SOL    HW1 9605   5.676   5.336   3.199
 2902SOL    HW2 9606   5.641   5.180   3.168
 2903SOL     OW 9607   3.567   0.288   0.444
 2903SOL    HW1 9608   3.628   0.250   0.374
 2903SOL    HW2 9609   3.482   0.320   0.400
 2904SOL     OW 9610   2.598   4.868   4.298
 2904SOL    HW1 9611   2.599   4.770   4.277
 2904SOL    HW2 9612   2.525   4.912   4.246
 2905SOL     OW 9613   0.921   2.619   5.051
 2905SOL    HW1 9614   0.926   2.674   5.135
 2905SOL    HW2 9615   0.963   2.671   4.975
 2906SOL     OW 9616   4.841   5.110   2.259
 2906SOL    HW1 9617   4.829   5.206   2.231
 2906SOL    HW2 9618   4.808   5.098   2.353
 2907SOL     OW 9619   0.944   1.087   3.498
 2907SOL    HW1 9620   0.864   1.096   3.438
 2907SOL    HW2 9621   0.942   0.997   3.542
 2908SOL     OW 9622   4.943   6.591   3.750
 2908SOL    HW1 9623   4.880   6.539   3.693
 2908SOL    HW2 9624   4.983   6.665   3.696
 2909SOL     OW 9625   1.609   5.527   4.212
 2909SOL    HW1 9626   1.684   5.592   4.198
 2909SOL    HW2 9627   1.616   5.454   4.144
 2910SOL     OW 9628   5.067   0.918   4.435
 2910SOL    HW1 9629   5.131   0.841   4.446
 2910SOL    HW2 9630   5.085   0.964   4.348
 2911SOL     OW 9631   0.995   5.427   3.625
 2911SOL    HW1 9632   0.943   5.355   3.579
 2911SOL    HW2 9633   0.935   5.475   3.689
 2912SOL     OW 9634   5.368   0.170   0.003
 2912SOL    HW1 9635   5.381   0.251   6.974
 2912SOL    HW2 9636   5.456   0.130   0.025
 2913SOL     OW 9637   3.205   4.798   1.812
 2913SOL    HW1 9638   3.155   4.843   1.738
 2913SOL    HW2 9639   3.219   4.862   1.888
 2914SOL     OW 9640   6.258   6.610   5.963
 2914SOL    HW1 9641   6.287   6.530   6.016
 2914SOL    HW2 9642   6.335   6.646   5.911
 2915SOL     OW 9643   3.312   2.083   4.004
 2915SOL    HW1 9644   3.329   2.079   3.905
 2915SOL    HW2 9645   3.224   2.040   4.025
 2916SOL     OW 9646   0.780   5.715   0.466
 2916SOL    HW1 9647   0.841   5.792   0.483
 2916SOL    HW2 9648   0.706   5.716   0.534
 2917SOL     OW 9649   2.461   0.513   3.322
 2917SOL    HW1 9650   2.522   0.528   3.400
 2917SOL    HW2 9651   2.403   0.433   3.340
 2918SOL     OW 9652   5.901   4.628   5.010
 2918SOL    HW1 9653   5.989   4.606   5.051
 2918SOL    HW2 9654   5.865   4.548   4.962
 2919SOL     OW 9655   5.355   0.738   2.425
 2919SOL    HW1 9656   5.426   0.809   2.428
 2919SOL    HW2 9657   5.265   0.781   2.425
 2920SOL     OW 9658   3.033   1.056   1.706
 2920SOL    HW1 9659   3.088   1.135   1.678
 2920SOL    HW2 9660   2.950   1.052   1.651
 2921SOL     OW 9661   0.737   6.827   4.741
 2921SOL    HW1 9662   0.740   6.751   4.676
 2921SOL    HW2 9663   0.830   6.854   4.764
 2922SOL     OW 9664   4.867   0.296   1.441
 2922SOL    HW1 9665   4.921   0.229   1.390
 2922SOL    HW2 9666   4.854   0.378   1.385
 2923SOL     OW 9667   6.159   5.171   2.770
 2923SOL    HW1 9668   6.236   5.230   2.795
 2923SOL    HW2 9669   6.185   5.114   2.692
 2924SOL     OW 9670   5.983   2.121   5.599
 2924SOL    HW1 9671   5.971   2.176   5.682
 2924SOL    HW2 9672   5.896   2.077   5.575
 2925SOL     OW 9673   4.551   1.439   2.414
 2925SOL    HW1 9674   4.479   1.479   2.358
 2925SOL    HW2 9675   4.525   1.446   2.511
 2926SOL     OW 9676   6.416   1.503   4.861
 2926SOL    HW1 9677   6.513   1.529   4.855
 2926SOL    HW2 9678   6.364   1.551   4.790
 2927SOL     OW 9679   1.691   4.009   1.225
 2927SOL    HW1 9680   1.699   4.109   1.221
 2927SOL    HW2 9681   1.686   3.980   1.321
 2928SOL     OW 9682   0.277   0.398   6.771
 2928SOL    HW1 9683   0.321   0.419   6.858
 2928SOL    HW2 9684   0.187   0.443   6.768
 2929SOL     OW 9685   1.286   2.219   6.830
 2929SOL    HW1 9686   1.225   2.203   6.908
 2929SOL    HW2 9687   1.232   2.227   6.747
 2930SOL     OW 9688   5.629   0.010   5.401
 2930SOL    HW1 9689   5.709   0.006   5.340
 2930SOL    HW2 9690   5.546   0.017   5.346
 2931SOL     OW 9691   5.806   4.462   7.014
 2931SOL    HW1 9692   5.712   4.465   0.018
 2931SOL    HW2 9693   5.808   4.432   6.919
 2932SOL     OW 9694   0.805   5.659   1.971
 2932SOL    HW1 9695   0.812   5.669   1.872
 2932SOL    HW2 9696   0.794   5.562   1.994
 2933SOL     OW 9697   0.881   5.430   2.994
 2933SOL    HW1 9698   0.909   5.508   3.050
 2933SOL    HW2 9699   0.789   5.444   2.959
 2934SOL     OW 9700   5.096   1.747   0.115
 2934SOL    HW1 9701   5.155   1.670   0.141
 2934SOL    HW2 9702   5.012   1.712   0.073
 2935SOL     OW 9703   0.051   2.929   6.590
 2935SOL    HW1 9704   0.038   3.018   6.633
 2935SOL    HW2 9705   7.024   2.861   6.637
 2936SOL     OW 9706   4.238   0.058   0.706
 2936SOL    HW1 9707   4.275   0.116   0.778
 2936SOL    HW2 9708   4.273   0.088   0.617
 2937SOL     OW 9709   5.357   4.649   1.302
 2937SOL    HW1 9710   5.450   4.624   1.275
 2937SOL    HW2 9711   5.315   4.572   1.350
 2938SOL     OW 9712   4.503   5.429   6.557
 2938SOL    HW1 9713   4.408   5.437   6.586
 2938SOL    HW2 9714   4.564   5.456   6.632
 2939SOL     OW 9715   2.100   0.271   2.786
 2939SOL    HW1 9716   2.104   0.292   2.884
 2939SOL    HW2 9717   2.165   0.197   2.765
 2940SOL     OW 9718   5.595   4.773   5.428
 2940SOL    HW1 9719   5.635   4.776   5.336
 2940SOL    HW2 9720   5.499   4.799   5.424
 2941SOL     OW 9721   1.546   2.265   4.348
 2941SOL    HW1 9722   1.606   2.330   4.301
 2941SOL    HW2 9723   1.582   2.249   4.440
 2942SOL     OW 9724   3.072   2.602   0.366
 2942SOL    HW1 9725   3.096   2.575   0.272
 2942SOL    HW2 9726   3.000   2.670   0.363
 2943SOL     OW 9727   5.408   4.415   3.484
 2943SOL    HW1 9728   5.438   4.506   3.455
 2943SOL    HW2 9729   5.471   4.380   3.553
 2944SOL     OW 9730   2.887   6.129   4.086
 2944SOL    HW1 9731   2.807   6.069   4.087
 2944SOL    HW2 9732   2.921   6.141   4.179
 2945SOL     OW 9733   3.195   3.738   3.202
 2945SOL    HW1 9734   3.183   3.837   3.196
 2945SOL    HW2 9735   3.110   3.692   3.174
 2946SOL     OW 9736   1.534   4.940   5.599
 2946SOL    HW1 9737   1.522   5.006   5.524
 2946SOL    HW2 9738   1.450   4.933   5.651
 2947SOL     OW 9739   0.435   3.792   0.975
 2947SOL    HW1 9740   0.454   3.711   1.031
 2947SOL    HW2 9741   0.486   3.870   1.011
 2948SOL     OW 9742   0.906   3.433   4.795
 2948SOL    HW1 9743   0.844   3.400   4.724
 2948SOL    HW2 9744   0.860   3.428   4.884
 2949SOL     OW 9745   2.489   5.567   0.513
 2949SOL    HW1 9746   2.498   5.601   0.420
 2949SOL    HW2 9747   2.579   5.552   0.553
 2950SOL     OW 9748   5.547   5.233   4.259
 2950SOL    HW1 9749   5.564   5.201   4.166
 2950SOL    HW2 9750   5.582   5.166   4.325
 2951SOL     OW 9751   5.315   1.188   1.571
 2951SOL    HW1 9752   5.349   1.188   1.477
 2951SOL    HW2 9753   5.266   1.273   1.589
 2952SOL     OW 9754   0.059   4.664   4.887
 2952SOL    HW1 9755   7.010   4.727   4.883
 2952SOL    HW2 9756   0.120   4.690   4.962
 2953SOL     OW 9757   5.185   3.718   2.610
 2953SOL    HW1 9758   5.171   3.730   2.709
 2953SOL    HW2 9759   5.245   3.790   2.576
 2954SOL     OW 9760   1.090   4.997   1.784
 2954SOL    HW1 9761   1.028   4.961   1.853
 2954SOL    HW2 9762   1.159   5.055   1.828
 2955SOL     OW 9763   0.612   3.907   2.109
 2955SOL    HW1 9764   0.547   3.970   2.068
 2955SOL    HW2 9765   0.654   3.949   2.190
 2956SOL     OW 9766   5.468   5.909   2.677
 2956SOL    HW1 9767   5.369   5.900   2.677
 2956SOL    HW2 9768   5.493   6.002   2.650
 2957SOL     OW 9769   5.773   4.220   1.971
 2957SOL    HW1 9770   5.826   4.138   1.948
 2957SOL    HW2 9771   5.741   4.214   2.065
 2958SOL     OW 9772   2.511   4.741   3.234
 2958SOL    HW1 9773   2.575   4.816   3.247
 2958SOL    HW2 9774   2.524   4.673   3.306
 2959SOL     OW 9775   5.125   3.412   0.485
 2959SOL    HW1 9776   5.114   3.418   0.386
 2959SOL    HW2 9777   5.095   3.498   0.527
 2960SOL     OW 9778   2.981   0.854   0.558
 2960SOL    HW1 9779   2.882   0.842   0.549
 2960SOL    HW2 9780   3.021   0.770   0.594
 2961SOL     OW 9781   5.272   3.565   2.874
 2961SOL    HW1 9782   5.276   3.481   2.927
 2961SOL    HW2 9783   5.362   3.581   2.832
 2962SOL     OW 9784   4.231   6.421   2.997
 2962SOL    HW1 9785   4.308   6.404   2.936
 2962SOL    HW2 9786   4.244   6.370   3.082
 2963SOL     OW 9787   1.795   0.962   6.023
 2963SOL    HW1 9788   1.735   0.963   6.103
 2963SOL    HW2 9789   1.740   0.978   5.941
 2964SOL     OW 9790   0.528   0.462   3.925
 2964SOL    HW1 9791   0.556   0.454   4.021
 2964SOL    HW2 9792   0.603   0.500   3.871
 2965SOL     OW 9793   0.403   0.659   4.229
 2965SOL    HW1 9794   0.358   0.680   4.142
 2965SOL    HW2 9795   0.455   0.574   4.220
 2966SOL     OW 9796   4.971   5.822   3.353
 2966SOL    HW1 9797   5.021   5.818   3.266
 2966SOL    HW2 9798   4.975   5.733   3.397
 2967SOL     OW 9799   6.836   0.692   5.035
 2967SOL    HW1 9800   6.790   0.720   4.951
 2967SOL    HW2 9801   6.884   0.770   5.075
 2968SOL     OW 9802   1.262   2.702   6.979
 2968SOL    HW1 9803   1.179   2.723   6.927
 2968SOL    HW2 9804   1.342   2.726   6.923
 2969SOL     OW 9805   5.141   1.962   4.098
 2969SOL    HW1 9806   5.132   1.893   4.026
 2969SOL    HW2 9807   5.068   2.031   4.087
 2970SOL     OW 9808   1.903   3.926   5.745
 2970SOL    HW1 9809   1.959   3.855   5.703
 2970SOL    HW2 9810   1.961   4.001   5.776
 2971SOL     OW 9811   5.202   4.560   0.267
 2971SOL    HW1 9812   5.128   4.503   0.302
 2971SOL    HW2 9813   5.253   4.600   0.344
 2972SOL     OW 9814   6.342   4.821   6.581
 2972SOL    HW1 9815   6.427   4.790   6.623
 2972SOL    HW2 9816   6.287   4.742   6.554
 2973SOL     OW 9817   5.420   6.471   2.134
 2973SOL    HW1 9818   5.455   6.534   2.203
 2973SOL    HW2 9819   5.490   6.401   2.115
 2974SOL     OW 9820   1.149   4.720   3.506
 2974SOL    HW1 9821   1.244   4.696   3.488
 2974SOL    HW2 9822   1.123   4.690   3.598
 2975SOL     OW 9823   5.504   3.584   4.199
 2975SOL    HW1 9824   5.486   3.512   4.265
 2975SOL    HW2 9825   5.505   3.545   4.107
 2976SOL     OW 9826   4.060   1.617   2.704
 2976SOL    HW1 9827   4.083   1.703   2.660
 2976SOL    HW2 9828   4.042   1.633   2.801
 2977SOL     OW 9829   2.344   6.647   2.412
 2977SOL    HW1 9830   2.422   6.583   2.412
 2977SOL    HW2 9831   2.371   6.732   2.456
 2978SOL     OW 9832   4.734   4.607   7.008
 2978SOL    HW1 9833   4.654   4.666   7.020
 2978SOL    HW2 9834   4.807   4.636   0.042
 2979SOL     OW 9835   3.311   0.529   4.166
 2979SOL    HW1 9836   3.350   0.439   4.182
 2979SOL    HW2 9837   3.331   0.589   4.244
 2980SOL     OW 9838   1.308   5.869   4.618
 2980SOL    HW1 9839   1.271   5.945   4.671
 2980SOL    HW2 9840   1.393   5.838   4.660
 2981SOL     OW 9841   2.647   1.061   5.539
 2981SOL    HW1 9842   2.702   1.125   5.486
 2981SOL    HW2 9843   2.581   1.111   5.595
 2982SOL     OW 9844   3.348   5.237   2.298
 2982SOL    HW1 9845   3.266   5.180   2.291
 2982SOL    HW2 9846   3.385   5.254   2.207
 2983SOL     OW 9847   0.771   1.462   2.587
 2983SOL    HW1 9848   0.680   1.502   2.580
 2983SOL    HW2 9849   0.795   1.451   2.683
 2984SOL     OW 9850   5.436   4.864   0.736
 2984SOL    HW1 9851   5.345   4.903   0.721
 2984SOL    HW2 9852   5.491   4.876   0.653
 2985SOL     OW 9853   1.666   2.996   5.127
 2985SOL    HW1 9854   1.651   3.092   5.101
 2985SOL    HW2 9855   1.760   2.970   5.104
 2986SOL     OW 9856   3.672   4.000   3.200
 2986SOL    HW1 9857   3.596   3.937   3.187
 2986SOL    HW2 9858   3.679   4.024   3.297
 2987SOL     OW 9859   0.818   1.564   3.884
 2987SOL    HW1 9860   0.829   1.466   3.902
 2987SOL    HW2 9861   0.726   1.581   3.848
 2988SOL     OW 9862   1.861   5.539   2.959
 2988SOL    HW1 9863   1.943   5.504   2.914
 2988SOL    HW2 9864   1.844   5.633   2.929
 2989SOL     OW 9865   5.361   5.971   5.891
 2989SOL    HW1 9866   5.387   5.874   5.887
 2989SOL    HW2 9867   5.416   6.023   5.826
 2990SOL     OW 9868   3.844   2.049   4.906
 2990SOL    HW1 9869   3.795   2.070   4.821
 2990SOL    HW2 9870   3.778   2.038   4.980
 2991SOL     OW 9871   6.656   3.813   5.286
 2991SOL    HW1 9872   6.737   3.870   5.299
 2991SOL    HW2 9873   6.589   3.832   5.358
 2992SOL     OW 9874   2.594   6.297   4.542
 2992SOL    HW1 9875   2.537   6.365   4.588
 2992SOL    HW2 9876   2.659   6.343   4.482
 2993SOL     OW 9877   0.380   5.101   1.336
 2993SOL    HW1 9878   0.447   5.154   1.387
 2993SOL    HW2 9879   0.289   5.137   1.354
 2994SOL     OW 9880   3.973   6.387   6.967
 2994SOL    HW1 9881   3.905   6.389   0.012
 2994SOL    HW2 9882   3.955   6.309   6.907
 2995SOL     OW 9883   2.790   1.280   6.009
 2995SOL    HW1 9884   2.736   1.353   5.967
 2995SOL    HW2 9885   2.733   1.199   6.022
 2996SOL     OW 9886   1.421   1.377   3.998
 2996SOL    HW1 9887   1.423   1.331   4.087
 2996SOL    HW2 9888   1.357   1.453   4.001
 2997SOL     OW 9889   5.865   0.208   3.181
 2997SOL    HW1 9890   5.806   0.179   3.106
 2997SOL    HW2 9891   5.955   0.234   3.145
 2998SOL     OW 9892   4.205   0.069   3.956
 2998SOL    HW1 9893   4.271   0.124   3.905
 2998SOL    HW2 9894   4.162   0.002   3.894
 2999SOL     OW 9895   2.297   5.419   4.868
 2999SOL    HW1 9896   2.290   5.505   4.818
 2999SOL    HW2 9897   2.206   5.388   4.894
 3000SOL     OW 9898   3.437   3.795   6.215
 3000SOL    HW1 9899   3.395   3.869   6.267
 3000SOL    HW2 9900   3.417   3.808   6.117
 3001SOL     OW 9901   6.979   0.548   6.032
 3001SOL    HW1 9902   7.012   0.514   6.120
 3001SOL    HW2 9903   0.021   0.535   5.963
 3002SOL     OW 9904   3.236   1.562   0.193
 3002SOL    HW1 9905   3.170   1.488   0.184
 3002SOL    HW2 9906   3.209   1.622   0.268
 3003SOL     OW 9907   1.623   6.733   0.581
 3003SOL    HW1 9908   1.661   6.692   0.664
 3003SOL    HW2 9909   1.698   6.767   0.523
 3004SOL     OW 9910   0.814   4.261   3.462
 3004SOL    HW1 9911   0.785   4.320   3.387
 3004SOL    HW2 9912   0.790   4.304   3.549
 3005SOL     OW 9913   1.954   1.692   0.738
 3005SOL    HW1 9914   1.926   1.736   0.653
 3005SOL    HW2 9915   1.985   1.599   0.720
 3006SOL     OW 9916   5.560   1.492   4.880
 3006SOL    HW1 9917   5.536   1.525   4.789
 3006SOL    HW2 9918   5.544   1.565   4.947
 3007SOL     OW 9919   5.300   4.248   0.472
 3007SOL    HW1 9920   5.228   4.318   0.469
 3007SOL    HW2 9921   5.288   4.184   0.396
 3008SOL     OW 9922   3.818   2.450   5.832
 3008SOL    HW1 9923   3.771   2.485   5.751
 3008SOL    HW2 9924   3.804   2.351   5.839
 3009SOL     OW 9925   6.601   1.790   2.963
 3009SOL    HW1 9926   6.549   1.802   2.879
 3009SOL    HW2 9927   6.568   1.855   3.032
 3010SOL     OW 9928   3.954   5.831   3.268
 3010SOL    HW1 9929   4.039   5.779   3.275
 3010SOL    HW2 9930   3.880   5.770   3.240
 3011SOL     OW 9931   5.974   1.208   2.296
 3011SOL    HW1 9932   5.932   1.210   2.205
 3011SOL    HW2 9933   6.038   1.131   2.302
 3012SOL     OW 9934   1.966   3.343   5.997
 3012SOL    HW1 9935   1.916   3.284   5.933
 3012SOL    HW2 9936   1.902   3.396   6.052
 3013SOL     OW 9937   5.164   5.298   3.637
 3013SOL    HW1 9938   5.097   5.346   3.694
 3013SOL    HW2 9939   5.233   5.363   3.605
 3014SOL     OW 9940   4.413   2.446   4.537
 3014SOL    HW1 9941   4.427   2.356   4.497
 3014SOL    HW2 9942   4.426   2.442   4.636
 3015SOL     OW 9943   2.947   2.004   0.330
 3015SOL    HW1 9944   2.922   1.980   0.424
 3015SOL    HW2 9945   3.016   2.076   0.331
 3016SOL     OW 9946   2.463   6.357   3.772
 3016SOL    HW1 9947   2.380   6.325   3.726
 3016SOL    HW2 9948   2.505   6.430   3.718
 3017SOL     OW 9949   6.451   4.822   2.638
 3017SOL    HW1 9950   6.540   4.849   2.675
 3017SOL    HW2 9951   6.462   4.740   2.582
 3018SOL     OW 9952   2.994   6.614   6.057
 3018SOL    HW1 9953   2.989   6.514   6.060
 3018SOL    HW2 9954   3.024   6.648   6.146
 3019SOL     OW 9955   0.917   6.583   0.704
 3019SOL    HW1 9956   0.827   6.610   0.740
 3019SOL    HW2 9957   0.962   6.663   0.665
 3020SOL     OW 9958   3.663   2.584   1.226
 3020SOL    HW1 9959   3.723   2.621   1.298
 3020SOL    HW2 9960   3.662   2.484   1.232
 3021SOL     OW 9961   2.918   0.378   5.850
 3021SOL    HW1 9962   2.874   0.289   5.863
 3021SOL    HW2 9963   3.014   0.372   5.875
 3022SOL     OW 9964   4.244   5.131   4.657
 3022SOL    HW1 9965   4.296   5.179   4.727
 3022SOL    HW2 9966   4.171   5.078   4.699
 3023SOL     OW 9967   4.207   6.645   2.748
 3023SOL    HW1 9968   4.166   6.671   2.836
 3023SOL    HW2 9969   4.152   6.572   2.706
 3024SOL     OW 9970   4.964   0.090   4.649
 3024SOL    HW1 9971   4.940   0.177   4.605
 3024SOL    HW2 9972   5.059   0.068   4.628
 3025SOL     OW 9973   3.375   6.911   0.527
 3025SOL    HW1 9974   3.415   6.906   0.435
 3025SOL    HW2 9975   3.411   6.991   0.574
 3026SOL     OW 9976   1.363   0.833   6.704
 3026SOL    HW1 9977   1.325   0.924   6.685
 3026SOL    HW2 9978   1.298   0.763   6.675
 3027SOL     OW 9979   4.059   0.990   2.983
 3027SOL    HW1 9980   4.138   0.929   2.971
 3027SOL    HW2 9981   4.003   0.989   2.901
 3028SOL     OW 9982   1.428   3.266   5.826
 3028SOL    HW1 9983   1.385   3.182   5.860
 3028SOL    HW2 9984   1.377   3.300   5.747
 3029SOL     OW 9985   0.193   2.651   5.372
 3029SOL    HW1 9986   0.287   2.619   5.370
 3029SOL    HW2 9987   0.170   2.696   5.286
 3030SOL     OW 9988   0.339   3.115   0.292
 3030SOL    HW1 9989   0.291   3.187   0.242
 3030SOL    HW2 9990   0.425   3.152   0.328
 3031SOL     OW 9991   0.252   4.290   1.497
 3031SOL    HW1 9992   0.335   4.284   1.440
 3031SOL    HW2 9993   0.274   4.338   1.582
 3032SOL     OW 9994   2.780   6.324   1.304
 3032SOL    HW1 9995   2.839   6.364   1.374
 3032SOL    HW2 9996   2.709   6.269   1.348
 3033SOL     OW 9997   6.047   2.203   1.191
 3033SOL    HW1 9998   6.089   2.182   1.279
 3033SOL    HW2 9999   6.107   2.264   1.139
 3034SOL     OW10000   1.879   5.908   2.675
 3034SOL    HW110001   1.864   5.998   2.634
 3034SOL    HW210002   1.883   5.839   2.603
 3035SOL     OW10003   0.301   3.066   6.761
 3035SOL    HW110004   0.295   3.020   6.673
 3035SOL    HW210005   0.311   3.164   6.747
 3036SOL     OW10006   2.289   2.066   6.249
 3036SOL    HW110007   2.256   2.143   6.303
 3036SOL    HW210008   2.212   2.023   6.201
 3037SOL     OW10009   5.713   5.713   5.824
 3037SOL    HW110010   5.670   5.795   5.785
 3037SOL    HW210011   5.806   5.734   5.853
 3038SOL     OW10012   5.004   6.138   5.664
 3038SOL    HW110013   5.020   6.044   5.633
 3038SOL    HW210014   4.912   6.166   5.637
 3039SOL     OW10015   6.905   3.246   0.521
 3039SOL    HW110016   6.819   3.196   0.523
 3039SOL    HW210017   6.980   3.186   0.549
 3040SOL     OW10018   3.709   3.838   6.232
 3040SOL    HW110019   3.744   3.768   6.169
 3040SOL    HW210020   3.614   3.818   6.256
 3041SOL     OW10021   2.077   3.116   4.577
 3041SOL    HW110022   2.073   3.041   4.643
 3041SOL    HW210023   1.984   3.138   4.546
 3042SOL     OW10024   5.120   5.623   2.063
 3042SOL    HW110025   5.044   5.688   2.053
 3042SOL    HW210026   5.106   5.547   1.999
 3043SOL     OW10027   2.272   3.901   1.766
 3043SOL    HW110028   2.331   3.980   1.781
 3043SOL    HW210029   2.323   3.831   1.715
 3044SOL     OW10030   3.743   4.865   5.744
 3044SOL    HW110031   3.704   4.773   5.742
 3044SOL    HW210032   3.838   4.862   5.715
 3045SOL     OW10033   4.552   0.352   3.106
 3045SOL    HW110034   4.512   0.276   3.054
 3045SOL    HW210035   4.571   0.428   3.045
 3046SOL     OW10036   2.096   0.953   5.951
 3046SOL    HW110037   2.018   0.914   5.999
 3046SOL    HW210038   2.074   0.961   5.854
 3047SOL     OW10039   5.782   0.393   1.618
 3047SOL    HW110040   5.806   0.386   1.715
 3047SOL    HW210041   5.864   0.377   1.562
 3048SOL     OW10042   3.937   2.283   1.777
 3048SOL    HW110043   3.847   2.319   1.799
 3048SOL    HW210044   3.948   2.192   1.817
 3049SOL     OW10045   1.516   6.971   2.689
 3049SOL    HW110046   1.610   6.952   2.660
 3049SOL    HW210047   1.517   0.007   2.766
 3050SOL     OW10048   3.366   1.269   1.876
 3050SOL    HW110049   3.342   1.361   1.843
 3050SOL    HW210050   3.331   1.257   1.969
 3051SOL     OW10051   1.671   5.088   6.039
 3051SOL    HW110052   1.751   5.093   6.098
 3051SOL    HW210053   1.616   5.008   6.064
 3052SOL     OW10054   4.987   5.857   2.004
 3052SOL    HW110055   5.070   5.897   2.043
 3052SOL    HW210056   4.919   5.929   1.990
 3053SOL     OW10057   0.007   2.313   0.619
 3053SOL    HW110058   0.054   2.325   0.531
 3053SOL    HW210059   0.073   2.321   0.693
 3054SOL     OW10060   6.672   2.734   0.928
 3054SOL    HW110061   6.725   2.653   0.903
 3054SOL    HW210062   6.580   2.728   0.889
 3055SOL     OW10063   4.903   0.422   5.165
 3055SOL    HW110064   4.881   0.353   5.234
 3055SOL    HW210065   4.830   0.426   5.097
 3056SOL     OW10066   6.712   0.039   5.271
 3056SOL    HW110067   6.810   0.059   5.273
 3056SOL    HW210068   6.686   7.020   5.356
 3057SOL     OW10069   4.383   6.032   2.766
 3057SOL    HW110070   4.430   6.081   2.839
 3057SOL    HW210071   4.437   5.953   2.739
 3058SOL     OW10072   6.864   4.757   1.094
 3058SOL    HW110073   6.816   4.695   1.156
 3058SOL    HW210074   6.910   4.828   1.148
 3059SOL     OW10075   2.656   2.329   4.235
 3059SOL    HW110076   2.608   2.415   4.250
 3059SOL    HW210077   2.633   2.265   4.308
 3060SOL     OW10078   1.454   5.175   0.237
 3060SOL    HW110079   1.502   5.245   0.289
 3060SOL    HW210080   1.474   5.185   0.140
 3061SOL     OW10081   7.025   6.730   5.433
 3061SOL    HW110082   7.001   6.825   5.416
 3061SOL    HW210083   0.093   6.716   5.413
 3062SOL     OW10084   1.914   0.199   0.398
 3062SOL    HW110085   1.915   0.108   0.356
 3062SOL    HW210086   1.896   0.191   0.496
 3063SOL     OW10087   2.425   4.647   1.660
 3063SOL    HW110088   2.378   4.714   1.718
 3063SOL    HW210089   2.399   4.555   1.689
 3064SOL     OW10090   4.931   3.772   1.996
 3064SOL    HW110091   4.924   3.792   1.898
 3064SOL    HW210092   4.955   3.676   2.008
 3065SOL     OW10093   2.016   1.400   0.143
 3065SOL    HW110094   2.051   1.316   0.102
 3065SOL    HW210095   2.010   1.471   0.073
 3066SOL     OW10096   4.551   4.726   0.787
 3066SOL    HW110097   4.468   4.672   0.772
 3066SOL    HW210098   4.631   4.672   0.758
 3067SOL     OW10099   3.767   1.435   5.805
 3067SOL    HW110100   3.689   1.480   5.849
 3067SOL    HW210101   3.746   1.337   5.793
 3068SOL     OW10102   6.634   0.339   0.534
 3068SOL    HW110103   6.654   0.241   0.531
 3068SOL    HW210104   6.551   0.354   0.589
 3069SOL     OW10105   6.511   5.884   1.765
 3069SOL    HW110106   6.582   5.954   1.774
 3069SOL    HW210107   6.430   5.912   1.816
 3070SOL     OW10108   2.912   1.222   6.659
 3070SOL    HW110109   2.966   1.139   6.670
 3070SOL    HW210110   2.939   1.269   6.574
 3071SOL     OW10111   6.635   6.279   3.399
 3071SOL    HW110112   6.691   6.318   3.472
 3071SOL    HW210113   6.622   6.181   3.415
 3072SOL     OW10114   2.710   6.147   6.577
 3072SOL    HW110115   2.787   6.115   6.522
 3072SOL    HW210116   2.735   6.146   6.674
 3073SOL     OW10117   5.804   3.010   4.732
 3073SOL    HW110118   5.786   2.914   4.712
 3073SOL    HW210119   5.724   3.050   4.777
 3074SOL     OW10120   6.204   3.441   0.645
 3074SOL    HW110121   6.304   3.439   0.637
 3074SOL    HW210122   6.167   3.510   0.582
 3075SOL     OW10123   2.519   5.354   1.720
 3075SOL    HW110124   2.517   5.320   1.626
 3075SOL    HW210125   2.438   5.323   1.769
 3076SOL     OW10126   6.475   0.339   4.044
 3076SOL    HW110127   6.518   0.278   3.978
 3076SOL    HW210128   6.418   0.406   3.996
 3077SOL     OW10129   5.797   5.031   1.098
 3077SOL    HW110130   5.863   5.097   1.062
 3077SOL    HW210131   5.846   4.954   1.139
 3078SOL     OW10132   0.270   2.586   2.947
 3078SOL    HW110133   0.285   2.539   2.860
 3078SOL    HW210134   0.173   2.606   2.959
 3079SOL     OW10135   2.515   2.577   2.725
 3079SOL    HW110136   2.428   2.624   2.717
 3079SOL    HW210137   2.552   2.558   2.634
 3080SOL     OW10138   5.192   5.284   2.378
 3080SOL    HW110139   5.166   5.324   2.290
 3080SOL    HW210140   5.141   5.199   2.393
 3081SOL     OW10141   0.463   2.569   5.384
 3081SOL    HW110142   0.518   2.622   5.319
 3081SOL    HW210143   0.521   2.543   5.461
 3082SOL     OW10144   2.562   5.709   3.414
 3082SOL    HW110145   2.484   5.757   3.374
 3082SOL    HW210146   2.533   5.660   3.496
 3083SOL     OW10147   2.874   6.405   4.050
 3083SOL    HW110148   2.893   6.309   4.069
 3083SOL    HW210149   2.930   6.462   4.111
 3084SOL     OW10150   6.280   3.429   4.433
 3084SOL    HW110151   6.216   3.495   4.472
 3084SOL    HW210152   6.372   3.469   4.432
 3085SOL     OW10153   5.954   4.370   0.578
 3085SOL    HW110154   5.998   4.362   0.667
 3085SOL    HW210155   5.889   4.446   0.579
 3086SOL     OW10156   4.453   1.976   1.113
 3086SOL    HW110157   4.404   1.911   1.171
 3086SOL    HW210158   4.495   1.928   1.036
 3087SOL     OW10159   1.610   5.911   4.164
 3087SOL    HW110160   1.513   5.920   4.142
 3087SOL    HW210161   1.621   5.841   4.235
 3088SOL     OW10162   2.335   4.835   4.476
 3088SOL    HW110163   2.401   4.772   4.517
 3088SOL    HW210164   2.249   4.831   4.526
 3089SOL     OW10165   1.955   3.092   5.636
 3089SOL    HW110166   1.984   3.077   5.541
 3089SOL    HW210167   1.941   3.004   5.681
 3090SOL     OW10168   2.660   2.333   1.672
 3090SOL    HW110169   2.583   2.304   1.729
 3090SOL    HW210170   2.734   2.267   1.680
 3091SOL     OW10171   1.812   6.878   1.449
 3091SOL    HW110172   1.894   6.932   1.431
 3091SOL    HW210173   1.831   6.781   1.435
 3092SOL     OW10174   5.136   1.430   0.595
 3092SOL    HW110175   5.157   1.434   0.693
 3092SOL    HW210176   5.208   1.380   0.547
 3093SOL     OW10177   5.248   6.512   6.543
 3093SOL    HW110178   5.251   6.573   6.622
 3093SOL    HW210179   5.322   6.445   6.549
 3094SOL     OW10180   2.115   6.945   4.130
 3094SOL    HW110181   2.167   0.000   4.118
 3094SOL    HW210182   2.177   6.871   4.157
 3095SOL     OW10183   2.507   4.961   5.266
 3095SOL    HW110184   2.567   4.962   5.345
 3095SOL    HW210185   2.539   4.893   5.200
 3096SOL     OW10186   0.745   5.313   5.648
 3096SOL    HW110187   0.741   5.330   5.550
 3096SOL    HW210188   0.836   5.336   5.682
 3097SOL     OW10189   5.466   2.180   0.180
 3097SOL    HW110190   5.374   2.212   0.160
 3097SOL    HW210191   5.468   2.139   0.272
 3098SOL     OW10192   2.338   2.867   1.833
 3098SOL    HW110193   2.261   2.883   1.771
 3098SOL    HW210194   2.308   2.880   1.927
 3099SOL     OW10195   0.898   0.002   3.581
 3099SOL    HW110196   0.810   6.983   3.583
 3099SOL    HW210197   0.955   6.992   3.509
 3100SOL     OW10198   0.035   5.895   3.412
 3100SOL    HW110199   0.101   5.962   3.377
 3100SOL    HW210200   0.067   5.860   3.500
 3101SOL     OW10201   5.974   6.273   0.277
 3101SOL    HW110202   5.969   6.342   0.205
 3101SOL    HW210203   5.980   6.319   0.366
 3102SOL     OW10204   6.539   5.517   2.668
 3102SOL    HW110205   6.513   5.531   2.763
 3102SOL    HW210206   6.587   5.597   2.633
 3103SOL     OW10207   4.603   0.670   2.305
 3103SOL    HW110208   4.566   0.578   2.318
 3103SOL    HW210209   4.669   0.669   2.230
 3104SOL     OW10210   5.159   1.275   5.320
 3104SOL    HW110211   5.133   1.179   5.307
 3104SOL    HW210212   5.084   1.325   5.363
 3105SOL     OW10213   5.307   4.295   0.975
 3105SOL    HW110214   5.254   4.377   0.999
 3105SOL    HW210215   5.342   4.304   0.882
 3106SOL     OW10216   4.504   0.749   3.715
 3106SOL    HW110217   4.537   0.781   3.625
 3106SOL    HW210218   4.502   0.649   3.716
 3107SOL     OW10219   4.568   1.755   5.011
 3107SOL    HW110220   4.592   1.851   5.024
 3107SOL    HW210221   4.535   1.741   4.918
 3108SOL     OW10222   2.016   6.221   4.108
 3108SOL    HW110223   1.962   6.151   4.155
 3108SOL    HW210224   2.029   6.195   4.012
 3109SOL     OW10225   5.485   6.186   3.828
 3109SOL    HW110226   5.459   6.281   3.812
 3109SOL    HW210227   5.580   6.182   3.859
 3110SOL     OW10228   0.720   2.891   2.554
 3110SOL    HW110229   0.636   2.947   2.554
 3110SOL    HW210230   0.790   2.937   2.608
 3111SOL     OW10231   0.225   5.193   3.356
 3111SOL    HW110232   0.266   5.173   3.267
 3111SOL    HW210233   0.225   5.109   3.411
 3112SOL     OW10234   4.221   3.078   6.858
 3112SOL    HW110235   4.218   3.100   6.956
 3112SOL    HW210236   4.176   2.990   6.843
 3113SOL     OW10237   2.668   4.966   3.386
 3113SOL    HW110238   2.721   5.036   3.339
 3113SOL    HW210239   2.730   4.905   3.436
 3114SOL     OW10240   4.123   2.062   0.371
 3114SOL    HW110241   4.066   2.044   0.451
 3114SOL    HW210242   4.076   2.126   0.311
 3115SOL     OW10243   4.108   4.356   6.044
 3115SOL    HW110244   4.081   4.302   6.123
 3115SOL    HW210245   4.185   4.415   6.068
 3116SOL     OW10246   0.022   2.967   0.067
 3116SOL    HW110247   0.062   2.965   0.158
 3116SOL    HW210248   6.990   2.888   0.055
 3117SOL     OW10249   4.503   3.717   5.399
 3117SOL    HW110250   4.582   3.695   5.342
 3117SOL    HW210251   4.456   3.797   5.362
 3118SOL     OW10252   0.976   5.267   2.342
 3118SOL    HW110253   0.916   5.347   2.335
 3118SOL    HW210254   1.048   5.286   2.410
 3119SOL     OW10255   2.426   3.282   6.284
 3119SOL    HW110256   2.439   3.361   6.344
 3119SOL    HW210257   2.495   3.213   6.305
 3120SOL     OW10258   3.455   0.577   5.296
 3120SOL    HW110259   3.554   0.565   5.306
 3120SOL    HW210260   3.431   0.673   5.309
 3121SOL     OW10261   0.537   0.794   3.846
 3121SOL    HW110262   0.461   0.820   3.906
 3121SOL    HW210263   0.582   0.877   3.813
 3122SOL     OW10264   4.554   5.823   6.310
 3122SOL    HW110265   4.518   5.916   6.300
 3122SOL    HW210266   4.479   5.759   6.320
 3123SOL     OW10267   1.652   1.448   3.032
 3123SOL    HW110268   1.703   1.525   2.993
 3123SOL    HW210269   1.603   1.401   2.958
 3124SOL     OW10270   5.375   0.264   4.504
 3124SOL    HW110271   5.380   0.261   4.404
 3124SOL    HW210272   5.462   0.297   4.541
 3125SOL     OW10273   0.632   2.681   4.610
 3125SOL    HW110274   0.569   2.751   4.579
 3125SOL    HW210275   0.581   2.601   4.642
 3126SOL     OW10276   5.629   4.332   5.469
 3126SOL    HW110277   5.648   4.256   5.407
 3126SOL    HW210278   5.637   4.302   5.564
 3127SOL     OW10279   0.725   3.330   5.450
 3127SOL    HW110280   0.709   3.231   5.445
 3127SOL    HW210281   0.810   3.347   5.499
 3128SOL     OW10282   2.721   0.330   6.290
 3128SOL    HW110283   2.729   0.330   6.390
 3128SOL    HW210284   2.802   0.373   6.250
 3129SOL     OW10285   6.370   3.581   0.071
 3129SOL    HW110286   6.349   3.668   0.116
 3129SOL    HW210287   6.468   3.576   0.051
 3130SOL     OW10288   1.555   4.291   1.392
 3130SOL    HW110289   1.533   4.316   1.298
 3130SOL    HW210290   1.472   4.263   1.440
 3131SOL     OW10291   0.766   3.382   2.251
 3131SOL    HW110292   0.765   3.414   2.156
 3131SOL    HW210293   0.682   3.413   2.297
 3132SOL     OW10294   3.846   6.216   6.265
 3132SOL    HW110295   3.794   6.162   6.199
 3132SOL    HW210296   3.922   6.261   6.218
 3133SOL     OW10297   3.104   1.226   3.404
 3133SOL    HW110298   3.107   1.126   3.402
 3133SOL    HW210299   3.186   1.261   3.358
 3134SOL     OW10300   4.727   4.180   1.856
 3134SOL    HW110301   4.655   4.216   1.915
 3134SOL    HW210302   4.701   4.088   1.825
 3135SOL     OW10303   4.631   1.281   4.843
 3135SOL    HW110304   4.547   1.246   4.803
 3135SOL    HW210305   4.698   1.207   4.852
 3136SOL     OW10306   5.348   0.553   1.758
 3136SOL    HW110307   5.411   0.496   1.705
 3136SOL    HW210308   5.254   0.528   1.736
 3137SOL     OW10309   6.634   0.679   2.364
 3137SOL    HW110310   6.702   0.715   2.428
 3137SOL    HW210311   6.677   0.609   2.307
 3138SOL     OW10312   6.037   4.627   3.607
 3138SOL    HW110313   6.059   4.721   3.584
 3138SOL    HW210314   6.120   4.570   3.599
 3139SOL     OW10315   4.672   6.253   0.958
 3139SOL    HW110316   4.593   6.311   0.978
 3139SOL    HW210317   4.646   6.182   0.893
 3140SOL     OW10318   6.433   0.033   0.098
 3140SOL    HW110319   6.434   0.129   0.072
 3140SOL    HW210320   6.507   0.015   0.162
 3141SOL     OW10321   0.607   6.924   6.776
 3141SOL    HW110322   0.592   6.935   6.875
 3141SOL    HW210323   0.656   7.004   6.741
 3142SOL     OW10324   3.663   0.042   2.252
 3142SOL    HW110325   3.720   0.124   2.243
 3142SOL    HW210326   3.694   7.001   2.187
 3143SOL     OW10327   6.553   2.356   6.913
 3143SOL    HW110328   6.542   2.320   7.005
 3143SOL    HW210329   6.464   2.356   6.867
 3144SOL     OW10330   3.759   3.971   1.638
 3144SOL    HW110331   3.854   3.956   1.611
 3144SOL    HW210332   3.754   3.986   1.737
 3145SOL     OW10333   2.046   6.013   1.252
 3145SOL    HW110334   1.979   6.083   1.227
 3145SOL    HW210335   2.073   6.025   1.347
 3146SOL     OW10336   1.528   0.628   3.843
 3146SOL    HW110337   1.504   0.532   3.859
 3146SOL    HW210338   1.445   0.684   3.849
 3147SOL     OW10339   3.663   5.708   1.361
 3147SOL    HW110340   3.675   5.801   1.325
 3147SOL    HW210341   3.565   5.691   1.375
 3148SOL     OW10342   6.198   6.140   4.120
 3148SOL    HW110343   6.211   6.146   4.219
 3148SOL    HW210344   6.100   6.136   4.099
 3149SOL     OW10345   2.692   1.216   5.275
 3149SOL    HW110346   2.778   1.165   5.279
 3149SOL    HW210347   2.712   1.313   5.261
 3150SOL     OW10348   6.042   5.026   3.974
 3150SOL    HW110349   5.999   5.101   3.923
 3150SOL    HW210350   6.116   5.062   4.031
 3151SOL     OW10351   6.848   1.356   5.323
 3151SOL    HW110352   6.824   1.293   5.397
 3151SOL    HW210353   6.812   1.447   5.344
 3152SOL     OW10354   1.211   5.582   0.843
 3152SOL    HW110355   1.161   5.495   0.841
 3152SOL    HW210356   1.186   5.637   0.763
 3153SOL     OW10357   6.065   4.876   0.840
 3153SOL    HW110358   5.999   4.813   0.882
 3153SOL    HW210359   6.017   4.942   0.784
 3154SOL     OW10360   6.501   1.721   6.440
 3154SOL    HW110361   6.515   1.624   6.417
 3154SOL    HW210362   6.545   1.741   6.527
 3155SOL     OW10363   6.644   4.491   0.579
 3155SOL    HW110364   6.678   4.413   0.526
 3155SOL    HW210365   6.602   4.459   0.664
 3156SOL     OW10366   3.486   3.154   3.209
 3156SOL    HW110367   3.557   3.114   3.266
 3156SOL    HW210368   3.399   3.154   3.258
 3157SOL     OW10369   2.783   2.050   5.213
 3157SOL    HW110370   2.832   2.090   5.136
 3157SOL    HW210371   2.846   2.041   5.291
 3158SOL     OW10372   3.760   1.348   3.564
 3158SOL    HW110373   3.848   1.382   3.530
 3158SOL    HW210374   3.691   1.419   3.556
 3159SOL     OW10375   6.382   2.046   0.097
 3159SOL    HW110376   6.331   2.007   0.174
 3159SOL    HW210377   6.460   2.098   0.132
 3160SOL     OW10378   0.155   6.108   5.228
 3160SOL    HW110379   0.171   6.197   5.272
 3160SOL    HW210380   0.060   6.081   5.243
 3161SOL     OW10381   2.155   2.494   3.326
 3161SOL    HW110382   2.125   2.473   3.233
 3161SOL    HW210383   2.192   2.588   3.328
 3162SOL     OW10384   1.140   6.651   1.991
 3162SOL    HW110385   1.208   6.578   1.979
 3162SOL    HW210386   1.059   6.613   2.035
 3163SOL     OW10387   5.005   2.935   6.199
 3163SOL    HW110388   4.961   2.905   6.114
 3163SOL    HW210389   5.063   3.015   6.181
 3164SOL     OW10390   4.162   4.970   1.138
 3164SOL    HW110391   4.156   4.953   1.040
 3164SOL    HW210392   4.231   5.040   1.156
 3165SOL     OW10393   0.313   6.499   1.131
 3165SOL    HW110394   0.383   6.557   1.089
 3165SOL    HW210395   0.330   6.404   1.106
 3166SOL     OW10396   4.285   1.691   4.233
 3166SOL    HW110397   4.361   1.737   4.187
 3166SOL    HW210398   4.201   1.742   4.217
 3167SOL     OW10399   6.504   4.643   0.992
 3167SOL    HW110400   6.602   4.622   1.001
 3167SOL    HW210401   6.480   4.719   1.053
 3168SOL     OW10402   4.351   2.854   6.427
 3168SOL    HW110403   4.397   2.921   6.369
 3168SOL    HW210404   4.353   2.885   6.522
 3169SOL     OW10405   2.037   3.642   4.013
 3169SOL    HW110406   2.082   3.589   3.941
 3169SOL    HW210407   1.994   3.579   4.078
 3170SOL     OW10408   4.454   6.692   1.432
 3170SOL    HW110409   4.388   6.623   1.404
 3170SOL    HW210410   4.539   6.681   1.380
 3171SOL     OW10411   0.396   0.612   1.792
 3171SOL    HW110412   0.350   0.691   1.831
 3171SOL    HW210413   0.345   0.529   1.815
 3172SOL     OW10414   6.505   5.581   0.461
 3172SOL    HW110415   6.492   5.589   0.362
 3172SOL    HW210416   6.597   5.613   0.484
 3173SOL     OW10417   2.547   1.869   0.572
 3173SOL    HW110418   2.471   1.804   0.568
 3173SOL    HW210419   2.604   1.859   0.491
 3174SOL     OW10420   2.715   2.359   0.465
 3174SOL    HW110421   2.639   2.424   0.467
 3174SOL    HW210422   2.683   2.270   0.434
 3175SOL     OW10423   6.651   0.787   1.256
 3175SOL    HW110424   6.618   0.870   1.212
 3175SOL    HW210425   6.579   0.717   1.252
 3176SOL     OW10426   1.744   3.750   5.273
 3176SOL    HW110427   1.701   3.660   5.265
 3176SOL    HW210428   1.843   3.741   5.259
 3177SOL     OW10429   4.866   3.804   4.268
 3177SOL    HW110430   4.860   3.740   4.345
 3177SOL    HW210431   4.800   3.878   4.281
 3178SOL     OW10432   6.359   2.184   1.050
 3178SOL    HW110433   6.310   2.113   1.000
 3178SOL    HW210434   6.309   2.271   1.041
 3179SOL     OW10435   0.991   2.975   2.371
 3179SOL    HW110436   0.963   2.879   2.375
 3179SOL    HW210437   0.944   3.022   2.296
 3180SOL     OW10438   4.459   1.209   0.150
 3180SOL    HW110439   4.414   1.147   0.085
 3180SOL    HW210440   4.549   1.173   0.174
 3181SOL     OW10441   6.953   1.405   3.066
 3181SOL    HW110442   0.000   1.420   3.002
 3181SOL    HW210443   6.890   1.483   3.061
 3182SOL     OW10444   3.269   0.248   5.841
 3182SOL    HW110445   3.362   0.215   5.859
 3182SOL    HW210446   3.265   0.346   5.856
 3183SOL     OW10447   4.136   4.026   1.720
 3183SOL    HW110448   4.121   3.963   1.796
 3183SOL    HW210449   4.232   4.054   1.717
 3184SOL     OW10450   0.600   3.110   2.730
 3184SOL    HW110451   0.656   3.083   2.809
 3184SOL    HW210452   0.503   3.110   2.757
 3185SOL     OW10453   5.856   5.941   6.978
 3185SOL    HW110454   5.851   5.976   0.043
 3185SOL    HW210455   5.934   5.878   6.970
 3186SOL     OW10456   3.752   1.410   2.001
 3186SOL    HW110457   3.698   1.455   2.073
 3186SOL    HW210458   3.691   1.379   1.928
 3187SOL     OW10459   4.744   4.372   6.862
 3187SOL    HW110460   4.798   4.354   6.780
 3187SOL    HW210461   4.762   4.465   6.894
 3188SOL     OW10462   2.226   0.520   4.409
 3188SOL    HW110463   2.272   0.448   4.462
 3188SOL    HW210464   2.146   0.552   4.460
 3189SOL     OW10465   1.354   1.285   1.548
 3189SOL    HW110466   1.339   1.198   1.500
 3189SOL    HW210467   1.400   1.349   1.486
 3190SOL     OW10468   6.960   6.511   0.561
 3190SOL    HW110469   6.973   6.569   0.481
 3190SOL    HW210470   0.018   6.500   0.609
 3191SOL     OW10471   5.587   6.472   0.837
 3191SOL    HW110472   5.613   6.548   0.778
 3191SOL    HW210473   5.504   6.429   0.801
 3192SOL     OW10474   0.083   2.325   1.768
 3192SOL    HW110475   0.052   2.244   1.718
 3192SOL    HW210476   0.016   2.399   1.756
 3193SOL     OW10477   3.338   1.534   6.734
 3193SOL    HW110478   3.265   1.474   6.701
 3193SOL    HW210479   3.397   1.483   6.797
 3194SOL     OW10480   1.657   2.408   6.362
 3194SOL    HW110481   1.563   2.374   6.372
 3194SOL    HW210482   1.683   2.457   6.446
 3195SOL     OW10483   2.775   2.392   3.546
 3195SOL    HW110484   2.756   2.391   3.448
 3195SOL    HW210485   2.874   2.384   3.561
 3196SOL     OW10486   0.417   1.417   6.332
 3196SOL    HW110487   0.494   1.362   6.297
 3196SOL    HW210488   0.451   1.482   6.400
 3197SOL     OW10489   2.654   6.598   3.368
 3197SOL    HW110490   2.659   6.499   3.362
 3197SOL    HW210491   2.729   6.632   3.425
 3198SOL     OW10492   5.620   2.650   5.105
 3198SOL    HW110493   5.631   2.572   5.043
 3198SOL    HW210494   5.708   2.697   5.114
 3199SOL     OW10495   4.802   3.008   2.566
 3199SOL    HW110496   4.757   3.093   2.594
 3199SOL    HW210497   4.794   2.997   2.467
 3200SOL     OW10498   6.103   2.912   1.877
 3200SOL    HW110499   6.112   2.949   1.969
 3200SOL    HW210500   6.069   2.982   1.815
 3201SOL     OW10501   5.524   4.821   4.505
 3201SOL    HW110502   5.576   4.760   4.565
 3201SOL    HW210503   5.587   4.882   4.456
 3202SOL     OW10504   6.811   4.793   1.586
 3202SOL    HW110505   6.874   4.716   1.593
 3202SOL    HW210506   6.718   4.763   1.609
 3203SOL     OW10507   6.186   2.592   0.047
 3203SOL    HW110508   6.264   2.633   0.094
 3203SOL    HW210509   6.210   2.573   6.981
 3204SOL     OW10510   5.045   6.638   1.955
 3204SOL    HW110511   5.131   6.688   1.950
 3204SOL    HW210512   4.969   6.702   1.962
 3205SOL     OW10513   6.587   3.510   6.298
 3205SOL    HW110514   6.550   3.602   6.305
 3205SOL    HW210515   6.534   3.449   6.358
 3206SOL     OW10516   0.938   6.529   5.906
 3206SOL    HW110517   0.959   6.441   5.865
 3206SOL    HW210518   0.998   6.544   5.985
 3207SOL     OW10519   0.640   0.656   5.769
 3207SOL    HW110520   0.710   0.715   5.729
 3207SOL    HW210521   0.665   0.634   5.863
 3208SOL     OW10522   5.279   6.565   5.430
 3208SOL    HW110523   5.328   6.540   5.514
 3208SOL    HW210524   5.201   6.623   5.454
 3209SOL     OW10525   3.996   5.959   2.754
 3209SOL    HW110526   4.047   6.039   2.722
 3209SOL    HW210527   4.022   5.938   2.848
 3210SOL     OW10528   1.072   4.264   1.209
 3210SOL    HW110529   0.992   4.204   1.209
 3210SOL    HW210530   1.153   4.212   1.237
 3211SOL     OW10531   1.429   4.050   1.073
 3211SOL    HW110532   1.359   4.096   1.127
 3211SOL    HW210533   1.516   4.052   1.123
 3212SOL     OW10534   3.015   0.714   0.938
 3212SOL    HW110535   3.038   0.635   0.881
 3212SOL    HW210536   3.097   0.744   0.987
 3213SOL     OW10537   0.595   5.736   2.162
 3213SOL    HW110538   0.632   5.665   2.103
 3213SOL    HW210539   0.529   5.696   2.225
 3214SOL     OW10540   4.885   5.605   0.479
 3214SOL    HW110541   4.893   5.509   0.451
 3214SOL    HW210542   4.803   5.617   0.535
 3215SOL     OW10543   6.668   3.392   0.922
 3215SOL    HW110544   6.649   3.360   1.015
 3215SOL    HW210545   6.601   3.351   0.859
 3216SOL     OW10546   5.986   5.179   1.000
 3216SOL    HW110547   6.023   5.272   1.002
 3216SOL    HW210548   6.061   5.114   1.004
 3217SOL     OW10549   0.289   5.642   2.480
 3217SOL    HW110550   0.197   5.681   2.471
 3217SOL    HW210551   0.295   5.590   2.565
 3218SOL     OW10552   4.268   0.946   3.347
 3218SOL    HW110553   4.243   1.005   3.424
 3218SOL    HW210554   4.257   0.850   3.374
 3219SOL     OW10555   0.050   1.448   3.469
 3219SOL    HW110556   0.002   1.415   3.388
 3219SOL    HW210557   0.099   1.532   3.447
 3220SOL     OW10558   6.027   6.374   5.839
 3220SOL    HW110559   6.085   6.302   5.800
 3220SOL    HW210560   6.036   6.456   5.783
 3221SOL     OW10561   3.557   0.587   1.433
 3221SOL    HW110562   3.542   0.490   1.450
 3221SOL    HW210563   3.656   0.605   1.427
 3222SOL     OW10564   4.071   1.911   2.665
 3222SOL    HW110565   4.005   1.961   2.610
 3222SOL    HW210566   4.139   1.975   2.703
 3223SOL     OW10567   1.743   5.224   6.347
 3223SOL    HW110568   1.686   5.149   6.312
 3223SOL    HW210569   1.831   5.224   6.300
 3224SOL     OW10570   4.519   3.787   6.916
 3224SOL    HW110571   4.499   3.689   6.909
 3224SOL    HW210572   4.610   3.806   6.881
 3225SOL     OW10573   4.768   3.665   6.434
 3225SOL    HW110574   4.859   3.708   6.433
 3225SOL    HW210575   4.718   3.691   6.351
 3226SOL     OW10576   2.025   1.554   4.298
 3226SOL    HW110577   1.928   1.531   4.312
 3226SOL    HW210578   2.038   1.584   4.203
 3227SOL     OW10579   4.065   2.452   0.105
 3227SOL    HW110580   4.056   2.352   0.104
 3227SOL    HW210581   4.012   2.489   0.181
 3228SOL     OW10582   6.422   4.299   2.678
 3228SOL    HW110583   6.373   4.313   2.764
 3228SOL    HW210584   6.356   4.283   2.605
 3229SOL     OW10585   3.703   0.559   5.333
 3229SOL    HW110586   3.736   0.475   5.377
 3229SOL    HW210587   3.744   0.638   5.377
 3230SOL     OW10588   1.788   3.280   4.369
 3230SOL    HW110589   1.833   3.315   4.287
 3230SOL    HW210590   1.700   3.240   4.344
 3231SOL     OW10591   2.437   0.911   1.759
 3231SOL    HW110592   2.498   0.948   1.829
 3231SOL    HW210593   2.491   0.889   1.677
 3232SOL     OW10594   4.660   5.397   5.403
 3232SOL    HW110595   4.621   5.478   5.447
 3232SOL    HW210596   4.677   5.416   5.306
 3233SOL     OW10597   0.958   3.010   1.919
 3233SOL    HW110598   0.901   2.929   1.934
 3233SOL    HW210599   1.051   2.991   1.950
 3234SOL     OW10600   0.085   1.893   6.731
 3234SOL    HW110601   0.112   1.987   6.751
 3234SOL    HW210602   0.059   1.885   6.635
 3235SOL     OW10603   5.413   0.912   1.378
 3235SOL    HW110604   5.434   1.008   1.358
 3235SOL    HW210605   5.314   0.902   1.392
 3236SOL     OW10606   0.917   3.606   1.146
 3236SOL    HW110607   0.985   3.541   1.181
 3236SOL    HW210608   0.828   3.560   1.141
 3237SOL     OW10609   4.778   1.398   4.135
 3237SOL    HW110610   4.854   1.436   4.188
 3237SOL    HW210611   4.742   1.317   4.182
 3238SOL     OW10612   0.074   5.007   0.896
 3238SOL    HW110613   7.015   4.963   0.876
 3238SOL    HW210614   0.081   5.092   0.842
 3239SOL     OW10615   6.188   1.493   1.848
 3239SOL    HW110616   6.248   1.569   1.873
 3239SOL    HW210617   6.109   1.491   1.909
 3240SOL     OW10618   0.957   0.083   6.033
 3240SOL    HW110619   1.039   0.033   6.005
 3240SOL    HW210620   0.889   0.081   5.959
 3241SOL     OW10621   4.452   1.835   5.475
 3241SOL    HW110622   4.368   1.862   5.428
 3241SOL    HW210623   4.516   1.796   5.409
 3242SOL     OW10624   3.495   4.587   0.063
 3242SOL    HW110625   3.489   4.498   0.108
 3242SOL    HW210626   3.572   4.588   7.028
 3243SOL     OW10627   4.983   4.676   0.116
 3243SOL    HW110628   5.065   4.638   0.158
 3243SOL    HW210629   5.008   4.724   0.032
 3244SOL     OW10630   5.301   5.930   0.219
 3244SOL    HW110631   5.252   5.991   0.281
 3244SOL    HW210632   5.284   5.957   0.124
 3245SOL     OW10633   4.890   3.181   4.957
 3245SOL    HW110634   4.855   3.090   4.937
 3245SOL    HW210635   4.824   3.230   5.015
 3246SOL     OW10636   5.561   0.535   2.371
 3246SOL    HW110637   5.471   0.568   2.398
 3246SOL    HW210638   5.632   0.575   2.429
 3247SOL     OW10639   5.623   4.556   2.677
 3247SOL    HW110640   5.572   4.530   2.595
 3247SOL    HW210641   5.617   4.483   2.745
 3248SOL     OW10642   6.573   3.554   0.637
 3248SOL    HW110643   6.671   3.546   0.615
 3248SOL    HW210644   6.542   3.471   0.682
 3249SOL     OW10645   3.879   3.004   4.206
 3249SOL    HW110646   3.952   3.070   4.185
 3249SOL    HW210647   3.855   3.010   4.303
 3250SOL     OW10648   6.286   6.387   2.232
 3250SOL    HW110649   6.209   6.380   2.295
 3250SOL    HW210650   6.351   6.313   2.250
 3251SOL     OW10651   3.125   0.942   2.572
 3251SOL    HW110652   3.082   1.028   2.598
 3251SOL    HW210653   3.071   0.866   2.608
 3252SOL     OW10654   2.459   2.128   2.724
 3252SOL    HW110655   2.475   2.171   2.813
 3252SOL    HW210656   2.375   2.165   2.684
 3253SOL     OW10657   5.402   3.156   1.943
 3253SOL    HW110658   5.323   3.132   1.886
 3253SOL    HW210659   5.406   3.094   2.021
 3254SOL     OW10660   4.999   5.430   5.193
 3254SOL    HW110661   4.975   5.335   5.212
 3254SOL    HW210662   4.954   5.459   5.109
 3255SOL     OW10663   5.354   5.548   0.437
 3255SOL    HW110664   5.323   5.601   0.516
 3255SOL    HW210665   5.275   5.508   0.391
 3256SOL     OW10666   3.922   0.610   0.055
 3256SOL    HW110667   3.993   0.672   0.089
 3256SOL    HW210668   3.892   0.550   0.129
 3257SOL     OW10669   1.752   1.621   1.264
 3257SOL    HW110670   1.693   1.633   1.344
 3257SOL    HW210671   1.814   1.699   1.257
 3258SOL     OW10672   4.212   4.771   1.789
 3258SOL    HW110673   4.307   4.744   1.800
 3258SOL    HW210674   4.162   4.698   1.742
 3259SOL     OW10675   4.553   5.478   3.779
 3259SOL    HW110676   4.532   5.434   3.692
 3259SOL    HW210677   4.632   5.432   3.820
 3260SOL     OW10678   1.702   1.895   0.920
 3260SOL    HW110679   1.617   1.860   0.881
 3260SOL    HW210680   1.683   1.937   1.009
 3261SOL     OW10681   4.950   6.914   0.531
 3261SOL    HW110682   5.024   6.847   0.543
 3261SOL    HW210683   4.862   6.870   0.548
 3262SOL     OW10684   3.236   2.079   2.276
 3262SOL    HW110685   3.160   2.139   2.250
 3262SOL    HW210686   3.247   2.080   2.375
 3263SOL     OW10687   2.689   1.131   3.393
 3263SOL    HW110688   2.593   1.118   3.369
 3263SOL    HW210689   2.699   1.212   3.451
 3264SOL     OW10690   1.385   4.657   0.779
 3264SOL    HW110691   1.443   4.694   0.707
 3264SOL    HW210692   1.384   4.557   0.774
 3265SOL     OW10693   4.583   1.157   6.365
 3265SOL    HW110694   4.653   1.098   6.406
 3265SOL    HW210695   4.501   1.104   6.347
 3266SOL     OW10696   0.561   3.506   0.493
 3266SOL    HW110697   0.633   3.549   0.547
 3266SOL    HW210698   0.498   3.457   0.553
 3267SOL     OW10699   3.362   1.050   0.657
 3267SOL    HW110700   3.271   1.089   0.674
 3267SOL    HW210701   3.357   0.950   0.660
 3268SOL     OW10702   1.102   4.313   0.522
 3268SOL    HW110703   1.174   4.245   0.536
 3268SOL    HW210704   1.125   4.371   0.444
 3269SOL     OW10705   4.298   4.991   2.471
 3269SOL    HW110706   4.262   5.031   2.556
 3269SOL    HW210707   4.250   4.906   2.452
 3270SOL     OW10708   0.684   4.164   5.011
 3270SOL    HW110709   0.655   4.073   4.981
 3270SOL    HW210710   0.779   4.161   5.040
 3271SOL     OW10711   5.774   3.456   2.509
 3271SOL    HW110712   5.689   3.436   2.461
 3271SOL    HW210713   5.828   3.521   2.455
 3272SOL     OW10714   3.305   3.995   6.365
 3272SOL    HW110715   3.339   4.078   6.320
 3272SOL    HW210716   3.210   3.980   6.338
 3273SOL     OW10717   0.700   6.258   1.330
 3273SOL    HW110718   0.716   6.320   1.406
 3273SOL    HW210719   0.648   6.178   1.362
 3274SOL     OW10720   4.760   1.422   1.306
 3274SOL    HW110721   4.793   1.412   1.213
 3274SOL    HW210722   4.671   1.376   1.316
 3275SOL     OW10723   6.964   1.139   6.321
 3275SOL    HW110724   6.946   1.088   6.405
 3275SOL    HW210725   6.972   1.076   6.244
 3276SOL     OW10726   2.579   5.705   0.273
 3276SOL    HW110727   2.637   5.651   0.212
 3276SOL    HW210728   2.635   5.772   0.322
 3277SOL     OW10729   4.783   6.714   0.548
 3277SOL    HW110730   4.703   6.680   0.597
 3277SOL    HW210731   4.755   6.751   0.460
 3278SOL     OW10732   0.389   1.057   6.295
 3278SOL    HW110733   0.361   1.098   6.381
 3278SOL    HW210734   0.308   1.028   6.244
 3279SOL     OW10735   6.070   1.286   0.168
 3279SOL    HW110736   6.035   1.374   0.134
 3279SOL    HW210737   5.997   1.236   0.213
 3280SOL     OW10738   3.595   5.366   4.834
 3280SOL    HW110739   3.535   5.312   4.774
 3280SOL    HW210740   3.542   5.439   4.877
 3281SOL     OW10741   2.198   5.616   1.554
 3281SOL    HW110742   2.217   5.609   1.456
 3281SOL    HW210743   2.284   5.623   1.604
 3282SOL     OW10744   0.714   4.883   5.446
 3282SOL    HW110745   0.641   4.901   5.512
 3282SOL    HW210746   0.797   4.859   5.494
 3283SOL     OW10747   4.409   1.073   0.769
 3283SOL    HW110748   4.381   0.978   0.755
 3283SOL    HW210749   4.333   1.134   0.747
 3284SOL     OW10750   6.399   5.394   6.733
 3284SOL    HW110751   6.328   5.339   6.777
 3284SOL    HW210752   6.489   5.362   6.761
 3285SOL     OW10753   4.811   2.706   3.954
 3285SOL    HW110754   4.820   2.707   3.854
 3285SOL    HW210755   4.880   2.767   3.994
 3286SOL     OW10756   3.724   3.197   2.139
 3286SOL    HW110757   3.671   3.139   2.201
 3286SOL    HW210758   3.753   3.144   2.060
 3287SOL     OW10759   1.320   6.709   6.951
 3287SOL    HW110760   1.228   6.748   6.960
 3287SOL    HW210761   1.325   6.657   6.866
 3288SOL     OW10762   0.604   5.546   6.291
 3288SOL    HW110763   0.691   5.511   6.257
 3288SOL    HW210764   0.590   5.639   6.258
 3289SOL     OW10765   2.594   6.332   5.553
 3289SOL    HW110766   2.596   6.411   5.614
 3289SOL    HW210767   2.604   6.248   5.606
 3290SOL     OW10768   0.452   6.899   1.896
 3290SOL    HW110769   0.450   6.995   1.867
 3290SOL    HW210770   0.546   6.864   1.886
 3291SOL     OW10771   1.476   6.049   1.062
 3291SOL    HW110772   1.383   6.042   1.098
 3291SOL    HW210773   1.541   6.023   1.133
 3292SOL     OW10774   0.589   0.398   1.314
 3292SOL    HW110775   0.584   0.455   1.396
 3292SOL    HW210776   0.684   0.383   1.289
 3293SOL     OW10777   0.724   3.707   3.325
 3293SOL    HW110778   0.675   3.721   3.239
 3293SOL    HW210779   0.744   3.795   3.367
 3294SOL     OW10780   6.628   1.662   5.803
 3294SOL    HW110781   6.532   1.677   5.825
 3294SOL    HW210782   6.669   1.747   5.772
 3295SOL     OW10783   1.262   3.334   1.813
 3295SOL    HW110784   1.296   3.254   1.764
 3295SOL    HW210785   1.323   3.356   1.889
 3296SOL     OW10786   1.860   6.347   2.060
 3296SOL    HW110787   1.890   6.284   1.989
 3296SOL    HW210788   1.804   6.298   2.127
 3297SOL     OW10789   3.266   0.538   4.794
 3297SOL    HW110790   3.176   0.523   4.834
 3297SOL    HW210791   3.257   0.593   4.711
 3298SOL     OW10792   5.923   1.963   4.350
 3298SOL    HW110793   5.922   1.930   4.256
 3298SOL    HW210794   6.013   1.999   4.373
 3299SOL     OW10795   3.028   5.875   3.843
 3299SOL    HW110796   2.937   5.834   3.835
 3299SOL    HW210797   3.076   5.867   3.756
 3300SOL     OW10798   0.141   1.022   5.400
 3300SOL    HW110799   0.194   0.939   5.382
 3300SOL    HW210800   0.044   1.002   5.393
 3301SOL     OW10801   2.120   3.080   3.403
 3301SOL    HW110802   2.062   3.012   3.358
 3301SOL    HW210803   2.122   3.164   3.349
 3302SOL     OW10804   0.459   5.265   5.736
 3302SOL    HW110805   0.550   5.281   5.698
 3302SOL    HW210806   0.390   5.306   5.677
 3303SOL     OW10807   3.382   3.147   2.038
 3303SOL    HW110808   3.395   3.106   1.948
 3303SOL    HW210809   3.455   3.116   2.099
 3304SOL     OW10810   1.434   5.402   4.402
 3304SOL    HW110811   1.431   5.454   4.317
 3304SOL    HW210812   1.383   5.450   4.473
 3305SOL     OW10813   1.901   1.543   3.253
 3305SOL    HW110814   1.848   1.617   3.209
 3305SOL    HW210815   1.850   1.507   3.331
 3306SOL     OW10816   2.027   5.777   4.757
 3306SOL    HW110817   1.954   5.717   4.791
 3306SOL    HW210818   2.021   5.866   4.803
 3307SOL     OW10819   6.847   5.863   0.118
 3307SOL    HW110820   6.865   5.875   0.021
 3307SOL    HW210821   6.752   5.890   0.137
 3308SOL     OW10822   3.976   6.152   0.247
 3308SOL    HW110823   4.031   6.068   0.241
 3308SOL    HW210824   3.879   6.130   0.231
 3309SOL     OW10825   6.963   5.490   2.547
 3309SOL    HW110826   6.909   5.441   2.615
 3309SOL    HW210827   0.030   5.462   2.553
 3310SOL     OW10828   0.474   4.141   5.227
 3310SOL    HW110829   0.503   4.191   5.145
 3310SOL    HW210830   0.380   4.110   5.216
 3311SOL     OW10831   2.387   3.565   1.410
 3311SOL    HW110832   2.339   3.638   1.362
 3311SOL    HW210833   2.414   3.494   1.345
 3312SOL     OW10834   4.488   4.284   5.882
 3312SOL    HW110835   4.392   4.255   5.886
 3312SOL    HW210836   4.492   4.383   5.873
 3313SOL     OW10837   0.535   5.035   3.341
 3313SOL    HW110838   0.491   5.076   3.421
 3313SOL    HW210839   0.524   4.935   3.345
 3314SOL     OW10840   2.307   1.795   3.645
 3314SOL    HW110841   2.396   1.834   3.621
 3314SOL    HW210842   2.300   1.789   3.745
 3315SOL     OW10843   6.259   3.071   4.783
 3315SOL    HW110844   6.232   3.117   4.698
 3315SOL    HW210845   6.182   3.018   4.818
 3316SOL     OW10846   4.493   2.117   6.133
 3316SOL    HW110847   4.552   2.055   6.186
 3316SOL    HW210848   4.473   2.076   6.044
 3317SOL     OW10849   4.756   3.197   1.698
 3317SOL    HW110850   4.832   3.255   1.730
 3317SOL    HW210851   4.733   3.131   1.769
 3318SOL     OW10852   3.349   0.364   0.304
 3318SOL    HW110853   3.344   0.437   0.236
 3318SOL    HW210854   3.324   0.277   0.262
 3319SOL     OW10855   6.182   0.580   4.029
 3319SOL    HW110856   6.236   0.657   4.065
 3319SOL    HW210857   6.227   0.544   3.948
 3320SOL     OW10858   5.477   0.748   5.458
 3320SOL    HW110859   5.444   0.827   5.405
 3320SOL    HW210860   5.472   0.666   5.401
 3321SOL     OW10861   3.968   2.106   0.817
 3321SOL    HW110862   4.037   2.173   0.787
 3321SOL    HW210863   3.898   2.152   0.871
 3322SOL     OW10864   5.544   3.712   1.091
 3322SOL    HW110865   5.611   3.784   1.071
 3322SOL    HW210866   5.574   3.627   1.048
 3323SOL     OW10867   3.064   3.157   6.836
 3323SOL    HW110868   3.019   3.096   6.901
 3323SOL    HW210869   3.021   3.148   6.747
 3324SOL     OW10870   1.622   3.914   6.253
 3324SOL    HW110871   1.617   4.014   6.261
 3324SOL    HW210872   1.540   3.880   6.206
 3325SOL     OW10873   2.161   3.273   6.497
 3325SOL    HW110874   2.172   3.267   6.398
 3325SOL    HW210875   2.249   3.258   6.541
 3326SOL     OW10876   5.288   1.855   2.617
 3326SOL    HW110877   5.297   1.880   2.520
 3326SOL    HW210878   5.195   1.822   2.634
 3327SOL     OW10879   3.040   5.522   1.913
 3327SOL    HW110880   3.028   5.562   1.822
 3327SOL    HW210881   3.079   5.430   1.904
 3328SOL     OW10882   4.326   1.795   1.284
 3328SOL    HW110883   4.242   1.742   1.273
 3328SOL    HW210884   4.313   1.862   1.357
 3329SOL     OW10885   5.211   0.213   5.130
 3329SOL    HW110886   5.260   0.191   5.046
 3329SOL    HW210887   5.166   0.302   5.121
 3330SOL     OW10888   6.214   5.645   1.556
 3330SOL    HW110889   6.310   5.653   1.580
 3330SOL    HW210890   6.190   5.715   1.489
 3331SOL     OW10891   1.284   3.817   1.338
 3331SOL    HW110892   1.295   3.837   1.436
 3331SOL    HW210893   1.327   3.729   1.317
 3332SOL     OW10894   6.878   4.457   0.264
 3332SOL    HW110895   6.789   4.429   0.230
 3332SOL    HW210896   6.866   4.526   0.336
 3333SOL     OW10897   2.928   4.300   6.506
 3333SOL    HW110898   2.966   4.361   6.575
 3333SOL    HW210899   2.952   4.206   6.527
 3334SOL     OW10900   2.502   4.021   1.433
 3334SOL    HW110901   2.434   4.069   1.489
 3334SOL    HW210902   2.455   3.967   1.363
 3335SOL     OW10903   4.836   0.147   5.948
 3335SOL    HW110904   4.906   0.215   5.970
 3335SOL    HW210905   4.785   0.177   5.868
 3336SOL     OW10906   2.195   6.405   4.509
 3336SOL    HW110907   2.135   6.334   4.547
 3336SOL    HW210908   2.248   6.366   4.434
 3337SOL     OW10909   2.824   3.960   1.390
 3337SOL    HW110910   2.829   4.060   1.382
 3337SOL    HW210911   2.763   3.936   1.466
 3338SOL     OW10912   6.062   2.661   2.169
 3338SOL    HW110913   6.120   2.728   2.122
 3338SOL    HW210914   5.975   2.653   2.120
 3339SOL     OW10915   1.029   6.833   6.282
 3339SOL    HW110916   0.965   6.864   6.352
 3339SOL    HW210917   1.122   6.862   6.307
 3340SOL     OW10918   3.439   2.089   3.321
 3340SOL    HW110919   3.535   2.116   3.326
 3340SOL    HW210920   3.426   2.000   3.366
 3341SOL     OW10921   0.880   4.141   4.239
 3341SOL    HW110922   0.907   4.051   4.204
 3341SOL    HW210923   0.913   4.151   4.333
 3342SOL     OW10924   1.230   6.428   3.992
 3342SOL    HW110925   1.151   6.366   3.988
 3342SOL    HW210926   1.295   6.404   3.920
 3343SOL     OW10927   5.319   3.805   7.016
 3343SOL    HW110928   5.390   3.859   6.972
 3343SOL    HW210929   5.252   3.776   6.947
 3344SOL     OW10930   5.521   3.472   3.630
 3344SOL    HW110931   5.610   3.440   3.596
 3344SOL    HW210932   5.519   3.572   3.628
 3345SOL     OW10933   1.325   3.291   6.336
 3345SOL    HW110934   1.378   3.310   6.254
 3345SOL    HW210935   1.229   3.315   6.321
 3346SOL     OW10936   0.691   0.701   6.929
 3346SOL    HW110937   0.734   0.666   7.012
 3346SOL    HW210938   0.761   0.715   6.859
 3347SOL     OW10939   1.174   2.751   5.228
 3347SOL    HW110940   1.166   2.664   5.277
 3347SOL    HW210941   1.260   2.753   5.178
 3348SOL     OW10942   4.123   3.519   4.322
 3348SOL    HW110943   4.160   3.511   4.230
 3348SOL    HW210944   4.106   3.428   4.360
 3349SOL     OW10945   2.135   5.217   3.196
 3349SOL    HW110946   2.095   5.250   3.281
 3349SOL    HW210947   2.161   5.294   3.139
 3350SOL     OW10948   0.001   2.212   5.980
 3350SOL    HW110949   0.047   2.301   5.983
 3350SOL    HW210950   6.934   2.222   6.008
 3351SOL     OW10951   5.081   0.958   2.948
 3351SOL    HW110952   4.994   0.971   2.900
 3351SOL    HW210953   5.143   0.904   2.892
 3352SOL     OW10954   6.431   3.295   0.787
 3352SOL    HW110955   6.354   3.323   0.845
 3352SOL    HW210956   6.470   3.210   0.823
 3353SOL     OW10957   3.288   5.653   1.627
 3353SOL    HW110958   3.312   5.706   1.709
 3353SOL    HW210959   3.189   5.643   1.621
 3354SOL     OW10960   4.543   2.528   5.777
 3354SOL    HW110961   4.637   2.494   5.780
 3354SOL    HW210962   4.544   2.626   5.755
 3355SOL     OW10963   1.774   2.017   6.269
 3355SOL    HW110964   1.729   1.928   6.282
 3355SOL    HW210965   1.710   2.081   6.226
 3356SOL     OW10966   0.783   5.334   5.944
 3356SOL    HW110967   0.718   5.342   5.868
 3356SOL    HW210968   0.874   5.314   5.908
 3357SOL     OW10969   2.134   3.752   1.940
 3357SOL    HW110970   2.201   3.792   1.878
 3357SOL    HW210971   2.152   3.654   1.951
 3358SOL     OW10972   4.395   1.630   1.521
 3358SOL    HW110973   4.469   1.594   1.578
 3358SOL    HW210974   4.433   1.691   1.452
 3359SOL     OW10975   0.925   6.441   2.999
 3359SOL    HW110976   0.976   6.511   3.048
 3359SOL    HW210977   0.990   6.377   2.956
 3360SOL     OW10978   1.656   1.178   0.020
 3360SOL    HW110979   1.729   1.135   6.996
 3360SOL    HW210980   1.696   1.248   0.080
 3361SOL     OW10981   0.043   5.340   4.326
 3361SOL    HW110982   0.017   5.249   4.294
 3361SOL    HW210983   6.990   5.390   4.354
 3362SOL     OW10984   3.416   1.411   2.618
 3362SOL    HW110985   3.372   1.322   2.603
 3362SOL    HW210986   3.456   1.413   2.709
 3363SOL     OW10987   7.005   1.345   2.228
 3363SOL    HW110988   0.015   1.426   2.183
 3363SOL    HW210989   0.026   1.264   2.198
 3364SOL     OW10990   1.917   4.625   3.502
 3364SOL    HW110991   2.002   4.660   3.463
 3364SOL    HW210992   1.842   4.643   3.439
 3365SOL     OW10993   0.543   2.241   4.532
 3365SOL    HW110994   0.458   2.196   4.559
 3365SOL    HW210995   0.523   2.324   4.481
 3366SOL     OW10996   5.796   5.359   4.221
 3366SOL    HW110997   5.706   5.317   4.214
 3366SOL    HW210998   5.799   5.420   4.301
 3367SOL     OW10999   3.927   3.133   2.540
 3367SOL    HW111000   4.006   3.183   2.506
 3367SOL    HW211001   3.952   3.086   2.626
 3368SOL     OW11002   0.400   5.819   6.752
 3368SOL    HW111003   0.435   5.746   6.694
 3368SOL    HW211004   0.319   5.788   6.801
 3369SOL     OW11005   3.778   1.668   0.680
 3369SOL    HW111006   3.869   1.685   0.719
 3369SOL    HW211007   3.709   1.689   0.748
 3370SOL     OW11008   0.032   6.294   0.957
 3370SOL    HW111009   7.027   6.200   0.967
 3370SOL    HW211010   0.034   6.339   1.046
 3371SOL     OW11011   2.042   2.914   1.500
 3371SOL    HW111012   2.061   2.960   1.587
 3371SOL    HW211013   2.006   2.823   1.518
 3372SOL     OW11014   6.715   2.085   6.990
 3372SOL    HW111015   6.627   2.092   0.010
 3372SOL    HW211016   6.734   1.989   6.970
 3373SOL     OW11017   1.112   1.409   3.834
 3373SOL    HW111018   1.050   1.467   3.781
 3373SOL    HW211019   1.156   1.463   3.905
 3374SOL     OW11020   1.482   6.688   4.663
 3374SOL    HW111021   1.580   6.698   4.679
 3374SOL    HW211022   1.435   6.676   4.750
 3375SOL     OW11023   0.173   4.820   0.077
 3375SOL    HW111024   0.140   4.800   7.013
 3375SOL    HW211025   0.189   4.918   0.086
 3376SOL     OW11026   4.020   3.244   4.154
 3376SOL    HW111027   4.023   3.272   4.250
 3376SOL    HW211028   4.079   3.306   4.101
 3377SOL     OW11029   6.257   5.961   6.013
 3377SOL    HW111030   6.181   5.992   6.069
 3377SOL    HW211031   6.335   5.939   6.071
 3378SOL     OW11032   1.119   0.586   0.743
 3378SOL    HW111033   1.176   0.668   0.747
 3378SOL    HW211034   1.168   0.509   0.784
 3379SOL     OW11035   1.006   1.357   5.815
 3379SOL    HW111036   1.008   1.303   5.731
 3379SOL    HW211037   1.098   1.365   5.852
 3380SOL     OW11038   6.042   6.265   4.358
 3380SOL    HW111039   5.965   6.253   4.296
 3380SOL    HW211040   6.110   6.324   4.316
 3381SOL     OW11041   0.908   3.012   1.297
 3381SOL    HW111042   0.990   2.956   1.307
 3381SOL    HW211043   0.835   2.957   1.256
 3382SOL     OW11044   0.402   2.743   0.040
 3382SOL    HW111045   0.441   2.654   0.014
 3382SOL    HW211046   0.357   2.783   6.989
 3383SOL     OW11047   3.911   6.082   1.259
 3383SOL    HW111048   3.964   6.029   1.194
 3383SOL    HW211049   3.818   6.046   1.264
 3384SOL     OW11050   2.796   3.384   0.293
 3384SOL    HW111051   2.882   3.336   0.275
 3384SOL    HW211052   2.747   3.337   0.367
 3385SOL     OW11053   0.095   3.289   4.844
 3385SOL    HW111054   0.060   3.253   4.931
 3385SOL    HW211055   0.171   3.232   4.813
 3386SOL     OW11056   5.301   4.673   0.479
 3386SOL    HW111057   5.375   4.645   0.540
 3386SOL    HW211058   5.247   4.745   0.523
 3387SOL     OW11059   3.261   0.805   3.136
 3387SOL    HW111060   3.193   0.809   3.063
 3387SOL    HW211061   3.337   0.866   3.114
 3388SOL     OW11062   5.369   3.213   2.543
 3388SOL    HW111063   5.453   3.193   2.594
 3388SOL    HW211064   5.337   3.304   2.567
 3389SOL     OW11065   5.850   6.168   6.313
 3389SOL    HW111066   5.804   6.256   6.306
 3389SOL    HW211067   5.795   6.097   6.268
 3390SOL     OW11068   5.786   6.863   6.234
 3390SOL    HW111069   5.784   6.891   6.138
 3390SOL    HW211070   5.710   6.905   6.283
 3391SOL     OW11071   4.808   2.215   4.499
 3391SOL    HW111072   4.760   2.223   4.586
 3391SOL    HW211073   4.807   2.303   4.451
 3392SOL     OW11074   2.613   0.253   3.412
 3392SOL    HW111075   2.614   0.337   3.466
 3392SOL    HW211076   2.693   0.198   3.434
 3393SOL     OW11077   6.356   6.021   1.269
 3393SOL    HW111078   6.367   6.066   1.358
 3393SOL    HW211079   6.347   6.091   1.198
 3394SOL     OW11080   5.338   3.355   1.414
 3394SOL    HW111081   5.332   3.371   1.512
 3394SOL    HW211082   5.398   3.277   1.396
 3395SOL     OW11083   5.527   2.976   3.673
 3395SOL    HW111084   5.621   2.989   3.703
 3395SOL    HW211085   5.502   2.879   3.681
 3396SOL     OW11086   5.157   1.603   3.595
 3396SOL    HW111087   5.122   1.586   3.503
 3396SOL    HW211088   5.135   1.526   3.654
 3397SOL     OW11089   3.055   6.039   6.004
 3397SOL    HW111090   3.147   6.023   6.039
 3397SOL    HW211091   3.052   6.022   5.906
 3398SOL     OW11092   0.790   7.017   5.321
 3398SOL    HW111093   0.864   0.000   5.255
 3398SOL    HW211094   0.702   0.003   5.275
 3399SOL     OW11095   5.602   4.696   3.516
 3399SOL    HW111096   5.654   4.714   3.433
 3399SOL    HW211097   5.508   4.727   3.505
 3400SOL     OW11098   5.123   3.299   6.737
 3400SOL    HW111099   5.174   3.369   6.688
 3400SOL    HW211100   5.186   3.248   6.797
 3401SOL     OW11101   0.095   3.427   6.707
 3401SOL    HW111102   0.159   3.474   6.646
 3401SOL    HW211103   0.146   3.376   6.777
 3402SOL     OW11104   4.262   5.503   6.631
 3402SOL    HW111105   4.288   5.512   6.727
 3402SOL    HW211106   4.170   5.539   6.618
 3403SOL     OW11107   3.703   5.803   6.405
 3403SOL    HW111108   3.702   5.829   6.308
 3403SOL    HW211109   3.657   5.715   6.416
 3404SOL     OW11110   5.515   2.332   0.875
 3404SOL    HW111111   5.523   2.232   0.876
 3404SOL    HW211112   5.573   2.369   0.802
 3405SOL     OW11113   6.595   3.953   5.991
 3405SOL    HW111114   6.688   3.980   5.966
 3405SOL    HW211115   6.585   3.854   5.982
 3406SOL     OW11116   0.881   3.523   1.963
 3406SOL    HW111117   0.791   3.513   1.921
 3406SOL    HW211118   0.933   3.438   1.953
 3407SOL     OW11119   1.365   4.394   6.394
 3407SOL    HW111120   1.389   4.359   6.303
 3407SOL    HW211121   1.287   4.342   6.430
 3408SOL     OW11122   5.150   3.561   4.664
 3408SOL    HW111123   5.132   3.632   4.596
 3408SOL    HW211124   5.063   3.519   4.691
 3409SOL     OW11125   3.650   6.249   0.048
 3409SOL    HW111126   3.704   6.170   0.074
 3409SOL    HW211127   3.621   6.240   6.981
 3410SOL     OW11128   6.647   6.877   1.557
 3410SOL    HW111129   6.611   6.856   1.467
 3410SOL    HW211130   6.608   6.963   1.590
 3411SOL     OW11131   0.358   3.088   1.321
 3411SOL    HW111132   0.288   3.046   1.262
 3411SOL    HW211133   0.333   3.184   1.338
 3412SOL     OW11134   4.881   2.936   1.143
 3412SOL    HW111135   4.950   2.998   1.181
 3412SOL    HW211136   4.902   2.842   1.171
 3413SOL     OW11137   6.144   2.059   0.887
 3413SOL    HW111138   6.151   2.083   0.790
 3413SOL    HW211139   6.054   2.087   0.921
 3414SOL     OW11140   3.514   1.871   5.981
 3414SOL    HW111141   3.548   1.847   6.073
 3414SOL    HW211142   3.589   1.861   5.915
 3415SOL     OW11143   1.865   3.360   3.881
 3415SOL    HW111144   1.848   3.382   3.977
 3415SOL    HW211145   1.949   3.405   3.851
 3416SOL     OW11146   5.730   6.726   0.811
 3416SOL    HW111147   5.729   6.717   0.911
 3416SOL    HW211148   5.819   6.762   0.782
 3417SOL     OW11149   0.137   5.799   3.658
 3417SOL    HW111150   0.225   5.845   3.672
 3417SOL    HW211151   0.084   5.802   3.742
 3418SOL     OW11152   3.012   5.640   3.312
 3418SOL    HW111153   3.068   5.614   3.390
 3418SOL    HW211154   3.067   5.693   3.247
 3419SOL     OW11155   2.791   5.756   6.115
 3419SOL    HW111156   2.822   5.675   6.165
 3419SOL    HW211157   2.693   5.769   6.129
 3420SOL     OW11158   5.952   3.056   3.467
 3420SOL    HW111159   6.014   3.088   3.395
 3420SOL    HW211160   5.906   2.973   3.436
 3421SOL     OW11161   4.715   1.650   4.382
 3421SOL    HW111162   4.619   1.679   4.389
 3421SOL    HW211163   4.721   1.553   4.404
 3422SOL     OW11164   2.411   0.363   0.428
 3422SOL    HW111165   2.338   0.302   0.458
 3422SOL    HW211166   2.379   0.458   0.430
 3423SOL     OW11167   0.034   4.376   6.695
 3423SOL    HW111168   6.974   4.409   6.727
 3423SOL    HW211169   0.047   4.403   6.600
 3424SOL     OW11170   2.128   6.278   0.923
 3424SOL    HW111171   2.157   6.259   1.017
 3424SOL    HW211172   2.124   6.192   0.872
 3425SOL     OW11173   4.901   4.896   2.558
 3425SOL    HW111174   4.841   4.965   2.519
 3425SOL    HW211175   4.991   4.902   2.515
 3426SOL     OW11176   4.159   2.694   0.665
 3426SOL    HW111177   4.194   2.645   0.586
 3426SOL    HW211178   4.220   2.771   0.686
 3427SOL     OW11179   0.604   1.474   0.949
 3427SOL    HW111180   0.693   1.444   0.983
 3427SOL    HW211181   0.553   1.518   1.022
 3428SOL     OW11182   2.398   5.105   0.134
 3428SOL    HW111183   2.388   5.083   0.037
 3428SOL    HW211184   2.416   5.022   0.185
 3429SOL     OW11185   0.209   1.957   0.836
 3429SOL    HW111186   0.144   1.888   0.868
 3429SOL    HW211187   0.302   1.922   0.843
 3430SOL     OW11188   1.551   6.375   5.892
 3430SOL    HW111189   1.649   6.356   5.898
 3430SOL    HW211190   1.508   6.309   5.831
 3431SOL     OW11191   1.223   0.053   1.635
 3431SOL    HW111192   1.208   0.052   1.536
 3431SOL    HW211193   1.211   6.990   1.672
 3432SOL     OW11194   1.746   3.275   5.356
 3432SOL    HW111195   1.759   3.178   5.376
 3432SOL    HW211196   1.835   3.319   5.343
 3433SOL     OW11197   1.751   6.744   5.047
 3433SOL    HW111198   1.851   6.751   5.040
 3433SOL    HW211199   1.722   6.781   5.135
 3434SOL     OW11200   4.330   0.993   2.235
 3434SOL    HW111201   4.279   0.961   2.155
 3434SOL    HW211202   4.331   0.920   2.304
 3435SOL     OW11203   1.820   0.876   1.119
 3435SOL    HW111204   1.861   0.825   1.195
 3435SOL    HW211205   1.813   0.817   1.039
 3436SOL     OW11206   4.054   6.369   0.394
 3436SOL    HW111207   4.024   6.289   0.341
 3436SOL    HW211208   3.999   6.449   0.367
 3437SOL     OW11209   2.731   0.083   5.659
 3437SOL    HW111210   2.745   0.107   5.755
 3437SOL    HW211211   2.649   0.128   5.624
 3438SOL     OW11212   1.146   2.992   0.621
 3438SOL    HW111213   1.064   3.048   0.609
 3438SOL    HW211214   1.221   3.030   0.568
 3439SOL     OW11215   2.744   6.144   4.755
 3439SOL    HW111216   2.816   6.090   4.711
 3439SOL    HW211217   2.696   6.198   4.685
 3440SOL     OW11218   2.899   3.295   1.958
 3440SOL    HW111219   2.964   3.219   1.948
 3440SOL    HW211220   2.872   3.303   2.054
 3441SOL     OW11221   6.349   5.472   6.008
 3441SOL    HW111222   6.347   5.490   6.106
 3441SOL    HW211223   6.355   5.558   5.958
 3442SOL     OW11224   2.173   4.399   1.526
 3442SOL    HW111225   2.102   4.468   1.544
 3442SOL    HW211226   2.222   4.424   1.443
 3443SOL     OW11227   3.563   6.500   2.038
 3443SOL    HW111228   3.482   6.450   2.068
 3443SOL    HW211229   3.633   6.434   2.010
 3444SOL     OW11230   4.992   5.498   6.693
 3444SOL    HW111231   5.011   5.469   6.600
 3444SOL    HW211232   5.039   5.437   6.757
 3445SOL     OW11233   5.686   5.263   2.818
 3445SOL    HW111234   5.698   5.163   2.814
 3445SOL    HW211235   5.769   5.307   2.784
 3446SOL     OW11236   6.147   1.007   1.694
 3446SOL    HW111237   6.099   1.095   1.694
 3446SOL    HW211238   6.170   0.981   1.787
 3447SOL     OW11239   5.017   5.650   0.834
 3447SOL    HW111240   5.047   5.681   0.744
 3447SOL    HW211241   5.089   5.667   0.901
 3448SOL     OW11242   3.889   0.751   6.528
 3448SOL    HW111243   3.838   0.818   6.472
 3448SOL    HW211244   3.987   0.768   6.518
 3449SOL     OW11245   5.976   5.384   4.546
 3449SOL    HW111246   6.073   5.372   4.522
 3449SOL    HW211247   5.955   5.482   4.548
 3450SOL     OW11248   0.534   2.279   6.819
 3450SOL    HW111249   0.463   2.253   6.754
 3450SOL    HW211250   0.506   2.363   6.867
 3451SOL     OW11251   2.551   6.441   7.002
 3451SOL    HW111252   2.518   6.424   6.909
 3451SOL    HW211253   2.515   6.371   0.035
 3452SOL     OW11254   5.481   0.958   6.811
 3452SOL    HW111255   5.554   0.959   6.879
 3452SOL    HW211256   5.485   0.872   6.760
 3453SOL     OW11257   6.276   5.879   6.379
 3453SOL    HW111258   6.224   5.933   6.445
 3453SOL    HW211259   6.254   5.782   6.390
 3454SOL     OW11260   1.129   3.067   5.039
 3454SOL    HW111261   1.076   2.983   5.045
 3454SOL    HW211262   1.133   3.097   4.943
 3455SOL     OW11263   2.617   2.187   4.499
 3455SOL    HW111264   2.696   2.147   4.546
 3455SOL    HW211265   2.611   2.284   4.520
 3456SOL     OW11266   5.607   5.260   1.559
 3456SOL    HW111267   5.641   5.196   1.490
 3456SOL    HW211268   5.677   5.329   1.578
 3457SOL     OW11269   2.782   5.519   3.201
 3457SOL    HW111270   2.715   5.591   3.180
 3457SOL    HW211271   2.848   5.554   3.267
 3458SOL     OW11272   4.788   0.816   1.882
 3458SOL    HW111273   4.718   0.885   1.901
 3458SOL    HW211274   4.878   0.859   1.879
 3459SOL     OW11275   5.214   2.833   2.747
 3459SOL    HW111276   5.232   2.867   2.839
 3459SOL    HW211277   5.278   2.875   2.683
 3460SOL     OW11278   2.185   1.970   6.707
 3460SOL    HW111279   2.101   1.967   6.652
 3460SOL    HW211280   2.255   1.912   6.664
 3461SOL     OW11281   4.895   4.433   6.316
 3461SOL    HW111282   4.820   4.418   6.380
 3461SOL    HW211283   4.948   4.349   6.306
 3462SOL     OW11284   0.303   3.838   4.668
 3462SOL    HW111285   0.352   3.767   4.617
 3462SOL    HW211286   0.325   3.927   4.630
 3463SOL     OW11287   1.081   4.482   2.180
 3463SOL    HW111288   1.180   4.480   2.164
 3463SOL    HW211289   1.033   4.476   2.093
 3464SOL     OW11290   6.912   4.951   5.116
 3464SOL    HW111291   6.925   4.898   5.032
 3464SOL    HW211292   6.840   5.018   5.103
 3465SOL     OW11293   1.581   2.039   2.499
 3465SOL    HW111294   1.564   2.109   2.568
 3465SOL    HW211295   1.493   2.000   2.469
 3466SOL     OW11296   6.321   5.211   6.360
 3466SOL    HW111297   6.335   5.305   6.328
 3466SOL    HW211298   6.382   5.193   6.437
 3467SOL     OW11299   2.087   3.045   6.887
 3467SOL    HW111300   2.168   3.071   6.836
 3467SOL    HW211301   2.020   3.120   6.885
 3468SOL     OW11302   4.666   6.457   3.154
 3468SOL    HW111303   4.604   6.441   3.230
 3468SOL    HW211304   4.752   6.494   3.188
 3469SOL     OW11305   5.065   0.163   3.195
 3469SOL    HW111306   5.161   0.147   3.219
 3469SOL    HW211307   5.025   0.227   3.260
 3470SOL     OW11308   6.075   3.633   1.105
 3470SOL    HW111309   6.036   3.570   1.038
 3470SOL    HW211310   6.109   3.715   1.059
 3471SOL     OW11311   4.096   5.332   4.101
 3471SOL    HW111312   4.143   5.270   4.164
 3471SOL    HW211313   4.141   5.421   4.101
 3472SOL     OW11314   2.382   0.710   2.644
 3472SOL    HW111315   2.348   0.803   2.652
 3472SOL    HW211316   2.353   0.671   2.557
 3473SOL     OW11317   0.425   2.318   0.897
 3473SOL    HW111318   0.509   2.271   0.871
 3473SOL    HW211319   0.434   2.416   0.878
 3474SOL     OW11320   2.212   4.766   1.844
 3474SOL    HW111321   2.258   4.756   1.932
 3474SOL    HW211322   2.127   4.819   1.856
 3475SOL     OW11323   1.270   5.492   4.769
 3475SOL    HW111324   1.287   5.535   4.681
 3475SOL    HW211325   1.179   5.451   4.769
 3476SOL     OW11326   3.346   2.037   3.069
 3476SOL    HW111327   3.267   2.063   3.014
 3476SOL    HW211328   3.329   2.058   3.165
 3477SOL     OW11329   3.359   4.997   0.956
 3477SOL    HW111330   3.300   5.067   0.917
 3477SOL    HW211331   3.378   4.927   0.887
 3478SOL     OW11332   2.252   5.855   4.381
 3478SOL    HW111333   2.314   5.783   4.410
 3478SOL    HW211334   2.280   5.942   4.424
 3479SOL     OW11335   1.635   0.847   2.813
 3479SOL    HW111336   1.549   0.896   2.797
 3479SOL    HW211337   1.619   0.769   2.873
 3480SOL     OW11338   0.099   0.032   5.146
 3480SOL    HW111339   0.081   6.965   5.124
 3480SOL    HW211340   0.031   0.090   5.100
 3481SOL     OW11341   4.883   0.104   0.357
 3481SOL    HW111342   4.939   0.068   0.283
 3481SOL    HW211343   4.891   0.045   0.438
 3482SOL     OW11344   5.755   1.981   1.332
 3482SOL    HW111345   5.686   1.989   1.405
 3482SOL    HW211346   5.726   2.034   1.253
 3483SOL     OW11347   4.689   1.127   1.283
 3483SOL    HW111348   4.780   1.139   1.244
 3483SOL    HW211349   4.629   1.201   1.251
 3484SOL     OW11350   2.704   3.440   1.251
 3484SOL    HW111351   2.634   3.379   1.288
 3484SOL    HW211352   2.670   3.481   1.166
 3485SOL     OW11353   1.533   0.346   3.888
 3485SOL    HW111354   1.617   0.293   3.897
 3485SOL    HW211355   1.520   0.372   3.792
 3486SOL     OW11356   2.985   1.547   2.603
 3486SOL    HW111357   2.960   1.592   2.689
 3486SOL    HW211358   3.084   1.539   2.598
 3487SOL     OW11359   5.598   2.680   5.891
 3487SOL    HW111360   5.675   2.744   5.892
 3487SOL    HW211361   5.630   2.589   5.863
 3488SOL     OW11362   5.964   2.149   4.650
 3488SOL    HW111363   5.930   2.229   4.699
 3488SOL    HW211364   5.924   2.066   4.689
 3489SOL     OW11365   3.097   0.020   0.582
 3489SOL    HW111366   3.185   7.009   0.560
 3489SOL    HW211367   3.098   0.118   0.561
 3490SOL     OW11368   4.126   4.853   6.826
 3490SOL    HW111369   4.028   4.844   6.810
 3490SOL    HW211370   4.146   4.845   6.923
 3491SOL     OW11371   5.921   2.571   5.377
 3491SOL    HW111372   6.015   2.538   5.375
 3491SOL    HW211373   5.859   2.497   5.350
 3492SOL     OW11374   1.023   5.751   1.011
 3492SOL    HW111375   1.084   5.671   1.009
 3492SOL    HW211376   0.951   5.735   1.079
 3493SOL     OW11377   6.103   4.910   6.384
 3493SOL    HW111378   6.131   4.828   6.434
 3493SOL    HW211379   6.051   4.884   6.302
 3494SOL     OW11380   3.877   0.630   1.872
 3494SOL    HW111381   3.967   0.672   1.859
 3494SOL    HW211382   3.819   0.651   1.793
 3495SOL     OW11383   4.341   5.593   2.109
 3495SOL    HW111384   4.247   5.602   2.143
 3495SOL    HW211385   4.378   5.505   2.139
 3496SOL     OW11386   6.961   4.027   0.830
 3496SOL    HW111387   0.006   3.981   0.881
 3496SOL    HW211388   6.907   3.958   0.782
 3497SOL     OW11389   3.815   6.781   3.595
 3497SOL    HW111390   3.824   6.880   3.591
 3497SOL    HW211391   3.733   6.753   3.545
 3498SOL     OW11392   1.767   2.600   0.958
 3498SOL    HW111393   1.802   2.626   0.868
 3498SOL    HW211394   1.843   2.578   1.018
 3499SOL     OW11395   4.682   2.695   4.644
 3499SOL    HW111396   4.601   2.669   4.697
 3499SOL    HW211397   4.745   2.617   4.638
 3500SOL     OW11398   1.362   3.856   5.051
 3500SOL    HW111399   1.379   3.810   4.964
 3500SOL    HW211400   1.441   3.914   5.074
 3501SOL     OW11401   2.094   5.370   3.936
 3501SOL    HW111402   2.175   5.354   3.879
 3501SOL    HW211403   2.122   5.416   4.020
 3502SOL     OW11404   6.418   2.533   2.166
 3502SOL    HW111405   6.454   2.487   2.085
 3502SOL    HW211406   6.329   2.494   2.190
 3503SOL     OW11407   6.436   6.045   5.083
 3503SOL    HW111408   6.451   5.951   5.113
 3503SOL    HW211409   6.435   6.049   4.983
 3504SOL     OW11410   2.248   1.634   0.998
 3504SOL    HW111411   2.176   1.633   0.929
 3504SOL    HW211412   2.215   1.682   1.079
 3505SOL     OW11413   5.237   5.042   4.767
 3505SOL    HW111414   5.164   5.078   4.824
 3505SOL    HW211415   5.265   4.952   4.800
 3506SOL     OW11416   5.122   6.369   5.794
 3506SOL    HW111417   5.220   6.379   5.782
 3506SOL    HW211418   5.092   6.283   5.751
 3507SOL     OW11419   2.368   0.640   6.966
 3507SOL    HW111420   2.446   0.623   6.905
 3507SOL    HW211421   2.311   0.558   6.971
 3508SOL     OW11422   2.958   2.489   6.095
 3508SOL    HW111423   2.941   2.570   6.039
 3508SOL    HW211424   2.932   2.407   6.044
 3509SOL     OW11425   5.665   0.248   6.369
 3509SOL    HW111426   5.721   0.191   6.310
 3509SOL    HW211427   5.596   0.192   6.414
 3510SOL     OW11428   1.999   2.348   1.329
 3510SOL    HW111429   2.017   2.305   1.241
 3510SOL    HW211430   2.068   2.319   1.395
 3511SOL     OW11431   2.439   4.855   0.237
 3511SOL    HW111432   2.392   4.826   0.321
 3511SOL    HW211433   2.538   4.849   0.250
 3512SOL     OW11434   6.766   4.187   0.701
 3512SOL    HW111435   6.813   4.106   0.737
 3512SOL    HW211436   6.699   4.219   0.768
 3513SOL     OW11437   6.301   3.834   0.207
 3513SOL    HW111438   6.242   3.851   0.285
 3513SOL    HW211439   6.397   3.836   0.236
 3514SOL     OW11440   6.945   1.064   1.886
 3514SOL    HW111441   6.905   1.081   1.796
 3514SOL    HW211442   6.873   1.066   1.955
 3515SOL     OW11443   4.957   6.293   3.311
 3515SOL    HW111444   4.966   6.292   3.411
 3515SOL    HW211445   4.877   6.240   3.284
 3516SOL     OW11446   4.275   6.955   1.044
 3516SOL    HW111447   4.316   0.007   1.087
 3516SOL    HW211448   4.324   6.933   0.959
 3517SOL     OW11449   1.013   2.265   0.618
 3517SOL    HW111450   1.021   2.228   0.710
 3517SOL    HW211451   1.061   2.353   0.612
 3518SOL     OW11452   5.694   4.164   4.791
 3518SOL    HW111453   5.720   4.253   4.828
 3518SOL    HW211454   5.774   4.122   4.747
 3519SOL     OW11455   1.773   0.926   6.486
 3519SOL    HW111456   1.868   0.901   6.464
 3519SOL    HW211457   1.726   0.847   6.526
 3520SOL     OW11458   3.055   4.466   6.680
 3520SOL    HW111459   3.101   4.510   6.757
 3520SOL    HW211460   3.110   4.479   6.597
 3521SOL     OW11461   5.602   3.442   1.046
 3521SOL    HW111462   5.558   3.371   0.991
 3521SOL    HW211463   5.698   3.421   1.058
 3522SOL     OW11464   5.453   5.262   2.203
 3522SOL    HW111465   5.490   5.175   2.233
 3522SOL    HW211466   5.392   5.299   2.273
 3523SOL     OW11467   3.015   4.817   5.704
 3523SOL    HW111468   3.017   4.772   5.793
 3523SOL    HW211469   3.038   4.751   5.633
 3524SOL     OW11470   2.841   1.188   0.950
 3524SOL    HW111471   2.893   1.217   1.029
 3524SOL    HW211472   2.806   1.268   0.901
 3525SOL     OW11473   0.295   4.243   2.232
 3525SOL    HW111474   0.321   4.289   2.317
 3525SOL    HW211475   0.364   4.175   2.208
 3526SOL     OW11476   2.570   5.947   3.656
 3526SOL    HW111477   2.592   5.984   3.746
 3526SOL    HW211478   2.520   6.016   3.602
 3527SOL     OW11479   6.263   3.900   6.119
 3527SOL    HW111480   6.184   3.936   6.169
 3527SOL    HW211481   6.315   3.976   6.079
 3528SOL     OW11482   1.105   5.079   3.830
 3528SOL    HW111483   1.139   5.006   3.889
 3528SOL    HW211484   1.182   5.133   3.795
 3529SOL     OW11485   5.102   6.967   5.657
 3529SOL    HW111486   5.006   6.956   5.634
 3529SOL    HW211487   5.112   0.011   5.726
 3530SOL     OW11488   2.429   4.415   3.149
 3530SOL    HW111489   2.429   4.396   3.248
 3530SOL    HW211490   2.425   4.328   3.099
 3531SOL     OW11491   5.063   4.434   1.140
 3531SOL    HW111492   5.037   4.338   1.128
 3531SOL    HW211493   5.046   4.462   1.235
 3532SOL     OW11494   2.232   0.058   0.251
 3532SOL    HW111495   2.148   0.010   0.275
 3532SOL    HW211496   2.299   0.048   0.325
 3533SOL     OW11497   1.035   2.220   2.743
 3533SOL    HW111498   1.088   2.293   2.786
 3533SOL    HW211499   1.018   2.242   2.647
 3534SOL     OW11500   6.593   1.112   5.186
 3534SOL    HW111501   6.560   1.103   5.280
 3534SOL    HW211502   6.554   1.194   5.144
 3535SOL     OW11503   6.775   5.689   0.516
 3535SOL    HW111504   6.773   5.787   0.539
 3535SOL    HW211505   6.829   5.640   0.583
 3536SOL     OW11506   2.291   2.479   3.744
 3536SOL    HW111507   2.286   2.556   3.808
 3536SOL    HW211508   2.382   2.477   3.702
 3537SOL     OW11509   2.828   4.932   0.120
 3537SOL    HW111510   2.824   4.910   0.023
 3537SOL    HW211511   2.789   4.856   0.172
 3538SOL     OW11512   2.824   0.485   4.443
 3538SOL    HW111513   2.816   0.557   4.375
 3538SOL    HW211514   2.762   0.410   4.420
 3539SOL     OW11515   5.973   3.300   6.518
 3539SOL    HW111516   5.988   3.332   6.612
 3539SOL    HW211517   5.874   3.294   6.501
 3540SOL     OW11518   1.903   1.497   5.134
 3540SOL    HW111519   1.985   1.555   5.137
 3540SOL    HW211520   1.827   1.549   5.094
 3541SOL     OW11521   3.139   2.606   6.657
 3541SOL    HW111522   3.056   2.592   6.712
 3541SOL    HW211523   3.169   2.519   6.620
 3542SOL     OW11524   0.120   3.377   1.706
 3542SOL    HW111525   0.128   3.476   1.694
 3542SOL    HW211526   0.211   3.336   1.716
 3543SOL     OW11527   1.062   3.274   5.225
 3543SOL    HW111528   1.094   3.351   5.168
 3543SOL    HW211529   1.054   3.192   5.168
 3544SOL     OW11530   2.023   4.517   6.009
 3544SOL    HW111531   2.032   4.496   6.107
 3544SOL    HW211532   2.107   4.559   5.976
 3545SOL     OW11533   3.784   5.525   6.410
 3545SOL    HW111534   3.710   5.522   6.343
 3545SOL    HW211535   3.749   5.495   6.499
 3546SOL     OW11536   6.842   4.698   3.367
 3546SOL    HW111537   6.753   4.666   3.399
 3546SOL    HW211538   6.843   4.798   3.361
 3547SOL     OW11539   6.369   4.079   4.099
 3547SOL    HW111540   6.396   4.101   4.005
 3547SOL    HW211541   6.451   4.053   4.151
 3548SOL     OW11542   5.658   0.322   5.858
 3548SOL    HW111543   5.636   0.350   5.952
 3548SOL    HW211544   5.601   0.244   5.832
 3549SOL     OW11545   1.340   4.781   6.040
 3549SOL    HW111546   1.412   4.715   6.021
 3549SOL    HW211547   1.288   4.750   6.121
 3550SOL     OW11548   5.979   2.368   4.891
 3550SOL    HW111549   5.983   2.339   4.987
 3550SOL    HW211550   6.015   2.460   4.882
 3551SOL     OW11551   3.623   1.409   4.131
 3551SOL    HW111552   3.710   1.426   4.084
 3551SOL    HW211553   3.560   1.484   4.112
 3552SOL     OW11554   6.266   6.633   2.153
 3552SOL    HW111555   6.175   6.630   2.112
 3552SOL    HW211556   6.296   6.540   2.174
 3553SOL     OW11557   3.578   5.890   0.075
 3553SOL    HW111558   3.556   5.795   0.096
 3553SOL    HW211559   3.635   5.893   7.021
 3554SOL     OW11560   3.940   2.731   0.480
 3554SOL    HW111561   3.850   2.749   0.520
 3554SOL    HW211562   4.006   2.713   0.553
 3555SOL     OW11563   0.541   3.369   3.930
 3555SOL    HW111564   0.627   3.345   3.885
 3555SOL    HW211565   0.532   3.469   3.933
 3556SOL     OW11566   3.858   0.786   4.179
 3556SOL    HW111567   3.900   0.698   4.200
 3556SOL    HW211568   3.879   0.851   4.252
 3557SOL     OW11569   1.370   0.159   4.247
 3557SOL    HW111570   1.430   0.108   4.308
 3557SOL    HW211571   1.277   0.159   4.283
 3558SOL     OW11572   1.774   5.307   1.992
 3558SOL    HW111573   1.866   5.274   2.015
 3558SOL    HW211574   1.780   5.370   1.915
 3559SOL     OW11575   0.881   6.013   5.361
 3559SOL    HW111576   0.959   6.020   5.298
 3559SOL    HW211577   0.873   5.918   5.393
 3560SOL     OW11578   2.095   5.395   2.387
 3560SOL    HW111579   2.016   5.415   2.444
 3560SOL    HW211580   2.130   5.304   2.409
 3561SOL     OW11581   5.134   4.265   5.487
 3561SOL    HW111582   5.081   4.193   5.531
 3561SOL    HW211583   5.169   4.328   5.557
 3562SOL     OW11584   2.747   1.440   3.185
 3562SOL    HW111585   2.701   1.476   3.104
 3562SOL    HW211586   2.801   1.361   3.160
 3563SOL     OW11587   6.401   2.075   6.498
 3563SOL    HW111588   6.310   2.079   6.538
 3563SOL    HW211589   6.401   2.013   6.420
 3564SOL     OW11590   0.598   4.569   2.721
 3564SOL    HW111591   0.640   4.481   2.700
 3564SOL    HW211592   0.670   4.634   2.747
 3565SOL     OW11593   3.185   6.267   4.136
 3565SOL    HW111594   3.153   6.212   4.213
 3565SOL    HW211595   3.185   6.364   4.161
 3566SOL     OW11596   6.372   2.519   6.503
 3566SOL    HW111597   6.338   2.451   6.438
 3566SOL    HW211598   6.319   2.603   6.494
 3567SOL     OW11599   0.727   2.560   6.943
 3567SOL    HW111600   0.754   2.641   6.995
 3567SOL    HW211601   0.809   2.514   6.907
 3568SOL     OW11602   5.485   4.376   4.771
 3568SOL    HW111603   5.535   4.295   4.740
 3568SOL    HW211604   5.430   4.353   4.851
 3569SOL     OW11605   2.859   2.936   6.321
 3569SOL    HW111606   2.833   2.849   6.278
 3569SOL    HW211607   2.926   2.982   6.263
 3570SOL     OW11608   5.608   0.391   6.121
 3570SOL    HW111609   5.619   0.352   6.213
 3570SOL    HW211610   5.628   0.489   6.124
 3571SOL     OW11611   0.401   5.337   6.218
 3571SOL    HW111612   0.467   5.409   6.236
 3571SOL    HW211613   0.448   5.256   6.183
 3572SOL     OW11614   5.840   4.111   3.189
 3572SOL    HW111615   5.852   4.046   3.114
 3572SOL    HW211616   5.747   4.103   3.225
 3573SOL     OW11617   0.691   4.512   4.042
 3573SOL    HW111618   0.789   4.522   4.058
 3573SOL    HW211619   0.667   4.414   4.042
 3574SOL     OW11620   0.546   4.410   0.989
 3574SOL    HW111621   0.477   4.339   1.002
 3574SOL    HW211622   0.510   4.497   1.022
 3575SOL     OW11623   5.440   4.607   3.125
 3575SOL    HW111624   5.384   4.633   3.047
 3575SOL    HW211625   5.426   4.510   3.146
 3576SOL     OW11626   0.877   1.844   5.931
 3576SOL    HW111627   0.809   1.815   5.863
 3576SOL    HW211628   0.904   1.765   5.986
 3577SOL     OW11629   1.432   2.771   6.105
 3577SOL    HW111630   1.347   2.806   6.144
 3577SOL    HW211631   1.509   2.822   6.143
 3578SOL     OW11632   2.598   2.396   0.737
 3578SOL    HW111633   2.593   2.311   0.789
 3578SOL    HW211634   2.646   2.380   0.651
 3579SOL     OW11635   5.827   3.456   5.045
 3579SOL    HW111636   5.764   3.413   5.109
 3579SOL    HW211637   5.865   3.387   4.984
 3580SOL     OW11638   5.887   2.924   1.552
 3580SOL    HW111639   5.837   2.915   1.466
 3580SOL    HW211640   5.933   2.837   1.573
 3581SOL     OW11641   0.782   6.087   3.740
 3581SOL    HW111642   0.782   5.988   3.726
 3581SOL    HW211643   0.824   6.108   3.828
 3582SOL     OW11644   0.832   2.283   5.491
 3582SOL    HW111645   0.742   2.301   5.450
 3582SOL    HW211646   0.823   2.209   5.558
 3583SOL     OW11647   1.435   3.624   6.554
 3583SOL    HW111648   1.515   3.672   6.517
 3583SOL    HW211649   1.352   3.660   6.511
 3584SOL     OW11650   5.876   5.142   6.394
 3584SOL    HW111651   5.966   5.143   6.438
 3584SOL    HW211652   5.863   5.056   6.346
 3585SOL     OW11653   4.421   6.955   5.176
 3585SOL    HW111654   4.370   7.007   5.244
 3585SOL    HW211655   4.360   6.926   5.103
 3586SOL     OW11656   0.427   2.295   5.036
 3586SOL    HW111657   0.511   2.240   5.033
 3586SOL    HW211658   0.406   2.327   4.944
 3587SOL     OW11659   3.222   5.483   6.562
 3587SOL    HW111660   3.182   5.538   6.488
 3587SOL    HW211661   3.295   5.426   6.526
 3588SOL     OW11662   0.998   2.615   5.538
 3588SOL    HW111663   1.053   2.697   5.555
 3588SOL    HW211664   1.049   2.553   5.478
 3589SOL     OW11665   3.755   1.662   4.950
 3589SOL    HW111666   3.760   1.723   4.871
 3589SOL    HW211667   3.686   1.591   4.933
 3590SOL     OW11668   1.442   2.822   6.796
 3590SOL    HW111669   1.540   2.808   6.809
 3590SOL    HW211670   1.417   2.913   6.829
 3591SOL     OW11671   5.103   3.551   6.578
 3591SOL    HW111672   5.107   3.622   6.508
 3591SOL    HW211673   5.083   3.463   6.535
 3592SOL     OW11674   6.521   4.390   1.825
 3592SOL    HW111675   6.561   4.372   1.735
 3592SOL    HW211676   6.513   4.304   1.876
 3593SOL     OW11677   1.777   5.853   4.982
 3593SOL    HW111678   1.834   5.816   5.056
 3593SOL    HW211679   1.681   5.831   5.001
 3594SOL     OW11680   4.688   0.500   3.309
 3594SOL    HW111681   4.698   0.591   3.267
 3594SOL    HW211682   4.619   0.448   3.258
 3595SOL     OW11683   2.350   5.756   7.015
 3595SOL    HW111684   2.433   5.790   6.970
 3595SOL    HW211685   2.304   5.691   6.954
 3596SOL     OW11686   6.876   1.982   3.077
 3596SOL    HW111687   6.789   2.006   3.119
 3596SOL    HW211688   6.892   2.040   2.997
 3597SOL     OW11689   2.053   1.672   4.056
 3597SOL    HW111690   2.032   1.762   4.018
 3597SOL    HW211691   2.147   1.648   4.033
 3598SOL     OW11692   0.842   5.407   6.211
 3598SOL    HW111693   0.864   5.334   6.147
 3598SOL    HW211694   0.919   5.470   6.218
 3599SOL     OW11695   0.619   1.803   5.790
 3599SOL    HW111696   0.606   1.901   5.803
 3599SOL    HW211697   0.580   1.775   5.702
 3600SOL     OW11698   0.795   4.093   0.288
 3600SOL    HW111699   0.738   4.049   0.357
 3600SOL    HW211700   0.800   4.191   0.306
 3601SOL     OW11701   5.515   4.534   6.239
 3601SOL    HW111702   5.475   4.599   6.303
 3601SOL    HW211703   5.479   4.551   6.147
 3602SOL     OW11704   1.392   2.624   1.283
 3602SOL    HW111705   1.306   2.581   1.255
 3602SOL    HW211706   1.428   2.679   1.207
 3603SOL     OW11707   3.500   0.115   3.403
 3603SOL    HW111708   3.437   0.182   3.364
 3603SOL    HW211709   3.592   0.132   3.369
 3604SOL     OW11710   0.026   4.815   2.925
 3604SOL    HW111711   0.015   4.829   3.024
 3604SOL    HW211712   0.123   4.809   2.903
 3605SOL     OW11713   6.203   4.072   5.398
 3605SOL    HW111714   6.232   4.062   5.303
 3605SOL    HW211715   6.222   4.165   5.429
 3606SOL     OW11716   6.664   6.738   5.550
 3606SOL    HW111717   6.635   6.719   5.456
 3606SOL    HW211718   6.633   6.664   5.609
 3607SOL     OW11719   5.276   5.989   1.658
 3607SOL    HW111720   5.182   5.967   1.634
 3607SOL    HW211721   5.278   6.078   1.704
 3608SOL     OW11722   5.687   1.469   3.500
 3608SOL    HW111723   5.650   1.376   3.496
 3608SOL    HW211724   5.613   1.535   3.491
 3609SOL     OW11725   0.970   6.911   4.296
 3609SOL    HW111726   1.024   6.899   4.213
 3609SOL    HW211727   1.001   6.846   4.366
 3610SOL     OW11728   1.568   0.056   5.810
 3610SOL    HW111729   1.654   0.006   5.807
 3610SOL    HW211730   1.582   0.147   5.850
 3611SOL     OW11731   4.735   6.089   5.566
 3611SOL    HW111732   4.784   6.133   5.491
 3611SOL    HW211733   4.724   5.992   5.545
 3612SOL     OW11734   6.440   0.306   0.052
 3612SOL    HW111735   6.505   0.277   7.011
 3612SOL    HW211736   6.347   0.297   0.017
 3613SOL     OW11737   4.686   5.318   1.897
 3613SOL    HW111738   4.654   5.358   1.982
 3613SOL    HW211739   4.774   5.273   1.912
 3614SOL     OW11740   3.967   3.300   1.625
 3614SOL    HW111741   3.995   3.307   1.721
 3614SOL    HW211742   3.883   3.352   1.611
 3615SOL     OW11743   4.928   5.379   0.180
 3615SOL    HW111744   4.899   5.417   0.092
 3615SOL    HW211745   4.847   5.361   0.236
 3616SOL     OW11746   1.033   2.751   6.849
 3616SOL    HW111747   1.002   2.731   6.756
 3616SOL    HW211748   0.997   2.840   6.878
 3617SOL     OW11749   4.097   2.156   6.866
 3617SOL    HW111750   4.132   2.132   6.776
 3617SOL    HW211751   4.000   2.178   6.860
 3618SOL     OW11752   2.501   2.089   5.770
 3618SOL    HW111753   2.414   2.138   5.765
 3618SOL    HW211754   2.567   2.133   5.708
 3619SOL     OW11755   5.763   2.638   4.484
 3619SOL    HW111756   5.797   2.709   4.422
 3619SOL    HW211757   5.668   2.616   4.462
 3620SOL     OW11758   5.888   6.426   6.092
 3620SOL    HW111759   5.963   6.399   6.031
 3620SOL    HW211760   5.905   6.518   6.127
 3621SOL     OW11761   3.276   2.849   5.435
 3621SOL    HW111762   3.355   2.908   5.416
 3621SOL    HW211763   3.269   2.834   5.534
 3622SOL     OW11764   1.975   1.217   4.801
 3622SOL    HW111765   2.057   1.203   4.856
 3622SOL    HW211766   1.905   1.262   4.857
 3623SOL     OW11767   5.912   5.682   4.274
 3623SOL    HW111768   5.870   5.772   4.264
 3623SOL    HW211769   5.896   5.629   4.191
 3624SOL     OW11770   1.853   6.524   1.705
 3624SOL    HW111771   1.826   6.518   1.801
 3624SOL    HW211772   1.878   6.432   1.672
 3625SOL     OW11773   6.105   2.952   0.251
 3625SOL    HW111774   6.196   2.979   0.220
 3625SOL    HW211775   6.071   2.876   0.195
 3626SOL     OW11776   0.999   3.107   6.268
 3626SOL    HW111777   1.043   3.025   6.304
 3626SOL    HW211778   0.974   3.167   6.343
 3627SOL     OW11779   3.633   2.896   3.289
 3627SOL    HW111780   3.561   2.851   3.342
 3627SOL    HW211781   3.721   2.883   3.335
 3628SOL     OW11782   1.482   1.482   1.418
 3628SOL    HW111783   1.528   1.562   1.458
 3628SOL    HW211784   1.548   1.427   1.367
 3629SOL     OW11785   6.917   1.947   5.093
 3629SOL    HW111786   6.990   2.014   5.080
 3629SOL    HW211787   6.956   1.861   5.126
 3630SOL     OW11788   5.202   2.691   4.179
 3630SOL    HW111789   5.262   2.695   4.099
 3630SOL    HW211790   5.116   2.738   4.159
 3631SOL     OW11791   2.032   6.705   3.710
 3631SOL    HW111792   1.967   6.752   3.770
 3631SOL    HW211793   2.089   6.643   3.765
 3632SOL     OW11794   5.010   5.766   1.189
 3632SOL    HW111795   4.943   5.838   1.209
 3632SOL    HW211796   5.059   5.788   1.105
 3633SOL     OW11797   4.081   1.852   5.785
 3633SOL    HW111798   4.031   1.776   5.826
 3633SOL    HW211799   4.100   1.921   5.855
 3634SOL     OW11800   1.114   5.037   4.594
 3634SOL    HW111801   1.061   5.083   4.523
 3634SOL    HW211802   1.071   5.052   4.683
 3635SOL     OW11803   3.459   0.140   6.117
 3635SOL    HW111804   3.392   0.107   6.184
 3635SOL    HW211805   3.538   0.079   6.117
 3636SOL     OW11806   0.049   5.578   0.287
 3636SOL    HW111807   6.986   5.538   0.296
 3636SOL    HW211808   0.117   5.505   0.287
 3637SOL     OW11809   6.747   1.477   2.127
 3637SOL    HW111810   6.832   1.463   2.176
 3637SOL    HW211811   6.672   1.433   2.176
 3638SOL     OW11812   0.107   3.958   3.797
 3638SOL    HW111813   0.190   3.908   3.773
 3638SOL    HW211814   0.042   3.895   3.841
 3639SOL     OW11815   3.620   4.210   0.656
 3639SOL    HW111816   3.662   4.300   0.654
 3639SOL    HW211817   3.592   4.184   0.564
 3640SOL     OW11818   3.838   1.127   0.913
 3640SOL    HW111819   3.924   1.096   0.872
 3640SOL    HW211820   3.795   1.193   0.852
 3641SOL     OW11821   5.251   3.330   3.071
 3641SOL    HW111822   5.161   3.355   3.106
 3641SOL    HW211823   5.313   3.314   3.147
 3642SOL     OW11824   5.240   1.048   6.726
 3642SOL    HW111825   5.246   1.143   6.697
 3642SOL    HW211826   5.327   1.020   6.766
 3643SOL     OW11827   3.029   5.679   4.959
 3643SOL    HW111828   3.019   5.581   4.943
 3643SOL    HW211829   3.109   5.713   4.910
 3644SOL     OW11830   6.672   1.119   1.454
 3644SOL    HW111831   6.671   1.022   1.480
 3644SOL    HW211832   6.741   1.167   1.509
 3645SOL     OW11833   0.415   2.828   3.434
 3645SOL    HW111834   0.435   2.926   3.427
 3645SOL    HW211835   0.381   2.808   3.525
 3646SOL     OW11836   0.707   3.955   6.704
 3646SOL    HW111837   0.732   3.897   6.626
 3646SOL    HW211838   0.789   3.991   6.747
 3647SOL     OW11839   2.746   4.877   6.307
 3647SOL    HW111840   2.776   4.966   6.274
 3647SOL    HW211841   2.825   4.821   6.329
 3648SOL     OW11842   3.876   4.867   1.766
 3648SOL    HW111843   3.814   4.925   1.713
 3648SOL    HW211844   3.830   4.781   1.787
 3649SOL     OW11845   4.893   2.425   1.951
 3649SOL    HW111846   4.954   2.347   1.945
 3649SOL    HW211847   4.804   2.401   1.913
 3650SOL     OW11848   0.205   5.530   0.926
 3650SOL    HW111849   0.160   5.511   1.014
 3650SOL    HW211850   0.276   5.599   0.940
 3651SOL     OW11851   0.648   6.329   4.911
 3651SOL    HW111852   0.576   6.386   4.873
 3651SOL    HW211853   0.623   6.300   5.004
 3652SOL     OW11854   5.395   6.493   3.338
 3652SOL    HW111855   5.407   6.404   3.381
 3652SOL    HW211856   5.402   6.483   3.238
 3653SOL     OW11857   0.305   0.625   3.929
 3653SOL    HW111858   0.237   0.574   3.981
 3653SOL    HW211859   0.386   0.569   3.916
 3654SOL     OW11860   2.874   3.972   0.928
 3654SOL    HW111861   2.969   4.002   0.936
 3654SOL    HW211862   2.867   3.876   0.954
 3655SOL     OW11863   1.371   5.959   4.074
 3655SOL    HW111864   1.296   5.937   4.011
 3655SOL    HW211865   1.333   5.984   4.164
 3656SOL     OW11866   0.684   4.582   1.776
 3656SOL    HW111867   0.694   4.525   1.694
 3656SOL    HW211868   0.607   4.644   1.765
 3657SOL     OW11869   4.869   5.216   5.544
 3657SOL    HW111870   4.789   5.272   5.522
 3657SOL    HW211871   4.899   5.236   5.637
 3658SOL     OW11872   1.829   4.858   5.400
 3658SOL    HW111873   1.856   4.847   5.305
 3658SOL    HW211874   1.737   4.821   5.413
 3659SOL     OW11875   1.620   3.499   5.223
 3659SOL    HW111876   1.646   3.412   5.263
 3659SOL    HW211877   1.529   3.525   5.256
 3660SOL     OW11878   5.942   6.617   4.115
 3660SOL    HW111879   5.975   6.694   4.169
 3660SOL    HW211880   5.896   6.552   4.174
 3661SOL     OW11881   5.573   1.218   5.421
 3661SOL    HW111882   5.619   1.161   5.354
 3661SOL    HW211883   5.603   1.194   5.513
 3662SOL     OW11884   3.752   6.768   3.893
 3662SOL    HW111885   3.779   6.754   3.798
 3662SOL    HW211886   3.814   6.832   3.937
 3663SOL     OW11887   2.112   1.781   0.462
 3663SOL    HW111888   2.180   1.795   0.534
 3663SOL    HW211889   2.111   1.685   0.434
 3664SOL     OW11890   5.030   2.860   1.684
 3664SOL    HW111891   5.071   2.793   1.622
 3664SOL    HW211892   4.931   2.863   1.668
 3665SOL     OW11893   1.835   6.209   5.544
 3665SOL    HW111894   1.792   6.148   5.611
 3665SOL    HW211895   1.806   6.182   5.452
 3666SOL     OW11896   1.005   3.934   3.167
 3666SOL    HW111897   1.079   3.958   3.104
 3666SOL    HW211898   1.042   3.927   3.260
 3667SOL     OW11899   0.867   1.017   2.652
 3667SOL    HW111900   0.894   0.989   2.743
 3667SOL    HW211901   0.940   0.997   2.587
 3668SOL     OW11902   1.409   0.911   1.428
 3668SOL    HW111903   1.506   0.933   1.417
 3668SOL    HW211904   1.359   0.943   1.348
 3669SOL     OW11905   4.628   0.886   3.491
 3669SOL    HW111906   4.572   0.969   3.493
 3669SOL    HW211907   4.723   0.910   3.512
 3670SOL     OW11908   2.112   4.924   6.991
 3670SOL    HW111909   2.082   4.974   0.044
 3670SOL    HW211910   2.181   4.977   6.942
 3671SOL     OW11911   6.405   1.034   4.183
 3671SOL    HW111912   6.477   1.025   4.115
 3671SOL    HW211913   6.334   0.966   4.166
 3672SOL     OW11914   5.396   1.926   1.087
 3672SOL    HW111915   5.383   1.874   1.002
 3672SOL    HW211916   5.484   1.973   1.083
 3673SOL     OW11917   4.385   6.109   6.671
 3673SOL    HW111918   4.484   6.099   6.673
 3673SOL    HW211919   4.342   6.024   6.703
 3674SOL     OW11920   1.217   5.989   5.824
 3674SOL    HW111921   1.131   6.040   5.827
 3674SOL    HW211922   1.199   5.896   5.792
 3675SOL     OW11923   2.170   3.273   3.607
 3675SOL    HW111924   2.119   3.205   3.554
 3675SOL    HW211925   2.268   3.261   3.593
 3676SOL     OW11926   5.087   4.163   3.028
 3676SOL    HW111927   5.063   4.118   2.942
 3676SOL    HW211928   5.035   4.249   3.036
 3677SOL     OW11929   2.069   5.781   3.489
 3677SOL    HW111930   1.996   5.848   3.495
 3677SOL    HW211931   2.043   5.698   3.539
 3678SOL     OW11932   0.688   2.247   4.970
 3678SOL    HW111933   0.739   2.241   5.056
 3678SOL    HW211934   0.684   2.342   4.941
 3679SOL     OW11935   1.020   0.526   3.306
 3679SOL    HW111936   0.985   0.438   3.337
 3679SOL    HW211937   0.999   0.596   3.374
 3680SOL     OW11938   5.871   3.168   4.019
 3680SOL    HW111939   5.829   3.255   3.993
 3680SOL    HW211940   5.823   3.093   3.973
 3681SOL     OW11941   0.905   0.087   6.870
 3681SOL    HW111942   0.907   0.178   6.829
 3681SOL    HW211943   0.842   0.085   6.947
 3682SOL     OW11944   5.220   2.035   0.558
 3682SOL    HW111945   5.273   2.089   0.492
 3682SOL    HW211946   5.221   2.080   0.647
 3683SOL     OW11947   6.341   0.411   3.004
 3683SOL    HW111948   6.345   0.354   3.086
 3683SOL    HW211949   6.311   0.503   3.029
 3684SOL     OW11950   1.816   4.873   0.480
 3684SOL    HW111951   1.803   4.969   0.455
 3684SOL    HW211952   1.872   4.867   0.562
 3685SOL     OW11953   0.282   6.118   0.161
 3685SOL    HW111954   0.332   6.049   0.109
 3685SOL    HW211955   0.264   6.198   0.104
 3686SOL     OW11956   5.236   5.740   3.645
 3686SOL    HW111957   5.195   5.823   3.607
 3686SOL    HW211958   5.201   5.724   3.737
 3687SOL     OW11959   3.647   5.888   5.136
 3687SOL    HW111960   3.702   5.933   5.066
 3687SOL    HW211961   3.550   5.909   5.122
 3688SOL     OW11962   6.826   4.087   6.527
 3688SOL    HW111963   6.818   4.187   6.520
 3688SOL    HW211964   6.741   4.049   6.564
 3689SOL     OW11965   2.134   6.957   5.923
 3689SOL    HW111966   2.203   6.895   5.961
 3689SOL    HW211967   2.153   6.971   5.825
 3690SOL     OW11968   4.404   5.676   0.718
 3690SOL    HW111969   4.406   5.711   0.811
 3690SOL    HW211970   4.337   5.727   0.665
 3691SOL     OW11971   2.687   1.782   6.783
 3691SOL    HW111972   2.604   1.734   6.754
 3691SOL    HW211973   2.766   1.744   6.735
 3692SOL     OW11974   6.403   5.559   5.173
 3692SOL    HW111975   6.426   5.571   5.077
 3692SOL    HW211976   6.472   5.503   5.218
 3693SOL     OW11977   2.139   3.756   3.081
 3693SOL    HW111978   2.161   3.829   3.017
 3693SOL    HW211979   2.106   3.797   3.167
 3694SOL     OW11980   1.790   6.031   3.072
 3694SOL    HW111981   1.867   6.092   3.088
 3694SOL    HW211982   1.708   6.084   3.053
 3695SOL     OW11983   6.400   3.160   1.624
 3695SOL    HW111984   6.342   3.080   1.642
 3695SOL    HW211985   6.415   3.210   1.710
 3696SOL     OW11986   3.442   6.135   5.331
 3696SOL    HW111987   3.391   6.081   5.264
 3696SOL    HW211988   3.386   6.148   5.413
 3697SOL     OW11989   0.415   6.503   2.845
 3697SOL    HW111990   0.399   6.407   2.819
 3697SOL    HW211991   0.508   6.528   2.819
 3698SOL     OW11992   2.517   0.561   4.078
 3698SOL    HW111993   2.430   0.610   4.070
 3698SOL    HW211994   2.503   0.475   4.125
 3699SOL     OW11995   1.118   2.310   3.480
 3699SOL    HW111996   1.146   2.397   3.439
 3699SOL    HW211997   1.140   2.235   3.417
 3700SOL     OW11998   0.348   5.751   4.627
 3700SOL    HW111999   0.305   5.664   4.603
 3700SOL    HW212000   0.397   5.741   4.714
 3701SOL     OW12001   1.628   0.630   3.500
 3701SOL    HW112002   1.588   0.548   3.541
 3701SOL    HW212003   1.580   0.711   3.534
 3702SOL     OW12004   5.676   6.559   3.166
 3702SOL    HW112005   5.718   6.562   3.257
 3702SOL    HW212006   5.586   6.602   3.169
 3703SOL     OW12007   5.830   1.470   5.507
 3703SOL    HW112008   5.890   1.410   5.560
 3703SOL    HW212009   5.785   1.417   5.435
 3704SOL     OW12010   3.622   1.866   1.257
 3704SOL    HW112011   3.593   1.933   1.189
 3704SOL    HW212012   3.607   1.902   1.349
 3705SOL     OW12013   4.190   4.788   3.921
 3705SOL    HW112014   4.266   4.851   3.940
 3705SOL    HW212015   4.221   4.694   3.934
 3706SOL     OW12016   1.866   3.476   6.892
 3706SOL    HW112017   1.862   3.468   6.992
 3706SOL    HW212018   1.811   3.554   6.863
 3707SOL     OW12019   5.141   4.538   3.902
 3707SOL    HW112020   5.202   4.616   3.887
 3707SOL    HW212021   5.067   4.540   3.835
 3708SOL     OW12022   0.095   0.646   6.454
 3708SOL    HW112023   0.109   0.612   6.361
 3708SOL    HW212024   0.049   0.576   6.509
 3709SOL     OW12025   3.366   0.781   0.590
 3709SOL    HW112026   3.413   0.782   0.502
 3709SOL    HW212027   3.426   0.737   0.658
 3710SOL     OW12028   6.110   5.454   5.549
 3710SOL    HW112029   6.098   5.390   5.473
 3710SOL    HW212030   6.064   5.540   5.528
 3711SOL     OW12031   1.046   6.575   4.139
 3711SOL    HW112032   1.051   6.674   4.153
 3711SOL    HW212033   1.132   6.543   4.099
 3712SOL     OW12034   6.854   5.386   6.850
 3712SOL    HW112035   6.782   5.322   6.823
 3712SOL    HW212036   6.943   5.351   6.820
 3713SOL     OW12037   1.515   6.206   6.106
 3713SOL    HW112038   1.522   6.283   6.043
 3713SOL    HW212039   1.421   6.174   6.110
 3714SOL     OW12040   5.234   6.585   5.955
 3714SOL    HW112041   5.181   6.631   5.884
 3714SOL    HW212042   5.176   6.520   6.003
 3715SOL     OW12043   0.412   4.220   2.664
 3715SOL    HW112044   0.399   4.198   2.760
 3715SOL    HW212045   0.323   4.232   2.620
 3716SOL     OW12046   6.374   0.185   4.953
 3716SOL    HW112047   6.283   0.144   4.957
 3716SOL    HW212048   6.396   0.207   4.858
 3717SOL     OW12049   6.332   6.677   6.846
 3717SOL    HW112050   6.346   6.584   6.811
 3717SOL    HW212051   6.381   6.742   6.789
 3718SOL     OW12052   1.766   0.963   6.877
 3718SOL    HW112053   1.862   0.976   6.901
 3718SOL    HW212054   1.721   0.906   6.946
 3719SOL     OW12055   5.142   4.027   1.707
 3719SOL    HW112056   5.111   4.100   1.768
 3719SOL    HW212057   5.240   4.012   1.722
 3720SOL     OW12058   6.031   2.547   6.407
 3720SOL    HW112059   6.069   2.523   6.317
 3720SOL    HW212060   5.983   2.635   6.400
 3721SOL     OW12061   6.233   4.441   1.738
 3721SOL    HW112062   6.311   4.413   1.793
 3721SOL    HW212063   6.152   4.389   1.767
 3722SOL     OW12064   6.286   6.165   0.939
 3722SOL    HW112065   6.383   6.143   0.926
 3722SOL    HW212066   6.274   6.209   1.028
 3723SOL     OW12067   6.064   5.457   1.687
 3723SOL    HW112068   6.112   5.508   1.615
 3723SOL    HW212069   6.130   5.406   1.741
 3724SOL     OW12070   1.742   4.410   4.408
 3724SOL    HW112071   1.687   4.472   4.352
 3724SOL    HW212072   1.688   4.382   4.488
 3725SOL     OW12073   6.356   5.961   0.676
 3725SOL    HW112074   6.447   5.976   0.715
 3725SOL    HW212075   6.306   5.893   0.730
 3726SOL     OW12076   5.873   3.831   0.607
 3726SOL    HW112077   5.945   3.789   0.552
 3726SOL    HW212078   5.806   3.762   0.634
 3727SOL     OW12079   0.046   1.698   4.863
 3727SOL    HW112080   0.049   1.756   4.782
 3727SOL    HW212081   0.091   1.745   4.939
 3728SOL     OW12082   1.518   3.927   6.686
 3728SOL    HW112083   1.593   3.862   6.688
 3728SOL    HW212084   1.441   3.889   6.635
 3729SOL     OW12085   0.945   2.665   3.649
 3729SOL    HW112086   0.882   2.738   3.621
 3729SOL    HW212087   0.924   2.638   3.743
 3730SOL     OW12088   2.472   5.298   6.119
 3730SOL    HW112089   2.518   5.368   6.065
 3730SOL    HW212090   2.381   5.280   6.082
 3731SOL     OW12091   6.780   1.893   0.860
 3731SOL    HW112092   6.730   1.905   0.945
 3731SOL    HW212093   6.849   1.965   0.851
 3732SOL     OW12094   2.987   1.410   0.480
 3732SOL    HW112095   3.026   1.484   0.535
 3732SOL    HW212096   2.887   1.417   0.482
 3733SOL     OW12097   1.102   3.808   2.829
 3733SOL    HW112098   1.108   3.849   2.739
 3733SOL    HW212099   1.119   3.709   2.822
 3734SOL     OW12100   4.984   0.450   2.053
 3734SOL    HW112101   5.084   0.455   2.050
 3734SOL    HW212102   4.955   0.356   2.037
 3735SOL     OW12103   2.157   1.092   3.705
 3735SOL    HW112104   2.222   1.064   3.634
 3735SOL    HW212105   2.093   1.159   3.667
 3736SOL     OW12106   6.997   2.179   1.035
 3736SOL    HW112107   7.019   2.191   1.131
 3736SOL    HW212108   6.898   2.182   1.022
 3737SOL     OW12109   5.201   1.295   3.715
 3737SOL    HW112110   5.265   1.297   3.792
 3737SOL    HW212111   5.175   1.200   3.696
 3738SOL     OW12112   0.180   0.119   2.492
 3738SOL    HW112113   0.142   0.169   2.570
 3738SOL    HW212114   0.279   0.109   2.505
 3739SOL     OW12115   2.164   4.724   1.397
 3739SOL    HW112116   2.262   4.719   1.419
 3739SOL    HW212117   2.152   4.720   1.298
 3740SOL     OW12118   5.593   1.029   1.007
 3740SOL    HW112119   5.674   1.087   1.022
 3740SOL    HW212120   5.615   0.957   0.941
 3741SOL     OW12121   5.204   2.853   0.076
 3741SOL    HW112122   5.241   2.801   0.153
 3741SOL    HW212123   5.270   2.923   0.049
 3742SOL     OW12124   2.513   2.002   0.120
 3742SOL    HW112125   2.418   1.989   0.149
 3742SOL    HW212126   2.515   2.062   0.040
 3743SOL     OW12127   5.385   3.758   0.782
 3743SOL    HW112128   5.391   3.766   0.881
 3743SOL    HW212129   5.403   3.847   0.740
 3744SOL     OW12130   1.678   6.278   2.266
 3744SOL    HW112131   1.761   6.271   2.321
 3744SOL    HW212132   1.601   6.303   2.325
 3745SOL     OW12133   4.298   4.992   1.606
 3745SOL    HW112134   4.290   4.917   1.541
 3745SOL    HW212135   4.380   4.981   1.661
 3746SOL     OW12136   5.492   0.793   3.035
 3746SOL    HW112137   5.586   0.762   3.054
 3746SOL    HW212138   5.484   0.816   2.938
 3747SOL     OW12139   2.878   6.557   5.021
 3747SOL    HW112140   2.950   6.487   5.016
 3747SOL    HW212141   2.918   6.644   5.049
 3748SOL     OW12142   5.454   1.180   1.330
 3748SOL    HW112143   5.416   1.172   1.238
 3748SOL    HW212144   5.507   1.264   1.338
 3749SOL     OW12145   1.741   5.367   3.531
 3749SOL    HW112146   1.748   5.284   3.587
 3749SOL    HW212147   1.715   5.444   3.589
 3750SOL     OW12148   0.669   4.317   1.200
 3750SOL    HW112149   0.745   4.252   1.186
 3750SOL    HW212150   0.649   4.364   1.115
 3751SOL     OW12151   6.715   3.486   1.465
 3751SOL    HW112152   6.772   3.507   1.386
 3751SOL    HW212153   6.679   3.393   1.457
 3752SOL     OW12154   5.427   0.369   0.643
 3752SOL    HW112155   5.378   0.405   0.722
 3752SOL    HW212156   5.421   0.270   0.642
 3753SOL     OW12157   6.079   6.858   4.628
 3753SOL    HW112158   6.052   6.931   4.565
 3753SOL    HW212159   6.005   6.791   4.635
 3754SOL     OW12160   2.884   1.029   1.230
 3754SOL    HW112161   2.903   0.931   1.227
 3754SOL    HW212162   2.787   1.044   1.247
 3755SOL     OW12163   4.878   5.206   4.292
 3755SOL    HW112164   4.827   5.121   4.286
 3755SOL    HW212165   4.950   5.198   4.361
 3756SOL     OW12166   3.028   4.998   6.634
 3756SOL    HW112167   3.026   5.086   6.681
 3756SOL    HW212168   3.104   4.943   6.670
 3757SOL     OW12169   5.378   6.236   0.028
 3757SOL    HW112170   5.333   6.323   0.010
 3757SOL    HW212171   5.318   6.161   7.027
 3758SOL     OW12172   2.487   1.014   4.773
 3758SOL    HW112173   2.443   1.101   4.753
 3758SOL    HW212174   2.582   1.031   4.802
 3759SOL     OW12175   4.314   0.093   6.505
 3759SOL    HW112176   4.230   0.093   6.451
 3759SOL    HW212177   4.320   0.178   6.556
 3760SOL     OW12178   2.021   1.365   4.501
 3760SOL    HW112179   1.922   1.381   4.497
 3760SOL    HW212180   2.067   1.420   4.431
 3761SOL     OW12181   1.077   1.155   4.793
 3761SOL    HW112182   1.156   1.146   4.732
 3761SOL    HW212183   1.106   1.138   4.887
 3762SOL     OW12184   1.670   4.724   1.373
 3762SOL    HW112185   1.687   4.643   1.316
 3762SOL    HW212186   1.705   4.805   1.327
 3763SOL     OW12187   6.594   3.958   1.073
 3763SOL    HW112188   6.512   3.995   1.117
 3763SOL    HW212189   6.629   3.882   1.128
 3764SOL     OW12190   1.535   0.279   2.378
 3764SOL    HW112191   1.491   0.219   2.311
 3764SOL    HW212192   1.616   0.234   2.415
 3765SOL     OW12193   4.789   1.801   1.176
 3765SOL    HW112194   4.840   1.864   1.118
 3765SOL    HW212195   4.723   1.751   1.120
 3766SOL     OW12196   2.496   1.513   4.508
 3766SOL    HW112197   2.532   1.533   4.417
 3766SOL    HW212198   2.430   1.583   4.534
 3767SOL     OW12199   2.066   4.709   6.796
 3767SOL    HW112200   2.037   4.779   6.860
 3767SOL    HW212201   1.993   4.641   6.784
 3768SOL     OW12202   0.965   6.364   4.308
 3768SOL    HW112203   0.973   6.439   4.241
 3768SOL    HW212204   0.871   6.357   4.339
 3769SOL     OW12205   6.145   6.047   4.459
 3769SOL    HW112206   6.063   6.028   4.513
 3769SOL    HW212207   6.132   6.131   4.407
 3770SOL     OW12208   1.435   0.777   6.126
 3770SOL    HW112209   1.489   0.855   6.156
 3770SOL    HW212210   1.496   0.703   6.097
 3771SOL     OW12211   5.311   2.947   0.415
 3771SOL    HW112212   5.308   2.989   0.506
 3771SOL    HW212213   5.238   2.984   0.358
 3772SOL     OW12214   0.439   1.235   0.084
 3772SOL    HW112215   0.348   1.212   0.121
 3772SOL    HW212216   0.431   1.249   7.014
 3773SOL     OW12217   5.767   3.566   5.611
 3773SOL    HW112218   5.758   3.596   5.706
 3773SOL    HW212219   5.791   3.469   5.609
 3774SOL     OW12220   6.173   5.838   1.382
 3774SOL    HW112221   6.215   5.913   1.332
 3774SOL    HW212222   6.076   5.833   1.359
 3775SOL     OW12223   4.503   5.118   2.339
 3775SOL    HW112224   4.444   5.066   2.402
 3775SOL    HW212225   4.459   5.205   2.316
 3776SOL     OW12226   4.593   2.001   6.475
 3776SOL    HW112227   4.671   1.963   6.524
 3776SOL    HW212228   4.516   2.012   6.538
 3777SOL     OW12229   3.627   5.797   3.426
 3777SOL    HW112230   3.650   5.880   3.476
 3777SOL    HW212231   3.601   5.725   3.490
 3778SOL     OW12232   2.919   5.002   2.632
 3778SOL    HW112233   2.822   4.996   2.611
 3778SOL    HW212234   2.973   4.975   2.552
 3779SOL     OW12235   1.036   4.833   0.389
 3779SOL    HW112236   1.042   4.918   0.441
 3779SOL    HW212237   1.121   4.782   0.398
 3780SOL     OW12238   5.783   5.188   4.525
 3780SOL    HW112239   5.694   5.228   4.548
 3780SOL    HW212240   5.851   5.260   4.516
 3781SOL     OW12241   0.514   6.427   4.539
 3781SOL    HW112242   0.494   6.335   4.573
 3781SOL    HW212243   0.430   6.469   4.505
 3782SOL     OW12244   2.555   6.946   3.183
 3782SOL    HW112245   2.646   6.909   3.196
 3782SOL    HW212246   2.489   6.872   3.170
 3783SOL     OW12247   5.679   5.227   3.622
 3783SOL    HW112248   5.694   5.288   3.544
 3783SOL    HW212249   5.623   5.149   3.594
 3784SOL     OW12250   4.572   2.496   3.068
 3784SOL    HW112251   4.493   2.482   3.008
 3784SOL    HW212252   4.609   2.588   3.054
 3785SOL     OW12253   1.878   3.553   5.723
 3785SOL    HW112254   1.910   3.462   5.699
 3785SOL    HW212255   1.790   3.547   5.770
 3786SOL     OW12256   2.350   5.041   2.913
 3786SOL    HW112257   2.379   5.116   2.971
 3786SOL    HW212258   2.430   4.995   2.874
 3787SOL     OW12259   5.704   1.300   3.175
 3787SOL    HW112260   5.760   1.329   3.098
 3787SOL    HW212261   5.682   1.203   3.166
 3788SOL     OW12262   0.056   5.192   4.660
 3788SOL    HW112263   0.063   5.234   4.751
 3788SOL    HW212264   0.148   5.171   4.626
 3789SOL     OW12265   0.027   2.772   4.650
 3789SOL    HW112266   7.024   2.694   4.703
 3789SOL    HW212267   7.013   2.771   4.559
 3790SOL     OW12268   1.214   4.155   6.040
 3790SOL    HW112269   1.232   4.117   5.949
 3790SOL    HW212270   1.123   4.197   6.041
 3791SOL     OW12271   5.063   1.513   6.556
 3791SOL    HW112272   5.012   1.598   6.542
 3791SOL    HW212273   5.031   1.444   6.492
 3792SOL     OW12274   1.226   2.538   3.966
 3792SOL    HW112275   1.241   2.446   4.002
 3792SOL    HW212276   1.199   2.599   4.041
 3793SOL     OW12277   4.796   6.075   1.990
 3793SOL    HW112278   4.772   6.062   1.894
 3793SOL    HW212279   4.863   6.149   1.999
 3794SOL     OW12280   2.091   2.827   1.121
 3794SOL    HW112281   2.171   2.843   1.179
 3794SOL    HW212282   2.041   2.747   1.154
 3795SOL     OW12283   4.253   6.036   0.963
 3795SOL    HW112284   4.261   6.113   0.900
 3795SOL    HW212285   4.324   6.041   1.032
 3796SOL     OW12286   3.298   2.030   2.026
 3796SOL    HW112287   3.266   2.048   2.119
 3796SOL    HW212288   3.255   2.095   1.963
 3797SOL     OW12289   0.237   3.512   1.952
 3797SOL    HW112290   0.233   3.499   2.051
 3797SOL    HW212291   0.218   3.424   1.906
 3798SOL     OW12292   2.654   5.179   2.965
 3798SOL    HW112293   2.558   5.184   2.992
 3798SOL    HW212294   2.712   5.189   3.046
 3799SOL     OW12295   6.612   2.358   3.690
 3799SOL    HW112296   6.650   2.266   3.677
 3799SOL    HW212297   6.676   2.414   3.742
 3800SOL     OW12298   5.857   2.866   4.351
 3800SOL    HW112299   5.773   2.918   4.345
 3800SOL    HW212300   5.935   2.923   4.326
 3801SOL     OW12301   6.006   6.887   2.151
 3801SOL    HW112302   6.017   6.823   2.075
 3801SOL    HW212303   5.962   6.840   2.228
 3802SOL     OW12304   1.448   2.223   1.725
 3802SOL    HW112305   1.507   2.303   1.723
 3802SOL    HW212306   1.446   2.180   1.635
 3803SOL     OW12307   4.054   3.095   2.218
 3803SOL    HW112308   4.037   3.000   2.247
 3803SOL    HW212309   4.073   3.096   2.120
 3804SOL     OW12310   4.518   1.474   4.059
 3804SOL    HW112311   4.616   1.463   4.074
 3804SOL    HW212312   4.468   1.453   4.143
 3805SOL     OW12313   2.339   2.837   1.250
 3805SOL    HW112314   2.392   2.888   1.318
 3805SOL    HW212315   2.379   2.746   1.238
 3806SOL     OW12316   3.442   3.529   6.210
 3806SOL    HW112317   3.422   3.627   6.215
 3806SOL    HW212318   3.454   3.503   6.114
 3807SOL     OW12319   1.503   6.213   2.739
 3807SOL    HW112320   1.568   6.203   2.814
 3807SOL    HW212321   1.498   6.308   2.710
 3808SOL     OW12322   4.674   1.020   0.908
 3808SOL    HW112323   4.589   1.056   0.868
 3808SOL    HW212324   4.751   1.074   0.876
 3809SOL     OW12325   5.595   2.578   1.734
 3809SOL    HW112326   5.626   2.656   1.788
 3809SOL    HW212327   5.529   2.609   1.665
 3810SOL     OW12328   4.675   2.402   3.729
 3810SOL    HW112329   4.595   2.358   3.689
 3810SOL    HW212330   4.648   2.488   3.771
 3811SOL     OW12331   1.331   5.409   5.030
 3811SOL    HW112332   1.315   5.407   4.931
 3811SOL    HW212333   1.290   5.327   5.072
 3812SOL     OW12334   4.605   5.513   5.144
 3812SOL    HW112335   4.629   5.596   5.095
 3812SOL    HW212336   4.576   5.442   5.079
 3813SOL     OW12337   4.142   3.241   0.802
 3813SOL    HW112338   4.044   3.225   0.790
 3813SOL    HW212339   4.193   3.176   0.746
 3814SOL     OW12340   0.058   6.996   6.596
 3814SOL    HW112341   0.100   6.983   6.506
 3814SOL    HW212342   0.112   6.948   6.665
 3815SOL     OW12343   4.123   2.464   0.838
 3815SOL    HW112344   4.125   2.543   0.777
 3815SOL    HW212345   4.029   2.447   0.868
 3816SOL     OW12346   1.074   5.532   6.748
 3816SOL    HW112347   1.130   5.593   6.805
 3816SOL    HW212348   0.984   5.574   6.733
 3817SOL     OW12349   4.878   3.549   2.858
 3817SOL    HW112350   4.779   3.556   2.849
 3817SOL    HW212351   4.920   3.536   2.768
 3818SOL     OW12352   6.234   1.166   6.819
 3818SOL    HW112353   6.261   1.084   6.869
 3818SOL    HW212354   6.192   1.139   6.732
 3819SOL     OW12355   5.097   5.375   1.954
 3819SOL    HW112356   5.167   5.304   1.954
 3819SOL    HW212357   5.015   5.342   1.908
 3820SOL     OW12358   5.138   6.885   3.967
 3820SOL    HW112359   5.052   6.886   4.018
 3820SOL    HW212360   5.124   6.924   3.876
 3821SOL     OW12361   2.495   1.533   0.941
 3821SOL    HW112362   2.508   1.510   1.037
 3821SOL    HW212363   2.398   1.551   0.923
 3822SOL     OW12364   2.189   0.013   1.112
 3822SOL    HW112365   2.234   0.102   1.110
 3822SOL    HW212366   2.245   6.975   1.063
 3823SOL     OW12367   3.348   3.640   5.744
 3823SOL    HW112368   3.376   3.612   5.652
 3823SOL    HW212369   3.252   3.668   5.743
 3824SOL     OW12370   7.019   2.751   0.305
 3824SOL    HW112371   0.026   2.658   0.293
 3824SOL    HW212372   0.024   2.788   0.391
 3825SOL     OW12373   0.556   5.374   0.698
 3825SOL    HW112374   0.476   5.328   0.736
 3825SOL    HW212375   0.635   5.362   0.758
 3826SOL     OW12376   1.169   3.359   6.670
 3826SOL    HW112377   1.160   3.385   6.574
 3826SOL    HW212378   1.261   3.380   6.702
 3827SOL     OW12379   1.511   1.301   2.057
 3827SOL    HW112380   1.550   1.219   2.097
 3827SOL    HW212381   1.454   1.276   1.978
 3828SOL     OW12382   3.318   3.595   2.638
 3828SOL    HW112383   3.395   3.578   2.576
 3828SOL    HW212384   3.268   3.677   2.607
 3829SOL     OW12385   1.663   4.939   3.202
 3829SOL    HW112386   1.654   4.937   3.102
 3829SOL    HW212387   1.573   4.933   3.244
 3830SOL     OW12388   0.792   1.493   5.233
 3830SOL    HW112389   0.726   1.460   5.165
 3830SOL    HW212390   0.880   1.449   5.217
 3831SOL     OW12391   4.605   2.508   2.389
 3831SOL    HW112392   4.689   2.554   2.361
 3831SOL    HW212393   4.544   2.498   2.310
 3832SOL     OW12394   5.832   0.786   2.737
 3832SOL    HW112395   5.821   0.884   2.753
 3832SOL    HW212396   5.762   0.755   2.672
 3833SOL     OW12397   0.338   6.580   6.169
 3833SOL    HW112398   0.410   6.592   6.101
 3833SOL    HW212399   0.368   6.618   6.256
 3834SOL     OW12400   4.269   4.424   1.512
 3834SOL    HW112401   4.322   4.468   1.439
 3834SOL    HW212402   4.328   4.362   1.563
 3835SOL     OW12403   3.811   5.555   4.790
 3835SOL    HW112404   3.781   5.633   4.846
 3835SOL    HW212405   3.739   5.486   4.788
 3836SOL     OW12406   1.386   3.874   6.078
 3836SOL    HW112407   1.378   3.807   6.004
 3836SOL    HW212408   1.311   3.940   6.071
 3837SOL     OW12409   4.564   5.147   6.284
 3837SOL    HW112410   4.577   5.245   6.296
 3837SOL    HW212411   4.602   5.119   6.196
 3838SOL     OW12412   0.638   3.958   4.675
 3838SOL    HW112413   0.551   3.944   4.723
 3838SOL    HW212414   0.712   3.915   4.727
 3839SOL     OW12415   5.080   0.738   3.775
 3839SOL    HW112416   5.059   0.710   3.681
 3839SOL    HW212417   5.136   0.668   3.819
 3840SOL     OW12418   2.522   0.509   6.245
 3840SOL    HW112419   2.426   0.484   6.244
 3840SOL    HW212420   2.578   0.427   6.232
 3841SOL     OW12421   6.967   3.302   4.357
 3841SOL    HW112422   7.002   3.255   4.439
 3841SOL    HW212423   6.906   3.242   4.307
 3842SOL     OW12424   1.974   3.085   1.149
 3842SOL    HW112425   2.017   2.995   1.142
 3842SOL    HW212426   1.950   3.117   1.058
 3843SOL     OW12427   6.040   4.723   2.272
 3843SOL    HW112428   6.088   4.657   2.331
 3843SOL    HW212429   5.993   4.674   2.199
 3844SOL     OW12430   0.675   2.780   6.267
 3844SOL    HW112431   0.738   2.804   6.193
 3844SOL    HW212432   0.724   2.782   6.354
 3845SOL     OW12433   3.288   3.346   5.211
 3845SOL    HW112434   3.272   3.445   5.203
 3845SOL    HW212435   3.311   3.324   5.305
 3846SOL     OW12436   0.570   5.439   3.640
 3846SOL    HW112437   0.568   5.465   3.543
 3846SOL    HW212438   0.586   5.341   3.647
 3847SOL     OW12439   5.376   1.095   5.016
 3847SOL    HW112440   5.279   1.115   5.029
 3847SOL    HW212441   5.430   1.175   5.040
 3848SOL     OW12442   4.418   5.608   3.136
 3848SOL    HW112443   4.473   5.567   3.062
 3848SOL    HW212444   4.480   5.647   3.204
 3849SOL     OW12445   1.369   1.463   5.652
 3849SOL    HW112446   1.425   1.546   5.659
 3849SOL    HW212447   1.364   1.419   5.742
 3850SOL     OW12448   1.859   3.226   0.948
 3850SOL    HW112449   1.766   3.195   0.931
 3850SOL    HW212450   1.860   3.326   0.960
 3851SOL     OW12451   0.845   4.649   2.281
 3851SOL    HW112452   0.813   4.587   2.352
 3851SOL    HW212453   0.944   4.636   2.267
 3852SOL     OW12454   4.062   6.498   4.032
 3852SOL    HW112455   4.133   6.443   4.078
 3852SOL    HW212456   3.975   6.485   4.079
 3853SOL     OW12457   1.296   4.105   3.287
 3853SOL    HW112458   1.217   4.148   3.329
 3853SOL    HW212459   1.288   4.110   3.187
 3854SOL     OW12460   1.866   3.141   2.356
 3854SOL    HW112461   1.865   3.238   2.333
 3854SOL    HW212462   1.805   3.125   2.434
 3855SOL     OW12463   5.390   6.832   6.612
 3855SOL    HW112464   5.337   6.896   6.556
 3855SOL    HW212465   5.469   6.799   6.560
 3856SOL     OW12466   0.124   0.472   5.838
 3856SOL    HW112467   0.214   0.515   5.825
 3856SOL    HW212468   0.063   0.499   5.763
 3857SOL     OW12469   0.367   5.918   0.012
 3857SOL    HW112470   0.295   5.884   6.979
 3857SOL    HW212471   0.442   5.852   0.014
 3858SOL     OW12472   1.554   0.403   5.558
 3858SOL    HW112473   1.578   0.482   5.501
 3858SOL    HW212474   1.495   0.342   5.507
 3859SOL     OW12475   6.261   1.410   2.896
 3859SOL    HW112476   6.245   1.475   2.970
 3859SOL    HW212477   6.176   1.394   2.845
 3860SOL     OW12478   2.851   0.442   5.588
 3860SOL    HW112479   2.801   0.523   5.557
 3860SOL    HW212480   2.899   0.463   5.673
 3861SOL     OW12481   4.885   4.527   3.265
 3861SOL    HW112482   4.971   4.572   3.288
 3861SOL    HW212483   4.827   4.589   3.213
 3862SOL     OW12484   1.460   0.121   5.500
 3862SOL    HW112485   1.548   0.074   5.491
 3862SOL    HW212486   1.419   0.098   5.589
 3863SOL     OW12487   4.663   3.075   6.668
 3863SOL    HW112488   4.682   3.080   6.766
 3863SOL    HW212489   4.741   3.032   6.622
 3864SOL     OW12490   2.603   0.321   5.508
 3864SOL    HW112491   2.546   0.326   5.590
 3864SOL    HW212492   2.692   0.363   5.527
 3865SOL     OW12493   3.497   6.741   6.924
 3865SOL    HW112494   3.445   6.755   7.008
 3865SOL    HW212495   3.591   6.717   6.946
 3866SOL     OW12496   3.709   0.713   1.674
 3866SOL    HW112497   3.736   0.807   1.696
 3866SOL    HW212498   3.611   0.710   1.657
 3867SOL     OW12499   1.517   4.304   3.930
 3867SOL    HW112500   1.424   4.277   3.904
 3867SOL    HW212501   1.537   4.271   4.022
 3868SOL     OW12502   3.511   6.935   0.280
 3868SOL    HW112503   3.525   6.977   0.190
 3868SOL    HW212504   3.600   6.925   0.325
 3869SOL     OW12505   5.987   4.357   5.183
 3869SOL    HW112506   6.084   4.347   5.162
 3869SOL    HW212507   5.975   4.376   5.280
 3870SOL     OW12508   4.311   5.537   6.904
 3870SOL    HW112509   4.345   5.630   6.889
 3870SOL    HW212510   4.252   5.535   6.984
 3871SOL     OW12511   3.457   0.311   2.719
 3871SOL    HW112512   3.398   0.231   2.705
 3871SOL    HW212513   3.454   0.370   2.639
 3872SOL     OW12514   3.689   3.173   2.880
 3872SOL    HW112515   3.781   3.169   2.918
 3872SOL    HW212516   3.631   3.107   2.928
 3873SOL     OW12517   5.741   3.167   2.193
 3873SOL    HW112518   5.755   3.153   2.291
 3873SOL    HW212519   5.760   3.263   2.170
 3874SOL     OW12520   3.790   5.861   6.927
 3874SOL    HW112521   3.729   5.799   6.878
 3874SOL    HW212522   3.857   5.899   6.862
 3875SOL     OW12523   1.865   2.437   1.740
 3875SOL    HW112524   1.819   2.524   1.757
 3875SOL    HW212525   1.826   2.367   1.800
 3876SOL     OW12526   4.651   4.959   0.602
 3876SOL    HW112527   4.608   4.898   0.669
 3876SOL    HW212528   4.581   5.015   0.558
 3877SOL     OW12529   6.732   2.937   6.876
 3877SOL    HW112530   6.799   2.873   6.837
 3877SOL    HW212531   6.714   2.913   6.971
 3878SOL     OW12532   2.969   6.646   4.501
 3878SOL    HW112533   3.019   6.732   4.486
 3878SOL    HW212534   2.887   6.665   4.556
 3879SOL     OW12535   4.652   6.221   1.458
 3879SOL    HW112536   4.559   6.252   1.437
 3879SOL    HW212537   4.713   6.300   1.463
 3880SOL     OW12538   6.404   4.784   3.866
 3880SOL    HW112539   6.465   4.863   3.861
 3880SOL    HW212540   6.311   4.815   3.884
 3881SOL     OW12541   1.097   4.401   0.917
 3881SOL    HW112542   1.043   4.479   0.886
 3881SOL    HW212543   1.074   4.381   1.013
 3882SOL     OW12544   0.913   1.752   4.970
 3882SOL    HW112545   0.849   1.807   4.916
 3882SOL    HW212546   0.893   1.763   5.067
 3883SOL     OW12547   4.335   0.979   3.781
 3883SOL    HW112548   4.404   0.906   3.778
 3883SOL    HW212549   4.249   0.942   3.818
 3884SOL     OW12550   0.996   4.990   3.436
 3884SOL    HW112551   0.922   5.050   3.465
 3884SOL    HW212552   1.037   4.946   3.515
 3885SOL     OW12553   6.305   0.610   2.734
 3885SOL    HW112554   6.327   0.696   2.688
 3885SOL    HW212555   6.294   0.628   2.832
 3886SOL     OW12556   6.684   6.137   4.925
 3886SOL    HW112557   6.698   6.198   4.847
 3886SOL    HW212558   6.666   6.044   4.893
 3887SOL     OW12559   6.552   1.015   6.343
 3887SOL    HW112560   6.565   0.974   6.434
 3887SOL    HW212561   6.603   1.101   6.338
 3888SOL     OW12562   0.936   0.201   6.509
 3888SOL    HW112563   0.903   0.265   6.439
 3888SOL    HW212564   1.033   0.183   6.494
 3889SOL     OW12565   6.403   3.468   5.939
 3889SOL    HW112566   6.441   3.399   6.000
 3889SOL    HW212567   6.339   3.526   5.991
 3890SOL     OW12568   5.622   5.688   2.624
 3890SOL    HW112569   5.559   5.766   2.632
 3890SOL    HW212570   5.704   5.706   2.678
 3891SOL     OW12571   5.527   4.720   4.209
 3891SOL    HW112572   5.443   4.740   4.159
 3891SOL    HW212573   5.535   4.782   4.288
 3892SOL     OW12574   7.011   2.135   1.602
 3892SOL    HW112575   6.923   2.147   1.556
 3892SOL    HW212576   0.026   2.052   1.568
 3893SOL     OW12577   3.216   5.276   1.020
 3893SOL    HW112578   3.219   5.220   1.102
 3893SOL    HW212579   3.268   5.360   1.035
 3894SOL     OW12580   2.685   1.900   0.813
 3894SOL    HW112581   2.636   1.883   0.728
 3894SOL    HW212582   2.763   1.838   0.820
 3895SOL     OW12583   1.353   0.390   5.327
 3895SOL    HW112584   1.370   0.447   5.246
 3895SOL    HW212585   1.363   0.294   5.302
 3896SOL     OW12586   0.435   2.029   6.523
 3896SOL    HW112587   0.492   1.999   6.599
 3896SOL    HW212588   0.388   1.950   6.483
 3897SOL     OW12589   3.421   6.696   1.926
 3897SOL    HW112590   3.345   6.727   1.983
 3897SOL    HW212591   3.468   6.620   1.972
 3898SOL     OW12592   3.535   3.718   4.016
 3898SOL    HW112593   3.550   3.619   4.011
 3898SOL    HW212594   3.557   3.750   4.108
 3899SOL     OW12595   4.840   1.147   4.455
 3899SOL    HW112596   4.884   1.122   4.541
 3899SOL    HW212597   4.888   1.104   4.378
 3900SOL     OW12598   5.113   2.470   3.933
 3900SOL    HW112599   5.204   2.511   3.939
 3900SOL    HW212600   5.108   2.412   3.851
 3901SOL     OW12601   3.165   6.127   5.375
 3901SOL    HW112602   3.086   6.068   5.392
 3901SOL    HW212603   3.138   6.222   5.385
 3902SOL     OW12604   5.967   3.670   1.668
 3902SOL    HW112605   5.953   3.600   1.738
 3902SOL    HW212606   5.908   3.651   1.590
 3903SOL     OW12607   5.164   4.594   6.787
 3903SOL    HW112608   5.248   4.644   6.810
 3903SOL    HW212609   5.157   4.586   6.688
 3904SOL     OW12610   2.320   6.404   5.497
 3904SOL    HW112611   2.419   6.389   5.496
 3904SOL    HW212612   2.298   6.485   5.443
 3905SOL     OW12613   6.066   6.965   5.705
 3905SOL    HW112614   6.132   6.899   5.740
 3905SOL    HW212615   5.979   6.954   5.752
 3906SOL     OW12616   2.088   5.236   5.417
 3906SOL    HW112617   2.029   5.311   5.447
 3906SOL    HW212618   2.043   5.186   5.343
 3907SOL     OW12619   6.534   6.744   4.363
 3907SOL    HW112620   6.538   6.843   4.351
 3907SOL    HW212621   6.444   6.718   4.397
 3908SOL     OW12622   1.359   1.112   6.621
 3908SOL    HW112623   1.357   1.206   6.656
 3908SOL    HW212624   1.453   1.078   6.622
 3909SOL     OW12625   6.997   4.750   6.498
 3909SOL    HW112626   6.978   4.654   6.519
 3909SOL    HW212627   7.016   4.760   6.401
 3910SOL     OW12628   3.786   3.962   1.914
 3910SOL    HW112629   3.709   4.006   1.961
 3910SOL    HW212630   3.760   3.869   1.888
 3911SOL     OW12631   4.621   1.495   6.897
 3911SOL    HW112632   4.537   1.441   6.890
 3911SOL    HW212633   4.660   1.484   6.988
 3912SOL     OW12634   3.660   1.544   6.215
 3912SOL    HW112635   3.569   1.525   6.177
 3912SOL    HW212636   3.698   1.626   6.173
 3913SOL     OW12637   2.725   6.176   6.864
 3913SOL    HW112638   2.717   6.275   6.847
 3913SOL    HW212639   2.784   6.161   6.943
 3914SOL     OW12640   5.093   0.595   1.215
 3914SOL    HW112641   5.124   0.534   1.287
 3914SOL    HW212642   4.995   0.612   1.224
 3915SOL     OW12643   4.195   6.425   0.860
 3915SOL    HW112644   4.143   6.340   0.871
 3915SOL    HW212645   4.175   6.465   0.770
 3916SOL     OW12646   2.068   6.607   2.394
 3916SOL    HW112647   2.051   6.610   2.296
 3916SOL    HW212648   2.165   6.591   2.410
 3917SOL     OW12649   1.331   4.378   0.757
 3917SOL    HW112650   1.232   4.375   0.774
 3917SOL    HW212651   1.352   4.333   0.670
 3918SOL     OW12652   4.287   6.552   1.940
 3918SOL    HW112653   4.344   6.565   1.860
 3918SOL    HW212654   4.317   6.613   2.014
 3919SOL     OW12655   3.358   0.127   6.641
 3919SOL    HW112656   3.340   0.168   6.552
 3919SOL    HW212657   3.302   0.045   6.652
 3920SOL     OW12658   2.256   2.165   5.945
 3920SOL    HW112659   2.198   2.218   6.007
 3920SOL    HW212660   2.315   2.104   5.998
 3921SOL     OW12661   6.837   2.808   0.090
 3921SOL    HW112662   6.807   2.718   0.056
 3921SOL    HW212663   6.872   2.799   0.183
 3922SOL     OW12664   4.410   4.856   0.360
 3922SOL    HW112665   4.350   4.776   0.356
 3922SOL    HW212666   4.391   4.908   0.444
 3923SOL     OW12667   6.444   2.000   0.527
 3923SOL    HW112668   6.408   1.954   0.608
 3923SOL    HW212669   6.503   1.936   0.476
 3924SOL     OW12670   0.440   4.768   3.350
 3924SOL    HW112671   0.516   4.741   3.409
 3924SOL    HW212672   0.357   4.720   3.377
 3925SOL     OW12673   4.343   4.380   0.865
 3925SOL    HW112674   4.298   4.290   0.870
 3925SOL    HW212675   4.442   4.368   0.878
 3926SOL     OW12676   6.929   0.098   4.469
 3926SOL    HW112677   6.916   0.111   4.371
 3926SOL    HW212678   6.846   0.059   4.509
 3927SOL     OW12679   0.453   2.446   4.411
 3927SOL    HW112680   0.394   2.514   4.455
 3927SOL    HW212681   0.503   2.489   4.336
 3928SOL     OW12682   4.025   5.821   4.696
 3928SOL    HW112683   3.980   5.790   4.780
 3928SOL    HW212684   4.068   5.743   4.651
 3929SOL     OW12685   0.067   1.385   6.461
 3929SOL    HW112686   0.039   1.475   6.426
 3929SOL    HW212687   0.040   1.314   6.396
 3930SOL     OW12688   1.127   2.106   3.281
 3930SOL    HW112689   1.226   2.116   3.269
 3930SOL    HW212690   1.107   2.014   3.315
 3931SOL     OW12691   1.850   1.614   2.144
 3931SOL    HW112692   1.896   1.621   2.233
 3931SOL    HW212693   1.816   1.521   2.131
 3932SOL     OW12694   1.817   4.140   3.838
 3932SOL    HW112695   1.885   4.114   3.906
 3932SOL    HW212696   1.839   4.232   3.803
 3933SOL     OW12697   1.886   6.739   0.110
 3933SOL    HW112698   1.844   6.772   0.026
 3933SOL    HW212699   1.815   6.726   0.180
 3934SOL     OW12700   0.294   0.822   2.366
 3934SOL    HW112701   0.381   0.808   2.415
 3934SOL    HW212702   0.260   0.914   2.386
 3935SOL     OW12703   1.792   1.007   5.311
 3935SOL    HW112704   1.833   1.029   5.400
 3935SOL    HW212705   1.733   1.083   5.282
 3936SOL     OW12706   6.743   6.308   5.488
 3936SOL    HW112707   6.679   6.271   5.556
 3936SOL    HW212708   6.704   6.298   5.397
 3937SOL     OW12709   6.964   6.350   2.636
 3937SOL    HW112710   6.896   6.397   2.579
 3937SOL    HW212711   6.959   6.251   2.619
 3938SOL     OW12712   6.276   2.979   3.732
 3938SOL    HW112713   6.233   3.035   3.803
 3938SOL    HW212714   6.368   2.953   3.762
 3939SOL     OW12715   2.726   2.129   3.159
 3939SOL    HW112716   2.690   2.103   3.070
 3939SOL    HW212717   2.820   2.096   3.168
 3940SOL     OW12718   3.469   4.971   2.129
 3940SOL    HW112719   3.446   4.952   2.224
 3940SOL    HW212720   3.515   4.891   2.089
 3941SOL     OW12721   6.090   0.401   4.919
 3941SOL    HW112722   6.017   0.351   4.965
 3941SOL    HW212723   6.161   0.426   4.985
 3942SOL     OW12724   0.790   6.167   5.566
 3942SOL    HW112725   0.836   6.154   5.654
 3942SOL    HW212726   0.843   6.123   5.494
 3943SOL     OW12727   0.243   3.357   2.323
 3943SOL    HW112728   0.238   3.286   2.252
 3943SOL    HW212729   0.188   3.329   2.401
 3944SOL     OW12730   5.697   4.017   5.689
 3944SOL    HW112731   5.768   3.948   5.703
 3944SOL    HW212732   5.689   4.038   5.592
 3945SOL     OW12733   0.722   2.447   2.637
 3945SOL    HW112734   0.774   2.393   2.571
 3945SOL    HW212735   0.781   2.472   2.713
 3946SOL     OW12736   7.026   3.915   6.096
 3946SOL    HW112737   7.002   3.955   6.184
 3946SOL    HW212738   0.037   3.824   6.111
 3947SOL     OW12739   5.726   5.273   0.916
 3947SOL    HW112740   5.808   5.253   0.969
 3947SOL    HW212741   5.659   5.200   0.930
 3948SOL     OW12742   0.859   4.944   0.198
 3948SOL    HW112743   0.788   4.999   0.242
 3948SOL    HW212744   0.918   4.904   0.268
 3949SOL     OW12745   5.970   6.756   2.812
 3949SOL    HW112746   5.899   6.780   2.878
 3949SOL    HW212747   6.040   6.828   2.813
 3950SOL     OW12748   3.447   4.101   1.370
 3950SOL    HW112749   3.392   4.172   1.413
 3950SOL    HW212750   3.412   4.082   1.278
 3951SOL     OW12751   0.403   0.436   6.999
 3951SOL    HW112752   0.382   0.532   7.020
 3951SOL    HW212753   0.502   0.422   7.002
 3952SOL     OW12754   6.187   3.608   4.866
 3952SOL    HW112755   6.235   3.615   4.954
 3952SOL    HW212756   6.156   3.514   4.853
 3953SOL     OW12757   3.656   4.529   6.878
 3953SOL    HW112758   3.595   4.558   6.804
 3953SOL    HW212759   3.649   4.430   6.891
 3954SOL     OW12760   5.778   5.491   5.362
 3954SOL    HW112761   5.742   5.401   5.388
 3954SOL    HW212762   5.751   5.558   5.431
 3955SOL     OW12763   4.501   6.592   6.936
 3955SOL    HW112764   4.403   6.609   6.939
 3955SOL    HW212765   4.528   6.537   7.015
 3956SOL     OW12766   1.358   1.935   4.549
 3956SOL    HW112767   1.397   1.970   4.635
 3956SOL    HW212768   1.259   1.947   4.551
 3957SOL     OW12769   4.399   7.017   3.401
 3957SOL    HW112770   4.378   0.068   3.344
 3957SOL    HW212771   4.335   7.012   3.477
 3958SOL     OW12772   6.039   6.969   6.295
 3958SOL    HW112773   5.943   6.953   6.275
 3958SOL    HW212774   6.095   6.928   6.223
 3959SOL     OW12775   3.397   6.400   0.984
 3959SOL    HW112776   3.483   6.438   0.950
 3959SOL    HW212777   3.392   6.302   0.962
 3960SOL     OW12778   5.964   2.197   6.069
 3960SOL    HW112779   6.048   2.146   6.051
 3960SOL    HW212780   5.929   2.173   6.160
 3961SOL     OW12781   5.246   2.806   2.387
 3961SOL    HW112782   5.225   2.903   2.401
 3961SOL    HW212783   5.241   2.759   2.475
 3962SOL     OW12784   1.256   5.753   6.780
 3962SOL    HW112785   1.295   5.799   6.700
 3962SOL    HW212786   1.306   5.783   6.862
 3963SOL     OW12787   5.333   4.713   3.802
 3963SOL    HW112788   5.415   4.769   3.818
 3963SOL    HW212789   5.296   4.732   3.712
 3964SOL     OW12790   4.381   4.761   4.784
 3964SOL    HW112791   4.368   4.699   4.861
 3964SOL    HW212792   4.293   4.780   4.742
 3965SOL     OW12793   4.061   4.135   6.229
 3965SOL    HW112794   4.030   4.062   6.291
 3965SOL    HW212795   4.136   4.185   6.272
 3966SOL     OW12796   6.626   4.991   0.168
 3966SOL    HW112797   6.559   4.946   0.109
 3966SOL    HW212798   6.588   5.002   0.259
 3967SOL     OW12799   1.430   4.435   2.740
 3967SOL    HW112800   1.462   4.512   2.796
 3967SOL    HW212801   1.375   4.469   2.665
 3968SOL     OW12802   6.489   0.598   1.183
 3968SOL    HW112803   6.391   0.580   1.194
 3968SOL    HW212804   6.509   0.611   1.086
 3969SOL     OW12805   0.437   3.507   3.136
 3969SOL    HW112806   0.499   3.584   3.121
 3969SOL    HW212807   0.421   3.496   3.234
 3970SOL     OW12808   4.761   4.853   3.596
 3970SOL    HW112809   4.752   4.924   3.665
 3970SOL    HW212810   4.670   4.823   3.566
 3971SOL     OW12811   2.195   4.808   2.278
 3971SOL    HW112812   2.248   4.803   2.193
 3971SOL    HW212813   2.215   4.728   2.335
 3972SOL     OW12814   1.761   5.613   1.517
 3972SOL    HW112815   1.681   5.661   1.480
 3972SOL    HW212816   1.836   5.678   1.527
 3973SOL     OW12817   2.205   3.970   5.358
 3973SOL    HW112818   2.271   3.985   5.284
 3973SOL    HW212819   2.193   4.054   5.410
 3974SOL     OW12820   2.040   0.940   5.683
 3974SOL    HW112821   2.086   1.000   5.617
 3974SOL    HW212822   1.941   0.950   5.674
 3975SOL     OW12823   5.780   0.205   6.666
 3975SOL    HW112824   5.832   0.204   6.580
 3975SOL    HW212825   5.778   0.112   6.703
 3976SOL     OW12826   2.181   4.947   1.085
 3976SOL    HW112827   2.162   4.972   1.179
 3976SOL    HW212828   2.185   5.030   1.028
 3977SOL     OW12829   3.174   5.032   5.652
 3977SOL    HW112830   3.138   4.964   5.715
 3977SOL    HW212831   3.252   4.994   5.603
 3978SOL     OW12832   5.725   0.631   4.479
 3978SOL    HW112833   5.647   0.671   4.528
 3978SOL    HW212834   5.797   0.699   4.470
 3979SOL     OW12835   2.594   5.996   1.592
 3979SOL    HW112836   2.510   6.014   1.644
 3979SOL    HW212837   2.575   5.928   1.521
 3980SOL     OW12838   0.318   4.536   6.082
 3980SOL    HW112839   0.385   4.609   6.094
 3980SOL    HW212840   0.286   4.535   5.987
 3981SOL     OW12841   1.665   2.022   6.662
 3981SOL    HW112842   1.729   2.099   6.667
 3981SOL    HW212843   1.607   2.021   6.743
 3982SOL     OW12844   2.611   0.786   4.282
 3982SOL    HW112845   2.585   0.794   4.185
 3982SOL    HW212846   2.571   0.861   4.333
 3983SOL     OW12847   3.435   5.755   4.532
 3983SOL    HW112848   3.467   5.843   4.565
 3983SOL    HW212849   3.413   5.761   4.435
 3984SOL     OW12850   2.171   0.436   2.307
 3984SOL    HW112851   2.153   0.494   2.228
 3984SOL    HW212852   2.167   0.340   2.280
 3985SOL     OW12853   2.316   4.426   6.809
 3985SOL    HW112854   2.245   4.451   6.876
 3985SOL    HW212855   2.406   4.442   6.849
 3986SOL     OW12856   6.793   1.323   3.282
 3986SOL    HW112857   6.833   1.342   3.193
 3986SOL    HW212858   6.704   1.368   3.289
 3987SOL     OW12859   1.507   5.755   5.052
 3987SOL    HW112860   1.465   5.668   5.080
 3987SOL    HW212861   1.437   5.814   5.011
 3988SOL     OW12862   3.581   2.733   5.690
 3988SOL    HW112863   3.625   2.740   5.601
 3988SOL    HW212864   3.587   2.639   5.724
 3989SOL     OW12865   6.693   1.443   0.091
 3989SOL    HW112866   6.751   1.522   0.072
 3989SOL    HW212867   6.600   1.461   0.057
 3990SOL     OW12868   6.172   1.483   3.633
 3990SOL    HW112869   6.220   1.522   3.712
 3990SOL    HW212870   6.119   1.404   3.662
 3991SOL     OW12871   6.237   1.534   2.418
 3991SOL    HW112872   6.291   1.450   2.409
 3991SOL    HW212873   6.239   1.564   2.513
 3992SOL     OW12874   4.235   2.140   6.288
 3992SOL    HW112875   4.309   2.112   6.227
 3992SOL    HW212876   4.268   2.213   6.348
 3993SOL     OW12877   1.550   2.049   3.101
 3993SOL    HW112878   1.482   2.099   3.154
 3993SOL    HW212879   1.570   2.099   3.016
 3994SOL     OW12880   1.696   2.851   5.342
 3994SOL    HW112881   1.643   2.895   5.415
 3994SOL    HW212882   1.698   2.910   5.262
 3995SOL     OW12883   2.140   3.689   4.254
 3995SOL    HW112884   2.064   3.739   4.295
 3995SOL    HW212885   2.123   3.675   4.156
 3996SOL     OW12886   1.587   0.747   5.027
 3996SOL    HW112887   1.538   0.666   5.059
 3996SOL    HW212888   1.522   0.813   4.991
 3997SOL     OW12889   4.763   2.930   3.248
 3997SOL    HW112890   4.778   2.978   3.162
 3997SOL    HW212891   4.758   2.996   3.323
 3998SOL     OW12892   4.699   1.660   2.321
 3998SOL    HW112893   4.643   1.583   2.352
 3998SOL    HW212894   4.724   1.646   2.225
 3999SOL     OW12895   5.531   3.488   3.934
 3999SOL    HW112896   5.492   3.497   3.843
 3999SOL    HW212897   5.628   3.466   3.926
 4000SOL     OW12898   3.223   5.576   2.677
 4000SOL    HW112899   3.141   5.518   2.682
 4000SOL    HW212900   3.260   5.573   2.585
 4001SOL     OW12901   1.974   2.915   4.776
 4001SOL    HW112902   1.892   2.898   4.832
 4001SOL    HW212903   2.036   2.838   4.783
 4002SOL     OW12904   2.884   2.884   6.578
 4002SOL    HW112905   2.867   2.898   6.480
 4002SOL    HW212906   2.874   2.787   6.600
 4003SOL     OW12907   2.780   6.982   6.197
 4003SOL    HW112908   2.874   6.989   6.231
 4003SOL    HW212909   2.721   6.943   6.268
 4004SOL     OW12910   6.012   2.407   3.951
 4004SOL    HW112911   5.961   2.402   4.037
 4004SOL    HW212912   5.977   2.484   3.897
 4005SOL     OW12913   5.253   5.084   1.035
 4005SOL    HW112914   5.313   5.007   1.057
 4005SOL    HW212915   5.306   5.168   1.033
 4006SOL     OW12916   4.520   4.784   2.139
 4006SOL    HW112917   4.535   4.774   2.237
 4006SOL    HW212918   4.575   4.859   2.104
 4007SOL     OW12919   0.640   2.782   1.679
 4007SOL    HW112920   0.667   2.694   1.641
 4007SOL    HW212921   0.680   2.856   1.624
 4008SOL     OW12922   3.747   1.710   5.533
 4008SOL    HW112923   3.665   1.655   5.551
 4008SOL    HW212924   3.721   1.791   5.480
 4009SOL     OW12925   4.780   2.816   0.881
 4009SOL    HW112926   4.769   2.854   0.973
 4009SOL    HW212927   4.850   2.744   0.884
 4010SOL     OW12928   1.947   3.395   1.151
 4010SOL    HW112929   2.020   3.426   1.211
 4010SOL    HW212930   1.951   3.296   1.141
 4011SOL     OW12931   0.991   6.899   1.868
 4011SOL    HW112932   1.037   6.811   1.881
 4011SOL    HW212933   0.894   6.889   1.891
 4012SOL     OW12934   4.676   4.729   1.617
 4012SOL    HW112935   4.599   4.753   1.676
 4012SOL    HW212936   4.746   4.682   1.671
 4013SOL     OW12937   2.790   0.473   0.609
 4013SOL    HW112938   2.739   0.514   0.684
 4013SOL    HW212939   2.854   0.405   0.645
 4014SOL     OW12940   4.170   5.658   3.823
 4014SOL    HW112941   4.257   5.696   3.855
 4014SOL    HW212942   4.188   5.577   3.766
 4015SOL     OW12943   4.292   5.069   6.284
 4015SOL    HW112944   4.387   5.092   6.265
 4015SOL    HW212945   4.238   5.154   6.287
 4016SOL     OW12946   0.878   5.267   6.497
 4016SOL    HW112947   0.823   5.345   6.526
 4016SOL    HW212948   0.818   5.193   6.467
 4017SOL     OW12949   0.692   6.443   0.360
 4017SOL    HW112950   0.614   6.505   0.359
 4017SOL    HW212951   0.683   6.379   0.436
 4018SOL     OW12952   5.864   6.410   1.764
 4018SOL    HW112953   5.777   6.457   1.781
 4018SOL    HW212954   5.871   6.331   1.825
 4019SOL     OW12955   5.917   3.871   2.326
 4019SOL    HW112956   5.955   3.950   2.374
 4019SOL    HW212957   5.881   3.900   2.237
 4020SOL     OW12958   6.471   2.650   5.872
 4020SOL    HW112959   6.421   2.614   5.951
 4020SOL    HW212960   6.418   2.723   5.830
 4021SOL     OW12961   2.980   4.036   5.570
 4021SOL    HW112962   2.974   4.016   5.668
 4021SOL    HW212963   2.971   3.952   5.517
 4022SOL     OW12964   4.672   0.143   6.644
 4022SOL    HW112965   4.627   0.063   6.604
 4022SOL    HW212966   4.709   0.119   6.734
 4023SOL     OW12967   6.986   0.786   4.339
 4023SOL    HW112968   6.952   0.826   4.424
 4023SOL    HW212969   6.938   0.826   4.261
 4024SOL     OW12970   3.193   5.188   4.189
 4024SOL    HW112971   3.096   5.197   4.164
 4024SOL    HW212972   3.245   5.262   4.146
 4025SOL     OW12973   0.182   6.202   4.603
 4025SOL    HW112974   0.132   6.286   4.622
 4025SOL    HW212975   0.156   6.132   4.670
 4026SOL     OW12976   6.352   0.197   3.193
 4026SOL    HW112977   6.336   0.119   3.133
 4026SOL    HW212978   6.272   0.211   3.251
 4027SOL     OW12979   2.567   2.776   1.003
 4027SOL    HW112980   2.662   2.773   1.034
 4027SOL    HW212981   2.529   2.867   1.020
 4028SOL     OW12982   2.752   2.268   2.765
 4028SOL    HW112983   2.706   2.241   2.680
 4028SOL    HW212984   2.706   2.348   2.803
 4029SOL     OW12985   2.939   4.712   6.399
 4029SOL    HW112986   3.025   4.745   6.437
 4029SOL    HW212987   2.899   4.644   6.461
 4030SOL     OW12988   1.150   1.700   0.562
 4030SOL    HW112989   1.074   1.649   0.602
 4030SOL    HW212990   1.234   1.647   0.572
 4031SOL     OW12991   4.977   6.344   3.585
 4031SOL    HW112992   4.997   6.280   3.659
 4031SOL    HW212993   5.058   6.398   3.563
 4032SOL     OW12994   6.123   0.154   2.676
 4032SOL    HW112995   6.157   0.152   2.582
 4032SOL    HW212996   6.026   0.180   2.676
 4033SOL     OW12997   3.022   3.743   2.008
 4033SOL    HW112998   3.009   3.799   1.927
 4033SOL    HW212999   3.016   3.646   1.983
 4034SOL     OW13000   0.070   1.564   4.226
 4034SOL    HW113001   0.050   1.592   4.320
 4034SOL    HW213002   0.140   1.493   4.226
 4035SOL     OW13003   6.157   2.553   0.832
 4035SOL    HW113004   6.216   2.624   0.871
 4035SOL    HW213005   6.071   2.594   0.802
 4036SOL     OW13006   5.053   6.677   2.520
 4036SOL    HW113007   5.054   6.715   2.612
 4036SOL    HW213008   5.079   6.581   2.523
 4037SOL     OW13009   2.257   0.926   0.576
 4037SOL    HW113010   2.191   0.901   0.506
 4037SOL    HW213011   2.338   0.867   0.568
 4038SOL     OW13012   4.456   4.084   1.648
 4038SOL    HW113013   4.504   4.113   1.565
 4038SOL    HW213014   4.456   4.159   1.714
 4039SOL     OW13015   4.748   4.313   1.605
 4039SOL    HW113016   4.759   4.249   1.682
 4039SOL    HW213017   4.676   4.378   1.627
 4040SOL     OW13018   3.726   0.100   6.113
 4040SOL    HW113019   3.783   0.139   6.185
 4040SOL    HW213020   3.777   0.098   6.027
 4041SOL     OW13021   1.834   5.276   0.979
 4041SOL    HW113022   1.906   5.337   1.012
 4041SOL    HW213023   1.768   5.328   0.924
 4042SOL     OW13024   6.491   5.566   2.938
 4042SOL    HW113025   6.511   5.656   2.976
 4042SOL    HW213026   6.437   5.513   3.003
 4043SOL     OW13027   5.173   1.713   4.251
 4043SOL    HW113028   5.124   1.707   4.338
 4043SOL    HW213029   5.176   1.808   4.220
 4044SOL     OW13030   4.671   6.987   3.361
 4044SOL    HW113031   4.572   7.000   3.363
 4044SOL    HW213032   4.703   6.992   3.266
 4045SOL     OW13033   2.832   5.276   6.026
 4045SOL    HW113034   2.821   5.210   6.099
 4045SOL    HW213035   2.899   5.242   5.959
 4046SOL     OW13036   1.277   1.294   3.663
 4046SOL    HW113037   1.214   1.326   3.733
 4046SOL    HW213038   1.345   1.234   3.705
 4047SOL     OW13039   1.538   2.239   0.800
 4047SOL    HW113040   1.597   2.221   0.722
 4047SOL    HW213041   1.476   2.162   0.815
 4048SOL     OW13042   5.149   1.987   2.164
 4048SOL    HW113043   5.168   1.895   2.198
 4048SOL    HW213044   5.089   2.034   2.228
 4049SOL     OW13045   6.612   5.691   6.295
 4049SOL    HW113046   6.609   5.710   6.393
 4049SOL    HW213047   6.551   5.754   6.247
 4050SOL     OW13048   1.094   6.373   0.625
 4050SOL    HW113049   1.052   6.447   0.677
 4050SOL    HW213050   1.047   6.363   0.537
 4051SOL     OW13051   3.796   2.691   6.967
 4051SOL    HW113052   3.749   2.678   6.880
 4051SOL    HW213053   3.856   2.612   6.984
 4052SOL     OW13054   6.841   0.666   2.570
 4052SOL    HW113055   6.911   0.607   2.609
 4052SOL    HW213056   6.760   0.665   2.628
 4053SOL     OW13057   3.633   5.055   4.108
 4053SOL    HW113058   3.636   4.999   4.026
 4053SOL    HW213059   3.724   5.089   4.130
 4054SOL     OW13060   6.781   3.434   2.203
 4054SOL    HW113061   6.847   3.500   2.239
 4054SOL    HW213062   6.810   3.404   2.113
 4055SOL     OW13063   3.784   3.219   6.372
 4055SOL    HW113064   3.723   3.297   6.378
 4055SOL    HW213065   3.807   3.188   6.465
 4056SOL     OW13066   3.930   3.937   0.960
 4056SOL    HW113067   3.947   3.840   0.978
 4056SOL    HW213068   3.912   3.949   0.862
 4057SOL     OW13069   5.348   2.225   1.674
 4057SOL    HW113070   5.296   2.139   1.669
 4057SOL    HW213071   5.293   2.294   1.721
 4058SOL     OW13072   1.919   6.894   3.942
 4058SOL    HW113073   1.974   6.903   4.025
 4058SOL    HW213074   1.938   6.971   3.881
 4059SOL     OW13075   1.059   2.692   3.405
 4059SOL    HW113076   0.997   2.665   3.479
 4059SOL    HW213077   1.117   2.766   3.436
 4060SOL     OW13078   4.709   5.353   4.748
 4060SOL    HW113079   4.651   5.409   4.690
 4060SOL    HW213080   4.718   5.261   4.708
 4061SOL     OW13081   3.144   5.188   1.585
 4061SOL    HW113082   3.143   5.090   1.604
 4061SOL    HW213083   3.094   5.207   1.500
 4062SOL     OW13084   2.638   1.889   2.695
 4062SOL    HW113085   2.564   1.828   2.721
 4062SOL    HW213086   2.602   1.981   2.681
 4063SOL     OW13087   5.989   6.308   5.168
 4063SOL    HW113088   5.943   6.395   5.148
 4063SOL    HW213089   6.088   6.320   5.160
 4064SOL     OW13090   1.602   6.518   3.590
 4064SOL    HW113091   1.682   6.564   3.551
 4064SOL    HW213092   1.599   6.423   3.557
 4065SOL     OW13093   6.934   6.968   0.599
 4065SOL    HW113094   7.000   6.904   0.639
 4065SOL    HW213095   6.971   0.032   0.603
 4066SOL     OW13096   5.204   5.953   2.655
 4066SOL    HW113097   5.138   5.942   2.729
 4066SOL    HW213098   5.197   5.876   2.592
 4067SOL     OW13099   5.965   3.505   3.024
 4067SOL    HW113100   5.921   3.463   2.945
 4067SOL    HW213101   6.045   3.558   2.995
 4068SOL     OW13102   3.314   0.345   4.581
 4068SOL    HW113103   3.227   0.337   4.531
 4068SOL    HW213104   3.304   0.411   4.655
 4069SOL     OW13105   4.047   4.674   6.381
 4069SOL    HW113106   4.043   4.607   6.455
 4069SOL    HW213107   3.956   4.684   6.341
 4070SOL     OW13108   0.332   3.877   2.281
 4070SOL    HW113109   0.380   3.903   2.364
 4070SOL    HW213110   0.398   3.872   2.205
 4071SOL     OW13111   1.136   0.932   5.706
 4071SOL    HW113112   1.061   0.866   5.694
 4071SOL    HW213113   1.202   0.895   5.772
 4072SOL     OW13114   0.994   5.787   4.046
 4072SOL    HW113115   0.973   5.833   4.132
 4072SOL    HW213116   1.070   5.834   4.001
 4073SOL     OW13117   2.491   5.756   6.333
 4073SOL    HW113118   2.481   5.772   6.235
 4073SOL    HW213119   2.493   5.657   6.350
 4074SOL     OW13120   0.232   3.118   1.771
 4074SOL    HW113121   0.149   3.081   1.811
 4074SOL    HW213122   0.310   3.059   1.794
 4075SOL     OW13123   4.059   2.232   2.746
 4075SOL    HW113124   4.035   2.246   2.842
 4075SOL    HW213125   4.158   2.236   2.735
 4076SOL     OW13126   3.290   3.607   5.155
 4076SOL    HW113127   3.269   3.703   5.173
 4076SOL    HW213128   3.295   3.592   5.056
 4077SOL     OW13129   3.576   7.026   0.028
 4077SOL    HW113130   3.672   6.997   0.024
 4077SOL    HW213131   3.551   0.042   6.971
 4078SOL     OW13132   6.066   5.711   2.275
 4078SOL    HW113133   6.087   5.785   2.339
 4078SOL    HW213134   6.077   5.623   2.320
 4079SOL     OW13135   0.847   1.848   3.700
 4079SOL    HW113136   0.877   1.942   3.717
 4079SOL    HW213137   0.761   1.832   3.749
 4080SOL     OW13138   2.443   3.603   0.388
 4080SOL    HW113139   2.375   3.670   0.420
 4080SOL    HW213140   2.398   3.515   0.374
 4081SOL     OW13141   1.770   2.286   3.897
 4081SOL    HW113142   1.853   2.301   3.951
 4081SOL    HW213143   1.793   2.289   3.800
 4082SOL     OW13144   1.347   2.648   0.918
 4082SOL    HW113145   1.317   2.554   0.932
 4082SOL    HW213146   1.278   2.698   0.866
 4083SOL     OW13147   6.334   4.064   2.009
 4083SOL    HW113148   6.376   4.095   2.094
 4083SOL    HW213149   6.400   4.010   1.957
 4084SOL     OW13150   4.474   2.255   3.196
 4084SOL    HW113151   4.498   2.232   3.291
 4084SOL    HW213152   4.509   2.346   3.174
 4085SOL     OW13153   2.505   5.552   0.877
 4085SOL    HW113154   2.572   5.539   0.950
 4085SOL    HW213155   2.459   5.466   0.858
 4086SOL     OW13156   0.079   4.539   1.218
 4086SOL    HW113157   0.094   4.507   1.124
 4086SOL    HW213158   0.028   4.470   1.269
 4087SOL     OW13159   1.725   1.747   3.161
 4087SOL    HW113160   1.635   1.788   3.168
 4087SOL    HW213161   1.764   1.766   3.071
 4088SOL     OW13162   6.300   0.804   6.646
 4088SOL    HW113163   6.242   0.805   6.564
 4088SOL    HW213164   6.364   0.881   6.643
 4089SOL     OW13165   6.125   4.757   3.893
 4089SOL    HW113166   6.177   4.706   3.961
 4089SOL    HW213167   6.098   4.845   3.931
 4090SOL     OW13168   1.744   5.603   5.738
 4090SOL    HW113169   1.721   5.679   5.678
 4090SOL    HW213170   1.684   5.525   5.717
 4091SOL     OW13171   0.408   6.112   0.448
 4091SOL    HW113172   0.413   6.062   0.362
 4091SOL    HW213173   0.416   6.047   0.524
 4092SOL     OW13174   5.783   2.454   4.119
 4092SOL    HW113175   5.785   2.422   4.213
 4092SOL    HW213176   5.814   2.549   4.115
 4093SOL     OW13177   4.817   6.473   1.481
 4093SOL    HW113178   4.916   6.485   1.482
 4093SOL    HW213179   4.778   6.507   1.566
 4094SOL     OW13180   1.753   4.884   5.749
 4094SOL    HW113181   1.670   4.899   5.696
 4094SOL    HW213182   1.828   4.934   5.708
 4095SOL     OW13183   0.260   3.939   0.646
 4095SOL    HW113184   0.264   3.851   0.598
 4095SOL    HW213185   0.279   3.925   0.743
 4096SOL     OW13186   4.967   0.824   6.719
 4096SOL    HW113187   5.042   0.765   6.691
 4096SOL    HW213188   4.975   0.913   6.674
 4097SOL     OW13189   4.512   4.517   4.506
 4097SOL    HW113190   4.610   4.506   4.525
 4097SOL    HW213191   4.497   4.516   4.407
 4098SOL     OW13192   0.826   2.067   1.853
 4098SOL    HW113193   0.846   2.153   1.901
 4098SOL    HW213194   0.864   1.990   1.905
 4099SOL     OW13195   4.119   5.343   1.066
 4099SOL    HW113196   4.056   5.334   1.143
 4099SOL    HW213197   4.067   5.365   0.983
 4100SOL     OW13198   0.283   6.514   4.409
 4100SOL    HW113199   0.263   6.537   4.314
 4100SOL    HW213200   0.276   6.596   4.466
 4101SOL     OW13201   0.407   1.604   0.709
 4101SOL    HW113202   0.431   1.663   0.785
 4101SOL    HW213203   0.447   1.513   0.722
 4102SOL     OW13204   0.987   0.775   0.918
 4102SOL    HW113205   0.888   0.773   0.900
 4102SOL    HW213206   1.031   0.702   0.866
 4103SOL     OW13207   0.519   6.855   0.828
 4103SOL    HW113208   0.554   6.910   0.751
 4103SOL    HW213209   0.475   6.916   0.894
 4104SOL     OW13210   0.111   4.704   3.645
 4104SOL    HW113211   0.186   4.674   3.704
 4104SOL    HW213212   0.085   4.629   3.585
 4105SOL     OW13213   5.717   0.578   3.048
 4105SOL    HW113214   5.736   0.525   3.130
 4105SOL    HW213215   5.801   0.622   3.015
 4106SOL     OW13216   6.864   3.056   3.364
 4106SOL    HW113217   6.915   3.061   3.450
 4106SOL    HW213218   6.770   3.025   3.383
 4107SOL     OW13219   1.466   5.626   0.925
 4107SOL    HW113220   1.372   5.607   0.896
 4107SOL    HW213221   1.490   5.720   0.899
 4108SOL     OW13222   6.632   4.948   4.621
 4108SOL    HW113223   6.622   4.857   4.660
 4108SOL    HW213224   6.728   4.975   4.621
 4109SOL     OW13225   6.376   0.312   4.701
 4109SOL    HW113226   6.420   0.402   4.704
 4109SOL    HW213227   6.280   0.323   4.679
 4110SOL     OW13228   4.243   3.577   5.860
 4110SOL    HW113229   4.245   3.572   5.760
 4110SOL    HW213230   4.156   3.615   5.890
 4111SOL     OW13231   5.772   4.662   6.300
 4111SOL    HW113232   5.689   4.614   6.271
 4111SOL    HW213233   5.833   4.675   6.222
 4112SOL     OW13234   4.719   6.241   4.492
 4112SOL    HW113235   4.810   6.248   4.533
 4112SOL    HW213236   4.651   6.222   4.563
 4113SOL     OW13237   5.458   5.679   5.101
 4113SOL    HW113238   5.383   5.677   5.034
 4113SOL    HW213239   5.467   5.588   5.142
 4114SOL     OW13240   3.823   2.105   4.130
 4114SOL    HW113241   3.764   2.103   4.049
 4114SOL    HW213242   3.894   2.175   4.118
 4115SOL     OW13243   3.191   4.968   2.037
 4115SOL    HW113244   3.149   5.027   2.106
 4115SOL    HW213245   3.288   4.955   2.058
 4116SOL     OW13246   3.731   1.523   2.808
 4116SOL    HW113247   3.799   1.507   2.881
 4116SOL    HW213248   3.649   1.469   2.827
 4117SOL     OW13249   0.824   3.499   2.533
 4117SOL    HW113250   0.782   3.590   2.535
 4117SOL    HW213251   0.760   3.434   2.491
 4118SOL     OW13252   5.140   6.572   0.510
 4118SOL    HW113253   5.090   6.498   0.555
 4118SOL    HW213254   5.094   6.597   0.425
 4119SOL     OW13255   2.960   1.719   3.827
 4119SOL    HW113256   2.972   1.641   3.889
 4119SOL    HW213257   2.875   1.709   3.776
 4120SOL     OW13258   3.872   0.739   5.481
 4120SOL    HW113259   3.928   0.821   5.479
 4120SOL    HW213260   3.838   0.723   5.574
 4121SOL     OW13261   6.679   0.036   3.420
 4121SOL    HW113262   6.736   0.117   3.408
 4121SOL    HW213263   6.712   7.011   3.497
 4122SOL     OW13264   1.470   0.181   4.657
 4122SOL    HW113265   1.401   0.190   4.729
 4122SOL    HW213266   1.432   0.128   4.581
 4123SOL     OW13267   4.055   4.793   5.331
 4123SOL    HW113268   4.080   4.866   5.395
 4123SOL    HW213269   4.031   4.710   5.381
 4124SOL     OW13270   6.597   6.368   0.673
 4124SOL    HW113271   6.582   6.384   0.770
 4124SOL    HW213272   6.589   6.454   0.624
 4125SOL     OW13273   4.390   1.922   2.988
 4125SOL    HW113274   4.417   2.009   2.947
 4125SOL    HW213275   4.433   1.913   3.078
 4126SOL     OW13276   1.829   3.202   2.969
 4126SOL    HW113277   1.794   3.275   2.909
 4126SOL    HW213278   1.928   3.193   2.956
 4127SOL     OW13279   5.752   3.715   5.396
 4127SOL    HW113280   5.663   3.695   5.356
 4127SOL    HW213281   5.761   3.667   5.484
 4128SOL     OW13282   0.912   3.295   1.273
 4128SOL    HW113283   0.900   3.196   1.264
 4128SOL    HW213284   1.008   3.316   1.289
 4129SOL     OW13285   3.470   1.075   0.176
 4129SOL    HW113286   3.530   1.017   0.120
 4129SOL    HW213287   3.519   1.157   0.203
 4130SOL     OW13288   6.395   2.704   0.860
 4130SOL    HW113289   6.352   2.712   0.770
 4130SOL    HW213290   6.374   2.785   0.914
 4131SOL     OW13291   0.267   1.282   3.564
 4131SOL    HW113292   0.355   1.261   3.523
 4131SOL    HW213293   0.229   1.364   3.523
 4132SOL     OW13294   4.977   4.056   3.282
 4132SOL    HW113295   5.027   3.973   3.308
 4132SOL    HW213296   5.016   4.093   3.197
 4133SOL     OW13297   3.437   6.047   1.367
 4133SOL    HW113298   3.461   6.141   1.395
 4133SOL    HW213299   3.354   6.050   1.312
 4134SOL     OW13300   2.298   3.745   1.215
 4134SOL    HW113301   2.360   3.803   1.162
 4134SOL    HW213302   2.213   3.794   1.233
 4135SOL     OW13303   0.496   2.121   2.136
 4135SOL    HW113304   0.502   2.183   2.215
 4135SOL    HW213305   0.545   2.160   2.059
 4136SOL     OW13306   1.134   3.148   2.917
 4136SOL    HW113307   1.203   3.138   2.989
 4136SOL    HW213308   1.047   3.173   2.957
 4137SOL     OW13309   1.640   3.710   1.202
 4137SOL    HW113310   1.670   3.720   1.297
 4137SOL    HW213311   1.680   3.784   1.147
 4138SOL     OW13312   3.917   5.608   2.678
 4138SOL    HW113313   3.853   5.676   2.712
 4138SOL    HW213314   3.951   5.553   2.755
 4139SOL     OW13315   1.586   1.747   5.350
 4139SOL    HW113316   1.657   1.680   5.371
 4139SOL    HW213317   1.614   1.837   5.383
 4140SOL     OW13318   3.604   0.908   5.055
 4140SOL    HW113319   3.526   0.858   5.018
 4140SOL    HW213320   3.685   0.849   5.055
 4141SOL     OW13321   4.997   6.237   1.250
 4141SOL    HW113322   4.962   6.219   1.341
 4141SOL    HW213323   4.940   6.306   1.205
 4142SOL     OW13324   6.430   4.870   1.116
 4142SOL    HW113325   6.442   4.832   1.208
 4142SOL    HW213326   6.506   4.931   1.095
 4143SOL     OW13327   5.764   2.478   0.946
 4143SOL    HW113328   5.736   2.415   0.873
 4143SOL    HW213329   5.786   2.425   1.028
 4144SOL     OW13330   4.882   1.681   6.971
 4144SOL    HW113331   4.809   1.613   6.968
 4144SOL    HW213332   4.948   1.662   6.898
 4145SOL     OW13333   0.307   6.327   1.489
 4145SOL    HW113334   0.241   6.309   1.562
 4145SOL    HW213335   0.283   6.412   1.443
 4146SOL     OW13336   6.035   0.431   3.102
 4146SOL    HW113337   6.022   0.504   3.035
 4146SOL    HW213338   6.067   0.349   3.055
 4147SOL     OW13339   4.660   5.093   6.045
 4147SOL    HW113340   4.708   5.008   6.023
 4147SOL    HW213341   4.573   5.096   5.996
 4148SOL     OW13342   2.592   0.256   4.940
 4148SOL    HW113343   2.558   0.239   5.033
 4148SOL    HW213344   2.528   0.218   4.874
 4149SOL     OW13345   6.978   4.060   1.255
 4149SOL    HW113346   6.961   4.118   1.175
 4149SOL    HW213347   6.977   3.964   1.227
 4150SOL     OW13348   1.441   0.467   5.992
 4150SOL    HW113349   1.353   0.419   5.994
 4150SOL    HW213350   1.449   0.518   5.906
 4151SOL     OW13351   3.083   6.028   5.733
 4151SOL    HW113352   3.133   5.946   5.763
 4151SOL    HW213353   3.041   6.010   5.644
 4152SOL     OW13354   4.352   5.495   1.059
 4152SOL    HW113355   4.350   5.555   1.139
 4152SOL    HW213356   4.270   5.439   1.057
 4153SOL     OW13357   6.022   5.482   1.038
 4153SOL    HW113358   6.029   5.452   1.133
 4153SOL    HW213359   6.113   5.507   1.005
 4154SOL     OW13360   6.913   4.882   3.668
 4154SOL    HW113361   6.996   4.827   3.666
 4154SOL    HW213362   6.922   4.954   3.737
 4155SOL     OW13363   0.143   1.062   1.541
 4155SOL    HW113364   0.111   1.074   1.635
 4155SOL    HW213365   0.242   1.045   1.542
 4156SOL     OW13366   6.049   6.181   4.836
 4156SOL    HW113367   6.009   6.106   4.890
 4156SOL    HW213368   6.014   6.268   4.870
 4157SOL     OW13369   4.944   5.607   4.130
 4157SOL    HW113370   4.998   5.655   4.199
 4157SOL    HW213371   4.926   5.669   4.054
 4158SOL     OW13372   0.452   3.280   1.693
 4158SOL    HW113373   0.393   3.201   1.713
 4158SOL    HW213374   0.436   3.311   1.599
 4159SOL     OW13375   2.197   2.866   3.001
 4159SOL    HW113376   2.184   2.965   2.996
 4159SOL    HW213377   2.245   2.843   3.086
 4160SOL     OW13378   5.464   1.050   0.561
 4160SOL    HW113379   5.481   0.994   0.479
 4160SOL    HW213380   5.551   1.068   0.607
 4161SOL     OW13381   1.123   2.151   0.869
 4161SOL    HW113382   1.179   2.113   0.796
 4161SOL    HW213383   1.127   2.090   0.949
 4162SOL     OW13384   6.543   5.938   0.163
 4162SOL    HW113385   6.448   5.952   0.136
 4162SOL    HW213386   6.567   6.004   0.234
 4163SOL     OW13387   5.067   0.534   2.847
 4163SOL    HW113388   5.151   0.559   2.895
 4163SOL    HW213389   5.046   0.603   2.777
 4164SOL     OW13390   1.886   6.547   5.933
 4164SOL    HW113391   1.885   6.607   6.013
 4164SOL    HW213392   1.951   6.473   5.948
 4165SOL     OW13393   4.409   0.702   5.887
 4165SOL    HW113394   4.328   0.744   5.928
 4165SOL    HW213395   4.486   0.710   5.951
 4166SOL     OW13396   5.427   1.794   0.534
 4166SOL    HW113397   5.494   1.720   0.545
 4166SOL    HW213398   5.357   1.766   0.469
 4167SOL     OW13399   2.360   4.344   0.220
 4167SOL    HW113400   2.324   4.293   0.298
 4167SOL    HW213401   2.284   4.388   0.171
 4168SOL     OW13402   7.020   4.329   1.400
 4168SOL    HW113403   6.978   4.250   1.355
 4168SOL    HW213404   0.081   4.304   1.435
 4169SOL     OW13405   5.775   5.380   4.969
 4169SOL    HW113406   5.684   5.353   5.001
 4169SOL    HW213407   5.765   5.443   4.892
 4170SOL     OW13408   4.671   3.502   6.716
 4170SOL    HW113409   4.726   3.571   6.668
 4170SOL    HW213410   4.631   3.542   6.798
 4171SOL     OW13411   6.600   5.940   0.785
 4171SOL    HW113412   6.664   5.979   0.718
 4171SOL    HW213413   6.644   5.863   0.831
 4172SOL     OW13414   1.255   1.996   6.025
 4172SOL    HW113415   1.157   2.009   6.010
 4172SOL    HW213416   1.305   2.074   5.988
 4173SOL     OW13417   5.273   4.304   4.558
 4173SOL    HW113418   5.354   4.272   4.608
 4173SOL    HW213419   5.190   4.272   4.603
 4174SOL     OW13420   4.540   1.453   2.685
 4174SOL    HW113421   4.590   1.531   2.724
 4174SOL    HW213422   4.467   1.425   2.749
 4175SOL     OW13423   2.181   5.582   4.679
 4175SOL    HW113424   2.118   5.656   4.701
 4175SOL    HW213425   2.238   5.608   4.602
 4176SOL     OW13426   3.425   6.177   1.837
 4176SOL    HW113427   3.405   6.202   1.932
 4176SOL    HW213428   3.505   6.228   1.805
 4177SOL     OW13429   5.740   5.199   5.403
 4177SOL    HW113430   5.686   5.156   5.331
 4177SOL    HW213431   5.694   5.188   5.491
 4178SOL     OW13432   4.125   0.027   4.341
 4178SOL    HW113433   4.117   6.974   4.284
 4178SOL    HW213434   4.065   0.098   4.304
 4179SOL     OW13435   5.601   3.149   3.042
 4179SOL    HW113436   5.697   3.166   3.065
 4179SOL    HW213437   5.542   3.183   3.116
 4180SOL     OW13438   4.698   4.310   0.669
 4180SOL    HW113439   4.786   4.265   0.656
 4180SOL    HW213440   4.698   4.361   0.756
 4181SOL     OW13441   3.641   1.044   0.542
 4181SOL    HW113442   3.657   1.083   0.451
 4181SOL    HW213443   3.544   1.023   0.552
 4182SOL     OW13444   1.122   6.653   3.800
 4182SOL    HW113445   1.140   6.555   3.807
 4182SOL    HW213446   1.152   6.686   3.711
 4183SOL     OW13447   2.923   1.507   0.056
 4183SOL    HW113448   2.830   1.541   0.065
 4183SOL    HW213449   2.941   1.483   6.989
 4184SOL     OW13450   4.146   6.349   2.486
 4184SOL    HW113451   4.067   6.406   2.506
 4184SOL    HW213452   4.219   6.404   2.445
 4185SOL     OW13453   0.780   4.782   2.826
 4185SOL    HW113454   0.722   4.850   2.870
 4185SOL    HW213455   0.817   4.819   2.740
 4186SOL     OW13456   3.114   4.861   7.026
 4186SOL    HW113457   3.110   4.778   0.054
 4186SOL    HW213458   3.032   4.866   6.969
 4187SOL     OW13459   3.908   3.532   5.584
 4187SOL    HW113460   3.834   3.490   5.636
 4187SOL    HW213461   3.953   3.463   5.527
 4188SOL     OW13462   5.144   0.467   5.065
 4188SOL    HW113463   5.050   0.448   5.093
 4188SOL    HW213464   5.149   0.468   4.965
 4189SOL     OW13465   3.387   4.966   5.522
 4189SOL    HW113466   3.466   5.022   5.546
 4189SOL    HW213467   3.397   4.932   5.428
 4190SOL     OW13468   0.725   0.516   0.387
 4190SOL    HW113469   0.714   0.421   0.416
 4190SOL    HW213470   0.774   0.567   0.458
 4191SOL     OW13471   4.787   4.355   3.466
 4191SOL    HW113472   4.802   4.427   3.398
 4191SOL    HW213473   4.722   4.388   3.534
 4192SOL     OW13474   0.850   0.536   4.024
 4192SOL    HW113475   0.831   0.634   4.036
 4192SOL    HW213476   0.949   0.522   4.016
 4193SOL     OW13477   0.144   1.232   1.881
 4193SOL    HW113478   0.049   1.204   1.887
 4193SOL    HW213479   0.202   1.167   1.931
 4194SOL     OW13480   6.095   0.175   4.177
 4194SOL    HW113481   6.061   0.083   4.198
 4194SOL    HW213482   6.177   0.168   4.120
 4195SOL     OW13483   3.820   6.495   1.730
 4195SOL    HW113484   3.790   6.587   1.707
 4195SOL    HW213485   3.889   6.499   1.803
 4196SOL     OW13486   6.091   1.999   3.120
 4196SOL    HW113487   6.004   2.024   3.164
 4196SOL    HW213488   6.078   1.916   3.066
 4197SOL     OW13489   4.675   5.564   5.801
 4197SOL    HW113490   4.642   5.494   5.863
 4197SOL    HW213491   4.638   5.547   5.709
 4198SOL     OW13492   5.774   2.223   0.167
 4198SOL    HW113493   5.675   2.232   0.161
 4198SOL    HW213494   5.818   2.298   0.117
 4199SOL     OW13495   1.948   2.679   6.239
 4199SOL    HW113496   1.862   2.730   6.238
 4199SOL    HW213497   1.974   2.660   6.334
 4200SOL     OW13498   4.006   0.310   5.924
 4200SOL    HW113499   4.032   0.369   5.848
 4200SOL    HW213500   4.029   0.354   6.010
 4201SOL     OW13501   5.903   6.952   3.694
 4201SOL    HW113502   5.928   0.008   3.648
 4201SOL    HW213503   5.970   6.932   3.766
 4202SOL     OW13504   3.769   5.639   5.199
 4202SOL    HW113505   3.716   5.723   5.209
 4202SOL    HW213506   3.843   5.638   5.265
 4203SOL     OW13507   4.238   5.057   0.225
 4203SOL    HW113508   4.237   5.008   0.312
 4203SOL    HW213509   4.220   5.154   0.242
 4204SOL     OW13510   3.529   3.799   2.757
 4204SOL    HW113511   3.563   3.890   2.732
 4204SOL    HW213512   3.452   3.808   2.820
 4205SOL     OW13513   4.178   5.700   3.263
 4205SOL    HW113514   4.194   5.663   3.354
 4205SOL    HW213515   4.263   5.698   3.211
 4206SOL     OW13516   6.708   0.470   5.982
 4206SOL    HW113517   6.755   0.405   5.923
 4206SOL    HW213518   6.776   0.520   6.036
 4207SOL     OW13519   1.810   1.603   0.950
 4207SOL    HW113520   1.824   1.643   1.040
 4207SOL    HW213521   1.851   1.662   0.880
 4208SOL     OW13522   0.195   2.556   5.798
 4208SOL    HW113523   0.183   2.632   5.735
 4208SOL    HW213524   0.108   2.537   5.845
 4209SOL     OW13525   0.166   0.307   4.282
 4209SOL    HW113526   0.159   0.338   4.187
 4209SOL    HW213527   0.110   0.365   4.341
 4210SOL     OW13528   3.454   3.538   2.210
 4210SOL    HW113529   3.515   3.528   2.132
 4210SOL    HW213530   3.489   3.610   2.270
 4211SOL     OW13531   4.679   6.345   6.292
 4211SOL    HW113532   4.735   6.394   6.224
 4211SOL    HW213533   4.620   6.409   6.339
 4212SOL     OW13534   6.028   1.813   2.910
 4212SOL    HW113535   6.042   1.761   2.826
 4212SOL    HW213536   5.997   1.751   2.982
 4213SOL     OW13537   1.915   1.091   1.347
 4213SOL    HW113538   2.013   1.082   1.332
 4213SOL    HW213539   1.885   1.183   1.324
 4214SOL     OW13540   0.875   5.307   5.404
 4214SOL    HW113541   0.848   5.350   5.317
 4214SOL    HW213542   0.904   5.213   5.386
 4215SOL     OW13543   5.649   6.976   5.660
 4215SOL    HW113544   5.650   7.002   5.564
 4215SOL    HW213545   5.738   6.937   5.685
 4216SOL     OW13546   1.268   1.260   2.721
 4216SOL    HW113547   1.212   1.231   2.799
 4216SOL    HW213548   1.208   1.292   2.648
 4217SOL     OW13549   0.733   0.448   2.180
 4217SOL    HW113550   0.784   0.391   2.116
 4217SOL    HW213551   0.661   0.497   2.130
 4218SOL     OW13552   4.480   0.962   1.538
 4218SOL    HW113553   4.429   1.040   1.576
 4218SOL    HW213554   4.429   0.878   1.555
 4219SOL     OW13555   3.598   5.478   3.986
 4219SOL    HW113556   3.535   5.451   4.059
 4219SOL    HW213557   3.657   5.400   3.963
 4220SOL     OW13558   5.977   2.239   4.180
 4220SOL    HW113559   5.899   2.229   4.241
 4220SOL    HW213560   5.945   2.244   4.085
 4221SOL     OW13561   5.694   5.221   6.916
 4221SOL    HW113562   5.637   5.170   6.981
 4221SOL    HW213563   5.668   5.195   6.823
 4222SOL     OW13564   6.285   2.261   2.815
 4222SOL    HW113565   6.214   2.196   2.789
 4222SOL    HW213566   6.300   2.257   2.914
 4223SOL     OW13567   4.000   3.162   6.231
 4223SOL    HW113568   4.052   3.243   6.204
 4223SOL    HW213569   3.919   3.190   6.282
 4224SOL     OW13570   5.161   3.680   4.082
 4224SOL    HW113571   5.077   3.685   4.029
 4224SOL    HW213572   5.216   3.762   4.066
 4225SOL     OW13573   4.042   1.064   5.490
 4225SOL    HW113574   4.029   1.103   5.581
 4225SOL    HW213575   4.134   1.025   5.482
 4226SOL     OW13576   0.950   0.454   2.635
 4226SOL    HW113577   0.858   0.493   2.645
 4226SOL    HW213578   0.981   0.464   2.541
 4227SOL     OW13579   3.749   4.597   1.113
 4227SOL    HW113580   3.745   4.547   1.200
 4227SOL    HW213581   3.670   4.574   1.057
 4228SOL     OW13582   0.544   4.339   4.848
 4228SOL    HW113583   0.566   4.307   4.756
 4228SOL    HW213584   0.596   4.287   4.915
 4229SOL     OW13585   4.940   5.847   5.587
 4229SOL    HW113586   4.881   5.814   5.514
 4229SOL    HW213587   4.886   5.860   5.670
 4230SOL     OW13588   1.488   6.460   2.911
 4230SOL    HW113589   1.582   6.494   2.910
 4230SOL    HW213590   1.426   6.534   2.885
 4231SOL     OW13591   5.922   6.682   5.396
 4231SOL    HW113592   6.002   6.742   5.406
 4231SOL    HW213593   5.883   6.693   5.304
 4232SOL     OW13594   0.117   4.884   2.490
 4232SOL    HW113595   0.067   4.963   2.455
 4232SOL    HW213596   0.194   4.916   2.545
 4233SOL     OW13597   6.887   0.798   6.394
 4233SOL    HW113598   6.874   0.880   6.450
 4233SOL    HW213599   6.973   0.754   6.419
 4234SOL     OW13600   2.697   6.672   5.487
 4234SOL    HW113601   2.640   6.722   5.552
 4234SOL    HW213602   2.674   6.700   5.394
 4235SOL     OW13603   5.887   3.831   5.765
 4235SOL    HW113604   5.956   3.888   5.720
 4235SOL    HW213605   5.929   3.778   5.838
 4236SOL     OW13606   6.474   3.660   2.971
 4236SOL    HW113607   6.424   3.581   3.006
 4236SOL    HW213608   6.481   3.729   3.044
 4237SOL     OW13609   5.548   5.500   2.166
 4237SOL    HW113610   5.498   5.414   2.160
 4237SOL    HW213611   5.612   5.497   2.242
 4238SOL     OW13612   2.883   5.170   2.826
 4238SOL    HW113613   2.791   5.163   2.865
 4238SOL    HW213614   2.896   5.099   2.757
 4239SOL     OW13615   5.458   1.690   3.118
 4239SOL    HW113616   5.434   1.694   3.021
 4239SOL    HW213617   5.446   1.597   3.153
 4240SOL     OW13618   2.425   6.863   6.638
 4240SOL    HW113619   2.440   6.952   6.594
 4240SOL    HW213620   2.388   6.878   6.730
 4241SOL     OW13621   6.299   1.331   0.323
 4241SOL    HW113622   6.217   1.278   0.301
 4241SOL    HW213623   6.279   1.428   0.312
 4242SOL     OW13624   2.538   0.956   3.671
 4242SOL    HW113625   2.610   0.936   3.737
 4242SOL    HW213626   2.524   0.876   3.612
 4243SOL     OW13627   6.490   2.916   3.180
 4243SOL    HW113628   6.516   2.938   3.274
 4243SOL    HW213629   6.569   2.924   3.120
 4244SOL     OW13630   4.435   4.541   1.290
 4244SOL    HW113631   4.389   4.565   1.204
 4244SOL    HW213632   4.512   4.480   1.270
 4245SOL     OW13633   0.154   1.051   6.108
 4245SOL    HW113634   0.059   1.029   6.085
 4245SOL    HW213635   0.160   1.147   6.136
 4246SOL     OW13636   6.866   4.066   2.884
 4246SOL    HW113637   6.958   4.097   2.860
 4246SOL    HW213638   6.871   4.009   2.966
 4247SOL     OW13639   2.885   4.834   3.194
 4247SOL    HW113640   2.816   4.809   3.126
 4247SOL    HW213641   2.975   4.833   3.152
 4248SOL     OW13642   2.037   1.917   3.946
 4248SOL    HW113643   1.937   1.918   3.956
 4248SOL    HW213644   2.077   1.980   4.012
 4249SOL     OW13645   5.577   2.423   3.924
 4249SOL    HW113646   5.529   2.336   3.922
 4249SOL    HW213647   5.649   2.420   3.993
 4250SOL     OW13648   6.915   5.685   3.347
 4250SOL    HW113649   6.976   5.763   3.365
 4250SOL    HW213650   6.965   5.614   3.299
 4251SOL     OW13651   5.451   4.151   1.375
 4251SOL    HW113652   5.366   4.182   1.418
 4251SOL    HW213653   5.462   4.053   1.389
 4252SOL     OW13654   6.051   6.839   6.570
 4252SOL    HW113655   6.022   6.744   6.559
 4252SOL    HW213656   6.055   6.884   6.481
 4253SOL     OW13657   3.440   6.871   1.264
 4253SOL    HW113658   3.466   6.832   1.176
 4253SOL    HW213659   3.350   6.913   1.256
 4254SOL     OW13660   1.210   3.809   2.100
 4254SOL    HW113661   1.223   3.822   2.002
 4254SOL    HW213662   1.123   3.760   2.116
 4255SOL     OW13663   6.955   4.046   4.191
 4255SOL    HW113664   6.965   3.948   4.207
 4255SOL    HW213665   0.014   4.083   4.160
 4256SOL     OW13666   1.860   6.189   0.650
 4256SOL    HW113667   1.818   6.170   0.738
 4256SOL    HW213668   1.924   6.115   0.627
 4257SOL     OW13669   2.858   0.688   4.226
 4257SOL    HW113670   2.937   0.727   4.272
 4257SOL    HW213671   2.775   0.736   4.254
 4258SOL     OW13672   3.581   5.973   0.628
 4258SOL    HW113673   3.525   6.038   0.577
 4258SOL    HW213674   3.659   6.021   0.668
 4259SOL     OW13675   2.351   0.624   1.028
 4259SOL    HW113676   2.339   0.634   0.929
 4259SOL    HW213677   2.444   0.593   1.047
 4260SOL     OW13678   5.820   0.670   1.504
 4260SOL    HW113679   5.785   0.579   1.527
 4260SOL    HW213680   5.744   0.733   1.492
 4261SOL     OW13681   2.272   0.089   2.711
 4261SOL    HW113682   2.336   0.123   2.642
 4261SOL    HW213683   2.322   0.037   2.781
 4262SOL     OW13684   0.596   4.304   6.332
 4262SOL    HW113685   0.504   4.302   6.292
 4262SOL    HW213686   0.633   4.397   6.325
 4263SOL     OW13687   3.022   0.479   2.811
 4263SOL    HW113688   2.986   0.417   2.741
 4263SOL    HW213689   2.948   0.511   2.869
 4264SOL     OW13690   6.402   1.761   3.326
 4264SOL    HW113691   6.500   1.773   3.339
 4264SOL    HW213692   6.355   1.769   3.413
 4265SOL     OW13693   4.358   1.714   0.831
 4265SOL    HW113694   4.303   1.785   0.874
 4265SOL    HW213695   4.354   1.724   0.732
 4266SOL     OW13696   1.670   5.468   6.233
 4266SOL    HW113697   1.736   5.521   6.287
 4266SOL    HW213698   1.685   5.370   6.249
 4267SOL     OW13699   2.072   3.932   3.755
 4267SOL    HW113700   2.129   4.012   3.735
 4267SOL    HW213701   1.977   3.951   3.731
 4268SOL     OW13702   1.007   5.609   6.283
 4268SOL    HW113703   1.080   5.584   6.348
 4268SOL    HW213704   1.046   5.663   6.209
 4269SOL     OW13705   2.636   0.646   2.538
 4269SOL    HW113706   2.556   0.663   2.596
 4269SOL    HW213707   2.645   0.719   2.471
 4270SOL     OW13708   4.072   3.631   3.202
 4270SOL    HW113709   4.157   3.642   3.149
 4270SOL    HW213710   4.001   3.689   3.163
 4271SOL     OW13711   6.715   1.184   6.992
 4271SOL    HW113712   6.707   1.263   0.025
 4271SOL    HW213713   6.774   1.208   6.915
 4272SOL     OW13714   6.861   2.374   4.350
 4272SOL    HW113715   6.874   2.275   4.362
 4272SOL    HW213716   6.854   2.418   4.439
 4273SOL     OW13717   4.787   6.701   4.948
 4273SOL    HW113718   4.775   6.615   4.996
 4273SOL    HW213719   4.700   6.728   4.905
 4274SOL     OW13720   0.898   6.839   1.597
 4274SOL    HW113721   0.935   6.885   1.677
 4274SOL    HW213722   0.910   6.740   1.607
 4275SOL     OW13723   6.554   2.375   4.459
 4275SOL    HW113724   6.636   2.417   4.421
 4275SOL    HW213725   6.570   2.354   4.556
 4276SOL     OW13726   1.859   5.600   3.879
 4276SOL    HW113727   1.789   5.615   3.809
 4276SOL    HW213728   1.845   5.511   3.921
 4277SOL     OW13729   6.166   4.892   3.357
 4277SOL    HW113730   6.242   4.939   3.402
 4277SOL    HW213731   6.087   4.954   3.352
 4278SOL     OW13732   6.988   0.011   5.393
 4278SOL    HW113733   7.019   0.052   5.479
 4278SOL    HW213734   0.025   0.031   5.321
 4279SOL     OW13735   3.649   1.090   3.848
 4279SOL    HW113736   3.673   1.011   3.904
 4279SOL    HW213737   3.563   1.129   3.881
 4280SOL     OW13738   5.128   0.679   6.206
 4280SOL    HW113739   5.043   0.700   6.158
 4280SOL    HW213740   5.192   0.634   6.143
 4281SOL     OW13741   6.962   4.271   3.184
 4281SOL    HW113742   6.944   4.363   3.150
 4281SOL    HW213743   6.942   4.267   3.282
 4282SOL     OW13744   3.719   4.338   6.095
 4282SOL    HW113745   3.798   4.351   6.035
 4282SOL    HW213746   3.637   4.378   6.052
 4283SOL     OW13747   1.621   0.598   2.959
 4283SOL    HW113748   1.679   0.532   2.912
 4283SOL    HW213749   1.611   0.572   3.055
 4284SOL     OW13750   4.358   4.789   1.134
 4284SOL    HW113751   4.334   4.701   1.095
 4284SOL    HW213752   4.275   4.839   1.158
 4285SOL     OW13753   1.702   0.612   5.491
 4285SOL    HW113754   1.705   0.579   5.585
 4285SOL    HW213755   1.794   0.638   5.461
 4286SOL     OW13756   5.015   6.739   5.817
 4286SOL    HW113757   5.035   6.795   5.737
 4286SOL    HW213758   5.014   6.797   5.899
 4287SOL     OW13759   5.683   1.146   5.655
 4287SOL    HW113760   5.697   1.205   5.735
 4287SOL    HW213761   5.770   1.131   5.609
 4288SOL     OW13762   0.377   5.538   3.817
 4288SOL    HW113763   0.445   5.492   3.759
 4288SOL    HW213764   0.329   5.606   3.762
 4289SOL     OW13765   0.142   3.052   6.166
 4289SOL    HW113766   0.092   2.985   6.220
 4289SOL    HW213767   0.183   3.120   6.226
 4290SOL     OW13768   1.249   6.190   3.753
 4290SOL    HW113769   1.165   6.202   3.699
 4290SOL    HW213770   1.302   6.274   3.752
 4291SOL     OW13771   4.725   3.424   0.318
 4291SOL    HW113772   4.787   3.500   0.340
 4291SOL    HW213773   4.647   3.459   0.267
 4292SOL     OW13774   5.484   2.840   0.219
 4292SOL    HW113775   5.484   2.894   0.303
 4292SOL    HW213776   5.459   2.746   0.240
 4293SOL     OW13777   2.748   2.286   6.726
 4293SOL    HW113778   2.668   2.315   6.673
 4293SOL    HW213779   2.726   2.203   6.777
 4294SOL     OW13780   2.035   2.158   6.851
 4294SOL    HW113781   2.069   2.215   6.925
 4294SOL    HW213782   2.107   2.096   6.821
 4295SOL     OW13783   3.900   5.444   5.065
 4295SOL    HW113784   3.833   5.510   5.100
 4295SOL    HW213785   3.853   5.363   5.030
 4296SOL     OW13786   3.157   6.855   0.850
 4296SOL    HW113787   3.114   6.945   0.838
 4296SOL    HW213788   3.165   6.810   0.761
 4297SOL     OW13789   5.114   0.081   6.963
 4297SOL    HW113790   5.210   0.100   6.987
 4297SOL    HW213791   5.055   0.145   7.013
 4298SOL     OW13792   3.725   5.038   0.478
 4298SOL    HW113793   3.674   5.120   0.449
 4298SOL    HW213794   3.734   5.039   0.578
 4299SOL     OW13795   1.476   3.359   6.536
 4299SOL    HW113796   1.447   3.314   6.451
 4299SOL    HW213797   1.469   3.458   6.526
 4300SOL     OW13798   3.345   6.752   0.129
 4300SOL    HW113799   3.353   6.652   0.134
 4300SOL    HW213800   3.398   6.793   0.203
 4301SOL     OW13801   3.812   0.960   1.735
 4301SOL    HW113802   3.739   1.027   1.748
 4301SOL    HW213803   3.884   0.976   1.801
 4302SOL     OW13804   0.780   0.337   6.344
 4302SOL    HW113805   0.828   0.367   6.261
 4302SOL    HW213806   0.683   0.360   6.336
 4303SOL     OW13807   6.822   4.572   4.153
 4303SOL    HW113808   6.739   4.606   4.199
 4303SOL    HW213809   6.831   4.617   4.064
 4304SOL     OW13810   3.057   4.003   2.113
 4304SOL    HW113811   3.014   3.913   2.106
 4304SOL    HW213812   3.006   4.068   2.057
 4305SOL     OW13813   0.306   0.171   5.271
 4305SOL    HW113814   0.247   0.231   5.325
 4305SOL    HW213815   0.252   0.095   5.235
 4306SOL     OW13816   4.952   4.953   5.573
 4306SOL    HW113817   5.023   4.953   5.644
 4306SOL    HW213818   4.911   5.044   5.566
 4307SOL     OW13819   5.582   3.936   5.969
 4307SOL    HW113820   5.506   3.994   5.999
 4307SOL    HW213821   5.608   3.963   5.876
 4308SOL     OW13822   5.972   4.577   1.114
 4308SOL    HW113823   6.049   4.614   1.166
 4308SOL    HW213824   5.933   4.649   1.056
 4309SOL     OW13825   0.755   1.099   6.886
 4309SOL    HW113826   0.730   1.024   6.947
 4309SOL    HW213827   0.778   1.180   6.940
 4310SOL     OW13828   2.228   2.840   2.096
 4310SOL    HW113829   2.212   2.926   2.144
 4310SOL    HW213830   2.230   2.765   2.162
 4311SOL     OW13831   1.856   6.169   2.605
 4311SOL    HW113832   1.827   6.221   2.685
 4311SOL    HW213833   1.862   6.230   2.526
 4312SOL     OW13834   1.991   5.797   1.534
 4312SOL    HW113835   2.056   5.721   1.543
 4312SOL    HW213836   2.038   5.883   1.552
 4313SOL     OW13837   4.508   1.332   1.287
 4313SOL    HW113838   4.466   1.334   1.196
 4313SOL    HW213839   4.438   1.312   1.355
 4314SOL     OW13840   5.958   1.358   4.628
 4314SOL    HW113841   5.968   1.259   4.637
 4314SOL    HW213842   5.929   1.380   4.535
 4315SOL     OW13843   2.641   6.129   2.255
 4315SOL    HW113844   2.725   6.148   2.204
 4315SOL    HW213845   2.621   6.205   2.317
 4316SOL     OW13846   5.327   1.023   1.795
 4316SOL    HW113847   5.326   1.055   1.700
 4316SOL    HW213848   5.257   0.953   1.807
 4317SOL     OW13849   5.398   2.516   4.831
 4317SOL    HW113850   5.333   2.456   4.784
 4317SOL    HW213851   5.388   2.609   4.796
 4318SOL     OW13852   0.307   2.611   4.554
 4318SOL    HW113853   0.233   2.678   4.563
 4318SOL    HW213854   0.366   2.616   4.635
 4319SOL     OW13855   1.886   1.391   0.544
 4319SOL    HW113856   1.953   1.426   0.479
 4319SOL    HW213857   1.795   1.394   0.502
 4320SOL     OW13858   5.098   4.941   0.021
 4320SOL    HW113859   5.179   4.894   0.057
 4320SOL    HW213860   5.065   4.892   6.969
 4321SOL     OW13861   6.852   6.419   5.220
 4321SOL    HW113862   6.773   6.406   5.161
 4321SOL    HW213863   6.936   6.400   5.169
 4322SOL     OW13864   6.041   2.947   6.840
 4322SOL    HW113865   6.127   2.996   6.826
 4322SOL    HW213866   6.040   2.865   6.781
 4323SOL     OW13867   4.865   4.233   0.306
 4323SOL    HW113868   4.808   4.153   0.287
 4323SOL    HW213869   4.896   4.274   0.220
 4324SOL     OW13870   5.576   3.738   6.790
 4324SOL    HW113871   5.581   3.686   6.875
 4324SOL    HW213872   5.649   3.807   6.788
 4325SOL     OW13873   2.032   1.355   1.767
 4325SOL    HW113874   2.104   1.319   1.707
 4325SOL    HW213875   1.942   1.331   1.728
 4326SOL     OW13876   4.645   5.066   3.715
 4326SOL    HW113877   4.718   5.127   3.684
 4326SOL    HW213878   4.649   5.056   3.814
 4327SOL     OW13879   5.741   6.104   1.453
 4327SOL    HW113880   5.724   6.014   1.413
 4327SOL    HW213881   5.656   6.142   1.488
 4328SOL     OW13882   4.518   3.854   5.676
 4328SOL    HW113883   4.586   3.891   5.612
 4328SOL    HW213884   4.540   3.759   5.698
 4329SOL     OW13885   4.924   2.039   5.537
 4329SOL    HW113886   4.988   2.057   5.611
 4329SOL    HW213887   4.867   2.120   5.522
 4330SOL     OW13888   2.307   6.291   4.259
 4330SOL    HW113889   2.241   6.242   4.202
 4330SOL    HW213890   2.380   6.229   4.286
 4331SOL     OW13891   5.523   1.650   2.008
 4331SOL    HW113892   5.426   1.636   1.986
 4331SOL    HW213893   5.574   1.566   1.986
 4332SOL     OW13894   4.933   3.291   2.291
 4332SOL    HW113895   4.948   3.198   2.257
 4332SOL    HW213896   4.860   3.334   2.238
 4333SOL     OW13897   3.999   1.147   5.770
 4333SOL    HW113898   3.900   1.162   5.761
 4333SOL    HW213899   4.024   1.155   5.867
 4334SOL     OW13900   1.867   1.996   2.703
 4334SOL    HW113901   1.846   2.052   2.623
 4334SOL    HW213902   1.911   2.053   2.773
 4335SOL     OW13903   3.584   3.997   2.557
 4335SOL    HW113904   3.533   4.043   2.629
 4335SOL    HW213905   3.658   4.057   2.525
 4336SOL     OW13906   3.526   6.358   5.856
 4336SOL    HW113907   3.485   6.279   5.810
 4336SOL    HW213908   3.609   6.386   5.806
 4337SOL     OW13909   0.914   4.578   0.513
 4337SOL    HW113910   0.937   4.637   0.591
 4337SOL    HW213911   0.971   4.496   0.516
 4338SOL     OW13912   6.347   0.104   5.720
 4338SOL    HW113913   6.358   0.108   5.621
 4338SOL    HW213914   6.250   0.108   5.743
 4339SOL     OW13915   4.985   3.594   5.725
 4339SOL    HW113916   4.907   3.609   5.665
 4339SOL    HW213917   5.019   3.501   5.714
 4340SOL     OW13918   6.255   3.688   1.690
 4340SOL    HW113919   6.288   3.648   1.776
 4340SOL    HW213920   6.159   3.664   1.677
 4341SOL     OW13921   0.657   5.065   1.783
 4341SOL    HW113922   0.734   5.022   1.831
 4341SOL    HW213923   0.652   5.029   1.690
 4342SOL     OW13924   5.352   3.823   3.847
 4342SOL    HW113925   5.280   3.893   3.849
 4342SOL    HW213926   5.408   3.831   3.929
 4343SOL     OW13927   2.740   5.922   5.350
 4343SOL    HW113928   2.763   5.843   5.292
 4343SOL    HW213929   2.645   5.915   5.379
 4344SOL     OW13930   0.123   3.932   1.941
 4344SOL    HW113931   0.119   3.973   1.849
 4344SOL    HW213932   0.099   3.836   1.935
 4345SOL     OW13933   3.509   3.834   5.010
 4345SOL    HW113934   3.450   3.861   5.086
 4345SOL    HW213935   3.555   3.914   4.974
 4346SOL     OW13936   1.918   3.377   2.721
 4346SOL    HW113937   1.927   3.281   2.695
 4346SOL    HW213938   1.846   3.420   2.667
 4347SOL     OW13939   6.467   6.574   3.076
 4347SOL    HW113940   6.496   6.486   3.113
 4347SOL    HW213941   6.525   6.598   2.997
 4348SOL     OW13942   7.005   5.313   3.657
 4348SOL    HW113943   6.955   5.303   3.571
 4348SOL    HW213944   6.990   5.232   3.714
 4349SOL     OW13945   5.377   1.676   2.860
 4349SOL    HW113946   5.378   1.583   2.823
 4349SOL    HW213947   5.427   1.736   2.798
 4350SOL     OW13948   3.361   1.760   3.895
 4350SOL    HW113949   3.361   1.668   3.933
 4350SOL    HW213950   3.377   1.827   3.968
 4351SOL     OW13951   1.728   5.635   0.683
 4351SOL    HW113952   1.780   5.713   0.719
 4351SOL    HW213953   1.662   5.668   0.616
 4352SOL     OW13954   6.396   3.896   2.542
 4352SOL    HW113955   6.444   3.818   2.582
 4352SOL    HW213956   6.393   3.886   2.443
 4353SOL     OW13957   4.102   2.822   6.849
 4353SOL    HW113958   4.023   2.797   6.792
 4353SOL    HW213959   4.145   2.739   6.885
 4354SOL     OW13960   2.097   0.632   5.825
 4354SOL    HW113961   2.080   0.715   5.771
 4354SOL    HW213962   2.195   0.609   5.821
 4355SOL     OW13963   2.434   6.893   2.552
 4355SOL    HW113964   2.522   6.874   2.509
 4355SOL    HW213965   2.430   6.848   2.641
 4356SOL     OW13966   5.283   3.710   0.252
 4356SOL    HW113967   5.287   3.744   0.158
 4356SOL    HW213968   5.244   3.618   0.253
 4357SOL     OW13969   6.238   1.269   1.281
 4357SOL    HW113970   6.140   1.283   1.296
 4357SOL    HW213971   6.259   1.281   1.184
 4358SOL     OW13972   0.158   1.100   0.841
 4358SOL    HW113973   0.116   1.011   0.824
 4358SOL    HW213974   0.256   1.095   0.824
 4359SOL     OW13975   1.707   1.639   5.948
 4359SOL    HW113976   1.766   1.673   5.874
 4359SOL    HW213977   1.639   1.708   5.971
 4360SOL     OW13978   1.550   3.357   3.400
 4360SOL    HW113979   1.603   3.397   3.325
 4360SOL    HW213980   1.556   3.416   3.480
 4361SOL     OW13981   2.129   3.449   1.330
 4361SOL    HW113982   2.220   3.477   1.359
 4361SOL    HW213983   2.119   3.350   1.342
 4362SOL     OW13984   6.349   5.247   3.479
 4362SOL    HW113985   6.340   5.166   3.537
 4362SOL    HW213986   6.307   5.228   3.390
 4363SOL     OW13987   5.842   2.377   1.176
 4363SOL    HW113988   5.929   2.328   1.186
 4363SOL    HW213989   5.771   2.329   1.227
 4364SOL     OW13990   3.012   3.878   4.066
 4364SOL    HW113991   3.090   3.818   4.049
 4364SOL    HW213992   2.972   3.857   4.156
 4365SOL     OW13993   2.953   0.558   2.147
 4365SOL    HW113994   2.918   0.524   2.059
 4365SOL    HW213995   2.909   0.645   2.169
 4366SOL     OW13996   5.686   0.666   7.017
 4366SOL    HW113997   5.703   0.571   0.011
 4366SOL    HW213998   5.772   0.716   7.009
 4367SOL     OW13999   2.231   4.474   4.476
 4367SOL    HW114000   2.214   4.514   4.386
 4367SOL    HW214001   2.229   4.374   4.469
 4368SOL     OW14002   3.492   5.231   0.025
 4368SOL    HW114003   3.439   5.146   0.032
 4368SOL    HW214004   3.433   5.309   0.048
 4369SOL     OW14005   4.688   5.478   3.036
 4369SOL    HW114006   4.668   5.422   2.956
 4369SOL    HW214007   4.749   5.427   3.098
 4370SOL     OW14008   3.835   5.098   1.572
 4370SOL    HW114009   3.909   5.152   1.611
 4370SOL    HW214010   3.802   5.142   1.489
 4371SOL     OW14011   0.813   2.134   2.502
 4371SOL    HW114012   0.893   2.186   2.470
 4371SOL    HW214013   0.834   2.036   2.499
 4372SOL     OW14014   2.463   2.225   2.990
 4372SOL    HW114015   2.464   2.144   3.050
 4372SOL    HW214016   2.371   2.263   2.988
 4373SOL     OW14017   5.840   1.429   0.417
 4373SOL    HW114018   5.800   1.357   0.473
 4373SOL    HW214019   5.879   1.388   0.334
 4374SOL     OW14020   0.698   1.654   0.752
 4374SOL    HW114021   0.685   1.583   0.821
 4374SOL    HW214022   0.690   1.744   0.794
 4375SOL     OW14023   4.424   6.741   3.297
 4375SOL    HW114024   4.520   6.768   3.310
 4375SOL    HW214025   4.383   6.719   3.385
 4376SOL     OW14026   6.450   6.967   2.833
 4376SOL    HW114027   6.412   0.028   2.853
 4376SOL    HW214028   6.418   6.936   2.744
 4377SOL     OW14029   5.843   5.052   0.162
 4377SOL    HW114030   5.836   5.133   0.219
 4377SOL    HW214031   5.762   5.046   0.103
 4378SOL     OW14032   2.251   2.916   2.432
 4378SOL    HW114033   2.228   2.960   2.519
 4378SOL    HW214034   2.208   2.966   2.357
 4379SOL     OW14035   2.159   2.615   2.490
 4379SOL    HW114036   2.227   2.688   2.480
 4379SOL    HW214037   2.076   2.640   2.439
 4380SOL     OW14038   1.036   6.978   3.108
 4380SOL    HW114039   1.089   6.914   3.053
 4380SOL    HW214040   1.070   0.042   3.094
 4381SOL     OW14041   1.715   4.023   5.595
 4381SOL    HW114042   1.782   3.971   5.648
 4381SOL    HW214043   1.760   4.100   5.550
 4382SOL     OW14044   6.042   3.664   5.922
 4382SOL    HW114045   5.978   3.593   5.952
 4382SOL    HW214046   6.123   3.663   5.980
 4383SOL     OW14047   0.842   2.269   5.858
 4383SOL    HW114048   0.826   2.231   5.767
 4383SOL    HW214049   0.829   2.368   5.855
 4384SOL     OW14050   6.471   2.253   5.793
 4384SOL    HW114051   6.398   2.284   5.731
 4384SOL    HW214052   6.449   2.281   5.886
 4385SOL     OW14053   6.152   2.921   5.299
 4385SOL    HW114054   6.208   2.876   5.230
 4385SOL    HW214055   6.202   2.925   5.385
 4386SOL     OW14056   2.163   3.450   0.045
 4386SOL    HW114057   2.197   3.537   0.080
 4386SOL    HW214058   2.162   3.453   6.973
 4387SOL     OW14059   6.959   1.541   1.541
 4387SOL    HW114060   6.925   1.494   1.459
 4387SOL    HW214061   0.016   1.498   1.570
 4388SOL     OW14062   5.299   1.654   6.445
 4388SOL    HW114063   5.200   1.656   6.459
 4388SOL    HW214064   5.322   1.707   6.364
 4389SOL     OW14065   0.261   3.351   0.949
 4389SOL    HW114066   0.331   3.382   0.885
 4389SOL    HW214067   0.200   3.287   0.903
 4390SOL     OW14068   3.860   1.363   1.341
 4390SOL    HW114069   3.850   1.314   1.427
 4390SOL    HW214070   3.919   1.310   1.279
 4391SOL     OW14071   1.792   5.977   0.098
 4391SOL    HW114072   1.784   5.969   7.027
 4391SOL    HW214073   1.838   5.896   0.134
 4392SOL     OW14074   6.942   3.534   5.439
 4392SOL    HW114075   6.852   3.531   5.482
 4392SOL    HW214076   6.933   3.563   5.344
 4393SOL     OW14077   5.904   0.376   2.345
 4393SOL    HW114078   5.879   0.418   2.257
 4393SOL    HW214079   5.937   0.283   2.329
 4394SOL     OW14080   5.967   6.117   2.502
 4394SOL    HW114081   5.978   6.181   2.578
 4394SOL    HW214082   6.057   6.089   2.468
 4395SOL     OW14083   3.108   6.613   1.871
 4395SOL    HW114084   3.161   6.665   1.803
 4395SOL    HW214085   3.133   6.644   1.963
 4396SOL     OW14086   2.116   2.148   4.134
 4396SOL    HW114087   2.056   2.215   4.089
 4396SOL    HW214088   2.098   2.148   4.232
 4397SOL     OW14089   0.387   0.960   4.588
 4397SOL    HW114090   0.449   0.986   4.662
 4397SOL    HW214091   0.296   0.940   4.625
 4398SOL     OW14092   0.742   4.207   5.355
 4398SOL    HW114093   0.707   4.151   5.279
 4398SOL    HW214094   0.832   4.173   5.382
 4399SOL     OW14095   2.036   0.782   1.565
 4399SOL    HW114096   2.015   0.858   1.627
 4399SOL    HW214097   1.977   0.788   1.484
 4400SOL     OW14098   3.569   6.807   5.658
 4400SOL    HW114099   3.658   6.852   5.668
 4400SOL    HW214100   3.546   6.760   5.744
 4401SOL     OW14101   4.541   6.965   6.515
 4401SOL    HW114102   4.457   7.018   6.528
 4401SOL    HW214103   4.535   6.915   6.429
 4402SOL     OW14104   2.731   0.323   1.903
 4402SOL    HW114105   2.828   0.348   1.903
 4402SOL    HW214106   2.678   0.399   1.866
 4403SOL     OW14107   0.824   0.064   2.795
 4403SOL    HW114108   0.749   0.128   2.810
 4403SOL    HW214109   0.835   0.048   2.697
 4404SOL     OW14110   0.465   4.739   6.198
 4404SOL    HW114111   0.556   4.707   6.222
 4404SOL    HW214112   0.472   4.827   6.151
 4405SOL     OW14113   1.688   4.296   1.135
 4405SOL    HW114114   1.720   4.361   1.203
 4405SOL    HW214115   1.764   4.270   1.075
 4406SOL     OW14116   6.791   3.851   0.698
 4406SOL    HW114117   6.799   3.845   0.598
 4406SOL    HW214118   6.799   3.759   0.737
 4407SOL     OW14119   6.530   4.795   0.765
 4407SOL    HW114120   6.436   4.777   0.735
 4407SOL    HW214121   6.550   4.740   0.846
 4408SOL     OW14122   3.433   0.882   1.587
 4408SOL    HW114123   3.481   0.950   1.533
 4408SOL    HW214124   3.452   0.897   1.684
 4409SOL     OW14125   5.000   0.739   2.275
 4409SOL    HW114126   4.928   0.744   2.345
 4409SOL    HW214127   4.958   0.723   2.186
 4410SOL     OW14128   1.105   5.324   6.380
 4410SOL    HW114129   1.143   5.402   6.431
 4410SOL    HW214130   1.022   5.291   6.425
 4411SOL     OW14131   4.003   3.947   4.192
 4411SOL    HW114132   4.068   4.019   4.169
 4411SOL    HW214133   4.009   3.873   4.124
 4412SOL     OW14134   4.274   6.448   4.939
 4412SOL    HW114135   4.242   6.387   4.866
 4412SOL    HW214136   4.373   6.439   4.949
 4413SOL     OW14137   6.521   5.353   4.164
 4413SOL    HW114138   6.437   5.334   4.112
 4413SOL    HW214139   6.600   5.331   4.107
 4414SOL     OW14140   3.153   4.486   1.111
 4414SOL    HW114141   3.101   4.400   1.111
 4414SOL    HW214142   3.205   4.493   1.196
 4415SOL     OW14143   3.942   2.970   0.706
 4415SOL    HW114144   3.853   2.952   0.748
 4415SOL    HW214145   3.928   3.002   0.613
 4416SOL     OW14146   2.787   0.696   3.584
 4416SOL    HW114147   2.857   0.628   3.562
 4416SOL    HW214148   2.822   0.788   3.565
 4417SOL     OW14149   5.877   4.371   3.056
 4417SOL    HW114150   5.856   4.276   3.079
 4417SOL    HW214151   5.816   4.431   3.108
 4418SOL     OW14152   5.791   1.959   2.322
 4418SOL    HW114153   5.759   2.035   2.265
 4418SOL    HW214154   5.754   1.873   2.286
 4419SOL     OW14155   6.068   6.365   6.384
 4419SOL    HW114156   6.007   6.313   6.324
 4419SOL    HW214157   6.123   6.427   6.329
 4420SOL     OW14158   5.382   1.197   1.999
 4420SOL    HW114159   5.370   1.111   1.949
 4420SOL    HW214160   5.297   1.220   2.047
 4421SOL     OW14161   2.090   0.796   4.945
 4421SOL    HW114162   2.029   0.805   5.023
 4421SOL    HW214163   2.036   0.775   4.863
 4422SOL     OW14164   2.569   3.928   6.896
 4422SOL    HW114165   2.495   3.987   6.926
 4422SOL    HW214166   2.630   3.910   6.973
 4423SOL     OW14167   0.517   3.018   5.856
 4423SOL    HW114168   0.425   3.046   5.881
 4423SOL    HW214169   0.579   3.096   5.868
 4424SOL     OW14170   5.458   0.949   4.801
 4424SOL    HW114171   5.530   0.933   4.868
 4424SOL    HW214172   5.381   0.995   4.845
 4425SOL     OW14173   3.053   4.594   0.453
 4425SOL    HW114174   3.055   4.658   0.530
 4425SOL    HW214175   3.131   4.612   0.393
 4426SOL     OW14176   0.172   1.035   4.107
 4426SOL    HW114177   0.113   1.060   4.184
 4426SOL    HW214178   0.186   1.114   4.048
 4427SOL     OW14179   0.383   6.540   2.408
 4427SOL    HW114180   0.338   6.522   2.321
 4427SOL    HW214181   0.441   6.462   2.433
 4428SOL     OW14182   3.608   0.008   2.516
 4428SOL    HW114183   3.650   0.014   2.426
 4428SOL    HW214184   3.541   0.082   2.527
 4429SOL     OW14185   2.494   6.309   2.671
 4429SOL    HW114186   2.470   6.215   2.696
 4429SOL    HW214187   2.546   6.351   2.745
 4430SOL     OW14188   4.863   4.044   4.844
 4430SOL    HW114189   4.867   4.015   4.939
 4430SOL    HW214190   4.802   4.122   4.835
 4431SOL     OW14191   2.270   1.213   2.025
 4431SOL    HW114192   2.319   1.222   1.938
 4431SOL    HW214193   2.269   1.117   2.053
 4432SOL     OW14194   3.045   3.791   5.444
 4432SOL    HW114195   3.014   3.696   5.446
 4432SOL    HW214196   3.137   3.794   5.405
 4433SOL     OW14197   4.684   1.520   4.724
 4433SOL    HW114198   4.667   1.430   4.763
 4433SOL    HW214199   4.780   1.528   4.698
 4434SOL     OW14200   4.950   1.747   3.960
 4434SOL    HW114201   4.954   1.648   3.945
 4434SOL    HW214202   4.883   1.768   4.031
 4435SOL     OW14203   5.068   3.322   1.469
 4435SOL    HW114204   5.014   3.406   1.479
 4435SOL    HW214205   5.161   3.345   1.440
 4436SOL     OW14206   4.670   0.959   0.648
 4436SOL    HW114207   4.572   0.950   0.630
 4436SOL    HW214208   4.688   0.938   0.745
 4437SOL     OW14209   5.859   2.390   2.984
 4437SOL    HW114210   5.792   2.397   3.057
 4437SOL    HW214211   5.825   2.329   2.912
 4438SOL     OW14212   5.433   0.646   6.910
 4438SOL    HW114213   5.514   0.674   6.962
 4438SOL    HW214214   5.353   0.649   6.969
 4439SOL     OW14215   0.554   4.775   2.032
 4439SOL    HW114216   0.562   4.679   2.058
 4439SOL    HW214217   0.523   4.782   1.938
 4440SOL     OW14218   2.542   5.001   0.516
 4440SOL    HW114219   2.565   5.083   0.463
 4440SOL    HW214220   2.443   4.996   0.528
 4441SOL     OW14221   6.838   1.325   2.683
 4441SOL    HW114222   6.748   1.293   2.713
 4441SOL    HW214223   6.862   1.278   2.597
 4442SOL     OW14224   2.645   5.515   4.450
 4442SOL    HW114225   2.653   5.420   4.482
 4442SOL    HW214226   2.604   5.515   4.358
 4443SOL     OW14227   0.313   2.832   0.375
 4443SOL    HW114228   0.310   2.930   0.356
 4443SOL    HW214229   0.272   2.782   0.299
 4444SOL     OW14230   3.151   4.654   5.401
 4444SOL    HW114231   3.099   4.578   5.363
 4444SOL    HW214232   3.207   4.622   5.477
 4445SOL     OW14233   1.193   6.632   0.871
 4445SOL    HW114234   1.271   6.693   0.875
 4445SOL    HW214235   1.143   6.636   0.958
 4446SOL     OW14236   5.562   0.665   1.886
 4446SOL    HW114237   5.647   0.682   1.835
 4446SOL    HW214238   5.485   0.663   1.823
 4447SOL     OW14239   5.610   3.627   5.939
 4447SOL    HW114240   5.627   3.725   5.947
 4447SOL    HW214241   5.580   3.591   6.027
 4448SOL     OW14242   2.635   3.847   1.578
 4448SOL    HW114243   2.584   3.903   1.513
 4448SOL    HW214244   2.624   3.750   1.555
 4449SOL     OW14245   5.675   0.641   6.170
 4449SOL    HW114246   5.668   0.689   6.083
 4449SOL    HW214247   5.591   0.657   6.224
 4450SOL     OW14248   3.450   3.312   4.980
 4450SOL    HW114249   3.505   3.392   4.954
 4450SOL    HW214250   3.402   3.331   5.066
 4451SOL     OW14251   6.648   4.916   3.031
 4451SOL    HW114252   6.596   4.830   3.029
 4451SOL    HW214253   6.663   4.947   2.938
 4452SOL     OW14254   4.983   6.438   4.492
 4452SOL    HW114255   4.918   6.501   4.451
 4452SOL    HW214256   4.995   6.460   4.589
 4453SOL     OW14257   0.599   2.488   1.534
 4453SOL    HW114258   0.600   2.455   1.629
 4453SOL    HW214259   0.505   2.508   1.507
 4454SOL     OW14260   1.578   2.102   0.565
 4454SOL    HW114261   1.668   2.067   0.588
 4454SOL    HW214262   1.573   2.119   0.466
 4455SOL     OW14263   4.292   6.676   5.884
 4455SOL    HW114264   4.318   6.655   5.978
 4455SOL    HW214265   4.313   6.598   5.825
 4456SOL     OW14266   3.357   5.726   2.017
 4456SOL    HW114267   3.268   5.682   2.020
 4456SOL    HW214268   3.352   5.816   2.060
 4457SOL     OW14269   4.410   1.131   2.461
 4457SOL    HW114270   4.378   1.080   2.382
 4457SOL    HW214271   4.417   1.228   2.438
 4458SOL     OW14272   1.909   2.771   0.255
 4458SOL    HW114273   1.933   2.867   0.245
 4458SOL    HW214274   1.894   2.750   0.352
 4459SOL     OW14275   3.765   1.200   4.763
 4459SOL    HW114276   3.773   1.122   4.701
 4459SOL    HW214277   3.840   1.197   4.829
 4460SOL     OW14278   2.781   2.887   5.911
 4460SOL    HW114279   2.828   2.973   5.931
 4460SOL    HW214280   2.848   2.812   5.910
 4461SOL     OW14281   1.276   0.448   1.178
 4461SOL    HW114282   1.184   0.411   1.191
 4461SOL    HW214283   1.313   0.476   1.267
 4462SOL     OW14284   6.311   5.011   1.555
 4462SOL    HW114285   6.281   4.918   1.534
 4462SOL    HW214286   6.290   5.033   1.650
 4463SOL     OW14287   5.201   2.207   6.991
 4463SOL    HW114288   5.160   2.125   0.004
 4463SOL    HW214289   5.194   2.200   6.891
 4464SOL     OW14290   6.661   5.702   0.937
 4464SOL    HW114291   6.618   5.722   1.025
 4464SOL    HW214292   6.591   5.683   0.869
 4465SOL     OW14293   2.822   5.426   1.388
 4465SOL    HW114294   2.884   5.357   1.350
 4465SOL    HW214295   2.742   5.382   1.427
 4466SOL     OW14296   1.763   1.501   3.483
 4466SOL    HW114297   1.670   1.512   3.449
 4466SOL    HW214298   1.765   1.431   3.554
 4467SOL     OW14299   1.755   6.386   2.749
 4467SOL    HW114300   1.765   6.438   2.834
 4467SOL    HW214301   1.742   6.448   2.673
 4468SOL     OW14302   1.915   3.341   0.371
 4468SOL    HW114303   1.911   3.438   0.391
 4468SOL    HW214304   1.948   3.292   0.452
 4469SOL     OW14305   3.391   0.638   1.225
 4469SOL    HW114306   3.305   0.683   1.248
 4469SOL    HW214307   3.446   0.626   1.307
 4470SOL     OW14308   6.163   2.415   2.171
 4470SOL    HW114309   6.114   2.501   2.184
 4470SOL    HW214310   6.112   2.356   2.108
 4471SOL     OW14311   1.099   2.203   6.633
 4471SOL    HW114312   1.064   2.117   6.669
 4471SOL    HW214313   1.069   2.214   6.538
 4472SOL     OW14314   1.328   3.351   2.475
 4472SOL    HW114315   1.407   3.301   2.440
 4472SOL    HW214316   1.286   3.298   2.549
 4473SOL     OW14317   6.344   2.626   4.687
 4473SOL    HW114318   6.363   2.724   4.681
 4473SOL    HW214319   6.412   2.582   4.745
 4474SOL     OW14320   2.539   0.686   2.171
 4474SOL    HW114321   2.638   0.700   2.183
 4474SOL    HW214322   2.500   0.654   2.257
 4475SOL     OW14323   1.929   3.903   2.913
 4475SOL    HW114324   1.913   3.805   2.903
 4475SOL    HW214325   2.023   3.918   2.945
 4476SOL     OW14326   4.184   0.566   2.962
 4476SOL    HW114327   4.114   0.582   2.892
 4476SOL    HW214328   4.158   0.613   3.046
 4477SOL     OW14329   2.070   6.905   5.157
 4477SOL    HW114330   2.155   6.879   5.202
 4477SOL    HW214331   2.086   6.917   5.060
 4478SOL     OW14332   4.101   6.763   2.987
 4478SOL    HW114333   4.009   6.801   2.976
 4478SOL    HW214334   4.143   6.803   3.068
 4479SOL     OW14335   0.471   1.276   2.073
 4479SOL    HW114336   0.423   1.363   2.084
 4479SOL    HW214337   0.470   1.227   2.160
 4480SOL     OW14338   1.634   3.915   5.063
 4480SOL    HW114339   1.707   3.972   5.100
 4480SOL    HW214340   1.668   3.822   5.049
 4481SOL     OW14341   3.457   6.051   4.839
 4481SOL    HW114342   3.554   6.040   4.859
 4481SOL    HW214343   3.405   6.044   4.924
 4482SOL     OW14344   1.142   2.882   4.773
 4482SOL    HW114345   1.214   2.818   4.801
 4482SOL    HW214346   1.052   2.841   4.789
 4483SOL     OW14347   5.484   2.747   2.267
 4483SOL    HW114348   5.559   2.755   2.333
 4483SOL    HW214349   5.397   2.766   2.314
 4484SOL     OW14350   2.836   2.257   6.419
 4484SOL    HW114351   2.890   2.253   6.335
 4484SOL    HW214352   2.893   2.230   6.497
 4485SOL     OW14353   5.855   1.998   4.880
 4485SOL    HW114354   5.848   1.949   4.966
 4485SOL    HW214355   5.812   2.088   4.890
 4486SOL     OW14356   5.343   4.472   5.032
 4486SOL    HW114357   5.350   4.513   5.123
 4486SOL    HW214358   5.309   4.540   4.967
 4487SOL     OW14359   2.294   3.001   6.320
 4487SOL    HW114360   2.242   3.075   6.278
 4487SOL    HW214361   2.256   2.980   6.410
 4488SOL     OW14362   0.567   3.469   6.262
 4488SOL    HW114363   0.535   3.395   6.202
 4488SOL    HW214364   0.647   3.512   6.221
 4489SOL     OW14365   5.520   5.256   4.578
 4489SOL    HW114366   5.438   5.204   4.552
 4489SOL    HW214367   5.504   5.299   4.667
 4490SOL     OW14368   6.152   3.098   2.425
 4490SOL    HW114369   6.088   3.021   2.430
 4490SOL    HW214370   6.159   3.141   2.515
 4491SOL     OW14371   6.772   2.530   4.578
 4491SOL    HW114372   6.731   2.532   4.669
 4491SOL    HW214373   6.783   2.624   4.545
 4492SOL     OW14374   5.816   4.553   1.591
 4492SOL    HW114375   5.731   4.503   1.572
 4492SOL    HW214376   5.866   4.506   1.663
 4493SOL     OW14377   4.947   5.439   4.915
 4493SOL    HW114378   5.031   5.404   4.874
 4493SOL    HW214379   4.868   5.394   4.873
 4494SOL     OW14380   0.459   1.219   6.720
 4494SOL    HW114381   0.470   1.144   6.785
 4494SOL    HW214382   0.426   1.183   6.633
 4495SOL     OW14383   3.577   6.681   4.643
 4495SOL    HW114384   3.572   6.612   4.570
 4495SOL    HW214385   3.668   6.680   4.683
 4496SOL     OW14386   5.569   6.177   1.096
 4496SOL    HW114387   5.502   6.191   1.169
 4496SOL    HW214388   5.658   6.214   1.124
 4497SOL     OW14389   5.002   1.307   0.145
 4497SOL    HW114390   4.986   1.280   0.240
 4497SOL    HW214391   4.919   1.291   0.091
 4498SOL     OW14392   0.050   4.118   0.520
 4498SOL    HW114393   0.048   4.021   0.547
 4498SOL    HW214394   7.016   4.170   0.578
 4499SOL     OW14395   6.358   3.631   5.069
 4499SOL    HW114396   6.375   3.641   5.167
 4499SOL    HW214397   6.445   3.618   5.021
 4500SOL     OW14398   3.270   3.234   4.411
 4500SOL    HW114399   3.327   3.307   4.375
 4500SOL    HW214400   3.263   3.242   4.510
 4501SOL     OW14401   0.145   3.205   3.371
 4501SOL    HW114402   0.214   3.268   3.407
 4501SOL    HW214403   0.075   3.256   3.321
 4502SOL     OW14404   0.741   2.969   6.705
 4502SOL    HW114405   0.813   2.986   6.772
 4502SOL    HW214406   0.750   2.876   6.668
 4503SOL     OW14407   3.437   0.164   1.648
 4503SOL    HW114408   3.436   0.073   1.607
 4503SOL    HW214409   3.486   0.160   1.736
 4504SOL     OW14410   6.881   1.137   5.144
 4504SOL    HW114411   6.788   1.113   5.172
 4504SOL    HW214412   6.909   1.221   5.191
 4505SOL     OW14413   5.572   5.310   1.827
 4505SOL    HW114414   5.493   5.269   1.873
 4505SOL    HW214415   5.578   5.275   1.733
 4506SOL     OW14416   4.515   2.479   3.431
 4506SOL    HW114417   4.457   2.454   3.354
 4506SOL    HW214418   4.557   2.397   3.470
 4507SOL     OW14419   5.556   4.392   2.900
 4507SOL    HW114420   5.478   4.328   2.902
 4507SOL    HW214421   5.585   4.412   2.993
 4508SOL     OW14422   1.318   5.150   6.426
 4508SOL    HW114423   1.261   5.206   6.366
 4508SOL    HW214424   1.298   5.173   6.522
 4509SOL     OW14425   4.410   2.331   2.779
 4509SOL    HW114426   4.446   2.424   2.784
 4509SOL    HW214427   4.359   2.310   2.862
 4510SOL     OW14428   3.538   1.714   4.148
 4510SOL    HW114429   3.556   1.755   4.238
 4510SOL    HW214430   3.440   1.699   4.137
 4511SOL     OW14431   6.183   3.440   0.252
 4511SOL    HW114432   6.227   3.464   0.338
 4511SOL    HW214433   6.236   3.478   0.176
 4512SOL     OW14434   2.882   1.426   5.512
 4512SOL    HW114435   2.899   1.486   5.433
 4512SOL    HW214436   2.818   1.472   5.574
 4513SOL     OW14437   6.304   5.390   0.510
 4513SOL    HW114438   6.382   5.447   0.482
 4513SOL    HW214439   6.222   5.419   0.460
 4514SOL     OW14440   4.148   1.848   6.188
 4514SOL    HW114441   4.197   1.878   6.270
 4514SOL    HW214442   4.053   1.879   6.192
 4515SOL     OW14443   6.950   1.568   5.999
 4515SOL    HW114444   6.861   1.530   6.026
 4515SOL    HW214445   6.961   1.559   5.900
 4516SOL     OW14446   2.171   0.100   6.861
 4516SOL    HW114447   2.210   0.014   6.896
 4516SOL    HW214448   2.153   0.162   6.937
 4517SOL     OW14449   4.050   0.949   6.870
 4517SOL    HW114450   3.953   0.942   6.891
 4517SOL    HW214451   4.081   1.043   6.884
 4518SOL     OW14452   6.361   0.186   2.822
 4518SOL    HW114453   6.290   0.190   2.752
 4518SOL    HW214454   6.352   0.264   2.884
 4519SOL     OW14455   6.768   0.187   1.401
 4519SOL    HW114456   6.836   0.134   1.349
 4519SOL    HW214457   6.769   0.159   1.497
 4520SOL     OW14458   4.695   6.506   4.685
 4520SOL    HW114459   4.792   6.517   4.706
 4520SOL    HW214460   4.680   6.529   4.589
 4521SOL     OW14461   6.686   1.641   4.234
 4521SOL    HW114462   6.680   1.740   4.218
 4521SOL    HW214463   6.667   1.593   4.148
 4522SOL     OW14464   5.523   5.901   2.961
 4522SOL    HW114465   5.518   5.924   2.864
 4522SOL    HW214466   5.500   5.804   2.973
 4523SOL     OW14467   0.912   4.445   6.913
 4523SOL    HW114468   0.958   4.479   6.831
 4523SOL    HW214469   0.868   4.521   6.961
 4524SOL     OW14470   6.644   2.413   3.141
 4524SOL    HW114471   6.584   2.476   3.090
 4524SOL    HW214472   6.640   2.323   3.098
 4525SOL     OW14473   5.107   1.574   5.781
 4525SOL    HW114474   5.200   1.541   5.799
 4525SOL    HW214475   5.111   1.650   5.717
 4526SOL     OW14476   6.555   0.348   1.103
 4526SOL    HW114477   6.619   0.373   1.030
 4526SOL    HW214478   6.549   0.423   1.169
 4527SOL     OW14479   5.041   1.138   3.970
 4527SOL    HW114480   5.085   1.224   3.995
 4527SOL    HW214481   5.083   1.102   3.887
 4528SOL     OW14482   4.867   0.671   0.652
 4528SOL    HW114483   4.796   0.737   0.627
 4528SOL    HW214484   4.921   0.707   0.728
 4529SOL     OW14485   2.497   0.434   5.287
 4529SOL    HW114486   2.488   0.394   5.378
 4529SOL    HW214487   2.573   0.499   5.287
 4530SOL     OW14488   2.336   5.050   4.906
 4530SOL    HW114489   2.255   4.998   4.932
 4530SOL    HW214490   2.371   5.100   4.986
 4531SOL     OW14491   0.124   2.793   5.158
 4531SOL    HW114492   0.141   2.721   5.091
 4531SOL    HW214493   0.099   2.877   5.111
 4532SOL     OW14494   6.384   1.610   2.734
 4532SOL    HW114495   6.311   1.580   2.797
 4532SOL    HW214496   6.374   1.707   2.717
 4533SOL     OW14497   1.077   1.629   1.905
 4533SOL    HW114498   1.175   1.649   1.907
 4533SOL    HW214499   1.053   1.572   1.984
 4534SOL     OW14500   4.779   4.071   4.207
 4534SOL    HW114501   4.854   4.076   4.272
 4534SOL    HW214502   4.723   4.154   4.215
 4535SOL     OW14503   3.921   0.910   2.709
 4535SOL    HW114504   3.852   0.981   2.723
 4535SOL    HW214505   4.001   0.950   2.665
 4536SOL     OW14506   3.294   1.606   4.150
 4536SOL    HW114507   3.210   1.660   4.159
 4536SOL    HW214508   3.299   1.540   4.224
 4537SOL     OW14509   4.114   3.763   0.330
 4537SOL    HW114510   4.194   3.822   0.318
 4537SOL    HW214511   4.031   3.820   0.328
 4538SOL     OW14512   1.557   0.246   3.010
 4538SOL    HW114513   1.569   0.279   2.916
 4538SOL    HW214514   1.501   0.311   3.061
 4539SOL     OW14515   2.888   6.928   5.021
 4539SOL    HW114516   2.791   6.949   5.018
 4539SOL    HW214517   2.913   6.895   5.112
 4540SOL     OW14518   2.712   2.679   5.721
 4540SOL    HW114519   2.723   2.763   5.773
 4540SOL    HW214520   2.619   2.675   5.683
 4541SOL     OW14521   6.443   1.867   0.865
 4541SOL    HW114522   6.508   1.851   0.791
 4541SOL    HW214523   6.492   1.879   0.951
 4542SOL     OW14524   0.065   1.539   2.050
 4542SOL    HW114525   0.075   1.610   2.119
 4542SOL    HW214526   0.142   1.542   1.986
 4543SOL     OW14527   4.313   1.981   1.937
 4543SOL    HW114528   4.331   1.940   1.847
 4543SOL    HW214529   4.248   2.056   1.927
 4544SOL     OW14530   3.539   5.997   5.883
 4544SOL    HW114531   3.537   5.904   5.919
 4544SOL    HW214532   3.460   6.011   5.824
 4545SOL     OW14533   5.793   3.516   4.243
 4545SOL    HW114534   5.711   3.557   4.203
 4545SOL    HW214535   5.798   3.539   4.340
 4546SOL     OW14536   1.613   1.201   5.211
 4546SOL    HW114537   1.543   1.159   5.153
 4546SOL    HW214538   1.592   1.298   5.224
 4547SOL     OW14539   5.805   2.628   2.620
 4547SOL    HW114540   5.731   2.568   2.653
 4547SOL    HW214541   5.892   2.579   2.626
 4548SOL     OW14542   1.376   3.244   3.830
 4548SOL    HW114543   1.383   3.337   3.795
 4548SOL    HW214544   1.378   3.245   3.930
 4549SOL     OW14545   6.696   3.977   1.582
 4549SOL    HW114546   6.647   3.895   1.613
 4549SOL    HW214547   6.631   4.039   1.536
 4550SOL     OW14548   1.097   4.710   3.227
 4550SOL    HW114549   1.131   4.802   3.208
 4550SOL    HW214550   1.078   4.701   3.325
 4551SOL     OW14551   0.300   3.030   4.891
 4551SOL    HW114552   0.307   3.068   4.983
 4551SOL    HW214553   0.213   2.980   4.883
 4552SOL     OW14554   6.299   3.134   2.044
 4552SOL    HW114555   6.212   3.157   2.087
 4552SOL    HW214556   6.320   3.200   1.972
 4553SOL     OW14557   3.215   4.810   6.476
 4553SOL    HW114558   3.215   4.818   6.576
 4553SOL    HW214559   3.243   4.896   6.435
 4554SOL     OW14560   5.986   0.079   1.506
 4554SOL    HW114561   6.070   0.037   1.540
 4554SOL    HW214562   6.005   0.173   1.477
 4555SOL     OW14563   2.378   2.773   6.184
 4555SOL    HW114564   2.437   2.813   6.114
 4555SOL    HW214565   2.330   2.845   6.233
 4556SOL     OW14566   5.626   3.019   4.324
 4556SOL    HW114567   5.583   2.985   4.241
 4556SOL    HW214568   5.667   3.108   4.306
 4557SOL     OW14569   5.014   6.372   5.484
 4557SOL    HW114570   5.113   6.389   5.481
 4557SOL    HW214571   4.970   6.441   5.541
 4558SOL     OW14572   0.180   4.558   5.175
 4558SOL    HW114573   0.232   4.503   5.109
 4558SOL    HW214574   0.109   4.501   5.217
 4559SOL     OW14575   0.409   4.047   1.966
 4559SOL    HW114576   0.435   4.071   1.873
 4559SOL    HW214577   0.315   4.012   1.966
 4560SOL     OW14578   5.189   4.195   1.470
 4560SOL    HW114579   5.134   4.163   1.547
 4560SOL    HW214580   5.209   4.293   1.482
 4561SOL     OW14581   2.158   1.931   2.752
 4561SOL    HW114582   2.190   1.839   2.729
 4561SOL    HW214583   2.058   1.931   2.756
 4562SOL     OW14584   2.685   6.130   5.729
 4562SOL    HW114585   2.707   6.037   5.757
 4562SOL    HW214586   2.679   6.189   5.809
 4563SOL     OW14587   0.055   2.968   1.522
 4563SOL    HW114588   0.046   3.025   1.441
 4563SOL    HW214589   0.038   3.022   1.604
 4564SOL     OW14590   6.738   6.054   1.756
 4564SOL    HW114591   6.765   6.018   1.667
 4564SOL    HW214592   6.798   6.131   1.780
 4565SOL     OW14593   0.810   1.050   4.849
 4565SOL    HW114594   0.797   0.951   4.847
 4565SOL    HW214595   0.905   1.072   4.825
 4566SOL     OW14596   6.668   3.023   0.234
 4566SOL    HW114597   6.582   3.013   0.183
 4566SOL    HW214598   6.740   3.056   0.172
 4567SOL     OW14599   6.314   0.721   6.907
 4567SOL    HW114600   6.330   0.724   6.809
 4567SOL    HW214601   6.402   0.726   6.956
 4568SOL     OW14602   2.836   3.779   5.867
 4568SOL    HW114603   2.837   3.832   5.953
 4568SOL    HW214604   2.748   3.793   5.821
 4569SOL     OW14605   1.774   1.521   2.756
 4569SOL    HW114606   1.697   1.538   2.817
 4569SOL    HW214607   1.783   1.596   2.691
 4570SOL     OW14608   0.979   6.604   3.227
 4570SOL    HW114609   1.072   6.640   3.228
 4570SOL    HW214610   0.976   6.515   3.271
 4571SOL     OW14611   4.210   4.327   6.358
 4571SOL    HW114612   4.253   4.415   6.339
 4571SOL    HW214613   4.191   4.319   6.456
 4572SOL     OW14614   2.060   0.558   6.557
 4572SOL    HW114615   2.030   0.563   6.462
 4572SOL    HW214616   1.997   0.609   6.615
 4573SOL     OW14617   6.482   1.223   0.164
 4573SOL    HW114618   6.549   1.294   0.144
 4573SOL    HW214619   6.419   1.255   0.235
 4574SOL     OW14620   5.820   4.310   0.875
 4574SOL    HW114621   5.818   4.307   0.975
 4574SOL    HW214622   5.864   4.227   0.840
 4575SOL     OW14623   5.914   0.842   6.665
 4575SOL    HW114624   5.988   0.780   6.691
 4575SOL    HW214625   5.874   0.813   6.578
 4576SOL     OW14626   2.647   6.653   5.870
 4576SOL    HW114627   2.614   6.739   5.830
 4576SOL    HW214628   2.732   6.626   5.826
 4577SOL     OW14629   2.020   2.441   5.112
 4577SOL    HW114630   1.920   2.451   5.107
 4577SOL    HW214631   2.050   2.457   5.206
 4578SOL     OW14632   0.547   2.811   5.284
 4578SOL    HW114633   0.461   2.853   5.313
 4578SOL    HW214634   0.616   2.825   5.355
 4579SOL     OW14635   3.984   0.726   3.469
 4579SOL    HW114636   4.054   0.686   3.528
 4579SOL    HW214637   3.931   0.793   3.521
 4580SOL     OW14638   6.004   5.055   0.467
 4580SOL    HW114639   5.939   5.100   0.528
 4580SOL    HW214640   5.997   5.095   0.376
 4581SOL     OW14641   2.215   5.250   2.810
 4581SOL    HW114642   2.251   5.168   2.854
 4581SOL    HW214643   2.209   5.324   2.878
 4582SOL     OW14644   5.346   0.064   5.311
 4582SOL    HW114645   5.286   0.127   5.260
 4582SOL    HW214646   5.300   7.005   5.322
 4583SOL     OW14647   2.300   2.716   6.705
 4583SOL    HW114648   2.228   2.685   6.767
 4583SOL    HW214649   2.260   2.770   6.631
 4584SOL     OW14650   0.473   4.660   5.642
 4584SOL    HW114651   0.502   4.755   5.652
 4584SOL    HW214652   0.444   4.644   5.548
 4585SOL     OW14653   3.363   5.796   3.252
 4585SOL    HW114654   3.322   5.704   3.246
 4585SOL    HW214655   3.438   5.795   3.318
 4586SOL     OW14656   3.211   4.824   0.380
 4586SOL    HW114657   3.125   4.856   0.340
 4586SOL    HW214658   3.244   4.892   0.445
 4587SOL     OW14659   3.900   3.798   3.079
 4587SOL    HW114660   3.930   3.836   2.992
 4587SOL    HW214661   3.843   3.864   3.128
 4588SOL     OW14662   2.778   3.637   5.276
 4588SOL    HW114663   2.831   3.576   5.217
 4588SOL    HW214664   2.764   3.725   5.231
 4589SOL     OW14665   6.186   1.012   2.413
 4589SOL    HW114666   6.218   0.942   2.350
 4589SOL    HW214667   6.133   0.969   2.486
 4590SOL     OW14668   4.870   5.955   1.357
 4590SOL    HW114669   4.907   6.035   1.404
 4590SOL    HW214670   4.776   5.973   1.329
 4591SOL     OW14671   1.326   6.731   4.892
 4591SOL    HW114672   1.361   6.655   4.946
 4591SOL    HW214673   1.227   6.723   4.883
 4592SOL     OW14674   2.711   1.671   2.158
 4592SOL    HW114675   2.733   1.688   2.254
 4592SOL    HW214676   2.718   1.757   2.107
 4593SOL     OW14677   4.981   5.584   2.531
 4593SOL    HW114678   5.044   5.660   2.514
 4593SOL    HW214679   4.968   5.573   2.630
 4594SOL     OW14680   2.759   1.418   2.873
 4594SOL    HW114681   2.803   1.505   2.851
 4594SOL    HW214682   2.686   1.401   2.807
 4595SOL     OW14683   3.558   3.563   5.914
 4595SOL    HW114684   3.470   3.558   5.867
 4595SOL    HW214685   3.618   3.490   5.880
 4596SOL     OW14686   5.776   0.277   2.088
 4596SOL    HW114687   5.688   0.325   2.093
 4596SOL    HW214688   5.766   0.194   2.034
 4597SOL     OW14689   3.752   5.497   5.952
 4597SOL    HW114690   3.804   5.447   5.883
 4597SOL    HW214691   3.697   5.433   6.006
 4598SOL     OW14692   2.381   6.332   6.513
 4598SOL    HW114693   2.369   6.245   6.561
 4598SOL    HW214694   2.446   6.321   6.439
 4599SOL     OW14695   1.322   4.967   1.004
 4599SOL    HW114696   1.406   5.017   0.982
 4599SOL    HW214697   1.337   4.869   0.988
 4600SOL     OW14698   1.118   5.418   5.519
 4600SOL    HW114699   1.129   5.489   5.448
 4600SOL    HW214700   1.035   5.366   5.500
 4601SOL     OW14701   2.076   1.243   5.667
 4601SOL    HW114702   2.069   1.272   5.763
 4601SOL    HW214703   2.157   1.283   5.625
 4602SOL     OW14704   2.235   6.233   1.186
 4602SOL    HW114705   2.216   6.163   1.255
 4602SOL    HW214706   2.320   6.209   1.137
 4603SOL     OW14707   3.035   6.288   0.711
 4603SOL    HW114708   3.077   6.234   0.784
 4603SOL    HW214709   3.047   6.241   0.624
 4604SOL     OW14710   4.259   0.600   0.570
 4604SOL    HW114711   4.337   0.539   0.560
 4604SOL    HW214712   4.188   0.574   0.505
 4605SOL     OW14713   2.983   0.024   2.527
 4605SOL    HW114714   2.995   0.122   2.538
 4605SOL    HW214715   3.061   7.014   2.478
 4606SOL     OW14716   0.613   6.379   2.403
 4606SOL    HW114717   0.712   6.384   2.390
 4606SOL    HW214718   0.572   6.321   2.333
 4607SOL     OW14719   1.531   3.364   1.604
 4607SOL    HW114720   1.576   3.364   1.693
 4607SOL    HW214721   1.469   3.442   1.598
 4608SOL     OW14722   0.495   6.267   3.566
 4608SOL    HW114723   0.451   6.302   3.648
 4608SOL    HW214724   0.595   6.273   3.576
 4609SOL     OW14725   4.105   5.257   6.630
 4609SOL    HW114726   4.109   5.181   6.565
 4609SOL    HW214727   4.157   5.335   6.595
 4610SOL     OW14728   4.948   2.534   0.822
 4610SOL    HW114729   4.937   2.460   0.755
 4610SOL    HW214730   5.042   2.532   0.858
 4611SOL     OW14731   0.827   6.303   6.677
 4611SOL    HW114732   0.925   6.321   6.674
 4611SOL    HW214733   0.811   6.204   6.671
 4612SOL     OW14734   1.194   5.875   0.146
 4612SOL    HW114735   1.263   5.864   0.074
 4612SOL    HW214736   1.121   5.807   0.134
 4613SOL     OW14737   2.623   6.097   1.898
 4613SOL    HW114738   2.661   6.011   1.933
 4613SOL    HW214739   2.537   6.079   1.850
 4614SOL     OW14740   6.807   3.019   3.784
 4614SOL    HW114741   6.793   3.003   3.687
 4614SOL    HW214742   6.749   3.095   3.815
 4615SOL     OW14743   1.803   0.195   6.899
 4615SOL    HW114744   1.812   0.167   6.994
 4615SOL    HW214745   1.793   0.114   6.841
 4616SOL     OW14746   6.495   0.909   5.036
 4616SOL    HW114747   6.561   0.977   5.068
 4616SOL    HW214748   6.411   0.917   5.090
 4617SOL     OW14749   0.468   2.484   2.454
 4617SOL    HW114750   0.559   2.503   2.491
 4617SOL    HW214751   0.469   2.394   2.410
 4618SOL     OW14752   2.275   2.919   4.768
 4618SOL    HW114753   2.286   2.994   4.703
 4618SOL    HW214754   2.299   2.950   4.860
 4619SOL     OW14755   3.253   6.386   3.062
 4619SOL    HW114756   3.215   6.332   3.137
 4619SOL    HW214757   3.353   6.382   3.065
 4620SOL     OW14758   2.699   4.849   0.818
 4620SOL    HW114759   2.706   4.801   0.730
 4620SOL    HW214760   2.748   4.936   0.812
 4621SOL     OW14761   5.247   0.769   2.125
 4621SOL    HW114762   5.241   0.671   2.105
 4621SOL    HW214763   5.226   0.784   2.221
 4622SOL     OW14764   2.609   4.535   0.755
 4622SOL    HW114765   2.565   4.459   0.803
 4622SOL    HW214766   2.649   4.598   0.822
 4623SOL     OW14767   5.003   6.345   0.648
 4623SOL    HW114768   5.064   6.276   0.687
 4623SOL    HW214769   4.953   6.306   0.571
 4624SOL     OW14770   4.251   6.928   3.162
 4624SOL    HW114771   4.318   6.902   3.231
 4624SOL    HW214772   4.298   6.941   3.074
 4625SOL     OW14773   2.268   4.273   1.065
 4625SOL    HW114774   2.204   4.214   1.114
 4625SOL    HW214775   2.235   4.288   0.972
 4626SOL     OW14776   5.217   4.476   1.484
 4626SOL    HW114777   5.251   4.546   1.547
 4626SOL    HW214778   5.118   4.486   1.473
 4627SOL     OW14779   2.490   4.580   4.547
 4627SOL    HW114780   2.393   4.557   4.537
 4627SOL    HW214781   2.518   4.567   4.642
 4628SOL     OW14782   6.453   4.176   3.865
 4628SOL    HW114783   6.417   4.191   3.772
 4628SOL    HW214784   6.530   4.239   3.881
 4629SOL     OW14785   2.613   5.482   5.934
 4629SOL    HW114786   2.679   5.407   5.941
 4629SOL    HW214787   2.591   5.499   5.838
 4630SOL     OW14788   2.718   5.477   2.621
 4630SOL    HW114789   2.656   5.465   2.699
 4630SOL    HW214790   2.812   5.467   2.653
 4631SOL     OW14791   1.729   5.647   3.220
 4631SOL    HW114792   1.760   5.651   3.125
 4631SOL    HW214793   1.748   5.557   3.258
 4632SOL     OW14794   3.120   4.837   2.474
 4632SOL    HW114795   3.088   4.743   2.485
 4632SOL    HW214796   3.207   4.849   2.521
 4633SOL     OW14797   5.579   0.352   4.644
 4633SOL    HW114798   5.595   0.260   4.680
 4633SOL    HW214799   5.666   0.393   4.616
 4634SOL     OW14800   3.552   4.475   5.605
 4634SOL    HW114801   3.618   4.482   5.530
 4634SOL    HW214802   3.596   4.498   5.691
 4635SOL     OW14803   4.565   3.881   1.325
 4635SOL    HW114804   4.483   3.838   1.361
 4635SOL    HW214805   4.552   3.900   1.227
 4636SOL     OW14806   1.427   4.714   6.833
 4636SOL    HW114807   1.443   4.792   6.772
 4636SOL    HW214808   1.385   4.639   6.781
 4637SOL     OW14809   0.951   6.101   1.236
 4637SOL    HW114810   1.004   6.184   1.254
 4637SOL    HW214811   0.856   6.125   1.218
 4638SOL     OW14812   4.512   4.503   6.674
 4638SOL    HW114813   4.469   4.457   6.751
 4638SOL    HW214814   4.453   4.577   6.641
 4639SOL     OW14815   3.625   3.804   5.720
 4639SOL    HW114816   3.547   3.855   5.683
 4639SOL    HW214817   3.597   3.753   5.801
 4640SOL     OW14818   4.840   4.074   3.921
 4640SOL    HW114819   4.869   3.987   3.881
 4640SOL    HW214820   4.827   4.062   4.019
 4641SOL     OW14821   2.275   6.946   4.697
 4641SOL    HW114822   2.203   6.918   4.761
 4641SOL    HW214823   2.267   6.894   4.612
 4642SOL     OW14824   1.249   5.625   4.495
 4642SOL    HW114825   1.272   5.707   4.547
 4642SOL    HW214826   1.157   5.635   4.456
 4643SOL     OW14827   6.631   2.420   1.221
 4643SOL    HW114828   6.552   2.468   1.181
 4643SOL    HW214829   6.602   2.331   1.256
 4644SOL     OW14830   6.768   5.340   5.186
 4644SOL    HW114831   6.848   5.346   5.245
 4644SOL    HW214832   6.689   5.309   5.240
 4645SOL     OW14833   0.312   0.259   3.989
 4645SOL    HW114834   0.382   0.331   3.993
 4645SOL    HW214835   0.255   0.272   3.908
 4646SOL     OW14836   2.008   6.144   3.847
 4646SOL    HW114837   1.924   6.123   3.798
 4646SOL    HW214838   2.077   6.073   3.829
 4647SOL     OW14839   1.774   0.077   3.060
 4647SOL    HW114840   1.734   0.025   3.135
 4647SOL    HW214841   1.708   0.147   3.030
 4648SOL     OW14842   3.309   1.178   2.634
 4648SOL    HW114843   3.305   1.091   2.682
 4648SOL    HW214844   3.245   1.178   2.558
 4649SOL     OW14845   5.222   0.617   0.048
 4649SOL    HW114846   5.125   0.601   0.063
 4649SOL    HW214847   5.266   0.639   0.135
 4650SOL     OW14848   4.753   5.347   2.624
 4650SOL    HW114849   4.829   5.406   2.652
 4650SOL    HW214850   4.719   5.376   2.535
 4651SOL     OW14851   6.693   2.936   0.684
 4651SOL    HW114852   6.788   2.928   0.715
 4651SOL    HW214853   6.689   2.992   0.601
 4652SOL     OW14854   6.514   7.004   4.327
 4652SOL    HW114855   6.458   0.057   4.333
 4652SOL    HW214856   6.542   6.988   4.232
 4653SOL     OW14857   5.168   5.134   0.676
 4653SOL    HW114858   5.259   5.167   0.651
 4653SOL    HW214859   5.155   5.042   0.639
 4654SOL     OW14860   0.870   6.837   0.410
 4654SOL    HW114861   0.902   6.885   0.492
 4654SOL    HW214862   0.770   6.836   0.409
 4655SOL     OW14863   5.141   3.972   0.937
 4655SOL    HW114864   5.122   4.021   1.022
 4655SOL    HW214865   5.174   3.880   0.959
 4656SOL     OW14866   1.346   0.231   2.580
 4656SOL    HW114867   1.394   0.248   2.494
 4656SOL    HW214868   1.313   0.136   2.581
 4657SOL     OW14869   4.352   6.883   1.765
 4657SOL    HW114870   4.435   6.829   1.752
 4657SOL    HW214871   4.320   6.917   1.676
 4658SOL     OW14872   3.609   1.071   3.019
 4658SOL    HW114873   3.510   1.083   3.007
 4658SOL    HW214874   3.645   1.148   3.072
 4659SOL     OW14875   3.528   4.922   5.062
 4659SOL    HW114876   3.476   4.927   4.977
 4659SOL    HW214877   3.504   4.837   5.110
 4660SOL     OW14878   1.103   3.652   5.292
 4660SOL    HW114879   1.060   3.640   5.202
 4660SOL    HW214880   1.034   3.685   5.357
 4661SOL     OW14881   2.816   4.365   5.779
 4661SOL    HW114882   2.887   4.297   5.797
 4661SOL    HW214883   2.754   4.370   5.858
 4662SOL     OW14884   3.211   0.104   5.627
 4662SOL    HW114885   3.230   0.010   5.658
 4662SOL    HW214886   3.206   0.164   5.707
 4663SOL     OW14887   0.359   1.938   1.658
 4663SOL    HW114888   0.360   1.929   1.757
 4663SOL    HW214889   0.444   1.982   1.628
 4664SOL     OW14890   1.256   1.079   1.273
 4664SOL    HW114891   1.195   1.148   1.312
 4664SOL    HW214892   1.289   1.110   1.184
 4665SOL     OW14893   3.752   0.338   6.496
 4665SOL    HW114894   3.735   0.240   6.499
 4665SOL    HW214895   3.692   0.385   6.561
 4666SOL     OW14896   1.677   2.991   0.734
 4666SOL    HW114897   1.652   2.899   0.765
 4666SOL    HW214898   1.651   3.058   0.803
 4667SOL     OW14899   6.674   3.243   2.414
 4667SOL    HW114900   6.674   3.316   2.346
 4667SOL    HW214901   6.582   3.204   2.423
 4668SOL     OW14902   4.305   2.087   2.683
 4668SOL    HW114903   4.371   2.161   2.694
 4668SOL    HW214904   4.334   2.026   2.609
 4669SOL     OW14905   4.569   6.784   6.314
 4669SOL    HW114906   4.643   6.724   6.345
 4669SOL    HW214907   4.536   6.754   6.225
 4670SOL     OW14908   2.247   2.665   5.937
 4670SOL    HW114909   2.307   2.585   5.928
 4670SOL    HW214910   2.278   2.721   6.014
 4671SOL     OW14911   0.045   2.576   0.847
 4671SOL    HW114912   0.118   2.619   0.794
 4671SOL    HW214913   0.072   2.483   0.872
 4672SOL     OW14914   2.398   4.444   5.835
 4672SOL    HW114915   2.475   4.457   5.772
 4672SOL    HW214916   2.420   4.486   5.923
 4673SOL     OW14917   5.259   0.467   2.018
 4673SOL    HW114918   5.315   0.402   2.070
 4673SOL    HW214919   5.312   0.504   1.942
 4674SOL     OW14920   5.604   1.124   6.637
 4674SOL    HW114921   5.565   1.052   6.693
 4674SOL    HW214922   5.580   1.213   6.675
 4675SOL     OW14923   2.211   1.427   6.607
 4675SOL    HW114924   2.112   1.423   6.592
 4675SOL    HW214925   2.257   1.446   6.520
 4676SOL     OW14926   7.009   6.132   3.689
 4676SOL    HW114927   7.012   6.094   3.597
 4676SOL    HW214928   0.064   6.108   3.738
 4677SOL     OW14929   2.415   1.648   6.485
 4677SOL    HW114930   2.419   1.744   6.514
 4677SOL    HW214931   2.339   1.636   6.421
 4678SOL     OW14932   1.750   4.073   3.014
 4678SOL    HW114933   1.816   4.009   2.973
 4678SOL    HW214934   1.798   4.153   3.048
 4679SOL     OW14935   3.823   1.309   0.611
 4679SOL    HW114936   3.890   1.334   0.541
 4679SOL    HW214937   3.764   1.236   0.577
 4680SOL     OW14938   3.121   1.556   0.655
 4680SOL    HW114939   3.138   1.646   0.696
 4680SOL    HW214940   3.206   1.522   0.614
 4681SOL     OW14941   4.999   6.031   6.133
 4681SOL    HW114942   5.021   6.017   6.036
 4681SOL    HW214943   5.078   6.006   6.189
 4682SOL     OW14944   4.353   4.525   5.723
 4682SOL    HW114945   4.327   4.620   5.704
 4682SOL    HW214946   4.303   4.464   5.661
 4683SOL     OW14947   4.300   4.822   2.919
 4683SOL    HW114948   4.360   4.888   2.875
 4683SOL    HW214949   4.236   4.784   2.852
 4684SOL     OW14950   6.628   1.848   4.860
 4684SOL    HW114951   6.649   1.759   4.819
 4684SOL    HW214952   6.710   1.882   4.908
 4685SOL     OW14953   0.958   6.062   5.761
 4685SOL    HW114954   0.892   5.987   5.770
 4685SOL    HW214955   0.939   6.132   5.830
 4686SOL     OW14956   4.445   5.098   7.002
 4686SOL    HW114957   4.409   5.034   0.041
 4686SOL    HW214958   4.432   5.060   6.910
 4687SOL     OW14959   6.353   3.936   4.850
 4687SOL    HW114960   6.280   3.881   4.809
 4687SOL    HW214961   6.346   3.932   4.949
 4688SOL     OW14962   5.998   4.519   4.599
 4688SOL    HW114963   6.024   4.551   4.508
 4688SOL    HW214964   5.901   4.537   4.614
 4689SOL     OW14965   5.702   0.835   0.529
 4689SOL    HW114966   5.679   0.746   0.491
 4689SOL    HW214967   5.660   0.845   0.619
 4690SOL     OW14968   1.087   6.871   6.974
 4690SOL    HW114969   1.069   6.918   6.888
 4690SOL    HW214970   1.048   6.923   0.021
 4691SOL     OW14971   3.038   4.929   1.649
 4691SOL    HW114972   2.991   4.959   1.566
 4691SOL    HW214973   2.973   4.886   1.711
 4692SOL     OW14974   6.059   5.309   2.093
 4692SOL    HW114975   6.110   5.363   2.160
 4692SOL    HW214976   5.974   5.357   2.070
 4693SOL     OW14977   0.671   1.334   3.268
 4693SOL    HW114978   0.720   1.394   3.331
 4693SOL    HW214979   0.633   1.388   3.193
 4694SOL     OW14980   1.885   0.605   0.165
 4694SOL    HW114981   1.908   0.523   0.217
 4694SOL    HW214982   1.905   0.589   0.068
 4695SOL     OW14983   1.689   3.377   1.853
 4695SOL    HW114984   1.767   3.404   1.909
 4695SOL    HW214985   1.610   3.359   1.911
 4696SOL     OW14986   0.487   4.349   0.218
 4696SOL    HW114987   0.572   4.368   0.267
 4696SOL    HW214988   0.411   4.397   0.263
 4697SOL     OW14989   1.818   3.057   1.368
 4697SOL    HW114990   1.875   3.006   1.432
 4697SOL    HW214991   1.863   3.062   1.279
 4698SOL     OW14992   4.482   5.012   2.864
 4698SOL    HW114993   4.550   4.940   2.875
 4698SOL    HW214994   4.528   5.097   2.838
 4699SOL     OW14995   1.968   6.600   2.126
 4699SOL    HW114996   1.928   6.677   2.076
 4699SOL    HW214997   1.926   6.515   2.095
 4700SOL     OW14998   6.571   1.456   3.176
 4700SOL    HW114999   6.554   1.397   3.097
 4700SOL    HW215000   6.485   1.471   3.225
 4701SOL     OW15001   2.326   2.074   6.939
 4701SOL    HW115002   2.303   2.062   6.842
 4701SOL    HW215003   2.300   2.166   6.968
 4702SOL     OW15004   3.934   5.363   0.108
 4702SOL    HW115005   3.996   5.344   0.185
 4702SOL    HW215006   3.961   5.309   0.029
 4703SOL     OW15007   1.076   1.419   1.575
 4703SOL    HW115008   1.073   1.518   1.587
 4703SOL    HW215009   1.160   1.382   1.615
 4704SOL     OW15010   0.416   6.411   0.746
 4704SOL    HW115011   0.417   6.327   0.800
 4704SOL    HW215012   0.418   6.388   0.649
 4705SOL     OW15013   3.531   3.071   2.288
 4705SOL    HW115014   3.518   3.015   2.370
 4705SOL    HW215015   3.490   3.160   2.302
 4706SOL     OW15016   3.599   0.473   6.666
 4706SOL    HW115017   3.678   0.532   6.679
 4706SOL    HW215018   3.573   0.434   6.754
 4707SOL     OW15019   2.017   6.520   0.894
 4707SOL    HW115020   2.029   6.575   0.977
 4707SOL    HW215021   2.059   6.431   0.906
 4708SOL     OW15022   1.197   1.819   6.469
 4708SOL    HW115023   1.099   1.807   6.459
 4708SOL    HW215024   1.230   1.884   6.401
 4709SOL     OW15025   4.626   6.192   5.786
 4709SOL    HW115026   4.621   6.114   5.849
 4709SOL    HW215027   4.684   6.167   5.707
 4710SOL     OW15028   4.167   0.807   5.395
 4710SOL    HW115029   4.121   0.718   5.387
 4710SOL    HW215030   4.191   0.824   5.490
 4711SOL     OW15031   5.918   0.936   1.480
 4711SOL    HW115032   5.959   0.845   1.466
 4711SOL    HW215033   5.952   0.974   1.566
 4712SOL     OW15034   2.781   4.228   6.988
 4712SOL    HW115035   2.827   4.204   0.045
 4712SOL    HW215036   2.703   4.288   7.008
 4713SOL     OW15037   3.391   3.744   0.439
 4713SOL    HW115038   3.415   3.760   0.534
 4713SOL    HW215039   3.309   3.796   0.415
 4714SOL     OW15040   1.209   2.509   0.150
 4714SOL    HW115041   1.228   2.573   0.076
 4714SOL    HW215042   1.130   2.541   0.202
 4715SOL     OW15043   5.626   2.446   2.732
 4715SOL    HW115044   5.569   2.426   2.653
 4715SOL    HW215045   5.674   2.363   2.760
 4716SOL     OW15046   4.951   5.601   6.380
 4716SOL    HW115047   4.954   5.501   6.391
 4716SOL    HW215048   4.888   5.624   6.305
 4717SOL     OW15049   0.084   0.301   3.834
 4717SOL    HW115050   0.027   0.356   3.894
 4717SOL    HW215051   0.034   0.219   3.805
 4718SOL     OW15052   5.403   2.700   1.561
 4718SOL    HW115053   5.431   2.783   1.610
 4718SOL    HW215054   5.305   2.704   1.541
 4719SOL     OW15055   5.245   2.965   1.776
 4719SOL    HW115056   5.289   2.890   1.825
 4719SOL    HW215057   5.173   2.928   1.718
 4720SOL     OW15058   2.285   5.368   5.731
 4720SOL    HW115059   2.304   5.307   5.654
 4720SOL    HW215060   2.297   5.318   5.816
 4721SOL     OW15061   6.452   2.067   2.166
 4721SOL    HW115062   6.356   2.042   2.179
 4721SOL    HW215063   6.500   2.058   2.253
 4722SOL     OW15064   0.786   5.980   6.256
 4722SOL    HW115065   0.839   5.912   6.205
 4722SOL    HW215066   0.762   5.944   6.346
 4723SOL     OW15067   2.582   3.839   5.817
 4723SOL    HW115068   2.532   3.824   5.731
 4723SOL    HW215069   2.557   3.929   5.854
 4724SOL     OW15070   6.445   6.186   2.740
 4724SOL    HW115071   6.499   6.219   2.662
 4724SOL    HW215072   6.378   6.255   2.766
 4725SOL     OW15073   6.231   5.616   2.624
 4725SOL    HW115074   6.183   5.533   2.654
 4725SOL    HW215075   6.329   5.604   2.638
 4726SOL     OW15076   1.468   2.524   5.686
 4726SOL    HW115077   1.498   2.429   5.690
 4726SOL    HW215078   1.449   2.550   5.592
 4727SOL     OW15079   1.204   6.002   1.149
 4727SOL    HW115080   1.121   6.054   1.170
 4727SOL    HW215081   1.178   5.915   1.107
 4728SOL     OW15082   6.326   0.995   2.050
 4728SOL    HW115083   6.371   1.073   2.093
 4728SOL    HW215084   6.369   0.976   1.962
 4729SOL     OW15085   2.702   1.289   0.566
 4729SOL    HW115086   2.664   1.231   0.494
 4729SOL    HW215087   2.636   1.295   0.642
 4730SOL     OW15088   3.356   5.948   5.093
 4730SOL    HW115089   3.339   5.856   5.130
 4730SOL    HW215090   3.269   5.993   5.075
 4731SOL     OW15091   4.600   0.241   7.014
 4731SOL    HW115092   4.666   0.205   6.948
 4731SOL    HW215093   4.627   0.213   0.078
 4732SOL     OW15094   0.867   2.955   6.102
 4732SOL    HW115095   0.930   3.013   6.153
 4732SOL    HW215096   0.778   3.001   6.095
 4733SOL     OW15097   1.180   3.865   3.376
 4733SOL    HW115098   1.247   3.791   3.365
 4733SOL    HW215099   1.227   3.953   3.374
 4734SOL     OW15100   4.460   2.665   0.665
 4734SOL    HW115101   4.553   2.690   0.637
 4734SOL    HW215102   4.405   2.748   0.673
 4735SOL     OW15103   6.902   5.527   4.432
 4735SOL    HW115104   6.841   5.604   4.413
 4735SOL    HW215105   6.862   5.468   4.502
 4736SOL     OW15106   0.054   1.803   6.070
 4736SOL    HW115107   7.007   1.739   6.054
 4736SOL    HW215108   0.140   1.752   6.074
 4737SOL     OW15109   2.384   4.372   2.096
 4737SOL    HW115110   2.296   4.411   2.125
 4737SOL    HW215111   2.438   4.349   2.177
 4738SOL     OW15112   0.099   6.495   2.937
 4738SOL    HW115113   0.052   6.575   2.898
 4738SOL    HW215114   0.198   6.506   2.926
 4739SOL     OW15115   4.111   6.733   3.357
 4739SOL    HW115116   4.098   6.830   3.338
 4739SOL    HW215117   4.023   6.686   3.349
 4740SOL     OW15118   1.034   1.231   1.783
 4740SOL    HW115119   1.038   1.303   1.714
 4740SOL    HW215120   1.092   1.154   1.755
 4741SOL     OW15121   4.002   3.472   1.162
 4741SOL    HW115122   4.029   3.528   1.240
 4741SOL    HW215123   3.995   3.529   1.080
 4742SOL     OW15124   3.629   6.906   6.245
 4742SOL    HW115125   3.684   6.823   6.245
 4742SOL    HW215126   3.679   6.979   6.198
 4743SOL     OW15127   1.686   3.130   3.174
 4743SOL    HW115128   1.740   3.161   3.096
 4743SOL    HW215129   1.624   3.203   3.204
 4744SOL     OW15130   1.717   4.616   0.443
 4744SOL    HW115131   1.747   4.709   0.422
 4744SOL    HW215132   1.781   4.574   0.507
 4745SOL     OW15133   3.398   4.251   5.931
 4745SOL    HW115134   3.480   4.214   5.888
 4745SOL    HW215135   3.317   4.227   5.878
 4746SOL     OW15136   5.401   6.014   1.961
 4746SOL    HW115137   5.365   6.069   2.037
 4746SOL    HW215138   5.402   5.917   1.988
 4747SOL     OW15139   1.424   4.158   0.122
 4747SOL    HW115140   1.467   4.171   0.212
 4747SOL    HW215141   1.420   4.246   0.074
 4748SOL     OW15142   2.193   5.162   0.884
 4748SOL    HW115143   2.172   5.240   0.943
 4748SOL    HW215144   2.220   5.196   0.793
 4749SOL     OW15145   2.128   6.339   5.669
 4749SOL    HW115146   2.202   6.360   5.606
 4749SOL    HW215147   2.051   6.300   5.619
 4750SOL     OW15148   0.327   4.082   4.577
 4750SOL    HW115149   0.300   4.153   4.513
 4750SOL    HW215150   0.406   4.113   4.631
 4751SOL     OW15151   3.997   2.002   2.268
 4751SOL    HW115152   3.990   2.062   2.347
 4751SOL    HW215153   3.972   2.052   2.185
 4752SOL     OW15154   4.088   1.487   6.537
 4752SOL    HW115155   3.999   1.530   6.525
 4752SOL    HW215156   4.106   1.474   6.635
 4753SOL     OW15157   6.206   0.116   3.640
 4753SOL    HW115158   6.274   0.102   3.568
 4753SOL    HW215159   6.123   0.155   3.600
 4754SOL     OW15160   5.983   5.284   4.836
 4754SOL    HW115161   5.916   5.315   4.904
 4754SOL    HW215162   5.947   5.301   4.744
 4755SOL     OW15163   2.989   0.528   0.150
 4755SOL    HW115164   3.037   0.573   0.226
 4755SOL    HW215165   3.056   0.483   0.091
 4756SOL     OW15166   5.983   2.762   0.116
 4756SOL    HW115167   5.896   2.778   0.069
 4756SOL    HW215168   6.045   2.712   0.056
 4757SOL     OW15169   2.475   1.325   0.751
 4757SOL    HW115170   2.485   1.232   0.786
 4757SOL    HW215171   2.489   1.391   0.825
 4758SOL     OW15172   1.653   6.250   3.589
 4758SOL    HW115173   1.593   6.172   3.572
 4758SOL    HW215174   1.660   6.265   3.687
 4759SOL     OW15175   6.418   4.551   4.842
 4759SOL    HW115176   6.457   4.562   4.751
 4759SOL    HW215177   6.356   4.627   4.862
 4760SOL     OW15178   2.417   2.174   0.620
 4760SOL    HW115179   2.483   2.168   0.695
 4760SOL    HW215180   2.328   2.202   0.656
 4761SOL     OW15181   0.400   5.728   0.226
 4761SOL    HW115182   0.321   5.778   0.192
 4761SOL    HW215183   0.430   5.663   0.156
 4762SOL     OW15184   1.334   5.866   2.256
 4762SOL    HW115185   1.298   5.865   2.163
 4762SOL    HW215186   1.415   5.924   2.260
 4763SOL     OW15187   5.847   6.846   3.015
 4763SOL    HW115188   5.759   6.886   3.044
 4763SOL    HW215189   5.873   6.774   3.078
 4764SOL     OW15190   4.889   4.012   5.117
 4764SOL    HW115191   4.956   4.082   5.143
 4764SOL    HW215192   4.935   3.923   5.112
 4765SOL     OW15193   4.810   1.238   5.206
 4765SOL    HW115194   4.747   1.202   5.137
 4765SOL    HW215195   4.863   1.313   5.166
 4766SOL     OW15196   5.493   5.572   4.148
 4766SOL    HW115197   5.452   5.584   4.238
 4766SOL    HW215198   5.591   5.593   4.152
 4767SOL     OW15199   3.034   5.409   5.122
 4767SOL    HW115200   3.072   5.341   5.059
 4767SOL    HW215201   2.935   5.410   5.113
 4768SOL     OW15202   4.274   2.349   6.454
 4768SOL    HW115203   4.331   2.406   6.396
 4768SOL    HW215204   4.262   2.393   6.543
 4769SOL     OW15205   4.706   5.148   6.983
 4769SOL    HW115206   4.608   5.126   6.987
 4769SOL    HW215207   4.759   5.070   7.016
 4770SOL     OW15208   0.475   1.146   4.121
 4770SOL    HW115209   0.427   1.096   4.193
 4770SOL    HW215210   0.410   1.180   4.054
 4771SOL     OW15211   2.931   5.366   5.386
 4771SOL    HW115212   2.971   5.390   5.298
 4771SOL    HW215213   2.834   5.346   5.375
 4772SOL     OW15214   4.153   4.894   0.877
 4772SOL    HW115215   4.109   4.805   0.880
 4772SOL    HW215216   4.249   4.883   0.853
 4773SOL     OW15217   6.748   5.150   4.401
 4773SOL    HW115218   6.742   5.249   4.414
 4773SOL    HW215219   6.793   5.109   4.481
 4774SOL     OW15220   1.873   3.313   1.655
 4774SOL    HW115221   1.810   3.351   1.723
 4774SOL    HW215222   1.967   3.338   1.680
 4775SOL     OW15223   5.282   6.635   2.765
 4775SOL    HW115224   5.189   6.669   2.752
 4775SOL    HW215225   5.278   6.539   2.796
 4776SOL     OW15226   1.247   6.122   6.119
 4776SOL    HW115227   1.230   6.079   6.030
 4776SOL    HW215228   1.164   6.168   6.150
 4777SOL     OW15229   2.208   5.263   1.421
 4777SOL    HW115230   2.202   5.362   1.412
 4777SOL    HW215231   2.244   5.224   1.336
 4778SOL     OW15232   6.556   2.609   3.909
 4778SOL    HW115233   6.481   2.542   3.908
 4778SOL    HW215234   6.535   2.684   3.847
 4779SOL     OW15235   5.800   6.065   2.291
 4779SOL    HW115236   5.863   6.080   2.368
 4779SOL    HW215237   5.806   5.970   2.261
 4780SOL     OW15238   5.751   1.699   0.113
 4780SOL    HW115239   5.738   1.757   0.033
 4780SOL    HW215240   5.732   1.751   0.196
 4781SOL     OW15241   2.599   5.931   2.440
 4781SOL    HW115242   2.613   6.013   2.384
 4781SOL    HW215243   2.578   5.853   2.380
 4782SOL     OW15244   6.015   5.525   6.867
 4782SOL    HW115245   6.049   5.440   6.827
 4782SOL    HW215246   5.917   5.515   6.887
 4783SOL     OW15247   4.942   3.837   6.817
 4783SOL    HW115248   4.955   3.904   6.744
 4783SOL    HW215249   5.029   3.791   6.837
 4784SOL     OW15250   6.418   3.540   6.710
 4784SOL    HW115251   6.366   3.558   6.627
 4784SOL    HW215252   6.425   3.624   6.764
 4785SOL     OW15253   1.567   6.176   3.009
 4785SOL    HW115254   1.525   6.266   3.025
 4785SOL    HW215255   1.495   6.107   3.004
 4786SOL     OW15256   2.584   0.191   0.289
 4786SOL    HW115257   2.535   0.256   0.347
 4786SOL    HW215258   2.575   0.099   0.327
 4787SOL     OW15259   3.963   1.286   2.877
 4787SOL    HW115260   4.057   1.252   2.872
 4787SOL    HW215261   3.956   1.355   2.948
 4788SOL     OW15262   6.334   6.234   6.881
 4788SOL    HW115263   6.425   6.201   6.902
 4788SOL    HW215264   6.314   6.219   6.785
 4789SOL     OW15265   4.820   2.312   1.215
 4789SOL    HW115266   4.767   2.230   1.236
 4789SOL    HW215267   4.786   2.355   1.131
 4790SOL     OW15268   6.358   1.860   5.500
 4790SOL    HW115269   6.384   1.801   5.424
 4790SOL    HW215270   6.303   1.937   5.466
 4791SOL     OW15271   0.155   2.966   1.159
 4791SOL    HW115272   0.085   3.026   1.197
 4791SOL    HW215273   0.124   2.871   1.164
 4792SOL     OW15274   2.841   4.762   3.470
 4792SOL    HW115275   2.877   4.738   3.380
 4792SOL    HW215276   2.915   4.767   3.536
 4793SOL     OW15277   2.391   2.585   4.948
 4793SOL    HW115278   2.367   2.653   5.017
 4793SOL    HW215279   2.328   2.507   4.956
 4794SOL     OW15280   5.320   0.186   4.870
 4794SOL    HW115281   5.415   0.168   4.893
 4794SOL    HW215282   5.307   0.180   4.771
 4795SOL     OW15283   6.389   2.112   3.984
 4795SOL    HW115284   6.328   2.064   3.921
 4795SOL    HW215285   6.377   2.076   4.076
 4796SOL     OW15286   4.741   1.532   5.032
 4796SOL    HW115287   4.677   1.608   5.030
 4796SOL    HW215288   4.705   1.456   4.977
 4797SOL     OW15289   0.623   6.371   5.452
 4797SOL    HW115290   0.671   6.285   5.465
 4797SOL    HW215291   0.684   6.437   5.408
 4798SOL     OW15292   0.033   4.153   5.608
 4798SOL    HW115293   0.047   4.054   5.600
 4798SOL    HW215294   6.964   4.172   5.622
 4799SOL     OW15295   4.370   1.729   0.552
 4799SOL    HW115296   4.468   1.712   0.546
 4799SOL    HW215297   4.320   1.646   0.525
 4800SOL     OW15298   2.925   2.544   6.823
 4800SOL    HW115299   2.830   2.566   6.799
 4800SOL    HW215300   2.926   2.466   6.886
 4801SOL     OW15301   3.165   2.359   6.533
 4801SOL    HW115302   3.144   2.344   6.437
 4801SOL    HW215303   3.107   2.299   6.590
 4802SOL     OW15304   0.497   6.512   2.011
 4802SOL    HW115305   0.569   6.577   2.033
 4802SOL    HW215306   0.523   6.460   1.930
 4803SOL     OW15307   6.888   4.671   0.052
 4803SOL    HW115308   6.956   4.632   0.114
 4803SOL    HW215309   6.797   4.662   0.092
 4804SOL     OW15310   6.662   6.524   1.925
 4804SOL    HW115311   6.730   6.546   1.996
 4804SOL    HW215312   6.660   6.426   1.910
 4805SOL     OW15313   6.015   1.517   2.255
 4805SOL    HW115314   6.071   1.553   2.329
 4805SOL    HW215315   6.043   1.422   2.236
 4806SOL     OW15316   0.894   4.201   2.839
 4806SOL    HW115317   0.975   4.188   2.783
 4806SOL    HW215318   0.884   4.298   2.862
 4807SOL     OW15319   0.649   5.183   0.259
 4807SOL    HW115320   0.576   5.124   0.224
 4807SOL    HW215321   0.620   5.222   0.347
 4808SOL     OW15322   4.731   5.294   0.829
 4808SOL    HW115323   4.756   5.326   0.737
 4808SOL    HW215324   4.658   5.353   0.865
 4809SOL     OW15325   3.551   4.840   0.229
 4809SOL    HW115326   3.553   4.747   0.192
 4809SOL    HW215327   3.564   4.836   0.328
 4810SOL     OW15328   1.781   4.242   2.468
 4810SOL    HW115329   1.739   4.250   2.558
 4810SOL    HW215330   1.775   4.330   2.420
 4811SOL     OW15331   2.529   4.109   1.746
 4811SOL    HW115332   2.556   4.018   1.715
 4811SOL    HW215333   2.598   4.176   1.716
 4812SOL     OW15334   0.553   5.503   2.459
 4812SOL    HW115335   0.520   5.413   2.488
 4812SOL    HW215336   0.484   5.572   2.481
 4813SOL     OW15337   6.007   1.674   6.513
 4813SOL    HW115338   6.052   1.596   6.469
 4813SOL    HW215339   6.033   1.678   6.609
 4814SOL     OW15340   7.021   3.151   1.317
 4814SOL    HW115341   0.002   3.245   1.283
 4814SOL    HW215342   6.928   3.119   1.299
 4815SOL     OW15343   5.177   3.874   2.833
 4815SOL    HW115344   5.155   3.958   2.784
 4815SOL    HW215345   5.112   3.862   2.909
 4816SOL     OW15346   2.259   4.701   1.143
 4816SOL    HW115347   2.226   4.794   1.129
 4816SOL    HW215348   2.359   4.698   1.131
 4817SOL     OW15349   2.231   1.620   6.797
 4817SOL    HW115350   2.236   1.545   6.731
 4817SOL    HW215351   2.255   1.585   6.888
 4818SOL     OW15352   0.787   6.613   4.579
 4818SOL    HW115353   0.875   6.629   4.534
 4818SOL    HW215354   0.733   6.549   4.524
 4819SOL     OW15355   2.165   1.472   0.696
 4819SOL    HW115356   2.135   1.404   0.763
 4819SOL    HW215357   2.178   1.428   0.607
 4820SOL     OW15358   6.006   2.810   2.446
 4820SOL    HW115359   6.025   2.753   2.366
 4820SOL    HW215360   5.911   2.799   2.473
 4821SOL     OW15361   0.406   6.797   2.409
 4821SOL    HW115362   0.333   6.840   2.462
 4821SOL    HW215363   0.400   6.698   2.419
 4822SOL     OW15364   2.151   3.417   4.344
 4822SOL    HW115365   2.169   3.408   4.442
 4822SOL    HW215366   2.177   3.509   4.314
 4823SOL     OW15367   1.254   0.281   4.774
 4823SOL    HW115368   1.186   0.273   4.702
 4823SOL    HW215369   1.281   0.377   4.784
 4824SOL     OW15370   5.522   2.114   4.445
 4824SOL    HW115371   5.529   2.071   4.535
 4824SOL    HW215372   5.425   2.124   4.421
 4825SOL     OW15373   1.893   2.312   4.575
 4825SOL    HW115374   1.962   2.276   4.512
 4825SOL    HW215375   1.931   2.316   4.668
 4826SOL     OW15376   6.712   1.457   6.064
 4826SOL    HW115377   6.631   1.434   6.010
 4826SOL    HW215378   6.702   1.422   6.157
 4827SOL     OW15379   6.523   1.328   1.385
 4827SOL    HW115380   6.564   1.254   1.438
 4827SOL    HW215381   6.428   1.305   1.363
 4828SOL     OW15382   5.423   3.114   0.748
 4828SOL    HW115383   5.494   3.167   0.701
 4828SOL    HW215384   5.334   3.138   0.710
 4829SOL     OW15385   4.485   6.828   0.094
 4829SOL    HW115386   4.445   6.896   0.032
 4829SOL    HW215387   4.413   6.768   0.129
 4830SOL     OW15388   4.138   6.844   3.757
 4830SOL    HW115389   4.133   6.916   3.688
 4830SOL    HW215390   4.100   6.759   3.720
 4831SOL     OW15391   0.299   4.618   6.400
 4831SOL    HW115392   0.341   4.658   6.319
 4831SOL    HW215393   0.199   4.622   6.391
 4832SOL     OW15394   3.402   3.655   4.445
 4832SOL    HW115395   3.313   3.618   4.472
 4832SOL    HW215396   3.451   3.686   4.526
 4833SOL     OW15397   4.788   2.011   3.337
 4833SOL    HW115398   4.863   2.075   3.349
 4833SOL    HW215399   4.710   2.040   3.393
 4834SOL     OW15400   3.802   6.323   0.975
 4834SOL    HW115401   3.817   6.415   0.940
 4834SOL    HW215402   3.810   6.323   1.075
 4835SOL     OW15403   6.728   1.295   6.271
 4835SOL    HW115404   6.821   1.259   6.265
 4835SOL    HW215405   6.709   1.320   6.366
 4836SOL     OW15406   5.196   2.840   4.716
 4836SOL    HW115407   5.290   2.819   4.740
 4836SOL    HW215408   5.175   2.934   4.743
 4837SOL     OW15409   6.194   3.749   2.662
 4837SOL    HW115410   6.271   3.810   2.649
 4837SOL    HW215411   6.209   3.665   2.610
 4838SOL     OW15412   1.157   5.152   0.065
 4838SOL    HW115413   1.104   5.168   7.010
 4838SOL    HW215414   1.220   5.076   0.052
 4839SOL     OW15415   1.882   3.265   6.571
 4839SOL    HW115416   1.884   3.271   6.671
 4839SOL    HW215417   1.976   3.267   6.536
 4840SOL     OW15418   6.749   4.911   6.555
 4840SOL    HW115419   6.737   4.889   6.458
 4840SOL    HW215420   6.835   4.872   6.588
 4841SOL     OW15421   3.151   5.265   1.850
 4841SOL    HW115422   3.229   5.212   1.884
 4841SOL    HW215423   3.151   5.263   1.750
 4842SOL     OW15424   3.645   4.935   2.665
 4842SOL    HW115425   3.641   4.935   2.765
 4842SOL    HW215426   3.724   4.881   2.635
 4843SOL     OW15427   6.803   2.980   1.040
 4843SOL    HW115428   6.817   2.988   1.139
 4843SOL    HW215429   6.771   2.888   1.018
 4844SOL     OW15430   0.276   3.122   5.935
 4844SOL    HW115431   0.237   3.080   6.017
 4844SOL    HW215432   0.244   3.216   5.928
 4845SOL     OW15433   5.218   5.461   6.398
 4845SOL    HW115434   5.308   5.455   6.355
 4845SOL    HW215435   5.154   5.402   6.348
 4846SOL     OW15436   6.812   3.286   3.908
 4846SOL    HW115437   6.877   3.350   3.948
 4846SOL    HW215438   6.813   3.295   3.808
 4847SOL     OW15439   2.679   1.105   6.269
 4847SOL    HW115440   2.649   1.038   6.201
 4847SOL    HW215441   2.775   1.128   6.254
 4848SOL     OW15442   1.780   0.549   3.992
 4848SOL    HW115443   1.698   0.565   3.937
 4848SOL    HW215444   1.755   0.538   4.088
 4849SOL     OW15445   1.023   5.880   6.798
 4849SOL    HW115446   1.106   5.825   6.794
 4849SOL    HW215447   1.028   5.942   6.876
 4850SOL     OW15448   4.017   1.437   2.249
 4850SOL    HW115449   3.926   1.408   2.277
 4850SOL    HW215450   4.029   1.534   2.270
 4851SOL     OW15451   4.624   6.634   5.624
 4851SOL    HW115452   4.704   6.581   5.654
 4851SOL    HW215453   4.582   6.679   5.703
 4852SOL     OW15454   1.508   6.112   4.966
 4852SOL    HW115455   1.527   6.096   4.869
 4852SOL    HW215456   1.454   6.035   5.002
 4853SOL     OW15457   3.127   1.245   3.084
 4853SOL    HW115458   3.067   1.268   3.007
 4853SOL    HW215459   3.071   1.208   3.159
 4854SOL     OW15460   4.685   6.670   1.306
 4854SOL    HW115461   4.677   6.627   1.216
 4854SOL    HW215462   4.753   6.621   1.360
 4855SOL     OW15463   6.089   2.526   3.298
 4855SOL    HW115464   6.125   2.440   3.333
 4855SOL    HW215465   6.144   2.602   3.333
 4856SOL     OW15466   1.382   3.482   2.777
 4856SOL    HW115467   1.435   3.506   2.859
 4856SOL    HW215468   1.284   3.493   2.796
 4857SOL     OW15469   2.479   1.687   5.053
 4857SOL    HW115470   2.419   1.724   5.124
 4857SOL    HW215471   2.550   1.754   5.031
 4858SOL     OW15472   0.756   0.577   4.387
 4858SOL    HW115473   0.832   0.630   4.348
 4858SOL    HW215474   0.683   0.639   4.414
 4859SOL     OW15475   0.813   0.106   4.581
 4859SOL    HW115476   0.785   0.078   4.489
 4859SOL    HW215477   0.733   0.106   4.642
 4860SOL     OW15478   4.521   4.432   1.673
 4860SOL    HW115479   4.491   4.357   1.732
 4860SOL    HW215480   4.515   4.518   1.723
 4861SOL     OW15481   6.060   5.222   0.243
 4861SOL    HW115482   5.992   5.244   0.173
 4861SOL    HW215483   6.063   5.294   0.311
 4862SOL     OW15484   2.284   4.543   5.037
 4862SOL    HW115485   2.277   4.467   4.972
 4862SOL    HW215486   2.273   4.508   5.130
 4863SOL     OW15487   5.464   3.650   1.397
 4863SOL    HW115488   5.456   3.619   1.302
 4863SOL    HW215489   5.419   3.585   1.458
 4864SOL     OW15490   3.966   1.385   2.586
 4864SOL    HW115491   3.974   1.484   2.582
 4864SOL    HW215492   3.935   1.357   2.677
 4865SOL     OW15493   1.878   6.498   4.072
 4865SOL    HW115494   1.889   6.551   4.155
 4865SOL    HW215495   1.906   6.403   4.089
 4866SOL     OW15496   5.947   3.469   1.874
 4866SOL    HW115497   5.917   3.376   1.851
 4866SOL    HW215498   5.951   3.478   1.974
 4867SOL     OW15499   3.689   5.404   2.010
 4867SOL    HW115500   3.705   5.452   2.097
 4867SOL    HW215501   3.599   5.360   2.012
 4868SOL     OW15502   6.657   5.018   2.783
 4868SOL    HW115503   6.752   5.050   2.779
 4868SOL    HW215504   6.602   5.068   2.716
 4869SOL     OW15505   1.381   1.263   1.827
 4869SOL    HW115506   1.337   1.178   1.856
 4869SOL    HW215507   1.409   1.256   1.732
 4870SOL     OW15508   0.539   5.991   2.599
 4870SOL    HW115509   0.527   5.995   2.500
 4870SOL    HW215510   0.612   5.927   2.622
 4871SOL     OW15511   1.324   0.690   4.142
 4871SOL    HW115512   1.357   0.757   4.209
 4871SOL    HW215513   1.376   0.605   4.151
 4872SOL     OW15514   6.104   6.328   3.842
 4872SOL    HW115515   6.159   6.375   3.773
 4872SOL    HW215516   6.024   6.286   3.799
 4873SOL     OW15517   6.874   4.638   3.854
 4873SOL    HW115518   6.815   4.717   3.873
 4873SOL    HW215519   6.969   4.668   3.855
 4874SOL     OW15520   6.293   3.115   3.057
 4874SOL    HW115521   6.378   3.109   3.108
 4874SOL    HW215522   6.270   3.025   3.019
 4875SOL     OW15523   5.723   2.516   1.482
 4875SOL    HW115524   5.705   2.544   1.576
 4875SOL    HW215525   5.638   2.523   1.429
 4876SOL     OW15526   5.718   1.794   4.376
 4876SOL    HW115527   5.764   1.713   4.413
 4876SOL    HW215528   5.785   1.869   4.367
 4877SOL     OW15529   1.554   2.375   6.822
 4877SOL    HW115530   1.581   2.394   6.916
 4877SOL    HW215531   1.468   2.325   6.821
 4878SOL     OW15532   6.265   0.704   2.990
 4878SOL    HW115533   6.347   0.748   3.027
 4878SOL    HW215534   6.184   0.746   3.031
 4879SOL     OW15535   4.473   6.141   2.522
 4879SOL    HW115536   4.447   6.092   2.605
 4879SOL    HW215537   4.448   6.087   2.442
 4880SOL     OW15538   5.551   3.418   0.193
 4880SOL    HW115539   5.644   3.383   0.188
 4880SOL    HW215540   5.498   3.362   0.257
 4881SOL     OW15541   1.645   0.953   6.233
 4881SOL    HW115542   1.704   0.937   6.312
 4881SOL    HW215543   1.611   1.047   6.236
 4882SOL     OW15544   5.255   1.379   5.081
 4882SOL    HW115545   5.332   1.442   5.092
 4882SOL    HW215546   5.229   1.343   5.170
 4883SOL     OW15547   5.578   4.669   2.045
 4883SOL    HW115548   5.505   4.601   2.036
 4883SOL    HW215549   5.667   4.624   2.039
 4884SOL     OW15550   3.188   6.976   1.307
 4884SOL    HW115551   3.106   6.920   1.301
 4884SOL    HW215552   3.185   0.002   1.391
 4885SOL     OW15553   1.987   5.471   2.111
 4885SOL    HW115554   2.038   5.417   2.177
 4885SOL    HW215555   2.051   5.531   2.061
 4886SOL     OW15556   1.448   5.374   1.076
 4886SOL    HW115557   1.509   5.446   1.044
 4886SOL    HW215558   1.440   5.304   1.005
 4887SOL     OW15559   0.691   0.592   2.646
 4887SOL    HW115560   0.648   0.598   2.736
 4887SOL    HW215561   0.623   0.569   2.577
 4888SOL     OW15562   2.558   6.852   4.356
 4888SOL    HW115563   2.629   6.800   4.308
 4888SOL    HW215564   2.473   6.800   4.354
 4889SOL     OW15565   6.480   1.356   5.969
 4889SOL    HW115566   6.418   1.402   5.905
 4889SOL    HW215567   6.427   1.323   6.048
 4890SOL     OW15568   1.298   1.496   0.076
 4890SOL    HW115569   1.277   1.471   0.171
 4890SOL    HW215570   1.389   1.537   0.072
 4891SOL     OW15571   1.716   4.630   6.436
 4891SOL    HW115572   1.674   4.543   6.461
 4891SOL    HW215573   1.720   4.689   6.516
 4892SOL     OW15574   3.272   5.975   2.132
 4892SOL    HW115575   3.298   6.053   2.075
 4892SOL    HW215576   3.176   5.986   2.161
 4893SOL     OW15577   6.192   3.673   1.345
 4893SOL    HW115578   6.135   3.611   1.399
 4893SOL    HW215579   6.166   3.666   1.249
 4894SOL     OW15580   2.436   1.464   3.011
 4894SOL    HW115581   2.369   1.439   2.941
 4894SOL    HW215582   2.423   1.560   3.036
 4895SOL     OW15583   0.797   4.784   3.687
 4895SOL    HW115584   0.742   4.769   3.769
 4895SOL    HW215585   0.839   4.874   3.690
 4896SOL     OW15586   1.817   5.648   2.238
 4896SOL    HW115587   1.720   5.623   2.235
 4896SOL    HW215588   1.868   5.594   2.171
 4897SOL     OW15589   2.764   4.138   6.185
 4897SOL    HW115590   2.722   4.201   6.121
 4897SOL    HW215591   2.765   4.179   6.276
 4898SOL     OW15592   3.705   0.523   4.390
 4898SOL    HW115593   3.776   0.503   4.323
 4898SOL    HW215594   3.747   0.568   4.470
 4899SOL     OW15595   5.957   5.130   3.194
 4899SOL    HW115596   5.878   5.190   3.180
 4899SOL    HW215597   5.955   5.056   3.127
 4900SOL     OW15598   2.002   5.843   3.984
 4900SOL    HW115599   1.968   5.752   3.958
 4900SOL    HW215600   1.948   5.913   3.938
 4901SOL     OW15601   3.299   6.894   5.762
 4901SOL    HW115602   3.394   6.863   5.767
 4901SOL    HW215603   3.237   6.816   5.769
 4902SOL     OW15604   2.327   1.957   4.102
 4902SOL    HW115605   2.414   1.982   4.144
 4902SOL    HW215606   2.263   2.034   4.112
 4903SOL     OW15607   3.588   6.236   6.799
 4903SOL    HW115608   3.563   6.331   6.782
 4903SOL    HW215609   3.630   6.198   6.716
 4904SOL     OW15610   2.216   6.533   3.840
 4904SOL    HW115611   2.230   6.575   3.930
 4904SOL    HW215612   2.305   6.523   3.794
 4905SOL     OW15613   4.331   0.180   2.219
 4905SOL    HW115614   4.261   0.141   2.279
 4905SOL    HW215615   4.315   0.149   2.125
 4906SOL     OW15616   4.464   1.989   5.897
 4906SOL    HW115617   4.492   1.982   5.801
 4906SOL    HW215618   4.480   1.902   5.943
 4907SOL     OW15619   4.158   6.276   1.222
 4907SOL    HW115620   4.066   6.300   1.189
 4907SOL    HW215621   4.171   6.177   1.214
 4908SOL     OW15622   5.748   4.661   6.589
 4908SOL    HW115623   5.777   4.680   6.496
 4908SOL    HW215624   5.671   4.598   6.588
 4909SOL     OW15625   6.599   0.300   4.449
 4909SOL    HW115626   6.631   0.207   4.469
 4909SOL    HW215627   6.523   0.296   4.384
 4910SOL     OW15628   5.545   0.143   5.043
 4910SOL    HW115629   5.562   0.213   5.113
 4910SOL    HW215630   5.630   0.125   4.994
 4911SOL     OW15631   1.310   3.300   4.120
 4911SOL    HW115632   1.252   3.331   4.195
 4911SOL    HW215633   1.275   3.213   4.085
 4912SOL     OW15634   5.275   1.325   6.693
 4912SOL    HW115635   5.223   1.408   6.676
 4912SOL    HW215636   5.348   1.343   6.759
 4913SOL     OW15637   3.893   3.071   5.258
 4913SOL    HW115638   3.908   3.005   5.331
 4913SOL    HW215639   3.960   3.056   5.185
 4914SOL     OW15640   4.038   0.560   4.980
 4914SOL    HW115641   4.072   0.505   4.903
 4914SOL    HW215642   4.113   0.576   5.045
 4915SOL     OW15643   4.661   0.365   5.006
 4915SOL    HW115644   4.595   0.361   4.930
 4915SOL    HW215645   4.655   0.281   5.059
 4916SOL     OW15646   1.841   0.170   4.125
 4916SOL    HW115647   1.918   0.194   4.065
 4916SOL    HW215648   1.810   0.252   4.173
 4917SOL     OW15649   2.433   4.775   1.433
 4917SOL    HW115650   2.431   4.715   1.514
 4917SOL    HW215651   2.490   4.733   1.363
 4918SOL     OW15652   4.606   5.455   2.414
 4918SOL    HW115653   4.510   5.449   2.443
 4918SOL    HW215654   4.640   5.547   2.432
 4919SOL     OW15655   2.940   2.027   0.029
 4919SOL    HW115656   2.913   1.932   0.048
 4919SOL    HW215657   2.969   2.071   0.114
 4920SOL     OW15658   5.963   0.916   4.219
 4920SOL    HW115659   6.051   0.933   4.261
 4920SOL    HW215660   5.911   1.002   4.215
 4921SOL     OW15661   1.488   4.744   0.541
 4921SOL    HW115662   1.459   4.805   0.467
 4921SOL    HW215663   1.558   4.681   0.507
 4922SOL     OW15664   2.125   1.902   5.146
 4922SOL    HW115665   2.078   1.943   5.225
 4922SOL    HW215666   2.170   1.818   5.175
 4923SOL     OW15667   3.951   1.691   1.990
 4923SOL    HW115668   3.876   1.631   1.963
 4923SOL    HW215669   4.038   1.646   1.975
 4924SOL     OW15670   3.008   1.665   5.285
 4924SOL    HW115671   3.071   1.602   5.240
 4924SOL    HW215672   3.039   1.682   5.379
 4925SOL     OW15673   6.498   6.163   2.221
 4925SOL    HW115674   6.493   6.221   2.139
 4925SOL    HW215675   6.456   6.075   2.203
 4926SOL     OW15676   5.545   1.546   0.466
 4926SOL    HW115677   5.574   1.569   0.373
 4926SOL    HW215678   5.497   1.458   0.465
 4927SOL     OW15679   3.799   3.670   4.677
 4927SOL    HW115680   3.861   3.749   4.676
 4927SOL    HW215681   3.838   3.596   4.623
 4928SOL     OW15682   1.543   0.094   0.019
 4928SOL    HW115683   1.492   0.032   6.988
 4928SOL    HW215684   1.574   0.173   6.996
 4929SOL     OW15685   0.660   5.479   4.950
 4929SOL    HW115686   0.651   5.380   4.941
 4929SOL    HW215687   0.573   5.523   4.928
 4930SOL     OW15688   4.884   0.925   3.483
 4930SOL    HW115689   4.927   0.980   3.411
 4930SOL    HW215690   4.935   0.840   3.495
 4931SOL     OW15691   0.120   0.089   0.968
 4931SOL    HW115692   0.190   0.125   0.906
 4931SOL    HW215693   0.164   0.029   1.035
 4932SOL     OW15694   2.724   3.297   1.734
 4932SOL    HW115695   2.671   3.215   1.759
 4932SOL    HW215696   2.753   3.344   1.817
 4933SOL     OW15697   2.491   0.098   3.661
 4933SOL    HW115698   2.424   0.095   3.586
 4933SOL    HW215699   2.569   0.155   3.634
 4934SOL     OW15700   2.604   5.777   2.672
 4934SOL    HW115701   2.611   5.823   2.584
 4934SOL    HW215702   2.659   5.694   2.671
 4935SOL     OW15703   1.632   0.782   5.826
 4935SOL    HW115704   1.549   0.729   5.810
 4935SOL    HW215705   1.608   0.879   5.836
 4936SOL     OW15706   2.562   4.598   1.955
 4936SOL    HW115707   2.661   4.588   1.943
 4936SOL    HW215708   2.517   4.509   1.944
 4937SOL     OW15709   6.786   2.956   6.195
 4937SOL    HW115710   6.852   2.960   6.270
 4937SOL    HW215711   6.821   2.895   6.124
 4938SOL     OW15712   2.290   5.645   5.732
 4938SOL    HW115713   2.377   5.691   5.711
 4938SOL    HW215714   2.306   5.547   5.743
 4939SOL     OW15715   6.268   1.659   3.850
 4939SOL    HW115716   6.325   1.720   3.795
 4939SOL    HW215717   6.201   1.713   3.901
 4940SOL     OW15718   0.492   0.772   5.143
 4940SOL    HW115719   0.440   0.706   5.089
 4940SOL    HW215720   0.562   0.725   5.197
 4941SOL     OW15721   4.837   2.140   5.245
 4941SOL    HW115722   4.863   2.218   5.302
 4941SOL    HW215723   4.858   2.055   5.294
 4942SOL     OW15724   5.575   3.488   6.175
 4942SOL    HW115725   5.595   3.394   6.147
 4942SOL    HW215726   5.479   3.495   6.203
 4943SOL     OW15727   4.498   3.682   5.947
 4943SOL    HW115728   4.415   3.652   5.899
 4943SOL    HW215729   4.506   3.782   5.939
 4944SOL     OW15730   2.276   4.146   1.567
 4944SOL    HW115731   2.245   4.237   1.540
 4944SOL    HW215732   2.358   4.153   1.623
 4945SOL     OW15733   0.991   6.974   4.774
 4945SOL    HW115734   1.020   0.008   4.845
 4945SOL    HW215735   0.942   7.024   4.702
 4946SOL     OW15736   1.612   4.970   6.933
 4946SOL    HW115737   1.584   4.906   6.862
 4946SOL    HW215738   1.711   4.985   6.928
 4947SOL     OW15739   2.277   0.272   1.011
 4947SOL    HW115740   2.335   0.285   0.931
 4947SOL    HW215741   2.308   0.331   1.085
 4948SOL     OW15742   1.650   2.749   2.644
 4948SOL    HW115743   1.580   2.782   2.581
 4948SOL    HW215744   1.611   2.737   2.735
 4949SOL     OW15745   5.490   5.712   6.437
 4949SOL    HW115746   5.482   5.760   6.350
 4949SOL    HW215747   5.399   5.688   6.471
 4950SOL     OW15748   2.429   5.267   4.476
 4950SOL    HW115749   2.489   5.211   4.420
 4950SOL    HW215750   2.381   5.210   4.542
 4951SOL     OW15751   5.764   1.070   5.273
 4951SOL    HW115752   5.786   1.044   5.179
 4951SOL    HW215753   5.739   0.988   5.325
 4952SOL     OW15754   0.387   1.066   5.926
 4952SOL    HW115755   0.400   1.166   5.928
 4952SOL    HW215756   0.299   1.044   5.967
 4953SOL     OW15757   2.047   6.134   2.853
 4953SOL    HW115758   1.968   6.075   2.868
 4953SOL    HW215759   2.045   6.169   2.759
 4954SOL     OW15760   3.613   3.080   0.546
 4954SOL    HW115761   3.710   3.076   0.523
 4954SOL    HW215762   3.597   3.156   0.609
 4955SOL     OW15763   3.107   6.575   6.659
 4955SOL    HW115764   3.019   6.612   6.629
 4955SOL    HW215765   3.165   6.559   6.579
 4956SOL     OW15766   2.234   0.141   5.256
 4956SOL    HW115767   2.206   0.153   5.351
 4956SOL    HW215768   2.206   0.050   5.224
 4957SOL     OW15769   5.691   2.132   2.098
 4957SOL    HW115770   5.604   2.181   2.089
 4957SOL    HW215771   5.717   2.095   2.008
 4958SOL     OW15772   7.019   5.404   5.357
 4958SOL    HW115773   0.037   5.490   5.377
 4958SOL    HW215774   0.059   5.333   5.340
 4959SOL     OW15775   6.306   1.921   6.901
 4959SOL    HW115776   6.206   1.925   6.909
 4959SOL    HW215777   6.348   1.953   6.986
 4960SOL     OW15778   3.348   4.937   3.380
 4960SOL    HW115779   3.270   4.960   3.437
 4960SOL    HW215780   3.344   4.991   3.295
 4961SOL     OW15781   4.402   1.165   5.781
 4961SOL    HW115782   4.450   1.158   5.694
 4961SOL    HW215783   4.390   1.262   5.805
 4962SOL     OW15784   6.392   2.282   0.532
 4962SOL    HW115785   6.411   2.185   0.513
 4962SOL    HW215786   6.468   2.338   0.500
 4963SOL     OW15787   6.298   6.039   0.427
 4963SOL    HW115788   6.263   5.980   0.353
 4963SOL    HW215789   6.324   5.982   0.505
 4964SOL     OW15790   3.007   0.294   3.623
 4964SOL    HW115791   2.916   0.254   3.637
 4964SOL    HW215792   2.998   0.384   3.581
 4965SOL     OW15793   0.737   1.200   2.507
 4965SOL    HW115794   0.746   1.292   2.545
 4965SOL    HW215795   0.761   1.133   2.577
 4966SOL     OW15796   2.303   6.886   5.270
 4966SOL    HW115797   2.400   6.868   5.259
 4966SOL    HW215798   2.259   6.806   5.313
 4967SOL     OW15799   3.652   5.309   5.597
 4967SOL    HW115800   3.679   5.324   5.502
 4967SOL    HW215801   3.556   5.337   5.609
 4968SOL     OW15802   6.820   1.692   3.670
 4968SOL    HW115803   6.866   1.780   3.658
 4968SOL    HW215804   6.886   1.623   3.697
 4969SOL     OW15805   2.723   6.104   2.744
 4969SOL    HW115806   2.781   6.110   2.663
 4969SOL    HW215807   2.710   6.195   2.783
 4970SOL     OW15808   2.008   2.708   2.895
 4970SOL    HW115809   1.978   2.640   2.963
 4970SOL    HW215810   2.062   2.779   2.941
 4971SOL     OW15811   5.872   5.726   3.615
 4971SOL    HW115812   5.911   5.683   3.534
 4971SOL    HW215813   5.840   5.818   3.592
 4972SOL     OW15814   1.429   3.694   0.882
 4972SOL    HW115815   1.506   3.746   0.847
 4972SOL    HW215816   1.365   3.756   0.928
 4973SOL     OW15817   1.502   6.546   2.284
 4973SOL    HW115818   1.434   6.503   2.225
 4973SOL    HW215819   1.511   6.643   2.262
 4974SOL     OW15820   6.233   4.587   1.262
 4974SOL    HW115821   6.240   4.519   1.335
 4974SOL    HW215822   6.264   4.546   1.176
 4975SOL     OW15823   5.702   4.110   5.354
 4975SOL    HW115824   5.619   4.067   5.320
 4975SOL    HW215825   5.782   4.061   5.321
 4976SOL     OW15826   1.939   0.859   3.451
 4976SOL    HW115827   2.017   0.804   3.481
 4976SOL    HW215828   1.875   0.802   3.401
 4977SOL     OW15829   3.866   4.827   0.333
 4977SOL    HW115830   3.820   4.906   0.373
 4977SOL    HW215831   3.920   4.780   0.403
 4978SOL     OW15832   6.730   3.915   4.747
 4978SOL    HW115833   6.741   3.885   4.842
 4978SOL    HW215834   6.791   3.862   4.688
 4979SOL     OW15835   0.194   0.281   6.512
 4979SOL    HW115836   0.185   0.312   6.607
 4979SOL    HW215837   0.259   0.206   6.507
 4980SOL     OW15838   5.317   6.315   3.079
 4980SOL    HW115839   5.302   6.238   3.142
 4980SOL    HW215840   5.233   6.368   3.070
 4981SOL     OW15841   4.696   6.130   0.365
 4981SOL    HW115842   4.688   6.031   0.378
 4981SOL    HW215843   4.633   6.177   0.428
 4982SOL     OW15844   2.585   1.054   5.998
 4982SOL    HW115845   2.508   1.116   6.012
 4982SOL    HW215846   2.554   0.959   6.008
 4983SOL     OW15847   5.871   3.262   4.877
 4983SOL    HW115848   5.927   3.189   4.837
 4983SOL    HW215849   5.774   3.237   4.871
 4984SOL     OW15850   5.829   3.957   3.588
 4984SOL    HW115851   5.734   3.958   3.618
 4984SOL    HW215852   5.870   3.869   3.610
 4985SOL     OW15853   6.380   6.834   3.490
 4985SOL    HW115854   6.453   6.786   3.442
 4985SOL    HW215855   6.346   6.777   3.565
 4986SOL     OW15856   6.151   4.275   1.972
 4986SOL    HW115857   6.111   4.306   2.058
 4986SOL    HW215858   6.217   4.201   1.991
 4987SOL     OW15859   1.147   0.527   1.684
 4987SOL    HW115860   1.192   0.611   1.652
 4987SOL    HW215861   1.066   0.510   1.628
 4988SOL     OW15862   5.308   0.834   3.231
 4988SOL    HW115863   5.377   0.811   3.163
 4988SOL    HW215864   5.218   0.805   3.199
 4989SOL     OW15865   4.965   0.145   1.828
 4989SOL    HW115866   4.892   0.210   1.844
 4989SOL    HW215867   4.930   0.052   1.839
 4990SOL     OW15868   2.188   2.105   5.550
 4990SOL    HW115869   2.176   2.040   5.624
 4990SOL    HW215870   2.255   2.174   5.576
 4991SOL     OW15871   6.719   4.847   3.993
 4991SOL    HW115872   6.651   4.782   4.026
 4991SOL    HW215873   6.738   4.915   4.064
 4992SOL     OW15874   5.142   1.017   3.730
 4992SOL    HW115875   5.198   0.991   3.651
 4992SOL    HW215876   5.099   0.935   3.768
 4993SOL     OW15877   3.125   6.155   3.893
 4993SOL    HW115878   3.090   6.223   3.958
 4993SOL    HW215879   3.071   6.071   3.899
 4994SOL     OW15880   1.900   7.011   3.556
 4994SOL    HW115881   1.995   6.980   3.556
 4994SOL    HW215882   1.893   0.065   3.612
 4995SOL     OW15883   0.341   2.324   5.795
 4995SOL    HW115884   0.264   2.388   5.797
 4995SOL    HW215885   0.350   2.284   5.704
 4996SOL     OW15886   1.241   1.158   2.428
 4996SOL    HW115887   1.332   1.156   2.470
 4996SOL    HW215888   1.235   1.237   2.368
 4997SOL     OW15889   5.386   2.388   3.023
 4997SOL    HW115890   5.444   2.470   3.017
 4997SOL    HW215891   5.442   2.308   3.041
 4998SOL     OW15892   2.075   4.173   5.064
 4998SOL    HW115893   2.083   4.181   5.163
 4998SOL    HW215894   2.164   4.147   5.025
 4999SOL     OW15895   6.538   3.817   0.355
 4999SOL    HW115896   6.550   3.895   0.417
 4999SOL    HW215897   6.611   3.816   0.287
 5000SOL     OW15898   2.898   6.601   3.486
 5000SOL    HW115899   2.940   6.531   3.428
 5000SOL    HW215900   2.853   6.557   3.564
 5001SOL     OW15901   0.346   4.203   0.990
 5001SOL    HW115902   0.363   4.159   0.902
 5001SOL    HW215903   0.299   4.140   1.052
 5002SOL     OW15904   0.465   3.112   3.409
 5002SOL    HW115905   0.408   3.192   3.425
 5002SOL    HW215906   0.487   3.105   3.311
 5003SOL     OW15907   2.630   6.307   2.430
 5003SOL    HW115908   2.720   6.306   2.473
 5003SOL    HW215909   2.559   6.305   2.500
 5004SOL     OW15910   3.650   4.950   6.019
 5004SOL    HW115911   3.633   4.922   5.924
 5004SOL    HW215912   3.748   4.943   6.038
 5005SOL     OW15913   2.971   2.365   0.529
 5005SOL    HW115914   3.006   2.459   0.536
 5005SOL    HW215915   2.872   2.367   0.520
 5006SOL     OW15916   5.215   1.028   0.660
 5006SOL    HW115917   5.176   1.036   0.568
 5006SOL    HW215918   5.314   1.041   0.655
 5007SOL     OW15919   1.512   6.992   0.252
 5007SOL    HW115920   1.412   6.987   0.259
 5007SOL    HW215921   1.537   7.026   0.161
 5008SOL     OW15922   6.792   6.425   3.020
 5008SOL    HW115923   6.711   6.401   3.074
 5008SOL    HW215924   6.867   6.364   3.043
 5009SOL     OW15925   1.303   6.338   0.844
 5009SOL    HW115926   1.226   6.276   0.827
 5009SOL    HW215927   1.269   6.430   0.862
 5010SOL     OW15928   3.443   3.359   2.824
 5010SOL    HW115929   3.437   3.341   2.726
 5010SOL    HW215930   3.507   3.294   2.866
 5011SOL     OW15931   1.869   3.618   2.835
 5011SOL    HW115932   1.865   3.684   2.760
 5011SOL    HW215933   1.887   3.527   2.798
 5012SOL     OW15934   5.320   4.308   6.239
 5012SOL    HW115935   5.250   4.276   6.303
 5012SOL    HW215936   5.391   4.357   6.290
 5013SOL     OW15937   5.027   1.756   6.459
 5013SOL    HW115938   5.007   1.755   6.361
 5013SOL    HW215939   4.959   1.813   6.506
 5014SOL     OW15940   5.450   4.450   0.617
 5014SOL    HW115941   5.526   4.389   0.638
 5014SOL    HW215942   5.370   4.396   0.593
 5015SOL     OW15943   4.419   1.893   4.573
 5015SOL    HW115944   4.332   1.845   4.565
 5015SOL    HW215945   4.463   1.898   4.483
 5016SOL     OW15946   2.157   2.200   0.715
 5016SOL    HW115947   2.140   2.290   0.754
 5016SOL    HW215948   2.079   2.174   0.658
 5017SOL     OW15949   1.834   2.085   0.069
 5017SOL    HW115950   1.911   2.098   0.007
 5017SOL    HW215951   1.859   2.018   0.139
 5018SOL     OW15952   6.897   4.329   1.814
 5018SOL    HW115953   6.961   4.276   1.870
 5018SOL    HW215954   6.878   4.416   1.859
 5019SOL     OW15955   1.071   4.961   6.257
 5019SOL    HW115956   1.159   4.915   6.270
 5019SOL    HW215957   1.027   4.973   6.346
 5020SOL     OW15958   5.375   0.185   6.556
 5020SOL    HW115959   5.292   0.195   6.610
 5020SOL    HW215960   5.448   0.241   6.596
 5021SOL     OW15961   1.509   1.938   6.091
 5021SOL    HW115962   1.410   1.926   6.077
 5021SOL    HW215963   1.527   2.033   6.116
 5022SOL     OW15964   1.392   1.136   0.021
 5022SOL    HW115965   1.363   1.046   7.015
 5022SOL    HW215966   1.491   1.138   0.028
 5023SOL     OW15967   6.560   3.092   1.421
 5023SOL    HW115968   6.511   3.129   1.499
 5023SOL    HW215969   6.507   3.018   1.380
 5024SOL     OW15970   5.453   5.795   1.796
 5024SOL    HW115971   5.406   5.875   1.758
 5024SOL    HW215972   5.529   5.826   1.853
 5025SOL     OW15973   3.605   1.846   1.551
 5025SOL    HW115974   3.675   1.898   1.601
 5025SOL    HW215975   3.570   1.773   1.609
 5026SOL     OW15976   6.447   6.462   6.274
 5026SOL    HW115977   6.504   6.506   6.204
 5026SOL    HW215978   6.383   6.399   6.230
 5027SOL     OW15979   0.824   5.901   2.366
 5027SOL    HW115980   0.814   5.855   2.454
 5027SOL    HW215981   0.734   5.930   2.333
 5028SOL     OW15982   0.725   0.414   3.406
 5028SOL    HW115983   0.666   0.494   3.396
 5028SOL    HW215984   0.751   0.404   3.502
 5029SOL     OW15985   0.029   2.238   2.960
 5029SOL    HW115986   6.967   2.219   2.924
 5029SOL    HW215987   0.025   2.241   3.060
 5030SOL     OW15988   6.785   6.789   0.107
 5030SOL    HW115989   6.727   6.809   0.186
 5030SOL    HW215990   6.880   6.789   0.136
 5031SOL     OW15991   6.055   0.868   4.689
 5031SOL    HW115992   6.077   0.775   4.719
 5031SOL    HW215993   5.993   0.863   4.610
 5032SOL     OW15994   1.089   3.529   1.346
 5032SOL    HW115995   1.050   3.551   1.435
 5032SOL    HW215996   1.155   3.600   1.320
 5033SOL     OW15997   2.986   6.299   6.002
 5033SOL    HW115998   3.029   6.210   6.016
 5033SOL    HW215999   3.023   6.341   5.919
 5034SOL     OW16000   4.819   0.957   2.874
 5034SOL    HW116001   4.828   0.949   2.775
 5034SOL    HW216002   4.742   0.902   2.905
 5035SOL     OW16003   0.339   4.498   0.410
 5035SOL    HW116004   0.410   4.540   0.467
 5035SOL    HW216005   0.296   4.423   0.461
 5036SOL     OW16006   6.899   4.898   0.281
 5036SOL    HW116007   6.862   4.846   0.358
 5036SOL    HW216008   6.859   4.865   0.195
 5037SOL     OW16009   5.336   2.808   3.421
 5037SOL    HW116010   5.274   2.842   3.492
 5037SOL    HW216011   5.283   2.759   3.351
 5038SOL     OW16012   1.841   4.008   6.992
 5038SOL    HW116013   1.929   3.960   6.994
 5038SOL    HW216014   1.829   4.051   6.902
 5039SOL     OW16015   2.998   4.408   5.338
 5039SOL    HW116016   2.967   4.474   5.269
 5039SOL    HW216017   2.954   4.320   5.322
 5040SOL     OW16018   2.246   4.960   6.047
 5040SOL    HW116019   2.255   4.917   5.958
 5040SOL    HW216020   2.322   4.931   6.105
 5041SOL     OW16021   1.586   2.045   1.860
 5041SOL    HW116022   1.517   2.089   1.803
 5041SOL    HW216023   1.671   2.036   1.809
 5042SOL     OW16024   6.240   3.001   0.719
 5042SOL    HW116025   6.228   3.068   0.645
 5042SOL    HW216026   6.244   2.909   0.680
 5043SOL     OW16027   3.098   0.975   6.164
 5043SOL    HW116028   3.033   0.943   6.095
 5043SOL    HW216029   3.055   1.043   6.223
 5044SOL     OW16030   0.094   6.125   1.511
 5044SOL    HW116031   0.085   6.029   1.488
 5044SOL    HW216032   0.130   6.134   1.604
 5045SOL     OW16033   5.738   1.873   0.326
 5045SOL    HW116034   5.747   1.831   0.416
 5045SOL    HW216035   5.718   1.971   0.337
 5046SOL     OW16036   3.657   4.163   3.506
 5046SOL    HW116037   3.659   4.260   3.480
 5046SOL    HW216038   3.734   4.143   3.566
 5047SOL     OW16039   0.107   3.251   2.609
 5047SOL    HW116040   0.178   3.192   2.571
 5047SOL    HW216041   0.102   3.239   2.708
 5048SOL     OW16042   0.516   0.926   2.176
 5048SOL    HW116043   0.501   0.928   2.275
 5048SOL    HW216044   0.608   0.959   2.155
 5049SOL     OW16045   6.267   1.794   5.084
 5049SOL    HW116046   6.323   1.827   5.008
 5049SOL    HW216047   6.194   1.736   5.048
 5050SOL     OW16048   1.587   0.505   1.688
 5050SOL    HW116049   1.679   0.540   1.666
 5050SOL    HW216050   1.563   0.432   1.624
 5051SOL     OW16051   4.650   4.384   1.227
 5051SOL    HW116052   4.644   4.323   1.306
 5051SOL    HW216053   4.718   4.349   1.163
 5052SOL     OW16054   2.221   6.050   6.014
 5052SOL    HW116055   2.178   6.138   6.033
 5052SOL    HW216056   2.320   6.057   6.029
 5053SOL     OW16057   2.266   4.145   3.760
 5053SOL    HW116058   2.288   4.237   3.727
 5053SOL    HW216059   2.272   4.142   3.859
 5054SOL     OW16060   3.706   6.337   4.971
 5054SOL    HW116061   3.729   6.432   4.953
 5054SOL    HW216062   3.723   6.316   5.067
 5055SOL     OW16063   1.976   0.283   5.294
 5055SOL    HW116064   2.027   0.265   5.377
 5055SOL    HW216065   1.997   0.375   5.261
 5056SOL     OW16066   6.384   4.161   0.684
 5056SOL    HW116067   6.450   4.087   0.672
 5056SOL    HW216068   6.432   4.242   0.721
 5057SOL     OW16069   6.246   6.097   5.414
 5057SOL    HW116070   6.236   6.000   5.395
 5057SOL    HW216071   6.263   6.147   5.329
 5058SOL     OW16072   2.723   3.013   5.344
 5058SOL    HW116073   2.642   2.996   5.288
 5058SOL    HW216074   2.702   2.992   5.440
 5059SOL     OW16075   5.537   2.685   3.566
 5059SOL    HW116076   5.616   2.720   3.516
 5059SOL    HW216077   5.454   2.728   3.529
 5060SOL     OW16078   0.574   2.058   5.836
 5060SOL    HW116079   0.499   2.077   5.772
 5060SOL    HW216080   0.574   2.127   5.909
 5061SOL     OW16081   3.837   3.467   3.074
 5061SOL    HW116082   3.891   3.389   3.046
 5061SOL    HW216083   3.895   3.549   3.076
 5062SOL     OW16084   5.340   0.148   3.241
 5062SOL    HW116085   5.381   0.236   3.219
 5062SOL    HW216086   5.384   0.110   3.322
 5063SOL     OW16087   0.798   0.166   2.006
 5063SOL    HW116088   0.770   0.245   1.952
 5063SOL    HW216089   0.898   0.155   2.000
 5064SOL     OW16090   4.365   3.836   1.721
 5064SOL    HW116091   4.397   3.927   1.697
 5064SOL    HW216092   4.344   3.785   1.637
 5065SOL     OW16093   1.701   1.885   3.674
 5065SOL    HW116094   1.743   1.860   3.587
 5065SOL    HW216095   1.762   1.945   3.725
 5066SOL     OW16096   3.585   4.475   0.934
 5066SOL    HW116097   3.488   4.455   0.944
 5066SOL    HW216098   3.639   4.397   0.965
 5067SOL     OW16099   2.967   1.164   2.588
 5067SOL    HW116100   2.879   1.122   2.611
 5067SOL    HW216101   2.956   1.226   2.511
 5068SOL     OW16102   3.245   4.845   6.752
 5068SOL    HW116103   3.192   4.851   6.836
 5068SOL    HW216104   3.343   4.849   6.773
 5069SOL     OW16105   1.783   3.208   5.804
 5069SOL    HW116106   1.845   3.164   5.740
 5069SOL    HW216107   1.717   3.141   5.839
 5070SOL     OW16108   5.136   4.498   4.187
 5070SOL    HW116109   5.207   4.431   4.209
 5070SOL    HW216110   5.142   4.522   4.090
 5071SOL     OW16111   4.078   1.051   3.858
 5071SOL    HW116112   4.027   0.969   3.882
 5071SOL    HW216113   4.016   1.121   3.823
 5072SOL     OW16114   1.182   1.008   1.694
 5072SOL    HW116115   1.214   0.953   1.617
 5072SOL    HW216116   1.251   1.010   1.766
 5073SOL     OW16117   1.352   4.563   1.532
 5073SOL    HW116118   1.421   4.634   1.518
 5073SOL    HW216119   1.311   4.539   1.444
 5074SOL     OW16120   3.344   2.116   0.992
 5074SOL    HW116121   3.347   2.137   1.089
 5074SOL    HW216122   3.264   2.061   0.971
 5075SOL     OW16123   1.314   2.313   6.143
 5075SOL    HW116124   1.369   2.309   6.227
 5075SOL    HW216125   1.356   2.377   6.079
 5076SOL     OW16126   5.034   0.370   0.927
 5076SOL    HW116127   5.117   0.402   0.881
 5076SOL    HW216128   5.048   0.277   0.961
 5077SOL     OW16129   2.119   4.252   5.444
 5077SOL    HW116130   2.153   4.276   5.535
 5077SOL    HW216131   2.194   4.255   5.379
 5078SOL     OW16132   0.807   0.292   3.862
 5078SOL    HW116133   0.806   0.381   3.909
 5078SOL    HW216134   0.884   0.238   3.896
 5079SOL     OW16135   2.157   3.384   4.662
 5079SOL    HW116136   2.120   3.302   4.619
 5079SOL    HW216137   2.220   3.358   4.735
 5080SOL     OW16138   5.976   6.644   6.232
 5080SOL    HW116139   6.072   6.660   6.253
 5080SOL    HW216140   5.926   6.731   6.233
 5081SOL     OW16141   3.120   3.889   5.036
 5081SOL    HW116142   3.136   3.889   4.937
 5081SOL    HW216143   3.144   3.979   5.073
 5082SOL     OW16144   5.257   5.736   1.286
 5082SOL    HW116145   5.306   5.680   1.220
 5082SOL    HW216146   5.162   5.748   1.255
 5083SOL     OW16147   2.437   0.264   2.969
 5083SOL    HW116148   2.478   0.193   2.912
 5083SOL    HW216149   2.415   0.226   3.059
 5084SOL     OW16150   0.548   4.282   4.324
 5084SOL    HW116151   0.627   4.278   4.262
 5084SOL    HW216152   0.470   4.237   4.281
 5085SOL     OW16153   6.564   2.487   6.211
 5085SOL    HW116154   6.586   2.533   6.298
 5085SOL    HW216155   6.606   2.537   6.136
 5086SOL     OW16156   1.400   4.951   3.004
 5086SOL    HW116157   1.386   4.878   3.071
 5086SOL    HW216158   1.418   5.037   3.052
 5087SOL     OW16159   1.627   5.338   2.731
 5087SOL    HW116160   1.629   5.288   2.818
 5087SOL    HW216161   1.607   5.274   2.657
 5088SOL     OW16162   5.955   0.300   3.946
 5088SOL    HW116163   5.990   0.250   4.026
 5088SOL    HW216164   6.032   0.333   3.892
 5089SOL     OW16165   6.015   3.631   4.149
 5089SOL    HW116166   5.933   3.593   4.192
 5089SOL    HW216167   6.025   3.594   4.057
 5090SOL     OW16168   1.887   3.794   2.621
 5090SOL    HW116169   1.943   3.876   2.628
 5090SOL    HW216170   1.791   3.820   2.609
 5091SOL     OW16171   6.861   1.235   1.624
 5091SOL    HW116172   6.811   1.271   1.703
 5091SOL    HW216173   6.948   1.284   1.614
 5092SOL     OW16174   3.499   3.786   3.161
 5092SOL    HW116175   3.487   3.722   3.237
 5092SOL    HW216176   3.552   3.743   3.089
 5093SOL     OW16177   3.097   0.667   0.366
 5093SOL    HW116178   3.097   0.765   0.382
 5093SOL    HW216179   3.114   0.619   0.452
 5094SOL     OW16180   2.542   5.709   5.716
 5094SOL    HW116181   2.615   5.739   5.778
 5094SOL    HW216182   2.581   5.647   5.647
 5095SOL     OW16183   6.264   1.914   3.537
 5095SOL    HW116184   6.338   1.920   3.605
 5095SOL    HW216185   6.233   2.006   3.515
 5096SOL     OW16186   3.763   4.980   6.330
 5096SOL    HW116187   3.688   4.992   6.265
 5096SOL    HW216188   3.805   5.068   6.350
 5097SOL     OW16189   0.787   0.038   6.298
 5097SOL    HW116190   0.788   0.137   6.307
 5097SOL    HW216191   0.831   0.013   6.211
 5098SOL     OW16192   2.863   1.033   2.238
 5098SOL    HW116193   2.857   1.114   2.179
 5098SOL    HW216194   2.958   1.016   2.262
 5099SOL     OW16195   0.597   0.318   0.842
 5099SOL    HW116196   0.525   0.272   0.790
 5099SOL    HW216197   0.642   0.252   0.901
 5100SOL     OW16198   3.258   5.567   4.556
 5100SOL    HW116199   3.343   5.621   4.555
 5100SOL    HW216200   3.191   5.611   4.496
 5101SOL     OW16201   4.831   0.424   6.800
 5101SOL    HW116202   4.733   0.410   6.810
 5101SOL    HW216203   4.865   0.367   6.725
 5102SOL     OW16204   5.780   6.956   4.262
 5102SOL    HW116205   5.720   6.949   4.182
 5102SOL    HW216206   5.869   6.916   4.240
 5103SOL     OW16207   0.581   0.478   4.195
 5103SOL    HW116208   0.663   0.534   4.208
 5103SOL    HW216209   0.597   0.387   4.232
 5104SOL     OW16210   1.601   6.351   1.902
 5104SOL    HW116211   1.572   6.268   1.949
 5104SOL    HW216212   1.681   6.389   1.949
 5105SOL     OW16213   2.352   2.716   0.201
 5105SOL    HW116214   2.354   2.767   0.287
 5105SOL    HW216215   2.355   2.780   0.124
 5106SOL     OW16216   4.212   2.556   0.435
 5106SOL    HW116217   4.154   2.493   0.383
 5106SOL    HW216218   4.304   2.555   0.397
 5107SOL     OW16219   4.075   1.669   1.237
 5107SOL    HW116220   4.038   1.742   1.180
 5107SOL    HW216221   4.016   1.656   1.317
 5108SOL     OW16222   3.935   3.993   5.077
 5108SOL    HW116223   3.954   4.068   5.141
 5108SOL    HW216224   3.968   3.907   5.116
 5109SOL     OW16225   0.883   1.684   0.024
 5109SOL    HW116226   0.814   1.677   6.981
 5109SOL    HW216227   0.844   1.730   0.104
 5110SOL     OW16228   0.885   0.326   5.771
 5110SOL    HW116229   0.920   0.320   5.678
 5110SOL    HW216230   0.803   0.383   5.772
 5111SOL     OW16231   0.999   0.398   5.097
 5111SOL    HW116232   1.064   0.336   5.141
 5111SOL    HW216233   1.004   0.488   5.141
 5112SOL     OW16234   1.467   0.661   3.249
 5112SOL    HW116235   1.515   0.590   3.300
 5112SOL    HW216236   1.444   0.737   3.309
 5113SOL     OW16237   1.864   6.987   1.045
 5113SOL    HW116238   1.796   6.961   1.114
 5113SOL    HW216239   1.894   0.052   1.062
 5114SOL     OW16240   3.693   0.828   0.022
 5114SOL    HW116241   3.720   0.832   0.119
 5114SOL    HW216242   3.651   0.739   0.003
 5115SOL     OW16243   1.911   4.776   4.155
 5115SOL    HW116244   1.941   4.694   4.106
 5115SOL    HW216245   1.924   4.762   4.253
 5116SOL     OW16246   0.433   7.028   6.486
 5116SOL    HW116247   0.463   0.032   6.396
 5116SOL    HW216248   0.486   6.948   6.512
 5117SOL     OW16249   2.221   3.968   4.735
 5117SOL    HW116250   2.267   3.998   4.818
 5117SOL    HW216251   2.206   3.870   4.738
 5118SOL     OW16252   4.801   0.538   0.225
 5118SOL    HW116253   4.862   0.484   0.282
 5118SOL    HW216254   4.850   0.570   0.144
 5119SOL     OW16255   5.155   0.830   1.869
 5119SOL    HW116256   5.124   0.740   1.837
 5119SOL    HW216257   5.199   0.820   1.958
 5120SOL     OW16258   3.720   0.224   4.151
 5120SOL    HW116259   3.650   0.167   4.109
 5120SOL    HW216260   3.717   0.213   4.251
 5121SOL     OW16261   2.687   2.045   6.819
 5121SOL    HW116262   2.693   1.945   6.826
 5121SOL    HW216263   2.682   2.084   6.911
 5122SOL     OW16264   3.461   6.676   3.459
 5122SOL    HW116265   3.364   6.682   3.436
 5122SOL    HW216266   3.507   6.759   3.429
 5123SOL     OW16267   4.213   2.283   4.414
 5123SOL    HW116268   4.244   2.373   4.445
 5123SOL    HW216269   4.250   2.212   4.474
 5124SOL     OW16270   2.703   5.777   4.582
 5124SOL    HW116271   2.723   5.682   4.558
 5124SOL    HW216272   2.736   5.795   4.675
 5125SOL     OW16273   6.160   3.290   4.215
 5125SOL    HW116274   6.224   3.304   4.290
 5125SOL    HW216275   6.159   3.372   4.157
 5126SOL     OW16276   5.991   5.238   5.706
 5126SOL    HW116277   6.028   5.255   5.614
 5126SOL    HW216278   5.949   5.322   5.740
 5127SOL     OW16279   0.997   4.222   0.008
 5127SOL    HW116280   0.952   4.300   6.993
 5127SOL    HW216281   1.036   4.251   0.095
 5128SOL     OW16282   0.110   0.691   6.908
 5128SOL    HW116283   0.203   0.724   6.890
 5128SOL    HW216284   0.079   0.637   6.829
 5129SOL     OW16285   6.044   6.877   2.518
 5129SOL    HW116286   6.109   6.861   2.592
 5129SOL    HW216287   5.983   6.952   2.542
 5130SOL     OW16288   0.403   5.884   3.704
 5130SOL    HW116289   0.450   5.902   3.617
 5130SOL    HW216290   0.469   5.879   3.778
 5131SOL     OW16291   2.304   5.177   3.866
 5131SOL    HW116292   2.239   5.116   3.820
 5131SOL    HW216293   2.398   5.149   3.844
 5132SOL     OW16294   3.149   2.785   6.398
 5132SOL    HW116295   3.114   2.735   6.476
 5132SOL    HW216296   3.089   2.862   6.378
 5133SOL     OW16297   1.677   5.564   6.897
 5133SOL    HW116298   1.747   5.596   6.961
 5133SOL    HW216299   1.676   5.625   6.817
 5134SOL     OW16300   0.025   2.613   2.208
 5134SOL    HW116301   0.123   2.621   2.227
 5134SOL    HW216302   0.010   2.547   2.135
 5135SOL     OW16303   5.492   3.291   4.615
 5135SOL    HW116304   5.466   3.306   4.519
 5135SOL    HW216305   5.454   3.365   4.671
 5136SOL     OW16306   5.034   0.505   6.448
 5136SOL    HW116307   5.094   0.557   6.509
 5136SOL    HW216308   5.077   0.494   6.359
 5137SOL     OW16309   5.380   4.177   5.631
 5137SOL    HW116310   5.471   4.179   5.672
 5137SOL    HW216311   5.322   4.246   5.675
 5138SOL     OW16312   4.210   3.213   5.191
 5138SOL    HW116313   4.176   3.249   5.104
 5138SOL    HW216314   4.166   3.262   5.266
 5139SOL     OW16315   1.242   1.226   3.227
 5139SOL    HW116316   1.334   1.200   3.198
 5139SOL    HW216317   1.225   1.188   3.319
 5140SOL     OW16318   3.818   2.974   6.609
 5140SOL    HW116319   3.725   2.967   6.575
 5140SOL    HW216320   3.836   3.067   6.639
 5141SOL     OW16321   6.164   3.874   1.064
 5141SOL    HW116322   6.139   3.967   1.090
 5141SOL    HW216323   6.225   3.877   0.984
 5142SOL     OW16324   6.077   6.565   2.644
 5142SOL    HW116325   6.161   6.598   2.600
 5142SOL    HW216326   6.025   6.642   2.680
 5143SOL     OW16327   6.103   4.604   4.363
 5143SOL    HW116328   6.043   4.568   4.292
 5143SOL    HW216329   6.108   4.704   4.355
 5144SOL     OW16330   0.970   4.331   5.458
 5144SOL    HW116331   0.882   4.342   5.412
 5144SOL    HW216332   0.956   4.329   5.557
 5145SOL     OW16333   3.038   5.405   5.636
 5145SOL    HW116334   3.002   5.381   5.546
 5145SOL    HW216335   3.100   5.483   5.627
 5146SOL     OW16336   3.311   3.830   5.396
 5146SOL    HW116337   3.338   3.878   5.313
 5146SOL    HW216338   3.351   3.876   5.476
 5147SOL     OW16339   6.778   5.387   2.699
 5147SOL    HW116340   6.773   5.376   2.798
 5147SOL    HW216341   6.693   5.429   2.666
 5148SOL     OW16342   6.278   0.113   1.771
 5148SOL    HW116343   6.279   0.058   1.688
 5148SOL    HW216344   6.227   0.066   1.842
 5149SOL     OW16345   6.571   5.320   3.246
 5149SOL    HW116346   6.479   5.354   3.227
 5149SOL    HW216347   6.622   5.389   3.297
 5150SOL     OW16348   2.090   5.519   3.285
 5150SOL    HW116349   2.072   5.616   3.268
 5150SOL    HW216350   2.004   5.472   3.305
 5151SOL     OW16351   6.530   2.892   1.739
 5151SOL    HW116352   6.454   2.924   1.682
 5151SOL    HW216353   6.496   2.870   1.830
 5152SOL     OW16354   1.822   4.563   6.800
 5152SOL    HW116355   1.743   4.525   6.848
 5152SOL    HW216356   1.792   4.640   6.743
 5153SOL     OW16357   1.613   1.061   6.652
 5153SOL    HW116358   1.665   1.024   6.574
 5153SOL    HW216359   1.648   1.022   6.737
 5154SOL     OW16360   1.107   2.833   6.086
 5154SOL    HW116361   1.117   2.742   6.046
 5154SOL    HW216362   1.015   2.867   6.070
 5155SOL     OW16363   4.351   0.689   2.106
 5155SOL    HW116364   4.381   0.667   2.199
 5155SOL    HW216365   4.379   0.616   2.044
 5156SOL     OW16366   5.837   3.756   6.280
 5156SOL    HW116367   5.756   3.714   6.322
 5156SOL    HW216368   5.902   3.782   6.352
 5157SOL     OW16369   3.708   2.090   3.345
 5157SOL    HW116370   3.728   2.112   3.440
 5157SOL    HW216371   3.790   2.108   3.289
 5158SOL     OW16372   3.634   1.373   1.754
 5158SOL    HW116373   3.548   1.325   1.734
 5158SOL    HW216374   3.624   1.470   1.731
 5159SOL     OW16375   6.183   4.047   4.598
 5159SOL    HW116376   6.182   4.139   4.637
 5159SOL    HW216377   6.089   4.019   4.578
 5160SOL     OW16378   0.389   5.148   2.988
 5160SOL    HW116379   0.359   5.069   3.042
 5160SOL    HW216380   0.309   5.196   2.952
 5161SOL     OW16381   1.675   3.788   5.833
 5161SOL    HW116382   1.749   3.837   5.787
 5161SOL    HW216383   1.713   3.731   5.906
 5162SOL     OW16384   1.208   4.836   2.848
 5162SOL    HW116385   1.137   4.906   2.854
 5162SOL    HW216386   1.291   4.868   2.892
 5163SOL     OW16387   3.381   6.476   0.158
 5163SOL    HW116388   3.369   6.417   0.078
 5163SOL    HW216389   3.473   6.463   0.195
 5164SOL     OW16390   3.687   2.660   6.676
 5164SOL    HW116391   3.673   2.590   6.607
 5164SOL    HW216392   3.782   2.691   6.674
 5165SOL     OW16393   6.530   4.283   5.568
 5165SOL    HW116394   6.548   4.314   5.661
 5165SOL    HW216395   6.487   4.356   5.516
 5166SOL     OW16396   0.568   5.129   2.194
 5166SOL    HW116397   0.510   5.071   2.251
 5166SOL    HW216398   0.664   5.110   2.215
 5167SOL     OW16399   6.823   6.280   6.219
 5167SOL    HW116400   6.840   6.375   6.194
 5167SOL    HW216401   6.890   6.221   6.174
 5168SOL     OW16402   5.036   3.498   2.012
 5168SOL    HW116403   5.105   3.437   2.051
 5168SOL    HW216404   4.950   3.448   2.001
 5169SOL     OW16405   3.981   2.093   4.450
 5169SOL    HW116406   3.887   2.102   4.420
 5169SOL    HW216407   4.031   2.178   4.433
 5170SOL     OW16408   0.587   4.428   5.397
 5170SOL    HW116409   0.636   4.440   5.483
 5170SOL    HW216410   0.586   4.331   5.371
 5171SOL     OW16411   0.592   5.161   4.775
 5171SOL    HW116412   0.568   5.090   4.841
 5171SOL    HW216413   0.514   5.223   4.763
 5172SOL     OW16414   1.508   2.563   2.359
 5172SOL    HW116415   1.423   2.529   2.318
 5172SOL    HW216416   1.490   2.649   2.407
 5173SOL     OW16417   5.345   4.987   5.926
 5173SOL    HW116418   5.322   4.933   6.007
 5173SOL    HW216419   5.443   4.982   5.909
 5174SOL     OW16420   2.082   4.968   3.107
 5174SOL    HW116421   2.143   4.908   3.158
 5174SOL    HW216422   2.119   5.060   3.104
 5175SOL     OW16423   2.750   3.633   6.881
 5175SOL    HW116424   2.830   3.572   6.877
 5175SOL    HW216425   2.753   3.697   6.805
 5176SOL     OW16426   5.007   3.401   6.969
 5176SOL    HW116427   5.037   3.362   6.882
 5176SOL    HW216428   4.947   3.336   7.016
 5177SOL     OW16429   5.342   0.613   0.301
 5177SOL    HW116430   5.265   0.601   0.364
 5177SOL    HW216431   5.427   0.595   0.350
 5178SOL     OW16432   1.102   4.250   2.334
 5178SOL    HW116433   1.146   4.187   2.270
 5178SOL    HW216434   1.085   4.337   2.287
 5179SOL     OW16435   4.127   5.373   3.716
 5179SOL    HW116436   4.081   5.300   3.767
 5179SOL    HW216437   4.211   5.337   3.675
 5180SOL     OW16438   2.291   2.173   1.104
 5180SOL    HW116439   2.193   2.172   1.122
 5180SOL    HW216440   2.313   2.249   1.042
 5181SOL     OW16441   5.717   1.210   2.662
 5181SOL    HW116442   5.729   1.306   2.691
 5181SOL    HW216443   5.798   1.158   2.688
 5182SOL     OW16444   3.987   4.248   1.646
 5182SOL    HW116445   4.021   4.160   1.680
 5182SOL    HW216446   3.910   4.277   1.703
 5183SOL     OW16447   3.917   1.502   3.025
 5183SOL    HW116448   3.927   1.444   3.105
 5183SOL    HW216449   3.924   1.598   3.052
 5184SOL     OW16450   0.934   1.705   4.598
 5184SOL    HW116451   0.922   1.695   4.499
 5184SOL    HW216452   0.971   1.796   4.618
 5185SOL     OW16453   5.830   0.549   2.547
 5185SOL    HW116454   5.848   0.480   2.478
 5185SOL    HW216455   5.911   0.606   2.559
 5186SOL     OW16456   6.817   2.526   0.845
 5186SOL    HW116457   6.915   2.548   0.838
 5186SOL    HW216458   6.792   2.465   0.770
 5187SOL     OW16459   1.434   6.974   4.505
 5187SOL    HW116460   1.358   6.928   4.551
 5187SOL    HW216461   1.518   6.922   4.518
 5188SOL     OW16462   0.749   5.318   0.874
 5188SOL    HW116463   0.803   5.301   0.791
 5188SOL    HW216464   0.811   5.336   0.950
 5189SOL     OW16465   3.792   4.243   0.961
 5189SOL    HW116466   3.855   4.216   1.034
 5189SOL    HW216467   3.838   4.234   0.873
 5190SOL     OW16468   0.759   1.724   4.078
 5190SOL    HW116469   0.772   1.818   4.046
 5190SOL    HW216470   0.792   1.660   4.008
 5191SOL     OW16471   4.150   0.416   1.962
 5191SOL    HW116472   4.109   0.465   1.885
 5191SOL    HW216473   4.111   0.449   2.047
 5192SOL     OW16474   2.604   5.500   2.336
 5192SOL    HW116475   2.541   5.430   2.303
 5192SOL    HW216476   2.631   5.479   2.430
 5193SOL     OW16477   4.878   4.585   4.744
 5193SOL    HW116478   4.959   4.632   4.710
 5193SOL    HW216479   4.906   4.507   4.801
 5194SOL     OW16480   4.899   2.187   6.990
 5194SOL    HW116481   4.961   2.226   6.922
 5194SOL    HW216482   4.924   2.092   7.008
 5195SOL     OW16483   6.374   6.327   3.965
 5195SOL    HW116484   6.297   6.292   3.913
 5195SOL    HW216485   6.362   6.307   4.062
 5196SOL     OW16486   3.158   5.209   0.285
 5196SOL    HW116487   3.203   5.269   0.351
 5196SOL    HW216488   3.227   5.157   0.234
 5197SOL     OW16489   1.904   5.129   5.663
 5197SOL    HW116490   1.855   5.185   5.597
 5197SOL    HW216491   1.999   5.120   5.635
 5198SOL     OW16492   4.325   6.644   3.556
 5198SOL    HW116493   4.236   6.654   3.511
 5198SOL    HW216494   4.320   6.570   3.623
 5199SOL     OW16495   1.758   5.892   0.472
 5199SOL    HW116496   1.675   5.837   0.486
 5199SOL    HW216497   1.732   5.987   0.455
 5200SOL     OW16498   0.816   2.433   5.243
 5200SOL    HW116499   0.896   2.413   5.300
 5200SOL    HW216500   0.841   2.499   5.173
 5201SOL     OW16501   0.215   6.612   3.813
 5201SOL    HW116502   0.263   6.640   3.729
 5201SOL    HW216503   0.219   6.513   3.823
 5202SOL     OW16504   6.202   4.309   5.839
 5202SOL    HW116505   6.254   4.249   5.900
 5202SOL    HW216506   6.244   4.400   5.838
 5203SOL     OW16507   2.342   1.214   6.731
 5203SOL    HW116508   2.314   1.310   6.727
 5203SOL    HW216509   2.442   1.208   6.728
 5204SOL     OW16510   4.239   5.882   6.750
 5204SOL    HW116511   4.328   5.838   6.762
 5204SOL    HW216512   4.176   5.818   6.707
 5205SOL     OW16513   0.547   5.661   0.665
 5205SOL    HW116514   0.471   5.709   0.622
 5205SOL    HW216515   0.526   5.564   0.671
 5206SOL     OW16516   0.575   4.609   6.470
 5206SOL    HW116517   0.478   4.591   6.452
 5206SOL    HW216518   0.593   4.601   6.568
 5207SOL     OW16519   1.049   6.098   4.363
 5207SOL    HW116520   0.988   6.020   4.351
 5207SOL    HW216521   0.995   6.182   4.367
 5208SOL     OW16522   4.877   2.737   6.372
 5208SOL    HW116523   4.934   2.811   6.339
 5208SOL    HW216524   4.804   2.773   6.430
 5209SOL     OW16525   5.761   6.515   2.039
 5209SOL    HW116526   5.747   6.607   2.076
 5209SOL    HW216527   5.673   6.473   2.018
 5210SOL     OW16528   4.477   2.836   0.188
 5210SOL    HW116529   4.545   2.801   0.124
 5210SOL    HW216530   4.521   2.865   0.272
 5211SOL     OW16531   3.729   2.478   5.567
 5211SOL    HW116532   3.779   2.441   5.489
 5211SOL    HW216533   3.638   2.437   5.571
 5212SOL     OW16534   0.230   2.608   0.641
 5212SOL    HW116535   0.239   2.508   0.634
 5212SOL    HW216536   0.318   2.647   0.666
 5213SOL     OW16537   4.534   4.223   6.770
 5213SOL    HW116538   4.603   4.269   6.825
 5213SOL    HW216539   4.478   4.164   6.829
 5214SOL     OW16540   5.622   1.568   6.226
 5214SOL    HW116541   5.594   1.508   6.301
 5214SOL    HW216542   5.678   1.643   6.262
 5215SOL     OW16543   0.716   4.211   4.021
 5215SOL    HW116544   0.777   4.174   4.091
 5215SOL    HW216545   0.699   4.142   3.952
 5216SOL     OW16546   4.655   5.006   2.078
 5216SOL    HW116547   4.643   5.076   2.149
 5216SOL    HW216548   4.750   4.978   2.076
 5217SOL     OW16549   3.940   5.159   4.459
 5217SOL    HW116550   3.912   5.097   4.533
 5217SOL    HW216551   3.919   5.117   4.371
 5218SOL     OW16552   0.844   0.718   2.437
 5218SOL    HW116553   0.908   0.650   2.401
 5218SOL    HW216554   0.818   0.693   2.531
 5219SOL     OW16555   4.260   1.619   4.915
 5219SOL    HW116556   4.354   1.640   4.885
 5219SOL    HW216557   4.250   1.643   5.011
 5220SOL     OW16558   0.869   6.428   2.333
 5220SOL    HW116559   0.880   6.332   2.358
 5220SOL    HW216560   0.913   6.486   2.402
 5221SOL     OW16561   6.001   1.304   3.734
 5221SOL    HW116562   6.044   1.272   3.818
 5221SOL    HW216563   5.911   1.341   3.755
 5222SOL     OW16564   4.052   6.221   3.224
 5222SOL    HW116565   4.084   6.262   3.309
 5222SOL    HW216566   4.130   6.182   3.174
 5223SOL     OW16567   6.023   2.638   0.556
 5223SOL    HW116568   6.030   2.547   0.515
 5223SOL    HW216569   5.989   2.702   0.487
 5224SOL     OW16570   6.449   2.891   4.712
 5224SOL    HW116571   6.374   2.956   4.706
 5224SOL    HW216572   6.526   2.922   4.655
 5225SOL     OW16573   0.142   0.495   3.627
 5225SOL    HW116574   0.226   0.547   3.635
 5225SOL    HW216575   0.146   0.414   3.685
 5226SOL     OW16576   6.772   6.747   4.985
 5226SOL    HW116577   6.812   6.728   5.075
 5226SOL    HW216578   6.767   6.846   4.971
 5227SOL     OW16579   0.078   3.534   4.973
 5227SOL    HW116580   0.093   3.455   4.915
 5227SOL    HW216581   7.009   3.548   4.986
 5228SOL     OW16582   6.201   2.392   1.062
 5228SOL    HW116583   6.198   2.467   1.129
 5228SOL    HW216584   6.205   2.431   0.970
 5229SOL     OW16585   2.623   6.074   0.154
 5229SOL    HW116586   2.627   6.007   0.228
 5229SOL    HW216587   2.550   6.139   0.172
 5230SOL     OW16588   0.775   5.636   1.685
 5230SOL    HW116589   0.799   5.554   1.633
 5230SOL    HW216590   0.712   5.692   1.631
 5231SOL     OW16591   4.839   2.466   4.754
 5231SOL    HW116592   4.906   2.496   4.821
 5231SOL    HW216593   4.755   2.438   4.802
 5232SOL     OW16594   2.446   3.373   6.008
 5232SOL    HW116595   2.480   3.351   6.100
 5232SOL    HW216596   2.501   3.446   5.969
 5233SOL     OW16597   4.625   1.000   2.053
 5233SOL    HW116598   4.688   1.051   2.112
 5233SOL    HW216599   4.577   0.931   2.106
 5234SOL     OW16600   2.633   1.480   5.882
 5234SOL    HW116601   2.580   1.493   5.799
 5234SOL    HW216602   2.629   1.563   5.937
 5235SOL     OW16603   1.714   2.322   1.007
 5235SOL    HW116604   1.634   2.284   0.961
 5235SOL    HW216605   1.711   2.422   1.002
 5236SOL     OW16606   4.950   4.974   2.056
 5236SOL    HW116607   5.035   4.927   2.080
 5236SOL    HW216608   4.908   5.011   2.138
 5237SOL     OW16609   1.539   1.059   4.780
 5237SOL    HW116610   1.490   1.029   4.698
 5237SOL    HW216611   1.608   1.127   4.754
 5238SOL     OW16612   0.420   4.568   0.069
 5238SOL    HW116613   0.442   4.487   0.122
 5238SOL    HW216614   0.425   4.546   7.000
 5239SOL     OW16615   3.223   2.966   4.436
 5239SOL    HW116616   3.247   3.062   4.427
 5239SOL    HW216617   3.176   2.936   4.353
 5240SOL     OW16618   3.104   1.992   5.706
 5240SOL    HW116619   3.192   1.945   5.698
 5240SOL    HW216620   3.118   2.081   5.751
 5241SOL     OW16621   0.376   5.338   4.863
 5241SOL    HW116622   0.418   5.349   4.953
 5241SOL    HW216623   0.277   5.325   4.874
 5242SOL     OW16624   6.800   6.317   6.539
 5242SOL    HW116625   6.881   6.373   6.555
 5242SOL    HW216626   6.756   6.346   6.454
 5243SOL     OW16627   1.392   5.532   1.558
 5243SOL    HW116628   1.302   5.516   1.519
 5243SOL    HW216629   1.422   5.450   1.607
 5244SOL     OW16630   3.301   5.402   0.119
 5244SOL    HW116631   3.242   5.344   0.175
 5244SOL    HW216632   3.249   5.480   0.086
 5245SOL     OW16633   3.925   4.859   0.072
 5245SOL    HW116634   3.910   4.835   0.168
 5245SOL    HW216635   3.885   4.948   0.053
 5246SOL     OW16636   5.195   3.657   1.834
 5246SOL    HW116637   5.135   3.620   1.905
 5246SOL    HW216638   5.141   3.705   1.765
 5247SOL     OW16639   2.008   0.852   0.030
 5247SOL    HW116640   1.994   0.911   0.109
 5247SOL    HW216641   2.106   0.849   0.008
 5248SOL     OW16642   5.757   1.430   3.793
 5248SOL    HW116643   5.670   1.439   3.843
 5248SOL    HW216644   5.743   1.457   3.698
 5249SOL     OW16645   6.843   5.027   6.249
 5249SOL    HW116646   6.763   4.972   6.225
 5249SOL    HW216647   6.814   5.121   6.271
 5250SOL     OW16648   2.276   5.780   5.982
 5250SOL    HW116649   2.251   5.875   5.963
 5250SOL    HW216650   2.276   5.728   5.897
 5251SOL     OW16651   0.494   3.636   0.072
 5251SOL    HW116652   0.539   3.719   0.039
 5251SOL    HW216653   0.428   3.604   0.005
 5252SOL     OW16654   1.746   6.370   0.476
 5252SOL    HW116655   1.680   6.311   0.430
 5252SOL    HW216656   1.809   6.313   0.530
 5253SOL     OW16657   5.991   4.984   4.609
 5253SOL    HW116658   5.959   5.077   4.593
 5253SOL    HW216659   5.948   4.948   4.692
 5254SOL     OW16660   4.434   1.112   3.189
 5254SOL    HW116661   4.448   1.176   3.264
 5254SOL    HW216662   4.396   1.027   3.226
 5255SOL     OW16663   5.835   1.357   5.243
 5255SOL    HW116664   5.920   1.383   5.197
 5255SOL    HW216665   5.808   1.265   5.214
 5256SOL     OW16666   4.041   1.483   3.798
 5256SOL    HW116667   4.140   1.466   3.805
 5256SOL    HW216668   3.995   1.398   3.769
 5257SOL     OW16669   6.024   6.609   2.020
 5257SOL    HW116670   6.021   6.582   1.924
 5257SOL    HW216671   5.958   6.555   2.072
 5258SOL     OW16672   5.604   3.456   1.692
 5258SOL    HW116673   5.691   3.485   1.652
 5258SOL    HW216674   5.592   3.358   1.677
 5259SOL     OW16675   5.572   6.449   1.773
 5259SOL    HW116676   5.500   6.455   1.705
 5259SOL    HW216677   5.579   6.354   1.805
 5260SOL     OW16678   5.160   3.549   1.071
 5260SOL    HW116679   5.069   3.509   1.067
 5260SOL    HW216680   5.218   3.494   1.131
 5261SOL     OW16681   0.639   3.823   6.966
 5261SOL    HW116682   0.605   3.882   6.893
 5261SOL    HW216683   0.720   3.864   7.007
 5262SOL     OW16684   2.577   0.851   3.328
 5262SOL    HW116685   2.562   0.895   3.240
 5262SOL    HW216686   2.489   0.828   3.370
 5263SOL     OW16687   1.617   1.723   4.385
 5263SOL    HW116688   1.569   1.802   4.345
 5263SOL    HW216689   1.634   1.741   4.482
 5264SOL     OW16690   6.533   2.524   2.898
 5264SOL    HW116691   6.602   2.594   2.881
 5264SOL    HW216692   6.448   2.548   2.849
 5265SOL     OW16693   6.699   3.814   4.048
 5265SOL    HW116694   6.684   3.812   4.146
 5265SOL    HW216695   6.681   3.723   4.010
 5266SOL     OW16696   2.763   5.439   0.773
 5266SOL    HW116697   2.673   5.450   0.815
 5266SOL    HW216698   2.769   5.494   0.690
 5267SOL     OW16699   5.324   3.751   4.834
 5267SOL    HW116700   5.305   3.708   4.922
 5267SOL    HW216701   5.269   3.708   4.763
 5268SOL     OW16702   5.538   0.733   6.654
 5268SOL    HW116703   5.531   0.701   6.559
 5268SOL    HW216704   5.518   0.657   6.716
 5269SOL     OW16705   1.367   6.745   3.880
 5269SOL    HW116706   1.408   6.656   3.860
 5269SOL    HW216707   1.267   6.735   3.881
 5270SOL     OW16708   5.821   1.183   1.062
 5270SOL    HW116709   5.889   1.124   1.019
 5270SOL    HW216710   5.860   1.225   1.144
 5271SOL     OW16711   5.956   5.451   5.167
 5271SOL    HW116712   5.915   5.467   5.256
 5271SOL    HW216713   5.885   5.426   5.101
 5272SOL     OW16714   2.868   5.138   1.837
 5272SOL    HW116715   2.902   5.103   1.925
 5272SOL    HW216716   2.938   5.194   1.794
 5273SOL     OW16717   6.644   2.987   3.540
 5273SOL    HW116718   6.672   2.899   3.502
 5273SOL    HW216719   6.546   3.000   3.525
 5274SOL     OW16720   6.632   6.825   2.975
 5274SOL    HW116721   6.620   6.874   3.061
 5274SOL    HW216722   6.573   6.866   2.905
 5275SOL     OW16723   3.744   2.267   1.026
 5275SOL    HW116724   3.809   2.341   1.007
 5275SOL    HW216725   3.652   2.295   1.001
 5276SOL     OW16726   2.056   0.592   1.013
 5276SOL    HW116727   2.146   0.635   1.008
 5276SOL    HW216728   2.059   0.514   1.075
 5277SOL     OW16729   1.328   1.556   2.734
 5277SOL    HW116730   1.320   1.457   2.719
 5277SOL    HW216731   1.241   1.592   2.767
 5278SOL     OW16732   5.942   0.138   3.487
 5278SOL    HW116733   5.956   0.122   3.389
 5278SOL    HW216734   5.850   0.175   3.501
 5279SOL     OW16735   2.225   5.229   5.982
 5279SOL    HW116736   2.131   5.245   5.953
 5279SOL    HW216737   2.237   5.132   6.003
 5280SOL     OW16738   2.458   5.978   5.102
 5280SOL    HW116739   2.513   5.943   5.027
 5280SOL    HW216740   2.362   5.984   5.074
 5281SOL     OW16741   0.428   1.676   2.985
 5281SOL    HW116742   0.430   1.775   2.995
 5281SOL    HW216743   0.352   1.638   3.038
 5282SOL     OW16744   2.325   1.957   2.946
 5282SOL    HW116745   2.403   1.990   2.893
 5282SOL    HW216746   2.242   1.963   2.891
 5283SOL     OW16747   3.875   6.856   1.279
 5283SOL    HW116748   3.878   6.761   1.312
 5283SOL    HW216749   3.967   6.894   1.277
 5284SOL     OW16750   5.111   3.799   3.346
 5284SOL    HW116751   5.063   3.711   3.354
 5284SOL    HW216752   5.189   3.789   3.285
 5285SOL     OW16753   2.789   5.244   3.201
 5285SOL    HW116754   2.848   5.220   3.278
 5285SOL    HW216755   2.767   5.341   3.204
 5286SOL     OW16756   1.265   4.648   0.385
 5286SOL    HW116757   1.362   4.624   0.392
 5286SOL    HW216758   1.234   4.632   0.292
 5287SOL     OW16759   2.715   6.497   1.070
 5287SOL    HW116760   2.774   6.464   1.143
 5287SOL    HW216761   2.736   6.447   0.985
 5288SOL     OW16762   3.266   0.366   1.640
 5288SOL    HW116763   3.213   0.366   1.555
 5288SOL    HW216764   3.346   0.307   1.630
 5289SOL     OW16765   1.641   4.413   5.777
 5289SOL    HW116766   1.599   4.364   5.701
 5289SOL    HW216767   1.682   4.497   5.744
 5290SOL     OW16768   1.621   4.967   4.866
 5290SOL    HW116769   1.652   4.973   4.771
 5290SOL    HW216770   1.657   5.045   4.918
 5291SOL     OW16771   2.583   5.015   5.886
 5291SOL    HW116772   2.542   5.041   5.974
 5291SOL    HW216773   2.512   5.012   5.816
 5292SOL     OW16774   6.330   3.056   6.851
 5292SOL    HW116775   6.408   3.118   6.860
 5292SOL    HW216776   6.354   2.978   6.794
 5293SOL     OW16777   0.595   0.055   4.739
 5293SOL    HW116778   0.607   6.995   4.784
 5293SOL    HW216779   0.504   0.060   4.698
 5294SOL     OW16780   4.664   3.477   5.879
 5294SOL    HW116781   4.627   3.459   5.787
 5294SOL    HW216782   4.609   3.548   5.923
 5295SOL     OW16783   5.212   0.831   2.723
 5295SOL    HW116784   5.300   0.784   2.715
 5295SOL    HW216785   5.198   0.892   2.645
 5296SOL     OW16786   2.095   5.148   0.115
 5296SOL    HW116787   2.034   5.223   0.142
 5296SOL    HW216788   2.188   5.168   0.146
 5297SOL     OW16789   3.180   2.285   1.219
 5297SOL    HW116790   3.107   2.309   1.283
 5297SOL    HW216791   3.187   2.355   1.148
 5298SOL     OW16792   0.791   5.456   0.396
 5298SOL    HW116793   0.795   5.554   0.413
 5298SOL    HW216794   0.797   5.439   0.297
 5299SOL     OW16795   2.360   2.498   0.714
 5299SOL    HW116796   2.350   2.585   0.762
 5299SOL    HW216797   2.448   2.457   0.737
 5300SOL     OW16798   0.301   6.051   1.997
 5300SOL    HW116799   0.242   6.007   2.066
 5300SOL    HW216800   0.394   6.016   2.005
 5301SOL     OW16801   4.350   2.322   0.845
 5301SOL    HW116802   4.257   2.355   0.831
 5301SOL    HW216803   4.394   2.306   0.756
 5302SOL     OW16804   5.925   3.952   2.996
 5302SOL    HW116805   6.009   3.914   3.034
 5302SOL    HW216806   5.936   3.965   2.898
 5303SOL     OW16807   6.596   6.010   3.402
 5303SOL    HW116808   6.507   5.972   3.378
 5303SOL    HW216809   6.638   5.954   3.474
 5304SOL     OW16810   6.730   1.910   5.778
 5304SOL    HW116811   6.743   1.962   5.693
 5304SOL    HW216812   6.813   1.915   5.833
 5305SOL     OW16813   1.570   6.387   4.830
 5305SOL    HW116814   1.614   6.321   4.891
 5305SOL    HW216815   1.595   6.367   4.735
 5306SOL     OW16816   0.252   6.034   4.947
 5306SOL    HW116817   0.350   6.024   4.964
 5306SOL    HW216818   0.206   6.057   5.033
 5307SOL     OW16819   4.356   0.347   6.918
 5307SOL    HW116820   4.444   0.299   6.916
 5307SOL    HW216821   4.368   0.437   6.958
 5308SOL     OW16822   1.062   6.662   4.908
 5308SOL    HW116823   1.090   6.566   4.898
 5308SOL    HW216824   0.963   6.669   4.893
 5309SOL     OW16825   3.231   3.728   2.296
 5309SOL    HW116826   3.177   3.707   2.215
 5309SOL    HW216827   3.321   3.685   2.288
 5310SOL     OW16828   5.304   2.750   1.923
 5310SOL    HW116829   5.359   2.683   1.973
 5310SOL    HW216830   5.207   2.725   1.929
 5311SOL     OW16831   0.372   5.734   0.987
 5311SOL    HW116832   0.378   5.727   1.086
 5311SOL    HW216833   0.464   5.742   0.948
 5312SOL     OW16834   6.942   4.386   2.495
 5312SOL    HW116835   6.883   4.382   2.577
 5312SOL    HW216836   6.997   4.468   2.498
 5313SOL     OW16837   0.868   4.757   6.795
 5313SOL    HW116838   0.888   4.855   6.791
 5313SOL    HW216839   0.889   4.715   6.707
 5314SOL     OW16840   3.345   5.002   0.110
 5314SOL    HW116841   3.261   4.963   0.071
 5314SOL    HW216842   3.408   4.928   0.132
 5315SOL     OW16843   3.988   3.898   1.523
 5315SOL    HW116844   4.048   3.961   1.573
 5315SOL    HW216845   3.992   3.918   1.425
 5316SOL     OW16846   6.906   5.525   5.069
 5316SOL    HW116847   6.892   5.505   4.972
 5316SOL    HW216848   6.853   5.461   5.124
 5317SOL     OW16849   6.925   0.918   4.742
 5317SOL    HW116850   6.915   0.980   4.820
 5317SOL    HW216851   7.008   0.940   4.691
 5318SOL     OW16852   0.598   1.616   5.982
 5318SOL    HW116853   0.616   1.524   5.946
 5318SOL    HW216854   0.613   1.684   5.911
 5319SOL     OW16855   4.682   6.567   0.175
 5319SOL    HW116856   4.635   6.480   0.158
 5319SOL    HW216857   4.619   6.643   0.162
 5320SOL     OW16858   5.697   5.103   6.655
 5320SOL    HW116859   5.632   5.029   6.632
 5320SOL    HW216860   5.750   5.127   6.574
 5321SOL     OW16861   0.840   3.919   2.841
 5321SOL    HW116862   0.831   4.018   2.854
 5321SOL    HW216863   0.934   3.892   2.860
 5322SOL     OW16864   4.003   6.408   6.108
 5322SOL    HW116865   3.959   6.457   6.033
 5322SOL    HW216866   4.092   6.450   6.128
 5323SOL     OW16867   3.805   3.279   0.845
 5323SOL    HW116868   3.790   3.182   0.859
 5323SOL    HW216869   3.787   3.329   0.930
 5324SOL     OW16870   3.665   2.570   1.689
 5324SOL    HW116871   3.718   2.652   1.712
 5324SOL    HW216872   3.673   2.503   1.763
 5325SOL     OW16873   5.736   6.582   3.903
 5325SOL    HW116874   5.732   6.483   3.920
 5325SOL    HW216875   5.824   6.618   3.935
 5326SOL     OW16876   6.965   5.063   2.770
 5326SOL    HW116877   6.997   5.055   2.675
 5326SOL    HW216878   6.969   4.973   2.814
 5327SOL     OW16879   0.107   5.234   5.696
 5327SOL    HW116880   0.068   5.187   5.616
 5327SOL    HW216881   0.080   5.330   5.694
 5328SOL     OW16882   4.476   2.748   5.616
 5328SOL    HW116883   4.438   2.810   5.685
 5328SOL    HW216884   4.447   2.777   5.525
 5329SOL     OW16885   0.685   4.205   0.003
 5329SOL    HW116886   0.679   4.246   0.095
 5329SOL    HW216887   0.764   4.145   7.028
 5330SOL     OW16888   3.527   4.820   6.837
 5330SOL    HW116889   3.551   4.806   6.741
 5330SOL    HW216890   3.596   4.877   6.881
 5331SOL     OW16891   5.281   1.463   1.567
 5331SOL    HW116892   5.374   1.501   1.558
 5331SOL    HW216893   5.214   1.534   1.544
 5332SOL     OW16894   6.661   4.241   0.444
 5332SOL    HW116895   6.620   4.184   0.372
 5332SOL    HW216896   6.710   4.183   0.508
 5333SOL     OW16897   1.129   0.446   4.001
 5333SOL    HW116898   1.189   0.476   4.076
 5333SOL    HW216899   1.130   0.346   3.996
 5334SOL     OW16900   3.664   5.038   5.529
 5334SOL    HW116901   3.657   4.976   5.607
 5334SOL    HW216902   3.679   5.131   5.563
 5335SOL     OW16903   0.335   4.915   2.189
 5335SOL    HW116904   0.339   4.875   2.281
 5335SOL    HW216905   0.415   4.886   2.137
 5336SOL     OW16906   2.012   2.111   3.395
 5336SOL    HW116907   2.003   2.032   3.455
 5336SOL    HW216908   2.000   2.195   3.449
 5337SOL     OW16909   5.331   4.594   1.689
 5337SOL    HW116910   5.370   4.532   1.758
 5337SOL    HW216911   5.400   4.660   1.661
 5338SOL     OW16912   5.965   1.322   6.248
 5338SOL    HW116913   6.011   1.396   6.200
 5338SOL    HW216914   5.919   1.359   6.329
 5339SOL     OW16915   5.429   1.422   3.230
 5339SOL    HW116916   5.516   1.376   3.210
 5339SOL    HW216917   5.400   1.399   3.323
 5340SOL     OW16918   6.143   4.139   1.400
 5340SOL    HW116919   6.187   4.070   1.457
 5340SOL    HW216920   6.044   4.127   1.402
 5341SOL     OW16921   2.959   5.020   5.048
 5341SOL    HW116922   2.864   4.994   5.062
 5341SOL    HW216923   3.017   4.938   5.054
 5342SOL     OW16924   5.331   6.299   4.553
 5342SOL    HW116925   5.276   6.376   4.519
 5342SOL    HW216926   5.399   6.334   4.618
 5343SOL     OW16927   3.937   3.416   4.606
 5343SOL    HW116928   3.875   3.419   4.527
 5343SOL    HW216929   3.905   3.348   4.672
 5344SOL     OW16930   0.756   1.710   0.463
 5344SOL    HW116931   0.827   1.648   0.430
 5344SOL    HW216932   0.724   1.679   0.553
 5345SOL     OW16933   5.237   0.330   0.199
 5345SOL    HW116934   5.271   0.260   0.137
 5345SOL    HW216935   5.273   0.420   0.171
 5346SOL     OW16936   3.447   5.537   3.778
 5346SOL    HW116937   3.540   5.522   3.812
 5346SOL    HW216938   3.396   5.592   3.844
 5347SOL     OW16939   6.543   3.848   3.171
 5347SOL    HW116940   6.640   3.826   3.155
 5347SOL    HW216941   6.532   3.882   3.265
 5348SOL     OW16942   0.460   1.588   6.548
 5348SOL    HW116943   0.530   1.552   6.610
 5348SOL    HW216944   0.370   1.579   6.590
 5349SOL     OW16945   2.638   3.380   0.714
 5349SOL    HW116946   2.710   3.312   0.699
 5349SOL    HW216947   2.549   3.334   0.722
 5350SOL     OW16948   2.591   6.819   5.282
 5350SOL    HW116949   2.597   6.836   5.184
 5350SOL    HW216950   2.625   6.899   5.332
 5351SOL     OW16951   0.335   5.579   2.206
 5351SOL    HW116952   0.312   5.579   2.303
 5351SOL    HW216953   0.380   5.493   2.182
 5352SOL     OW16954   1.944   4.765   2.960
 5352SOL    HW116955   1.972   4.838   3.021
 5352SOL    HW216956   1.997   4.682   2.979
 5353SOL     OW16957   3.596   6.186   4.202
 5353SOL    HW116958   3.554   6.258   4.257
 5353SOL    HW216959   3.532   6.156   4.132
 5354SOL     OW16960   1.879   4.852   0.749
 5354SOL    HW116961   1.888   4.762   0.706
 5354SOL    HW216962   1.811   4.848   0.822
 5355SOL     OW16963   6.338   5.146   3.899
 5355SOL    HW116964   6.421   5.123   3.848
 5355SOL    HW216965   6.313   5.069   3.957
 5356SOL     OW16966   6.728   3.590   2.591
 5356SOL    HW116967   6.743   3.651   2.513
 5356SOL    HW216968   6.800   3.521   2.593
 5357SOL     OW16969   3.754   4.621   0.767
 5357SOL    HW116970   3.678   4.586   0.822
 5357SOL    HW216971   3.776   4.554   0.695
 5358SOL     OW16972   4.585   2.534   1.230
 5358SOL    HW116973   4.570   2.437   1.251
 5358SOL    HW216974   4.619   2.543   1.137
 5359SOL     OW16975   2.393   1.741   6.173
 5359SOL    HW116976   2.460   1.668   6.159
 5359SOL    HW216977   2.430   1.828   6.140
 5360SOL     OW16978   4.937   6.144   3.781
 5360SOL    HW116979   4.950   6.137   3.880
 5360SOL    HW216980   4.855   6.092   3.755
 5361SOL     OW16981   2.318   6.554   4.113
 5361SOL    HW116982   2.401   6.581   4.064
 5361SOL    HW216983   2.314   6.454   4.118
 5362SOL     OW16984   6.679   5.744   2.637
 5362SOL    HW116985   6.713   5.769   2.728
 5362SOL    HW216986   6.657   5.826   2.586
 5363SOL     OW16987   5.412   6.335   5.913
 5363SOL    HW116988   5.370   6.267   5.851
 5363SOL    HW216989   5.367   6.331   6.002
 5364SOL     OW16990   6.006   6.675   1.723
 5364SOL    HW116991   6.101   6.664   1.695
 5364SOL    HW216992   5.963   6.585   1.731
 5365SOL     OW16993   3.243   2.930   2.233
 5365SOL    HW116994   3.240   3.001   2.163
 5365SOL    HW216995   3.192   2.850   2.202
 5366SOL     OW16996   6.683   6.458   2.462
 5366SOL    HW116997   6.700   6.557   2.462
 5366SOL    HW216998   6.732   6.416   2.385
 5367SOL     OW16999   0.187   6.617   1.591
 5367SOL    HW117000   0.258   6.603   1.521
 5367SOL    HW217001   0.099   6.632   1.546
 5368SOL     OW17002   6.162   6.933   2.758
 5368SOL    HW117003   6.259   6.908   2.750
 5368SOL    HW217004   6.150   0.001   2.734
 5369SOL     OW17005   2.788   6.120   1.061
 5369SOL    HW117006   2.863   6.064   1.026
 5369SOL    HW217007   2.824   6.202   1.104
 5370SOL     OW17008   4.570   3.951   1.033
 5370SOL    HW117009   4.546   4.003   0.952
 5370SOL    HW217010   4.585   3.855   1.008
 5371SOL     OW17011   0.215   5.239   5.318
 5371SOL    HW117012   0.225   5.196   5.228
 5371SOL    HW217013   0.305   5.265   5.353
 5372SOL     OW17014   0.805   6.170   2.810
 5372SOL    HW117015   0.798   6.189   2.908
 5372SOL    HW217016   0.742   6.229   2.760
 5373SOL     OW17017   4.161   6.979   5.577
 5373SOL    HW117018   4.200   6.968   5.668
 5373SOL    HW217019   4.135   6.889   5.541
 5374SOL     OW17020   2.150   4.817   0.782
 5374SOL    HW117021   2.188   4.783   0.868
 5374SOL    HW217022   2.050   4.818   0.787
 5375SOL     OW17023   0.405   5.625   6.101
 5375SOL    HW117024   0.368   5.713   6.071
 5375SOL    HW217025   0.412   5.623   6.201
 5376SOL     OW17026   1.219   2.125   1.348
 5376SOL    HW117027   1.209   2.044   1.407
 5376SOL    HW217028   1.225   2.207   1.405
 5377SOL     OW17029   1.005   0.289   2.833
 5377SOL    HW117030   0.963   0.200   2.819
 5377SOL    HW217031   0.992   0.346   2.752
 5378SOL     OW17032   6.834   0.344   2.448
 5378SOL    HW117033   6.835   0.293   2.535
 5378SOL    HW217034   6.928   0.364   2.421
 5379SOL     OW17035   1.117   3.261   4.800
 5379SOL    HW117036   1.027   3.304   4.804
 5379SOL    HW217037   1.187   3.331   4.788
 5380SOL     OW17038   2.463   6.749   1.323
 5380SOL    HW117039   2.440   6.680   1.255
 5380SOL    HW217040   2.561   6.746   1.343
 5381SOL     OW17041   0.075   6.227   2.228
 5381SOL    HW117042   0.155   6.273   2.189
 5381SOL    HW217043   0.104   6.139   2.266
 5382SOL     OW17044   2.884   2.269   2.352
 5382SOL    HW117045   2.910   2.254   2.256
 5382SOL    HW217046   2.817   2.343   2.357
 5383SOL     OW17047   1.315   2.715   4.898
 5383SOL    HW117048   1.269   2.630   4.920
 5383SOL    HW217049   1.404   2.695   4.857
 5384SOL     OW17050   5.047   5.841   4.571
 5384SOL    HW117051   4.957   5.797   4.572
 5384SOL    HW217052   5.086   5.838   4.662
 5385SOL     OW17053   5.070   3.116   5.566
 5385SOL    HW117054   5.137   3.184   5.537
 5385SOL    HW217055   4.987   3.162   5.598
 5386SOL     OW17056   5.712   1.385   4.180
 5386SOL    HW117057   5.653   1.331   4.239
 5386SOL    HW217058   5.669   1.397   4.090
 5387SOL     OW17059   2.560   6.218   3.042
 5387SOL    HW117060   2.640   6.167   3.073
 5387SOL    HW217061   2.478   6.160   3.050
 5388SOL     OW17062   1.245   6.995   2.596
 5388SOL    HW117063   1.339   6.962   2.602
 5388SOL    HW217064   1.187   6.925   2.554
 5389SOL     OW17065   3.991   1.536   4.829
 5389SOL    HW117066   4.084   1.573   4.831
 5389SOL    HW217067   3.934   1.587   4.893
 5390SOL     OW17068   5.616   4.158   3.419
 5390SOL    HW117069   5.547   4.229   3.428
 5390SOL    HW217070   5.705   4.194   3.449
 5391SOL     OW17071   2.294   1.993   0.278
 5391SOL    HW117072   2.302   2.052   0.358
 5391SOL    HW217073   2.197   1.971   0.264
 5392SOL     OW17074   5.466   4.072   0.926
 5392SOL    HW117075   5.368   4.068   0.944
 5392SOL    HW217076   5.510   4.129   0.995
 5393SOL     OW17077   5.010   0.967   5.287
 5393SOL    HW117078   5.028   0.878   5.246
 5393SOL    HW217079   4.917   0.970   5.321
 5394SOL     OW17080   0.931   5.387   1.084
 5394SOL    HW117081   0.898   5.452   1.153
 5394SOL    HW217082   1.019   5.350   1.113
 5395SOL     OW17083   5.027   0.364   1.655
 5395SOL    HW117084   5.066   0.287   1.706
 5395SOL    HW217085   4.972   0.330   1.579
 5396SOL     OW17086   5.782   5.081   1.823
 5396SOL    HW117087   5.759   5.175   1.798
 5396SOL    HW217088   5.698   5.030   1.843
 5397SOL     OW17089   7.017   1.642   2.462
 5397SOL    HW117090   0.023   1.549   2.479
 5397SOL    HW217091   6.952   1.639   2.386
 5398SOL     OW17092   2.689   1.904   3.954
 5398SOL    HW117093   2.684   1.965   4.033
 5398SOL    HW217094   2.666   1.956   3.871
 5399SOL     OW17095   2.897   6.809   6.545
 5399SOL    HW117096   2.840   6.888   6.521
 5399SOL    HW217097   2.868   6.773   6.634
 5400SOL     OW17098   3.100   3.191   0.574
 5400SOL    HW117099   3.139   3.283   0.571
 5400SOL    HW217100   3.146   3.138   0.644
 5401SOL     OW17101   5.671   4.416   2.259
 5401SOL    HW117102   5.703   4.462   2.177
 5401SOL    HW217103   5.650   4.320   2.239
 5402SOL     OW17104   2.466   6.630   1.023
 5402SOL    HW117105   2.556   6.604   1.058
 5402SOL    HW217106   2.470   6.723   0.987
 5403SOL     OW17107   5.074   3.573   6.254
 5403SOL    HW117108   5.064   3.522   6.169
 5403SOL    HW217109   5.061   3.512   6.332
 5404SOL     OW17110   0.789   0.149   1.479
 5404SOL    HW117111   0.780   0.067   1.421
 5404SOL    HW217112   0.698   0.186   1.498
 5405SOL     OW17113   5.912   4.778   6.782
 5405SOL    HW117114   5.857   4.741   6.708
 5405SOL    HW217115   5.981   4.840   6.745
 5406SOL     OW17116   2.337   0.994   5.015
 5406SOL    HW117117   2.268   1.066   5.013
 5406SOL    HW217118   2.414   1.019   4.956
 5407SOL     OW17119   3.618   1.713   0.905
 5407SOL    HW117120   3.630   1.813   0.901
 5407SOL    HW217121   3.522   1.692   0.921
 5408SOL     OW17122   4.364   0.885   4.943
 5408SOL    HW117123   4.282   0.892   4.885
 5408SOL    HW217124   4.340   0.912   5.036
 5409SOL     OW17125   6.337   1.331   2.609
 5409SOL    HW117126   6.426   1.287   2.599
 5409SOL    HW217127   6.332   1.376   2.698
 5410SOL     OW17128   0.961   2.415   6.857
 5410SOL    HW117129   0.966   2.423   6.758
 5410SOL    HW217130   1.041   2.460   6.898
 5411SOL     OW17131   5.160   4.970   6.601
 5411SOL    HW117132   5.076   5.023   6.602
 5411SOL    HW217133   5.174   4.931   6.509
 5412SOL     OW17134   2.906   1.394   6.427
 5412SOL    HW117135   2.967   1.473   6.422
 5412SOL    HW217136   2.816   1.420   6.390
 5413SOL     OW17137   0.652   0.101   6.995
 5413SOL    HW117138   0.629   0.090   0.063
 5413SOL    HW217139   0.635   0.196   6.968
 5414SOL     OW17140   6.381   4.964   4.731
 5414SOL    HW117141   6.473   4.977   4.694
 5414SOL    HW217142   6.325   5.044   4.709
 5415SOL     OW17143   2.781   6.309   0.862
 5415SOL    HW117144   2.746   6.232   0.915
 5415SOL    HW217145   2.854   6.277   0.801
 5416SOL     OW17146   2.738   4.821   5.159
 5416SOL    HW117147   2.776   4.752   5.221
 5416SOL    HW217148   2.734   4.783   5.067
 5417SOL     OW17149   4.017   0.230   5.248
 5417SOL    HW117150   4.065   0.204   5.164
 5417SOL    HW217151   3.949   0.301   5.227
 5418SOL     OW17152   5.692   5.837   5.132
 5418SOL    HW117153   5.718   5.846   5.036
 5418SOL    HW217154   5.625   5.764   5.142
 5419SOL     OW17155   3.586   5.617   0.434
 5419SOL    HW117156   3.539   5.598   0.520
 5419SOL    HW217157   3.648   5.541   0.412
 5420SOL     OW17158   2.230   1.938   0.740
 5420SOL    HW117159   2.295   1.934   0.816
 5420SOL    HW217160   2.205   2.033   0.721
 5421SOL     OW17161   3.502   5.038   1.199
 5421SOL    HW117162   3.477   4.973   1.272
 5421SOL    HW217163   3.433   5.035   1.127
 5422SOL     OW17164   1.097   4.522   4.613
 5422SOL    HW117165   1.116   4.620   4.610
 5422SOL    HW217166   1.168   4.476   4.668
 5423SOL     OW17167   5.446   5.083   0.246
 5423SOL    HW117168   5.352   5.084   0.280
 5423SOL    HW217169   5.506   5.126   0.313
 5424SOL     OW17170   5.894   3.865   4.478
 5424SOL    HW117171   5.977   3.846   4.425
 5424SOL    HW217172   5.841   3.782   4.487
 5425SOL     OW17173   6.327   2.444   5.035
 5425SOL    HW117174   6.308   2.436   4.937
 5425SOL    HW217175   6.421   2.413   5.052
 5426SOL     OW17176   5.360   5.716   2.180
 5426SOL    HW117177   5.281   5.676   2.132
 5426SOL    HW217178   5.438   5.653   2.173
 5427SOL     OW17179   5.294   3.199   6.915
 5427SOL    HW117180   5.351   3.145   6.977
 5427SOL    HW217181   5.314   3.296   6.926
 5428SOL     OW17182   5.177   6.822   1.637
 5428SOL    HW117183   5.157   6.770   1.554
 5428SOL    HW217184   5.209   6.913   1.613
 5429SOL     OW17185   1.985   0.025   5.398
 5429SOL    HW117186   1.965   0.114   5.357
 5429SOL    HW217187   2.004   6.987   5.325
 5430SOL     OW17188   1.768   3.110   4.600
 5430SOL    HW117189   1.768   3.177   4.525
 5430SOL    HW217190   1.764   3.018   4.561
 5431SOL     OW17191   2.813   3.793   6.663
 5431SOL    HW117192   2.912   3.808   6.657
 5431SOL    HW217193   2.767   3.852   6.597
 5432SOL     OW17194   3.910   5.868   6.592
 5432SOL    HW117195   3.946   5.956   6.562
 5432SOL    HW217196   3.829   5.844   6.538
 5433SOL     OW17197   0.945   0.390   1.466
 5433SOL    HW117198   0.941   0.296   1.501
 5433SOL    HW217199   0.954   0.388   1.367
 5434SOL     OW17200   4.219   1.213   4.643
 5434SOL    HW117201   4.218   1.312   4.655
 5434SOL    HW217202   4.289   1.173   4.703
 5435SOL     OW17203   6.427   3.591   0.417
 5435SOL    HW117204   6.478   3.569   0.500
 5435SOL    HW217205   6.467   3.672   0.374
 5436SOL     OW17206   6.260   4.646   4.103
 5436SOL    HW117207   6.360   4.652   4.113
 5436SOL    HW217208   6.227   4.563   4.148
 5437SOL     OW17209   3.343   4.946   4.864
 5437SOL    HW117210   3.384   4.941   4.773
 5437SOL    HW217211   3.253   4.903   4.862
 5438SOL     OW17212   5.381   4.487   2.034
 5438SOL    HW117213   5.287   4.460   2.056
 5438SOL    HW217214   5.427   4.414   1.984
 5439SOL     OW17215   0.485   3.353   6.521
 5439SOL    HW117216   0.553   3.301   6.573
 5439SOL    HW217217   0.529   3.399   6.444
 5440SOL     OW17218   6.545   6.075   3.813
 5440SOL    HW117219   6.554   6.136   3.735
 5440SOL    HW217220   6.450   6.075   3.845
 5441SOL     OW17221   5.166   3.116   3.808
 5441SOL    HW117222   5.225   3.099   3.887
 5441SOL    HW217223   5.200   3.196   3.758
 5442SOL     OW17224   4.116   0.017   3.559
 5442SOL    HW117225   4.019   0.012   3.582
 5442SOL    HW217226   4.148   0.111   3.571
 5443SOL     OW17227   4.447   6.037   3.748
 5443SOL    HW117228   4.384   6.058   3.673
 5443SOL    HW217229   4.441   6.108   3.817
 5444SOL     OW17230   0.140   0.505   4.097
 5444SOL    HW117231   0.136   0.524   4.195
 5444SOL    HW217232   0.049   0.477   4.065
 5445SOL     OW17233   6.254   3.972   3.715
 5445SOL    HW117234   6.226   3.885   3.757
 5445SOL    HW217235   6.211   4.048   3.763
 5446SOL     OW17236   6.045   5.220   4.259
 5446SOL    HW117237   5.960   5.271   4.266
 5446SOL    HW217238   6.090   5.243   4.173
 5447SOL     OW17239   1.726   1.152   1.076
 5447SOL    HW117240   1.794   1.204   1.024
 5447SOL    HW217241   1.760   1.059   1.091
 5448SOL     OW17242   4.412   4.724   3.648
 5448SOL    HW117243   4.463   4.684   3.571
 5448SOL    HW217244   4.315   4.728   3.624
 5449SOL     OW17245   2.032   0.953   0.744
 5449SOL    HW117246   2.116   0.915   0.706
 5449SOL    HW217247   1.970   0.979   0.670
 5450SOL     OW17248   3.240   0.179   1.176
 5450SOL    HW117249   3.207   0.103   1.232
 5450SOL    HW217250   3.333   0.160   1.145
 5451SOL     OW17251   1.920   6.006   3.524
 5451SOL    HW117252   1.869   5.969   3.446
 5451SOL    HW217253   1.927   6.105   3.515
 5452SOL     OW17254   2.537   4.392   1.052
 5452SOL    HW117255   2.616   4.334   1.071
 5452SOL    HW217256   2.456   4.334   1.038
 5453SOL     OW17257   5.080   3.993   2.267
 5453SOL    HW117258   5.139   3.932   2.214
 5453SOL    HW217259   4.996   4.011   2.216
 5454SOL     OW17260   5.863   5.896   0.970
 5454SOL    HW117261   5.880   5.994   0.975
 5454SOL    HW217262   5.815   5.866   1.053
 5455SOL     OW17263   0.362   1.951   3.669
 5455SOL    HW117264   0.296   2.025   3.685
 5455SOL    HW217265   0.321   1.881   3.612
 5456SOL     OW17266   3.774   1.946   6.708
 5456SOL    HW117267   3.710   1.901   6.646
 5456SOL    HW217268   3.827   2.014   6.658
 5457SOL     OW17269   6.441   2.024   1.496
 5457SOL    HW117270   6.506   1.963   1.451
 5457SOL    HW217271   6.480   2.055   1.583
 5458SOL     OW17272   6.809   5.068   0.479
 5458SOL    HW117273   6.736   5.043   0.543
 5458SOL    HW217274   6.794   5.021   0.392
 5459SOL     OW17275   2.249   4.875   5.322
 5459SOL    HW117276   2.337   4.859   5.277
 5459SOL    HW217277   2.244   4.820   5.405
 5460SOL     OW17278   3.030   6.895   2.188
 5460SOL    HW117279   2.932   6.912   2.178
 5460SOL    HW217280   3.062   6.938   2.272
 5461SOL     OW17281   0.713   7.008   4.334
 5461SOL    HW117282   0.656   6.927   4.319
 5461SOL    HW217283   0.808   6.984   4.313
 5462SOL     OW17284   5.652   6.205   0.093
 5462SOL    HW117285   5.697   6.209   0.004
 5462SOL    HW217286   5.555   6.229   0.082
 5463SOL     OW17287   0.642   2.089   0.075
 5463SOL    HW117288   0.562   2.082   0.134
 5463SOL    HW217289   0.613   2.100   7.009
 5464SOL     OW17290   5.922   6.104   4.592
 5464SOL    HW117291   5.971   6.130   4.675
 5464SOL    HW217292   5.847   6.168   4.576
 5465SOL     OW17293   6.364   1.172   3.222
 5465SOL    HW117294   6.264   1.169   3.211
 5465SOL    HW217295   6.388   1.243   3.288
 5466SOL     OW17296   5.012   2.559   5.721
 5466SOL    HW117297   5.034   2.654   5.701
 5466SOL    HW217298   5.037   2.502   5.643
 5467SOL     OW17299   6.212   3.418   3.305
 5467SOL    HW117300   6.299   3.397   3.349
 5467SOL    HW217301   6.156   3.335   3.303
 5468SOL     OW17302   6.878   2.102   4.842
 5468SOL    HW117303   6.909   2.026   4.785
 5468SOL    HW217304   6.868   2.071   4.937
 5469SOL     OW17305   3.060   5.682   5.364
 5469SOL    HW117306   3.121   5.630   5.425
 5469SOL    HW217307   3.012   5.619   5.304
 5470SOL     OW17308   4.073   5.562   4.313
 5470SOL    HW117309   4.055   5.572   4.215
 5470SOL    HW217310   3.992   5.523   4.358
 5471SOL     OW17311   5.847   0.278   2.672
 5471SOL    HW117312   5.812   0.252   2.763
 5471SOL    HW217313   5.833   0.376   2.659
 5472SOL     OW17314   3.407   3.471   6.601
 5472SOL    HW117315   3.427   3.433   6.691
 5472SOL    HW217316   3.406   3.571   6.605
 5473SOL     OW17317   1.512   3.426   0.875
 5473SOL    HW117318   1.601   3.444   0.916
 5473SOL    HW217319   1.454   3.507   0.887
 5474SOL     OW17320   0.866   5.075   4.768
 5474SOL    HW117321   0.868   5.009   4.842
 5474SOL    HW217322   0.778   5.123   4.768
 5475SOL     OW17323   1.811   2.370   0.255
 5475SOL    HW117324   1.816   2.435   0.330
 5475SOL    HW217325   1.903   2.337   0.233
 5476SOL     OW17326   2.305   4.356   4.843
 5476SOL    HW117327   2.218   4.314   4.820
 5476SOL    HW217328   2.367   4.348   4.764
 5477SOL     OW17329   2.099   3.906   3.302
 5477SOL    HW117330   2.144   3.970   3.364
 5477SOL    HW217331   2.007   3.939   3.280
 5478SOL     OW17332   4.543   0.108   5.582
 5478SOL    HW117333   4.529   0.044   5.657
 5478SOL    HW217334   4.456   0.120   5.532
 5479SOL     OW17335   5.095   2.246   4.946
 5479SOL    HW117336   5.160   2.217   4.875
 5479SOL    HW217337   5.105   2.344   4.961
 5480SOL     OW17338   5.578   5.489   4.444
 5480SOL    HW117339   5.493   5.535   4.469
 5480SOL    HW217340   5.558   5.401   4.402
 5481SOL     OW17341   4.483   1.694   4.763
 5481SOL    HW117342   4.563   1.640   4.738
 5481SOL    HW217343   4.475   1.771   4.699
 5482SOL     OW17344   3.580   3.576   1.965
 5482SOL    HW117345   3.522   3.628   1.903
 5482SOL    HW217346   3.676   3.586   1.938
 5483SOL     OW17347   0.479   2.017   5.369
 5483SOL    HW117348   0.510   1.937   5.317
 5483SOL    HW217349   0.509   2.100   5.322
 5484SOL     OW17350   5.127   0.400   4.299
 5484SOL    HW117351   5.087   0.483   4.259
 5484SOL    HW217352   5.115   0.401   4.398
 5485SOL     OW17353   3.133   0.266   5.346
 5485SOL    HW117354   3.060   0.251   5.413
 5485SOL    HW217355   3.100   0.328   5.275
 5486SOL     OW17356   1.834   5.616   4.846
 5486SOL    HW117357   1.747   5.574   4.825
 5486SOL    HW217358   1.827   5.666   4.933
 5487SOL     OW17359   4.957   3.122   6.622
 5487SOL    HW117360   4.993   3.205   6.665
 5487SOL    HW217361   4.964   3.046   6.686
 5488SOL     OW17362   5.379   1.144   1.087
 5488SOL    HW117363   5.462   1.101   1.053
 5488SOL    HW217364   5.300   1.111   1.034
 5489SOL     OW17365   1.123   5.168   1.019
 5489SOL    HW117366   1.187   5.092   1.030
 5489SOL    HW217367   1.159   5.249   1.067
 5490SOL     OW17368   3.840   6.939   0.088
 5490SOL    HW117369   3.840   6.933   0.188
 5490SOL    HW217370   3.931   6.962   0.055
 5491SOL     OW17371   1.902   4.582   0.651
 5491SOL    HW117372   2.000   4.562   0.657
 5491SOL    HW217373   1.855   4.541   0.729
 5492SOL     OW17374   0.580   2.326   6.506
 5492SOL    HW117375   0.644   2.297   6.577
 5492SOL    HW217376   0.545   2.417   6.527
 5493SOL     OW17377   4.177   3.623   3.758
 5493SOL    HW117378   4.251   3.556   3.753
 5493SOL    HW217379   4.134   3.631   3.668
 5494SOL     OW17380   0.025   2.632   6.221
 5494SOL    HW117381   7.001   2.547   6.225
 5494SOL    HW217382   0.116   2.616   6.258
 5495SOL     OW17383   3.666   2.330   1.304
 5495SOL    HW117384   3.687   2.255   1.241
 5495SOL    HW217385   3.713   2.313   1.391
 5496SOL     OW17386   2.438   0.163   3.226
 5496SOL    HW117387   2.458   0.067   3.209
 5496SOL    HW217388   2.500   0.198   3.297
 5497SOL     OW17389   0.500   1.649   4.078
 5497SOL    HW117390   0.593   1.679   4.099
 5497SOL    HW217391   0.434   1.711   4.119
 5498SOL     OW17392   5.288   6.740   1.213
 5498SOL    HW117393   5.349   6.812   1.244
 5498SOL    HW217394   5.328   6.651   1.236
 5499SOL     OW17395   6.768   0.960   4.527
 5499SOL    HW117396   6.834   0.921   4.592
 5499SOL    HW217397   6.795   1.054   4.505
 5500SOL     OW17398   1.756   6.960   0.763
 5500SOL    HW117399   1.783   7.001   0.850
 5500SOL    HW217400   1.765   6.861   0.768
 5501SOL     OW17401   4.053   6.657   0.192
 5501SOL    HW117402   4.064   6.757   0.193
 5501SOL    HW217403   3.972   6.632   0.245
 5502SOL     OW17404   5.875   3.408   0.133
 5502SOL    HW117405   5.900   3.448   0.045
 5502SOL    HW217406   5.912   3.315   0.139
 5503SOL     OW17407   0.153   5.250   2.841
 5503SOL    HW117408   0.070   5.195   2.852
 5503SOL    HW217409   0.128   5.345   2.823
 5504SOL     OW17410   3.999   1.208   4.914
 5504SOL    HW117411   4.073   1.275   4.906
 5504SOL    HW217412   4.034   1.117   4.889
 5505SOL     OW17413   1.538   5.792   4.715
 5505SOL    HW117414   1.556   5.697   4.742
 5505SOL    HW217415   1.620   5.832   4.676
 5506SOL     OW17416   1.643   1.770   6.327
 5506SOL    HW117417   1.580   1.776   6.249
 5506SOL    HW217418   1.591   1.752   6.411
 5507SOL     OW17419   2.733   0.232   3.738
 5507SOL    HW117420   2.787   0.202   3.817
 5507SOL    HW217421   2.658   0.290   3.768
 5508SOL     OW17422   1.940   0.527   6.312
 5508SOL    HW117423   1.846   0.547   6.340
 5508SOL    HW217424   1.940   0.489   6.219
 5509SOL     OW17425   0.900   6.320   0.922
 5509SOL    HW117426   0.971   6.257   0.889
 5509SOL    HW217427   0.879   6.386   0.850
 5510SOL     OW17428   4.681   5.871   1.075
 5510SOL    HW117429   4.705   5.779   1.045
 5510SOL    HW217430   4.644   5.867   1.168
 5511SOL     OW17431   2.297   1.192   4.411
 5511SOL    HW117432   2.335   1.218   4.323
 5511SOL    HW217433   2.198   1.180   4.403
 5512SOL     OW17434   5.525   1.930   1.942
 5512SOL    HW117435   5.498   1.960   2.034
 5512SOL    HW217436   5.545   1.832   1.944
 5513SOL     OW17437   4.528   4.966   6.505
 5513SOL    HW117438   4.528   5.037   6.434
 5513SOL    HW217439   4.434   4.935   6.521
 5514SOL     OW17440   4.505   6.372   3.348
 5514SOL    HW117441   4.514   6.384   3.447
 5514SOL    HW217442   4.410   6.388   3.321
 5515SOL     OW17443   0.068   4.820   1.231
 5515SOL    HW117444   0.054   4.723   1.210
 5515SOL    HW217445   0.162   4.834   1.261
 5516SOL     OW17446   1.285   3.860   6.505
 5516SOL    HW117447   1.285   3.894   6.411
 5516SOL    HW217448   1.191   3.844   6.535
 5517SOL     OW17449   2.104   3.252   2.029
 5517SOL    HW117450   2.132   3.344   2.000
 5517SOL    HW217451   2.016   3.229   1.986
 5518SOL     OW17452   6.438   6.868   6.656
 5518SOL    HW117453   6.417   6.940   6.722
 5518SOL    HW217454   6.385   6.883   6.573
 5519SOL     OW17455   5.295   2.971   3.109
 5519SOL    HW117456   5.364   2.964   3.037
 5519SOL    HW217457   5.285   2.882   3.154
 5520SOL     OW17458   6.317   5.900   1.932
 5520SOL    HW117459   6.303   5.877   2.028
 5520SOL    HW217460   6.252   5.849   1.875
 5521SOL     OW17461   5.460   6.881   1.788
 5521SOL    HW117462   5.370   6.900   1.827
 5521SOL    HW217463   5.452   6.810   1.719
 5522SOL     OW17464   6.584   5.253   0.668
 5522SOL    HW117465   6.653   5.290   0.606
 5522SOL    HW217466   6.599   5.289   0.760
 5523SOL     OW17467   3.777   0.280   2.210
 5523SOL    HW117468   3.766   0.307   2.306
 5523SOL    HW217469   3.786   0.362   2.154
 5524SOL     OW17470   5.131   5.108   5.060
 5524SOL    HW117471   5.084   5.124   5.147
 5524SOL    HW217472   5.079   5.042   5.005
 5525SOL     OW17473   0.105   2.489   0.356
 5525SOL    HW117474   0.103   2.493   0.256
 5525SOL    HW217475   0.199   2.477   0.388
 5526SOL     OW17476   4.787   4.751   4.399
 5526SOL    HW117477   4.775   4.673   4.461
 5526SOL    HW217478   4.795   4.834   4.453
 5527SOL     OW17479   6.123   3.793   4.320
 5527SOL    HW117480   6.076   3.729   4.260
 5527SOL    HW217481   6.132   3.881   4.274
 5528SOL     OW17482   1.317   1.809   6.715
 5528SOL    HW117483   1.271   1.807   6.626
 5528SOL    HW217484   1.254   1.847   6.784
 5529SOL     OW17485   2.289   0.077   3.461
 5529SOL    HW117486   2.330   0.097   3.371
 5529SOL    HW217487   2.223   0.149   3.483
 5530SOL     OW17488   6.192   2.292   2.393
 5530SOL    HW117489   6.175   2.330   2.302
 5530SOL    HW217490   6.181   2.193   2.391
 5531SOL     OW17491   3.794   2.889   2.225
 5531SOL    HW117492   3.753   2.911   2.314
 5531SOL    HW217493   3.843   2.802   2.232
 5532SOL     OW17494   1.133   2.530   0.669
 5532SOL    HW117495   1.211   2.469   0.652
 5532SOL    HW217496   1.148   2.616   0.620
 5533SOL     OW17497   3.403   1.007   3.451
 5533SOL    HW117498   3.496   1.016   3.487
 5533SOL    HW217499   3.369   0.915   3.471
 5534SOL     OW17500   1.014   2.077   5.923
 5534SOL    HW117501   0.955   2.152   5.893
 5534SOL    HW217502   0.959   1.994   5.933
 5535SOL     OW17503   0.010   3.098   3.582
 5535SOL    HW117504   0.083   3.118   3.518
 5535SOL    HW217505   0.049   3.075   3.671
 5536SOL     OW17506   3.064   1.313   4.079
 5536SOL    HW117507   3.073   1.327   3.980
 5536SOL    HW217508   3.112   1.229   4.105
 5537SOL     OW17509   2.519   0.724   2.900
 5537SOL    HW117510   2.529   0.664   2.980
 5537SOL    HW217511   2.457   0.681   2.834
 5538SOL     OW17512   2.881   6.896   5.715
 5538SOL    HW117513   2.872   6.869   5.811
 5538SOL    HW217514   2.816   6.969   5.695
 5539SOL     OW17515   0.960   3.768   0.929
 5539SOL    HW117516   0.949   3.724   1.018
 5539SOL    HW217517   1.006   3.706   0.866
 5540SOL     OW17518   5.815   3.520   3.882
 5540SOL    HW117519   5.821   3.620   3.877
 5540SOL    HW217520   5.902   3.480   3.853
 5541SOL     OW17521   6.154   0.516   6.513
 5541SOL    HW117522   6.228   0.526   6.446
 5541SOL    HW217523   6.066   0.520   6.466
 5542SOL     OW17524   6.112   5.031   6.076
 5542SOL    HW117525   6.069   5.120   6.064
 5542SOL    HW217526   6.210   5.043   6.093
 5543SOL     OW17527   3.465   5.584   6.044
 5543SOL    HW117528   3.495   5.657   5.982
 5543SOL    HW217529   3.413   5.516   5.992
 5544SOL     OW17530   5.672   6.601   6.195
 5544SOL    HW117531   5.694   6.693   6.227
 5544SOL    HW217532   5.671   6.600   6.095
 5545SOL     OW17533   4.048   1.743   2.243
 5545SOL    HW117534   4.026   1.725   2.147
 5545SOL    HW217535   4.056   1.842   2.258
 5546SOL     OW17536   0.673   6.130   4.752
 5546SOL    HW117537   0.596   6.132   4.689
 5546SOL    HW217538   0.672   6.213   4.809
 5547SOL     OW17539   3.627   0.246   4.981
 5547SOL    HW117540   3.692   0.306   5.027
 5547SOL    HW217541   3.599   0.287   4.894
 5548SOL     OW17542   5.478   3.518   5.729
 5548SOL    HW117543   5.406   3.586   5.720
 5548SOL    HW217544   5.535   3.539   5.809
 5549SOL     OW17545   4.708   3.971   0.227
 5549SOL    HW117546   4.697   3.908   0.304
 5549SOL    HW217547   4.786   3.943   0.172
 5550SOL     OW17548   2.122   4.048   1.948
 5550SOL    HW117549   2.092   4.128   1.897
 5550SOL    HW217550   2.147   3.975   1.885
 5551SOL     OW17551   1.863   6.819   3.240
 5551SOL    HW117552   1.765   6.818   3.256
 5551SOL    HW217553   1.882   6.779   3.150
 5552SOL     OW17554   6.936   0.292   0.336
 5552SOL    HW117555   7.021   0.279   0.284
 5552SOL    HW217556   6.858   0.278   0.276
 5553SOL     OW17557   5.290   6.120   6.781
 5553SOL    HW117558   5.310   6.023   6.764
 5553SOL    HW217559   5.191   6.135   6.777
 5554SOL     OW17560   4.705   1.441   5.383
 5554SOL    HW117561   4.733   1.371   5.318
 5554SOL    HW217562   4.657   1.514   5.334
 5555SOL     OW17563   2.225   4.547   4.160
 5555SOL    HW117564   2.315   4.516   4.128
 5555SOL    HW217565   2.162   4.470   4.160
 5556SOL     OW17566   6.886   1.206   3.701
 5556SOL    HW117567   6.965   1.174   3.649
 5556SOL    HW217568   6.904   1.298   3.736
 5557SOL     OW17569   3.828   6.977   2.655
 5557SOL    HW117570   3.743   6.982   2.603
 5557SOL    HW217571   3.906   6.969   2.592
 5558SOL     OW17572   4.831   3.678   6.011
 5558SOL    HW117573   4.822   3.623   6.094
 5558SOL    HW217574   4.861   3.620   5.935
 5559SOL     OW17575   2.155   0.355   1.945
 5559SOL    HW117576   2.081   0.413   1.911
 5559SOL    HW217577   2.218   0.409   2.000
 5560SOL     OW17578   1.438   6.733   2.889
 5560SOL    HW117579   1.526   6.767   2.921
 5560SOL    HW217580   1.421   6.768   2.797
 5561SOL     OW17581   1.528   1.979   4.343
 5561SOL    HW117582   1.524   2.076   4.320
 5561SOL    HW217583   1.478   1.963   4.428
 5562SOL     OW17584   3.526   2.323   6.719
 5562SOL    HW117585   3.443   2.280   6.754
 5562SOL    HW217586   3.599   2.314   6.787
 5563SOL     OW17587   4.341   5.414   2.530
 5563SOL    HW117588   4.309   5.506   2.554
 5563SOL    HW217589   4.286   5.346   2.579
 5564SOL     OW17590   4.473   1.199   1.951
 5564SOL    HW117591   4.523   1.123   1.992
 5564SOL    HW217592   4.379   1.170   1.929
 5565SOL     OW17593   4.652   1.760   6.040
 5565SOL    HW117594   4.679   1.818   6.118
 5565SOL    HW217595   4.726   1.758   5.973
 5566SOL     OW17596   1.885   5.021   6.900
 5566SOL    HW117597   1.886   5.117   6.927
 5566SOL    HW217598   1.972   4.979   6.925
 5567SOL     OW17599   6.924   3.339   1.972
 5567SOL    HW117600   6.983   3.261   1.992
 5567SOL    HW217601   6.897   3.336   1.876
 5568SOL     OW17602   4.256   2.199   3.969
 5568SOL    HW117603   4.331   2.264   3.976
 5568SOL    HW217604   4.292   2.110   3.941
 5569SOL     OW17605   1.564   1.551   2.297
 5569SOL    HW117606   1.626   1.475   2.277
 5569SOL    HW217607   1.617   1.628   2.332
 5570SOL     OW17608   5.834   4.374   4.885
 5570SOL    HW117609   5.902   4.361   4.812
 5570SOL    HW217610   5.855   4.312   4.961
 5571SOL     OW17611   6.913   5.458   0.705
 5571SOL    HW117612   6.871   5.417   0.624
 5571SOL    HW217613   6.998   5.504   0.678
 5572SOL     OW17614   1.089   2.167   5.063
 5572SOL    HW117615   1.003   2.157   5.112
 5572SOL    HW217616   1.093   2.099   4.989
 5573SOL     OW17617   2.103   3.934   6.529
 5573SOL    HW117618   2.156   3.877   6.466
 5573SOL    HW217619   2.028   3.977   6.479
 5574SOL     OW17620   6.265   1.576   3.164
 5574SOL    HW117621   6.335   1.645   3.143
 5574SOL    HW217622   6.241   1.582   3.261
 5575SOL     OW17623   6.794   1.396   1.354
 5575SOL    HW117624   6.845   1.311   1.358
 5575SOL    HW217625   6.697   1.377   1.369
 5576SOL     OW17626   1.303   5.949   2.501
 5576SOL    HW117627   1.401   5.931   2.515
 5576SOL    HW217628   1.273   5.907   2.416
 5577SOL     OW17629   2.717   2.447   5.249
 5577SOL    HW117630   2.809   2.483   5.231
 5577SOL    HW217631   2.712   2.413   5.343
 5578SOL     OW17632   3.939   4.321   0.158
 5578SOL    HW117633   3.973   4.361   0.073
 5578SOL    HW217634   3.897   4.392   0.215
 5579SOL     OW17635   0.372   3.585   5.929
 5579SOL    HW117636   0.468   3.595   5.905
 5579SOL    HW217637   0.360   3.604   6.027
 5580SOL     OW17638   5.242   2.773   5.989
 5580SOL    HW117639   5.251   2.812   6.080
 5580SOL    HW217640   5.173   2.700   5.992
 5581SOL     OW17641   2.780   0.803   1.694
 5581SOL    HW117642   2.860   0.743   1.690
 5581SOL    HW217643   2.699   0.752   1.666
 5582SOL     OW17644   3.726   3.418   4.424
 5582SOL    HW117645   3.771   3.496   4.381
 5582SOL    HW217646   3.645   3.394   4.371
 5583SOL     OW17647   3.920   0.680   2.857
 5583SOL    HW117648   3.870   0.719   2.934
 5583SOL    HW217649   3.918   0.744   2.780
 5584SOL     OW17650   5.770   3.873   3.914
 5584SOL    HW117651   5.712   3.926   3.853
 5584SOL    HW217652   5.716   3.842   3.993
 5585SOL     OW17653   4.761   6.358   4.083
 5585SOL    HW117654   4.851   6.330   4.117
 5585SOL    HW217655   4.757   6.458   4.078
 5586SOL     OW17656   0.364   2.150   6.974
 5586SOL    HW117657   0.288   2.202   7.012
 5586SOL    HW217658   0.416   2.209   6.910
 5587SOL     OW17659   3.828   6.108   2.462
 5587SOL    HW117660   3.774   6.024   2.467
 5587SOL    HW217661   3.924   6.086   2.446
 5588SOL     OW17662   2.084   6.851   3.043
 5588SOL    HW117663   2.049   6.934   3.000
 5588SOL    HW217664   2.067   6.854   3.141
 5589SOL     OW17665   6.053   3.572   5.676
 5589SOL    HW117666   5.965   3.529   5.654
 5589SOL    HW217667   6.047   3.616   5.766
 5590SOL     OW17668   6.644   5.129   3.453
 5590SOL    HW117669   6.587   5.186   3.393
 5590SOL    HW217670   6.587   5.089   3.525
 5591SOL     OW17671   5.828   1.262   6.977
 5591SOL    HW117672   5.896   1.332   6.960
 5591SOL    HW217673   5.866   1.172   6.953
 5592SOL     OW17674   0.471   4.422   2.956
 5592SOL    HW117675   0.384   4.449   2.997
 5592SOL    HW217676   0.504   4.497   2.898
 5593SOL     OW17677   7.010   2.258   5.644
 5593SOL    HW117678   6.931   2.274   5.703
 5593SOL    HW217679   6.997   2.172   5.595
 5594SOL     OW17680   3.271   1.170   6.774
 5594SOL    HW117681   3.191   1.118   6.747
 5594SOL    HW217682   3.269   1.186   6.873
 5595SOL     OW17683   6.050   0.324   5.234
 5595SOL    HW117684   6.146   0.321   5.207
 5595SOL    HW217685   6.043   0.310   5.333
 5596SOL     OW17686   4.911   0.287   2.802
 5596SOL    HW117687   4.867   0.356   2.744
 5596SOL    HW217688   4.959   0.333   2.876
 5597SOL     OW17689   6.349   1.668   5.323
 5597SOL    HW117690   6.306   1.686   5.234
 5597SOL    HW217691   6.295   1.601   5.373
 5598SOL     OW17692   6.395   2.922   4.130
 5598SOL    HW117693   6.391   2.893   4.226
 5598SOL    HW217694   6.311   2.969   4.105
 5599SOL     OW17695   0.410   2.389   2.014
 5599SOL    HW117696   0.378   2.294   2.008
 5599SOL    HW217697   0.342   2.450   1.976
 5600SOL     OW17698   2.452   0.182   2.516
 5600SOL    HW117699   2.470   0.267   2.466
 5600SOL    HW217700   2.491   0.105   2.467
 5601SOL     OW17701   3.331   1.190   6.480
 5601SOL    HW117702   3.307   1.097   6.452
 5601SOL    HW217703   3.320   1.199   6.579
 5602SOL     OW17704   0.485   0.150   1.850
 5602SOL    HW117705   0.462   0.181   1.943
 5602SOL    HW217706   0.506   0.230   1.793
 5603SOL     OW17707   5.562   2.047   6.998
 5603SOL    HW117708   5.556   2.091   0.059
 5603SOL    HW217709   5.487   1.982   6.987
 5604SOL     OW17710   6.877   2.310   5.107
 5604SOL    HW117711   6.855   2.302   5.205
 5604SOL    HW217712   6.959   2.257   5.087
 5605SOL     OW17713   1.606   0.457   4.814
 5605SOL    HW117714   1.671   0.382   4.829
 5605SOL    HW217715   1.582   0.462   4.717
 5606SOL     OW17716   5.748   1.151   0.620
 5606SOL    HW117717   5.775   1.062   0.655
 5606SOL    HW217718   5.754   1.219   0.693
 5607SOL     OW17719   6.100   1.209   3.983
 5607SOL    HW117720   6.160   1.264   4.041
 5607SOL    HW217721   6.016   1.187   4.034
 5608SOL     OW17722   5.951   1.096   3.019
 5608SOL    HW117723   5.974   1.099   2.921
 5608SOL    HW217724   5.852   1.100   3.030
 5609SOL     OW17725   4.323   6.011   1.438
 5609SOL    HW117726   4.227   6.041   1.439
 5609SOL    HW217727   4.354   5.994   1.531
 5610SOL     OW17728   4.953   4.523   1.402
 5610SOL    HW117729   4.854   4.530   1.390
 5610SOL    HW217730   4.992   4.615   1.407
 5611SOL     OW17731   0.973   5.196   3.120
 5611SOL    HW117732   0.917   5.265   3.075
 5611SOL    HW217733   0.917   5.144   3.185
 5612SOL     OW17734   4.329   3.394   0.286
 5612SOL    HW117735   4.398   3.360   0.350
 5612SOL    HW217736   4.282   3.316   0.243
 5613SOL     OW17737   5.332   5.416   5.165
 5613SOL    HW117738   5.302   5.390   5.257
 5613SOL    HW217739   5.285   5.500   5.137
 5614SOL     OW17740   4.996   3.757   5.068
 5614SOL    HW117741   4.919   3.694   5.071
 5614SOL    HW217742   5.078   3.710   5.034
 5615SOL     OW17743   6.735   1.700   3.929
 5615SOL    HW117744   6.756   1.724   3.834
 5615SOL    HW217745   6.693   1.779   3.974
 5616SOL     OW17746   2.132   2.685   4.780
 5616SOL    HW117747   2.209   2.743   4.755
 5616SOL    HW217748   2.164   2.591   4.791
 5617SOL     OW17749   1.302   4.466   4.768
 5617SOL    HW117750   1.302   4.403   4.846
 5617SOL    HW217751   1.396   4.481   4.737
 5618SOL     OW17752   6.639   4.872   3.599
 5618SOL    HW117753   6.738   4.879   3.598
 5618SOL    HW217754   6.608   4.819   3.520
 5619SOL     OW17755   3.303   3.833   3.908
 5619SOL    HW117756   3.334   3.925   3.883
 5619SOL    HW217757   3.375   3.788   3.962
 5620SOL     OW17758   4.485   3.909   0.125
 5620SOL    HW117759   4.571   3.949   0.158
 5620SOL    HW217760   4.501   3.863   0.038
 5621SOL     OW17761   1.667   3.186   7.026
 5621SOL    HW117762   1.663   3.255   0.069
 5621SOL    HW217763   1.615   3.216   6.947
 5622SOL     OW17764   5.225   0.505   5.918
 5622SOL    HW117765   5.310   0.474   5.875
 5622SOL    HW217766   5.217   0.604   5.909
 5623SOL     OW17767   4.542   6.401   4.920
 5623SOL    HW117768   4.614   6.368   4.980
 5623SOL    HW217769   4.582   6.435   4.835
 5624SOL     OW17770   0.533   4.629   4.236
 5624SOL    HW117771   0.584   4.593   4.157
 5624SOL    HW217772   0.567   4.587   4.320
 5625SOL     OW17773   6.870   6.476   5.867
 5625SOL    HW117774   6.883   6.382   5.838
 5625SOL    HW217775   6.924   6.537   5.809
 5626SOL     OW17776   2.569   5.063   3.803
 5626SOL    HW117777   2.527   5.131   3.744
 5626SOL    HW217778   2.668   5.078   3.806
 5627SOL     OW17779   0.158   4.911   6.631
 5627SOL    HW117780   0.115   4.847   6.568
 5627SOL    HW217781   0.231   4.960   6.584
 5628SOL     OW17782   1.980   2.651   1.568
 5628SOL    HW117783   1.919   2.640   1.646
 5628SOL    HW217784   2.013   2.561   1.538
 5629SOL     OW17785   4.892   3.246   1.947
 5629SOL    HW117786   4.984   3.220   1.920
 5629SOL    HW217787   4.850   3.172   2.000
 5630SOL     OW17788   1.593   4.481   6.912
 5630SOL    HW117789   1.561   4.568   6.949
 5630SOL    HW217790   1.545   4.461   6.827
 5631SOL     OW17791   4.594   1.963   1.551
 5631SOL    HW117792   4.499   1.971   1.581
 5631SOL    HW217793   4.633   1.877   1.584
 5632SOL     OW17794   3.396   2.196   5.203
 5632SOL    HW117795   3.343   2.111   5.211
 5632SOL    HW217796   3.334   2.274   5.202
 5633SOL     OW17797   6.118   4.872   4.355
 5633SOL    HW117798   6.044   4.871   4.288
 5633SOL    HW217799   6.086   4.916   4.439
 5634SOL     OW17800   2.088   4.841   4.614
 5634SOL    HW117801   2.023   4.773   4.648
 5634SOL    HW217802   2.115   4.902   4.689
 5635SOL     OW17803   1.433   6.129   6.795
 5635SOL    HW117804   1.491   6.168   6.724
 5635SOL    HW217805   1.389   6.202   6.847
 5636SOL     OW17806   6.462   6.940   5.095
 5636SOL    HW117807   6.426   7.021   5.048
 5636SOL    HW217808   6.541   6.905   5.044
 5637SOL     OW17809   4.133   6.406   3.566
 5637SOL    HW117810   4.185   6.355   3.635
 5637SOL    HW217811   4.068   6.467   3.611
 5638SOL     OW17812   6.357   3.945   1.227
 5638SOL    HW117813   6.288   3.912   1.162
 5638SOL    HW217814   6.378   3.873   1.293
 5639SOL     OW17815   2.563   0.369   2.356
 5639SOL    HW117816   2.605   0.306   2.291
 5639SOL    HW217817   2.624   0.447   2.372
 5640SOL     OW17818   3.267   0.937   2.345
 5640SOL    HW117819   3.358   0.974   2.358
 5640SOL    HW217820   3.224   0.922   2.434
 5641SOL     OW17821   1.081   4.623   5.651
 5641SOL    HW117822   1.176   4.621   5.683
 5641SOL    HW217823   1.055   4.717   5.632
 5642SOL     OW17824   0.520   5.958   5.029
 5642SOL    HW117825   0.543   5.950   5.126
 5642SOL    HW217826   0.599   5.991   4.978
 5643SOL     OW17827   3.417   0.951   4.423
 5643SOL    HW117828   3.483   0.989   4.359
 5643SOL    HW217829   3.364   1.025   4.465
 5644SOL     OW17830   3.792   0.074   4.690
 5644SOL    HW117831   3.798   0.172   4.670
 5644SOL    HW217832   3.828   0.022   4.613
 5645SOL     OW17833   5.535   4.953   2.718
 5645SOL    HW117834   5.502   4.880   2.658
 5645SOL    HW217835   5.590   4.913   2.792
 5646SOL     OW17836   1.193   5.336   3.207
 5646SOL    HW117837   1.109   5.296   3.169
 5646SOL    HW217838   1.214   5.420   3.159
 5647SOL     OW17839   5.691   0.484   0.811
 5647SOL    HW117840   5.707   0.385   0.814
 5647SOL    HW217841   5.620   0.504   0.743
 5648SOL     OW17842   1.884   0.498   3.507
 5648SOL    HW117843   1.912   0.497   3.411
 5648SOL    HW217844   1.801   0.553   3.517
 5649SOL     OW17845   6.931   0.113   4.962
 5649SOL    HW117846   6.992   0.109   4.883
 5649SOL    HW217847   6.856   0.048   4.950
 5650SOL     OW17848   1.416   5.367   0.753
 5650SOL    HW117849   1.349   5.295   0.736
 5650SOL    HW217850   1.368   5.453   0.772
 5651SOL     OW17851   0.504   1.039   1.748
 5651SOL    HW117852   0.517   0.963   1.811
 5651SOL    HW217853   0.580   1.104   1.758
 5652SOL     OW17854   6.646   6.993   2.189
 5652SOL    HW117855   6.588   6.947   2.121
 5652SOL    HW217856   6.732   7.020   2.145
 5653SOL     OW17857   0.652   6.081   6.894
 5653SOL    HW117858   0.557   6.105   6.876
 5653SOL    HW217859   0.677   6.110   6.986
 5654SOL     OW17860   6.836   0.320   5.780
 5654SOL    HW117861   6.763   0.279   5.725
 5654SOL    HW217862   6.887   0.385   5.724
 5655SOL     OW17863   1.606   3.651   4.727
 5655SOL    HW117864   1.651   3.577   4.678
 5655SOL    HW217865   1.675   3.705   4.776
 5656SOL     OW17866   0.233   3.565   0.012
 5656SOL    HW117867   0.163   3.576   6.969
 5656SOL    HW217868   0.216   3.631   0.085
 5657SOL     OW17869   5.666   1.456   0.108
 5657SOL    HW117870   5.712   1.420   0.026
 5657SOL    HW217871   5.709   1.542   0.135
 5658SOL     OW17872   3.670   4.607   5.823
 5658SOL    HW117873   3.750   4.557   5.857
 5658SOL    HW217874   3.589   4.577   5.874
 5659SOL     OW17875   3.593   3.451   3.970
 5659SOL    HW117876   3.523   3.426   3.903
 5659SOL    HW217877   3.656   3.375   3.983
 5660SOL     OW17878   5.748   0.910   0.238
 5660SOL    HW117879   5.807   0.872   0.310
 5660SOL    HW217880   5.652   0.891   0.261
 5661SOL     OW17881   1.487   5.120   5.146
 5661SOL    HW117882   1.412   5.091   5.087
 5661SOL    HW217883   1.569   5.134   5.091
 5662SOL     OW17884   2.562   5.439   2.840
 5662SOL    HW117885   2.535   5.504   2.911
 5662SOL    HW217886   2.626   5.372   2.878
 5663SOL     OW17887   2.240   3.501   0.587
 5663SOL    HW117888   2.262   3.443   0.665
 5663SOL    HW217889   2.220   3.444   0.507
 5664SOL     OW17890   6.516   4.153   4.805
 5664SOL    HW117891   6.473   4.210   4.734
 5664SOL    HW217892   6.460   4.072   4.822
 5665SOL     OW17893   1.736   1.347   0.184
 5665SOL    HW117894   1.684   1.348   0.270
 5665SOL    HW217895   1.831   1.371   0.203
 5666SOL     OW17896   5.807   6.050   1.721
 5666SOL    HW117897   5.772   6.071   1.630
 5666SOL    HW217898   5.820   5.951   1.730
 5667SOL     OW17899   1.258   4.792   4.643
 5667SOL    HW117900   1.203   4.876   4.641
 5667SOL    HW217901   1.321   4.795   4.720
 5668SOL     OW17902   5.488   2.034   4.711
 5668SOL    HW117903   5.391   2.055   4.721
 5668SOL    HW217904   5.504   1.938   4.734
 5669SOL     OW17905   0.338   3.332   6.780
 5669SOL    HW117906   0.370   3.358   6.689
 5669SOL    HW217907   0.415   3.301   6.835
 5670SOL     OW17908   6.931   2.605   3.396
 5670SOL    HW117909   6.974   2.642   3.479
 5670SOL    HW217910   7.000   2.593   3.325
 5671SOL     OW17911   0.187   6.493   0.214
 5671SOL    HW117912   0.197   6.435   0.133
 5671SOL    HW217913   0.220   6.445   0.294
 5672SOL     OW17914   4.021   4.698   6.066
 5672SOL    HW117915   4.092   4.634   6.095
 5672SOL    HW217916   3.941   4.687   6.125
 5673SOL     OW17917   0.888   7.004   2.542
 5673SOL    HW117918   0.807   6.999   2.484
 5673SOL    HW217919   0.935   0.062   2.527
 5674SOL     OW17920   0.261   5.079   5.104
 5674SOL    HW117921   0.329   5.016   5.142
 5674SOL    HW217922   0.273   5.085   5.005
 5675SOL     OW17923   3.500   2.259   5.924
 5675SOL    HW117924   3.578   2.204   5.897
 5675SOL    HW217925   3.433   2.203   5.973
 5676SOL     OW17926   1.559   2.726   1.912
 5676SOL    HW117927   1.549   2.628   1.930
 5676SOL    HW217928   1.469   2.768   1.903
 5677SOL     OW17929   0.415   1.120   1.520
 5677SOL    HW117930   0.491   1.105   1.456
 5677SOL    HW217931   0.444   1.096   1.612
 5678SOL     OW17932   3.995   6.308   2.853
 5678SOL    HW117933   4.036   6.224   2.818
 5678SOL    HW217934   4.067   6.372   2.881
 5679SOL     OW17935   1.088   1.150   3.940
 5679SOL    HW117936   1.099   1.241   3.901
 5679SOL    HW217937   1.144   1.141   4.022
 5680SOL     OW17938   1.454   4.928   6.421
 5680SOL    HW117939   1.391   4.856   6.449
 5680SOL    HW217940   1.403   5.014   6.411
 5681SOL     OW17941   0.068   4.715   0.345
 5681SOL    HW117942   0.039   4.710   0.441
 5681SOL    HW217943   0.032   4.800   0.304
 5682SOL     OW17944   2.586   4.276   5.652
 5682SOL    HW117945   2.679   4.303   5.674
 5682SOL    HW217946   2.577   4.266   5.552
 5683SOL     OW17947   4.170   0.775   6.456
 5683SOL    HW117948   4.237   0.837   6.498
 5683SOL    HW217949   4.205   0.744   6.368
 5684SOL     OW17950   2.851   3.517   5.780
 5684SOL    HW117951   2.844   3.612   5.811
 5684SOL    HW217952   2.834   3.513   5.681
 5685SOL     OW17953   1.493   3.180   2.336
 5685SOL    HW117954   1.542   3.175   2.249
 5685SOL    HW217955   1.412   3.121   2.333
 5686SOL     OW17956   3.291   1.335   5.947
 5686SOL    HW117957   3.371   1.305   5.997
 5686SOL    HW217958   3.217   1.270   5.960
 5687SOL     OW17959   0.533   4.897   6.434
 5687SOL    HW117960   0.444   4.930   6.402
 5687SOL    HW217961   0.545   4.801   6.407
 5688SOL     OW17962   0.486   2.584   0.904
 5688SOL    HW117963   0.532   2.669   0.879
 5688SOL    HW217964   0.480   2.577   1.004
 5689SOL     OW17965   4.072   1.422   0.784
 5689SOL    HW117966   3.973   1.406   0.788
 5689SOL    HW217967   4.109   1.425   0.876
 5690SOL     OW17968   2.732   6.048   0.468
 5690SOL    HW117969   2.677   6.074   0.547
 5690SOL    HW217970   2.757   6.129   0.415
 5691SOL     OW17971   2.973   0.430   1.888
 5691SOL    HW117972   2.982   0.497   1.815
 5691SOL    HW217973   3.052   0.368   1.885
 5692SOL     OW17974   6.180   3.162   0.473
 5692SOL    HW117975   6.147   3.256   0.463
 5692SOL    HW217976   6.129   3.101   0.412
 5693SOL     OW17977   5.614   2.067   2.538
 5693SOL    HW117978   5.521   2.084   2.505
 5693SOL    HW217979   5.671   2.033   2.463
 5694SOL     OW17980   0.387   1.832   3.344
 5694SOL    HW117981   0.468   1.881   3.377
 5694SOL    HW217982   0.353   1.876   3.261
 5695SOL     OW17983   0.945   2.533   2.796
 5695SOL    HW117984   0.887   2.566   2.870
 5695SOL    HW217985   1.031   2.499   2.833
 5696SOL     OW17986   1.182   1.064   2.937
 5696SOL    HW117987   1.095   1.106   2.963
 5696SOL    HW217988   1.209   0.997   3.006
 5697SOL     OW17989   6.014   2.316   1.789
 5697SOL    HW117990   5.917   2.333   1.805
 5697SOL    HW217991   6.051   2.261   1.864
 5698SOL     OW17992   0.857   3.493   3.504
 5698SOL    HW117993   0.933   3.542   3.549
 5698SOL    HW217994   0.839   3.535   3.415
 5699SOL     OW17995   0.192   1.907   3.143
 5699SOL    HW117996   0.139   1.824   3.128
 5699SOL    HW217997   0.131   1.986   3.143
 5700SOL     OW17998   6.856   0.088   4.197
 5700SOL    HW117999   6.855   0.003   4.145
 5700SOL    HW218000   6.776   0.143   4.173
 5701SOL     OW18001   1.522   0.538   2.202
 5701SOL    HW118002   1.520   0.464   2.270
 5701SOL    HW218003   1.497   0.502   2.112
 5702SOL     OW18004   2.876   6.125   5.007
 5702SOL    HW118005   2.813   6.167   5.073
 5702SOL    HW218006   2.834   6.123   4.916
 5703SOL     OW18007   6.798   4.608   1.324
 5703SOL    HW118008   6.742   4.687   1.348
 5703SOL    HW218009   6.747   4.524   1.346
 5704SOL     OW18010   4.518   4.441   2.479
 5704SOL    HW118011   4.612   4.406   2.480
 5704SOL    HW218012   4.486   4.447   2.385
 5705SOL     OW18013   5.101   1.040   0.913
 5705SOL    HW118014   5.023   1.099   0.892
 5705SOL    HW218015   5.155   1.025   0.830
 5706SOL     OW18016   6.528   3.937   0.622
 5706SOL    HW118017   6.619   3.926   0.661
 5706SOL    HW218018   6.476   3.853   0.634
 5707SOL     OW18019   0.117   6.827   0.710
 5707SOL    HW118020   0.167   6.909   0.684
 5707SOL    HW218021   0.180   6.749   0.714
 5708SOL     OW18022   5.004   5.928   1.641
 5708SOL    HW118023   5.012   5.843   1.693
 5708SOL    HW218024   4.950   5.911   1.559
 5709SOL     OW18025   1.045   0.210   2.497
 5709SOL    HW118026   0.973   0.270   2.463
 5709SOL    HW218027   1.091   0.253   2.574
 5710SOL     OW18028   2.890   2.837   0.381
 5710SOL    HW118029   2.882   2.836   0.481
 5710SOL    HW218030   2.833   2.910   0.344
 5711SOL     OW18031   4.801   1.312   2.432
 5711SOL    HW118032   4.886   1.355   2.461
 5711SOL    HW218033   4.725   1.376   2.445
 5712SOL     OW18034   0.171   6.254   6.620
 5712SOL    HW118035   0.262   6.212   6.614
 5712SOL    HW218036   0.108   6.190   6.664
 5713SOL     OW18037   2.823   2.897   1.701
 5713SOL    HW118038   2.800   2.803   1.675
 5713SOL    HW218039   2.914   2.898   1.743
 5714SOL     OW18040   0.131   5.798   0.154
 5714SOL    HW118041   0.108   5.730   0.224
 5714SOL    HW218042   0.103   5.889   0.185
 5715SOL     OW18043   0.709   6.826   3.467
 5715SOL    HW118044   0.623   6.836   3.517
 5715SOL    HW218045   0.693   6.775   3.383
 5716SOL     OW18046   1.485   3.778   0.245
 5716SOL    HW118047   1.439   3.845   0.302
 5716SOL    HW218048   1.483   3.808   0.149
 5717SOL     OW18049   2.120   5.279   0.608
 5717SOL    HW118050   2.059   5.334   0.666
 5717SOL    HW218051   2.077   5.265   0.519
 5718SOL     OW18052   0.147   2.779   5.615
 5718SOL    HW118053   0.242   2.804   5.633
 5718SOL    HW218054   0.140   2.734   5.526
 5719SOL     OW18055   2.695   1.641   6.393
 5719SOL    HW118056   2.609   1.601   6.424
 5719SOL    HW218057   2.755   1.656   6.471
 5720SOL     OW18058   1.728   5.191   4.972
 5720SOL    HW118059   1.825   5.199   4.950
 5720SOL    HW218060   1.705   5.257   5.044
 5721SOL     OW18061   0.212   4.078   1.177
 5721SOL    HW118062   0.255   4.000   1.222
 5721SOL    HW218063   0.122   4.096   1.218
 5722SOL     OW18064   6.132   1.511   5.420
 5722SOL    HW118065   6.114   1.522   5.517
 5722SOL    HW218066   6.053   1.543   5.367
 5723SOL     OW18067   4.625   3.769   0.402
 5723SOL    HW118068   4.709   3.718   0.419
 5723SOL    HW218069   4.567   3.718   0.339
 5724SOL     OW18070   5.346   3.206   5.155
 5724SOL    HW118071   5.389   3.118   5.135
 5724SOL    HW218072   5.248   3.192   5.168
 5725SOL     OW18073   5.210   4.985   3.548
 5725SOL    HW118074   5.166   5.035   3.622
 5725SOL    HW218075   5.236   5.048   3.475
 5726SOL     OW18076   0.431   4.937   5.253
 5726SOL    HW118077   0.507   4.876   5.230
 5726SOL    HW218078   0.365   4.887   5.309
 5727SOL     OW18079   6.709   1.345   4.038
 5727SOL    HW118080   6.647   1.338   4.116
 5727SOL    HW218081   6.673   1.412   3.973
 5728SOL     OW18082   3.874   1.009   6.236
 5728SOL    HW118083   3.932   1.064   6.175
 5728SOL    HW218084   3.919   0.998   6.324
 5729SOL     OW18085   1.200   1.031   0.870
 5729SOL    HW118086   1.140   1.102   0.906
 5729SOL    HW218087   1.207   1.041   0.770
 5730SOL     OW18088   4.940   5.458   6.021
 5730SOL    HW118089   4.981   5.540   5.980
 5730SOL    HW218090   4.845   5.478   6.044
 5731SOL     OW18091   0.437   6.954   3.962
 5731SOL    HW118092   0.470   6.994   3.877
 5731SOL    HW218093   0.406   7.027   4.024
 5732SOL     OW18094   6.343   5.450   4.368
 5732SOL    HW118095   6.397   5.488   4.292
 5732SOL    HW218096   6.315   5.357   4.344
 5733SOL     OW18097   3.813   6.890   5.372
 5733SOL    HW118098   3.731   6.834   5.357
 5733SOL    HW218099   3.882   6.836   5.420
 5734SOL     OW18100   1.053   6.477   5.666
 5734SOL    HW118101   1.089   6.387   5.643
 5734SOL    HW218102   1.111   6.519   5.736
 5735SOL     OW18103   3.949   2.211   2.101
 5735SOL    HW118104   3.853   2.221   2.074
 5735SOL    HW218105   3.966   2.260   2.186
 5736SOL     OW18106   6.033   4.153   0.452
 5736SOL    HW118107   6.132   4.169   0.451
 5736SOL    HW218108   5.987   4.226   0.502
 5737SOL     OW18109   5.146   6.102   0.698
 5737SOL    HW118110   5.191   6.049   0.770
 5737SOL    HW218111   5.058   6.061   0.677
 5738SOL     OW18112   2.924   3.373   6.432
 5738SOL    HW118113   3.021   3.394   6.421
 5738SOL    HW218114   2.891   3.411   6.518
 5739SOL     OW18115   1.342   0.633   5.501
 5739SOL    HW118116   1.321   0.555   5.443
 5739SOL    HW218117   1.349   0.716   5.444
 5740SOL     OW18118   4.202   3.590   1.589
 5740SOL    HW118119   4.177   3.642   1.671
 5740SOL    HW218120   4.209   3.493   1.612
 5741SOL     OW18121   0.192   3.935   4.367
 5741SOL    HW118122   0.163   3.945   4.463
 5741SOL    HW218123   0.111   3.940   4.308
 5742SOL     OW18124   4.867   6.574   2.955
 5742SOL    HW118125   4.831   6.622   3.035
 5742SOL    HW218126   4.792   6.553   2.892
 5743SOL     OW18127   2.644   5.246   5.734
 5743SOL    HW118128   2.634   5.171   5.799
 5743SOL    HW218129   2.684   5.211   5.649
 5744SOL     OW18130   5.176   1.318   1.835
 5744SOL    HW118131   5.243   1.245   1.842
 5744SOL    HW218132   5.091   1.282   1.796
 5745SOL     OW18133   2.252   0.573   4.131
 5745SOL    HW118134   2.259   0.538   4.225
 5745SOL    HW218135   2.197   0.657   4.131
 5746SOL     OW18136   5.438   6.513   1.289
 5746SOL    HW118137   5.520   6.508   1.232
 5746SOL    HW218138   5.368   6.452   1.253
 5747SOL     OW18139   0.274   4.561   3.065
 5747SOL    HW118140   0.344   4.631   3.064
 5747SOL    HW218141   0.191   4.596   3.022
 5748SOL     OW18142   1.568   5.718   0.497
 5748SOL    HW118143   1.513   5.659   0.438
 5748SOL    HW218144   1.511   5.793   0.531
 5749SOL     OW18145   1.897   6.452   4.719
 5749SOL    HW118146   1.927   6.442   4.813
 5749SOL    HW218147   1.869   6.363   4.683
 5750SOL     OW18148   6.744   6.597   4.244
 5750SOL    HW118149   6.827   6.652   4.231
 5750SOL    HW218150   6.672   6.655   4.284
 5751SOL     OW18151   2.926   2.283   4.579
 5751SOL    HW118152   2.917   2.379   4.604
 5751SOL    HW218153   2.878   2.227   4.647
 5752SOL     OW18154   6.618   0.898   0.472
 5752SOL    HW118155   6.605   0.956   0.392
 5752SOL    HW218156   6.614   0.955   0.555
 5753SOL     OW18157   3.876   2.992   4.495
 5753SOL    HW118158   3.789   2.998   4.543
 5753SOL    HW218159   3.917   2.902   4.509
 5754SOL     OW18160   6.831   5.006   1.405
 5754SOL    HW118161   6.801   5.079   1.465
 5754SOL    HW218162   6.851   4.924   1.459
 5755SOL     OW18163   2.093   3.603   6.056
 5755SOL    HW118164   2.072   3.506   6.043
 5755SOL    HW218165   2.192   3.615   6.060
 5756SOL     OW18166   6.423   0.071   3.502
 5756SOL    HW118167   6.522   0.078   3.490
 5756SOL    HW218168   6.396   7.003   3.498
 5757SOL     OW18169   6.551   6.332   3.138
 5757SOL    HW118170   6.588   6.326   3.231
 5757SOL    HW218171   6.569   6.246   3.089
 5758SOL     OW18172   2.514   0.969   4.474
 5758SOL    HW118173   2.483   1.052   4.427
 5758SOL    HW218174   2.463   0.958   4.559
 5759SOL     OW18175   5.114   1.640   6.822
 5759SOL    HW118176   5.121   1.594   6.734
 5759SOL    HW218177   5.192   1.703   6.833
 5760SOL     OW18178   0.155   4.407   0.989
 5760SOL    HW118179   0.182   4.449   0.903
 5760SOL    HW218180   0.217   4.332   1.010
 5761SOL     OW18181   5.670   6.351   6.335
 5761SOL    HW118182   5.669   6.431   6.274
 5761SOL    HW218183   5.664   6.381   6.430
 5762SOL     OW18184   4.824   5.740   0.078
 5762SOL    HW118185   4.823   5.641   0.070
 5762SOL    HW218186   4.919   5.772   0.081
 5763SOL     OW18187   0.245   7.015   0.372
 5763SOL    HW118188   0.182   0.045   0.321
 5763SOL    HW218189   0.245   6.924   0.331
 5764SOL     OW18190   4.938   5.174   5.262
 5764SOL    HW118191   4.847   5.139   5.242
 5764SOL    HW218192   4.949   5.185   5.361
 5765SOL     OW18193   6.196   3.535   6.891
 5765SOL    HW118194   6.202   3.621   6.840
 5765SOL    HW218195   6.263   3.536   6.965
 5766SOL     OW18196   1.949   2.826   6.908
 5766SOL    HW118197   2.012   2.750   6.891
 5766SOL    HW218198   1.998   2.912   6.900
 5767SOL     OW18199   2.104   0.860   0.364
 5767SOL    HW118200   2.148   0.832   0.279
 5767SOL    HW218201   2.007   0.836   0.361
 5768SOL     OW18202   0.783   6.223   3.088
 5768SOL    HW118203   0.852   6.291   3.063
 5768SOL    HW218204   0.693   6.265   3.085
 5769SOL     OW18205   2.227   5.822   4.113
 5769SOL    HW118206   2.138   5.824   4.067
 5769SOL    HW218207   2.215   5.833   4.211
 5770SOL     OW18208   5.862   0.145   0.422
 5770SOL    HW118209   5.943   0.098   0.388
 5770SOL    HW218210   5.796   0.078   0.455
 5771SOL     OW18211   1.918   6.595   3.488
 5771SOL    HW118212   1.903   6.679   3.435
 5771SOL    HW218213   1.958   6.619   3.577
 5772SOL     OW18214   6.235   1.842   1.080
 5772SOL    HW118215   6.317   1.786   1.080
 5772SOL    HW218216   6.239   1.907   1.005
 5773SOL     OW18217   4.539   1.122   3.909
 5773SOL    HW118218   4.562   1.216   3.882
 5773SOL    HW218219   4.458   1.092   3.858
 5774SOL     OW18220   2.871   5.339   3.503
 5774SOL    HW118221   2.787   5.330   3.449
 5774SOL    HW218222   2.847   5.358   3.598
 5775SOL     OW18223   1.621   1.032   2.159
 5775SOL    HW118224   1.678   0.975   2.219
 5775SOL    HW218225   1.660   1.031   2.067
 5776SOL     OW18226   0.036   0.833   5.827
 5776SOL    HW118227   0.015   0.930   5.814
 5776SOL    HW218228   0.004   0.804   5.917
 5777SOL     OW18229   6.321   0.396   5.102
 5777SOL    HW118230   6.347   0.327   5.035
 5777SOL    HW218231   6.334   0.487   5.063
 5778SOL     OW18232   1.591   0.237   1.520
 5778SOL    HW118233   1.493   0.251   1.537
 5778SOL    HW218234   1.610   0.257   1.423
 5779SOL     OW18235   4.296   2.010   0.630
 5779SOL    HW118236   4.377   2.027   0.686
 5779SOL    HW218237   4.306   1.922   0.583
 5780SOL     OW18238   6.389   5.045   3.032
 5780SOL    HW118239   6.402   5.089   2.943
 5780SOL    HW218240   6.470   4.993   3.056
 5781SOL     OW18241   7.003   4.017   4.562
 5781SOL    HW118242   0.006   4.085   4.629
 5781SOL    HW218243   6.927   4.055   4.510
 5782SOL     OW18244   0.892   0.851   0.464
 5782SOL    HW118245   0.795   0.872   0.463
 5782SOL    HW218246   0.911   0.779   0.531
 5783SOL     OW18247   1.659   0.984   1.646
 5783SOL    HW118248   1.666   0.956   1.550
 5783SOL    HW218249   1.592   0.926   1.693
 5784SOL     OW18250   7.009   6.653   0.287
 5784SOL    HW118251   0.047   6.603   0.232
 5784SOL    HW218252   6.920   6.607   0.283
 5785SOL     OW18253   1.472   1.842   0.800
 5785SOL    HW118254   1.490   1.800   0.711
 5785SOL    HW218255   1.411   1.783   0.853
 5786SOL     OW18256   0.637   3.853   0.787
 5786SOL    HW118257   0.561   3.835   0.849
 5786SOL    HW218258   0.690   3.931   0.820
 5787SOL     OW18259   4.118   3.091   5.513
 5787SOL    HW118260   4.109   3.019   5.445
 5787SOL    HW218261   4.068   3.067   5.596
 5788SOL     OW18262   2.845   1.535   1.251
 5788SOL    HW118263   2.859   1.490   1.340
 5788SOL    HW218264   2.907   1.496   1.184
 5789SOL     OW18265   3.377   4.199   6.592
 5789SOL    HW118266   3.443   4.147   6.539
 5789SOL    HW218267   3.290   4.151   6.594
 5790SOL     OW18268   0.348   4.805   4.925
 5790SOL    HW118269   0.286   4.784   5.001
 5790SOL    HW218270   0.408   4.880   4.952
 5791SOL     OW18271   2.945   2.022   2.346
 5791SOL    HW118272   2.929   2.115   2.378
 5791SOL    HW218273   2.944   1.959   2.424
 5792SOL     OW18274   5.509   2.491   2.214
 5792SOL    HW118275   5.489   2.464   2.119
 5792SOL    HW218276   5.501   2.590   2.223
 5793SOL     OW18277   5.900   0.868   4.473
 5793SOL    HW118278   5.920   0.861   4.375
 5793SOL    HW218279   5.862   0.959   4.493
 5794SOL     OW18280   2.779   0.142   5.934
 5794SOL    HW118281   2.738   0.136   6.025
 5794SOL    HW218282   2.869   0.100   5.934
 5795SOL     OW18283   0.043   6.243   1.240
 5795SOL    HW118284   0.082   6.188   1.314
 5795SOL    HW218285   6.974   6.225   1.233
 5796SOL     OW18286   4.837   1.286   6.624
 5796SOL    HW118287   4.866   1.334   6.541
 5796SOL    HW218288   4.856   1.343   6.704
 5797SOL     OW18289   5.068   2.014   0.083
 5797SOL    HW118290   5.035   2.089   0.141
 5797SOL    HW218291   5.079   1.931   0.138
 5798SOL     OW18292   6.844   5.338   4.619
 5798SOL    HW118293   6.798   5.314   4.704
 5798SOL    HW218294   6.920   5.275   4.603
 5799SOL     OW18295   0.110   0.537   4.598
 5799SOL    HW118296   0.202   0.499   4.590
 5799SOL    HW218297   0.062   0.527   4.511
 5800SOL     OW18298   0.658   0.088   2.204
 5800SOL    HW118299   0.560   0.098   2.187
 5800SOL    HW218300   0.708   0.126   2.126
 5801SOL     OW18301   1.678   2.111   3.328
 5801SOL    HW118302   1.708   2.042   3.395
 5801SOL    HW218303   1.628   2.066   3.254
 5802SOL     OW18304   6.426   3.146   2.441
 5802SOL    HW118305   6.342   3.121   2.393
 5802SOL    HW218306   6.489   3.068   2.441
 5803SOL     OW18307   1.772   5.804   2.909
 5803SOL    HW118308   1.754   5.882   2.969
 5803SOL    HW218309   1.793   5.837   2.817
 5804SOL     OW18310   0.202   5.570   3.545
 5804SOL    HW118311   0.168   5.656   3.583
 5804SOL    HW218312   0.139   5.537   3.475
 5805SOL     OW18313   1.603   3.178   0.896
 5805SOL    HW118314   1.547   3.259   0.879
 5805SOL    HW218315   1.567   3.128   0.975
 5806SOL     OW18316   6.541   5.568   4.875
 5806SOL    HW118317   6.569   5.605   4.787
 5806SOL    HW218318   6.453   5.521   4.866
 5807SOL     OW18319   1.105   5.577   0.324
 5807SOL    HW118320   1.067   5.485   0.318
 5807SOL    HW218321   1.100   5.621   0.235
 5808SOL     OW18322   0.004   6.376   3.973
 5808SOL    HW118323   0.007   6.337   4.065
 5808SOL    HW218324   6.954   6.339   3.924
 5809SOL     OW18325   6.663   1.562   5.163
 5809SOL    HW118326   6.569   1.536   5.184
 5809SOL    HW218327   6.714   1.576   5.248
 5810SOL     OW18328   5.081   1.175   5.815
 5810SOL    HW118329   5.016   1.251   5.808
 5810SOL    HW218330   5.092   1.132   5.726
 5811SOL     OW18331   3.487   1.583   5.051
 5811SOL    HW118332   3.505   1.500   4.999
 5811SOL    HW218333   3.571   1.616   5.093
 5812SOL     OW18334   5.263   3.340   5.815
 5812SOL    HW118335   5.346   3.391   5.791
 5812SOL    HW218336   5.282   3.242   5.807
 5813SOL     OW18337   2.592   0.807   0.749
 5813SOL    HW118338   2.682   0.830   0.784
 5813SOL    HW218339   2.576   0.709   0.758
 5814SOL     OW18340   6.766   3.040   2.247
 5814SOL    HW118341   6.766   3.114   2.315
 5814SOL    HW218342   6.696   3.058   2.178
 5815SOL     OW18343   3.894   1.430   4.023
 5815SOL    HW118344   3.920   1.486   3.945
 5815SOL    HW218345   3.967   1.432   4.091
 5816SOL     OW18346   4.898   4.302   0.066
 5816SOL    HW118347   4.986   4.340   0.039
 5816SOL    HW218348   4.833   4.313   7.020
 5817SOL     OW18349   6.294   5.158   5.411
 5817SOL    HW118350   6.227   5.230   5.428
 5817SOL    HW218351   6.356   5.152   5.489
 5818SOL     OW18352   6.596   5.539   5.767
 5818SOL    HW118353   6.669   5.556   5.701
 5818SOL    HW218354   6.507   5.543   5.720
 5819SOL     OW18355   4.089   6.992   6.667
 5819SOL    HW118356   4.178   0.007   6.656
 5819SOL    HW218357   4.096   6.895   6.644
 5820SOL     OW18358   3.967   4.798   2.704
 5820SOL    HW118359   4.060   4.763   2.690
 5820SOL    HW218360   3.953   4.819   2.801
 5821SOL     OW18361   6.753   0.576   1.859
 5821SOL    HW118362   6.755   0.638   1.937
 5821SOL    HW218363   6.832   0.593   1.800
 5822SOL     OW18364   1.790   2.278   1.505
 5822SOL    HW118365   1.810   2.330   1.588
 5822SOL    HW218366   1.853   2.305   1.432
 5823SOL     OW18367   3.097   0.385   4.438
 5823SOL    HW118368   3.099   0.412   4.342
 5823SOL    HW218369   3.005   0.401   4.475
 5824SOL     OW18370   0.202   5.973   2.934
 5824SOL    HW118371   0.207   6.037   2.858
 5824SOL    HW218372   0.214   6.022   3.020
 5825SOL     OW18373   0.310   6.788   4.537
 5825SOL    HW118374   0.358   6.868   4.501
 5825SOL    HW218375   0.225   6.816   4.581
 5826SOL     OW18376   0.017   6.004   6.589
 5826SOL    HW118377   0.007   6.001   6.489
 5826SOL    HW218378   6.970   6.056   6.628
 5827SOL     OW18379   1.910   3.444   4.172
 5827SOL    HW118380   1.979   3.412   4.237
 5827SOL    HW218381   1.872   3.531   4.203
 5828SOL     OW18382   4.977   1.673   2.392
 5828SOL    HW118383   4.882   1.697   2.375
 5828SOL    HW218384   4.989   1.574   2.378
 5829SOL     OW18385   1.601   0.371   4.481
 5829SOL    HW118386   1.508   0.391   4.450
 5829SOL    HW218387   1.597   0.302   4.554
 5830SOL     OW18388   5.741   0.141   6.106
 5830SOL    HW118389   5.718   0.233   6.074
 5830SOL    HW218390   5.721   0.075   6.034
 5831SOL     OW18391   1.218   0.807   5.952
 5831SOL    HW118392   1.281   0.811   6.029
 5831SOL    HW218393   1.147   0.739   5.971
 5832SOL     OW18394   3.265   4.556   6.864
 5832SOL    HW118395   3.320   4.547   6.947
 5832SOL    HW218396   3.271   4.650   6.830
 5833SOL     OW18397   4.079   3.760   5.443
 5833SOL    HW118398   4.089   3.757   5.343
 5833SOL    HW218399   3.990   3.722   5.469
 5834SOL     OW18400   0.147   3.878   6.837
 5834SOL    HW118401   0.119   3.947   6.770
 5834SOL    HW218402   0.068   3.821   6.860
 5835SOL     OW18403   5.706   2.314   3.203
 5835SOL    HW118404   5.662   2.231   3.238
 5835SOL    HW218405   5.653   2.394   3.230
 5836SOL     OW18406   3.138   0.374   1.406
 5836SOL    HW118407   3.207   0.343   1.340
 5836SOL    HW218408   3.047   0.368   1.365
 5837SOL     OW18409   3.369   3.231   0.112
 5837SOL    HW118410   3.350   3.163   0.182
 5837SOL    HW218411   3.329   3.203   0.025
 5838SOL     OW18412   2.895   1.761   0.899
 5838SOL    HW118413   2.919   1.681   0.844
 5838SOL    HW218414   2.963   1.771   0.973
 5839SOL     OW18415   0.588   1.947   1.240
 5839SOL    HW118416   0.664   1.882   1.237
 5839SOL    HW218417   0.502   1.898   1.224
 5840SOL     OW18418   1.228   4.060   6.311
 5840SOL    HW118419   1.141   4.014   6.330
 5840SOL    HW218420   1.235   4.080   6.214
 5841SOL     OW18421   5.060   1.419   2.051
 5841SOL    HW118422   5.063   1.354   1.975
 5841SOL    HW218423   5.152   1.453   2.070
 5842SOL     OW18424   4.734   2.875   1.665
 5842SOL    HW118425   4.689   2.936   1.730
 5842SOL    HW218426   4.743   2.921   1.577
 5843SOL     OW18427   1.507   4.716   1.991
 5843SOL    HW118428   1.576   4.741   2.058
 5843SOL    HW218429   1.535   4.748   1.900
 5844SOL     OW18430   1.687   6.059   5.767
 5844SOL    HW118431   1.590   6.081   5.779
 5844SOL    HW218432   1.704   5.967   5.803
 5845SOL     OW18433   0.522   0.365   1.651
 5845SOL    HW118434   0.522   0.464   1.637
 5845SOL    HW218435   0.430   0.329   1.636
 5846SOL     OW18436   6.258   3.641   6.091
 5846SOL    HW118437   6.235   3.601   6.179
 5846SOL    HW218438   6.256   3.741   6.099
 5847SOL     OW18439   2.662   2.269   2.098
 5847SOL    HW118440   2.758   2.282   2.074
 5847SOL    HW218441   2.650   2.178   2.138
 5848SOL     OW18442   1.678   5.279   3.027
 5848SOL    HW118443   1.731   5.359   2.996
 5848SOL    HW218444   1.740   5.214   3.071
 5849SOL     OW18445   1.695   0.448   5.167
 5849SOL    HW118446   1.703   0.452   5.266
 5849SOL    HW218447   1.604   0.415   5.142
 5850SOL     OW18448   6.518   3.476   2.119
 5850SOL    HW118449   6.514   3.435   2.028
 5850SOL    HW218450   6.609   3.460   2.158
 5851SOL     OW18451   4.983   3.284   3.417
 5851SOL    HW118452   5.007   3.210   3.355
 5851SOL    HW218453   5.064   3.340   3.435
 5852SOL     OW18454   5.648   6.444   2.903
 5852SOL    HW118455   5.601   6.355   2.906
 5852SOL    HW218456   5.639   6.489   2.992
 5853SOL     OW18457   4.195   5.335   5.461
 5853SOL    HW118458   4.129   5.397   5.505
 5853SOL    HW218459   4.269   5.389   5.421
 5854SOL     OW18460   4.325   4.079   5.641
 5854SOL    HW118461   4.398   4.148   5.633
 5854SOL    HW218462   4.365   3.988   5.645
 5855SOL     OW18463   1.641   0.742   4.656
 5855SOL    HW118464   1.728   0.751   4.606
 5855SOL    HW218465   1.650   0.672   4.726
 5856SOL     OW18466   1.733   5.641   3.640
 5856SOL    HW118467   1.706   5.675   3.551
 5856SOL    HW218468   1.660   5.659   3.707
 5857SOL     OW18469   6.065   3.160   5.708
 5857SOL    HW118470   6.134   3.199   5.647
 5857SOL    HW218471   6.010   3.234   5.748
 5858SOL     OW18472   2.546   2.478   2.455
 5858SOL    HW118473   2.540   2.523   2.366
 5858SOL    HW218474   2.460   2.434   2.477
 5859SOL     OW18475   6.455   6.191   1.653
 5859SOL    HW118476   6.493   6.269   1.604
 5859SOL    HW218477   6.529   6.140   1.697
 5860SOL     OW18478   0.288   4.524   3.347
 5860SOL    HW118479   0.259   4.527   3.251
 5860SOL    HW218480   0.213   4.492   3.404
 5861SOL     OW18481   5.809   1.128   4.467
 5861SOL    HW118482   5.774   1.150   4.558
 5861SOL    HW218483   5.733   1.113   4.405
 5862SOL     OW18484   5.907   5.577   0.811
 5862SOL    HW118485   5.827   5.517   0.805
 5862SOL    HW218486   5.962   5.552   0.890
 5863SOL     OW18487   3.088   2.154   5.282
 5863SOL    HW118488   3.076   2.082   5.214
 5863SOL    HW218489   3.099   2.242   5.237
 5864SOL     OW18490   3.895   4.014   2.501
 5864SOL    HW118491   3.958   4.076   2.453
 5864SOL    HW218492   3.824   3.983   2.437
 5865SOL     OW18493   5.981   0.291   5.535
 5865SOL    HW118494   5.931   0.356   5.478
 5865SOL    HW218495   5.967   0.313   5.632
 5866SOL     OW18496   3.751   3.409   1.069
 5866SOL    HW118497   3.845   3.420   1.099
 5866SOL    HW218498   3.694   3.480   1.111
 5867SOL     OW18499   2.126   3.566   0.977
 5867SOL    HW118500   2.041   3.558   1.029
 5867SOL    HW218501   2.165   3.657   0.992
 5868SOL     OW18502   1.528   1.734   5.649
 5868SOL    HW118503   1.553   1.759   5.555
 5868SOL    HW218504   1.582   1.788   5.713
 5869SOL     OW18505   1.745   6.530   3.249
 5869SOL    HW118506   1.714   6.437   3.227
 5869SOL    HW218507   1.799   6.528   3.333
 5870SOL     OW18508   4.981   6.569   4.730
 5870SOL    HW118509   4.989   6.654   4.676
 5870SOL    HW218510   5.002   6.589   4.826
 5871SOL     OW18511   3.560   3.116   1.571
 5871SOL    HW118512   3.487   3.060   1.533
 5871SOL    HW218513   3.525   3.207   1.593
 5872SOL     OW18514   4.759   6.715   1.019
 5872SOL    HW118515   4.668   6.674   1.029
 5872SOL    HW218516   4.821   6.649   0.977
 5873SOL     OW18517   3.527   0.914   2.081
 5873SOL    HW118518   3.517   0.997   2.135
 5873SOL    HW218519   3.442   0.861   2.084
 5874SOL     OW18520   2.302   4.615   5.520
 5874SOL    HW118521   2.332   4.611   5.425
 5874SOL    HW218522   2.381   4.622   5.580
 5875SOL     OW18523   4.397   1.339   6.850
 5875SOL    HW118524   4.433   1.256   6.894
 5875SOL    HW218525   4.353   1.314   6.764
 5876SOL     OW18526   3.804   3.012   1.522
 5876SOL    HW118527   3.793   2.995   1.424
 5876SOL    HW218528   3.719   3.049   1.559
 5877SOL     OW18529   6.757   6.545   1.411
 5877SOL    HW118530   6.697   6.529   1.333
 5877SOL    HW218531   6.703   6.541   1.495
 5878SOL     OW18532   0.278   5.416   4.234
 5878SOL    HW118533   0.206   5.388   4.297
 5878SOL    HW218534   0.307   5.338   4.179
 5879SOL     OW18535   1.225   4.116   6.619
 5879SOL    HW118536   1.217   4.065   6.705
 5879SOL    HW218537   1.267   4.058   6.550
 5880SOL     OW18538   4.269   4.218   6.644
 5880SOL    HW118539   4.250   4.122   6.665
 5880SOL    HW218540   4.366   4.230   6.626
 5881SOL     OW18541   1.041   6.831   2.726
 5881SOL    HW118542   1.038   6.770   2.646
 5881SOL    HW218543   1.010   6.922   2.699
 5882SOL     OW18544   0.272   5.575   1.463
 5882SOL    HW118545   0.302   5.611   1.551
 5882SOL    HW218546   0.172   5.570   1.461
 5883SOL     OW18547   0.948   1.287   6.631
 5883SOL    HW118548   0.866   1.229   6.630
 5883SOL    HW218549   0.992   1.279   6.720
 5884SOL     OW18550   2.903   1.687   4.811
 5884SOL    HW118551   2.940   1.773   4.847
 5884SOL    HW218552   2.896   1.694   4.711
 5885SOL     OW18553   0.587   0.259   3.002
 5885SOL    HW118554   0.680   0.233   3.025
 5885SOL    HW218555   0.586   0.299   2.910
 5886SOL     OW18556   1.113   1.980   4.854
 5886SOL    HW118557   1.065   1.992   4.767
 5886SOL    HW218558   1.092   1.890   4.892
 5887SOL     OW18559   2.485   1.712   2.832
 5887SOL    HW118560   2.479   1.722   2.931
 5887SOL    HW218561   2.396   1.682   2.796
 5888SOL     OW18562   2.794   1.047   1.542
 5888SOL    HW118563   2.830   1.055   1.449
 5888SOL    HW218564   2.789   0.950   1.568
 5889SOL     OW18565   1.370   6.753   0.475
 5889SOL    HW118566   1.438   6.776   0.545
 5889SOL    HW218567   1.404   6.678   0.418
 5890SOL     OW18568   2.385   1.094   3.500
 5890SOL    HW118569   2.443   1.044   3.564
 5890SOL    HW218570   2.357   1.033   3.426
 5891SOL     OW18571   3.584   3.053   6.247
 5891SOL    HW118572   3.635   3.139   6.256
 5891SOL    HW218573   3.611   2.990   6.320
 5892SOL     OW18574   0.826   5.393   1.514
 5892SOL    HW118575   0.746   5.336   1.535
 5892SOL    HW218576   0.875   5.355   1.436
 5893SOL     OW18577   2.192   3.910   4.047
 5893SOL    HW118578   2.221   3.825   4.091
 5893SOL    HW218579   2.163   3.890   3.953
 5894SOL     OW18580   6.814   5.007   4.170
 5894SOL    HW118581   6.770   5.040   4.254
 5894SOL    HW218582   6.911   5.033   4.171
 5895SOL     OW18583   5.601   4.037   3.719
 5895SOL    HW118584   5.585   4.134   3.734
 5895SOL    HW218585   5.514   3.991   3.700
 5896SOL     OW18586   3.853   0.864   0.508
 5896SOL    HW118587   3.789   0.934   0.542
 5896SOL    HW218588   3.829   0.776   0.547
 5897SOL     OW18589   4.078   0.467   1.421
 5897SOL    HW118590   4.168   0.491   1.457
 5897SOL    HW218591   4.089   0.407   1.341
 5898SOL     OW18592   2.223   6.598   3.341
 5898SOL    HW118593   2.210   6.679   3.399
 5898SOL    HW218594   2.254   6.521   3.397
 5899SOL     OW18595   5.636   6.018   6.148
 5899SOL    HW118596   5.639   6.059   6.057
 5899SOL    HW218597   5.565   6.063   6.202
 5900SOL     OW18598   5.958   5.216   3.468
 5900SOL    HW118599   5.980   5.170   3.382
 5900SOL    HW218600   5.888   5.286   3.451
 5901SOL     OW18601   2.252   0.599   0.279
 5901SOL    HW118602   2.162   0.555   0.277
 5901SOL    HW218603   2.259   0.666   0.205
 5902SOL     OW18604   6.612   2.526   5.686
 5902SOL    HW118605   6.567   2.574   5.760
 5902SOL    HW218606   6.544   2.491   5.622
 5903SOL     OW18607   4.892   5.079   6.784
 5903SOL    HW118608   4.907   4.985   6.756
 5903SOL    HW218609   4.826   5.083   6.859
 5904SOL     OW18610   1.121   4.506   1.722
 5904SOL    HW118611   1.169   4.441   1.780
 5904SOL    HW218612   1.188   4.560   1.671
 5905SOL     OW18613   5.849   6.583   3.565
 5905SOL    HW118614   5.818   6.676   3.546
 5905SOL    HW218615   5.821   6.557   3.658
 5906SOL     OW18616   3.608   2.079   3.913
 5906SOL    HW118617   3.524   2.101   3.961
 5906SOL    HW218618   3.587   2.041   3.823
 5907SOL     OW18619   0.869   5.309   0.628
 5907SOL    HW118620   0.833   5.352   0.545
 5907SOL    HW218621   0.846   5.212   0.627
 5908SOL     OW18622   0.141   2.597   6.838
 5908SOL    HW118623   0.131   2.571   6.742
 5908SOL    HW218624   0.170   2.692   6.845
 5909SOL     OW18625   6.445   5.583   0.791
 5909SOL    HW118626   6.410   5.561   0.700
 5909SOL    HW218627   6.389   5.537   0.860
 5910SOL     OW18628   0.010   3.577   4.040
 5910SOL    HW118629   0.093   3.590   4.094
 5910SOL    HW218630   6.960   3.565   4.101
 5911SOL     OW18631   6.653   6.425   6.805
 5911SOL    HW118632   6.595   6.427   6.723
 5911SOL    HW218633   6.656   6.516   6.846
 5912SOL     OW18634   6.306   1.441   5.789
 5912SOL    HW118635   6.294   1.528   5.741
 5912SOL    HW218636   6.220   1.391   5.790
 5913SOL     OW18637   5.107   3.196   6.157
 5913SOL    HW118638   5.063   3.235   6.076
 5913SOL    HW218639   5.206   3.209   6.151
 5914SOL     OW18640   1.359   4.617   5.701
 5914SOL    HW118641   1.357   4.717   5.697
 5914SOL    HW218642   1.394   4.588   5.790
 5915SOL     OW18643   4.750   5.630   0.952
 5915SOL    HW118644   4.838   5.585   0.936
 5915SOL    HW218645   4.676   5.571   0.920
 5916SOL     OW18646   5.465   6.556   4.024
 5916SOL    HW118647   5.553   6.598   4.006
 5916SOL    HW218648   5.426   6.522   3.938
 5917SOL     OW18649   2.916   3.682   4.238
 5917SOL    HW118650   2.870   3.612   4.184
 5917SOL    HW218651   3.012   3.656   4.251
 5918SOL     OW18652   1.409   3.688   5.852
 5918SOL    HW118653   1.377   3.596   5.831
 5918SOL    HW218654   1.503   3.700   5.820
 5919SOL     OW18655   3.582   3.412   3.167
 5919SOL    HW118656   3.565   3.313   3.173
 5919SOL    HW218657   3.678   3.428   3.146
 5920SOL     OW18658   4.755   0.971   6.443
 5920SOL    HW118659   4.844   0.996   6.480
 5920SOL    HW218660   4.758   0.878   6.407
 5921SOL     OW18661   3.598   5.722   6.815
 5921SOL    HW118662   3.623   5.625   6.810
 5921SOL    HW218663   3.534   5.744   6.742
 5922SOL     OW18664   5.382   4.632   2.839
 5922SOL    HW118665   5.288   4.598   2.836
 5922SOL    HW218666   5.442   4.562   2.876
 5923SOL     OW18667   6.388   1.340   1.720
 5923SOL    HW118668   6.302   1.369   1.762
 5923SOL    HW218669   6.415   1.406   1.650
 5924SOL     OW18670   6.094   0.190   2.966
 5924SOL    HW118671   6.119   0.195   2.869
 5924SOL    HW218672   6.102   0.095   2.998
 5925SOL     OW18673   3.973   0.135   2.145
 5925SOL    HW118674   3.890   0.190   2.149
 5925SOL    HW218675   4.029   0.152   2.226
 5926SOL     OW18676   3.855   5.416   1.801
 5926SOL    HW118677   3.794   5.384   1.874
 5926SOL    HW218678   3.922   5.480   1.839
 5927SOL     OW18679   1.383   4.192   2.485
 5927SOL    HW118680   1.325   4.150   2.415
 5927SOL    HW218681   1.430   4.272   2.446
 5928SOL     OW18682   4.215   0.318   1.168
 5928SOL    HW118683   4.133   0.261   1.169
 5928SOL    HW218684   4.296   0.259   1.167
 5929SOL     OW18685   6.854   0.026   6.947
 5929SOL    HW118686   6.806   6.999   6.879
 5929SOL    HW218687   6.789   0.060   7.015
 5930SOL     OW18688   6.535   4.074   2.806
 5930SOL    HW118689   6.491   4.147   2.754
 5930SOL    HW218690   6.563   4.001   2.743
 5931SOL     OW18691   0.637   5.476   2.936
 5931SOL    HW118692   0.599   5.400   2.989
 5931SOL    HW218693   0.641   5.451   2.839
 5932SOL     OW18694   3.189   0.321   0.548
 5932SOL    HW118695   3.266   0.314   0.484
 5932SOL    HW218696   3.208   0.393   0.615
 5933SOL     OW18697   0.019   5.208   3.101
 5933SOL    HW118698   0.074   5.263   3.038
 5933SOL    HW218699   0.039   5.235   3.195
 5934SOL     OW18700   3.569   3.075   4.948
 5934SOL    HW118701   3.520   3.161   4.940
 5934SOL    HW218702   3.503   3.000   4.958
 5935SOL     OW18703   5.605   4.869   6.329
 5935SOL    HW118704   5.693   4.824   6.316
 5935SOL    HW218705   5.601   4.951   6.273
 5936SOL     OW18706   3.420   2.187   1.281
 5936SOL    HW118707   3.492   2.249   1.311
 5936SOL    HW218708   3.334   2.236   1.274
 5937SOL     OW18709   6.305   3.793   2.294
 5937SOL    HW118710   6.390   3.760   2.253
 5937SOL    HW218711   6.251   3.841   2.225
 5938SOL     OW18712   6.707   5.711   3.148
 5938SOL    HW118713   6.783   5.745   3.203
 5938SOL    HW218714   6.622   5.751   3.181
 5939SOL     OW18715   2.621   6.695   3.020
 5939SOL    HW118716   2.691   6.717   3.089
 5939SOL    HW218717   2.532   6.690   3.065
 5940SOL     OW18718   4.395   5.711   1.842
 5940SOL    HW118719   4.379   5.685   1.938
 5940SOL    HW218720   4.360   5.638   1.783
 5941SOL     OW18721   5.849   3.099   2.451
 5941SOL    HW118722   5.822   3.165   2.521
 5941SOL    HW218723   5.807   3.011   2.471
 5942SOL     OW18724   5.494   3.829   0.333
 5942SOL    HW118725   5.470   3.924   0.313
 5942SOL    HW218726   5.424   3.768   0.295
 5943SOL     OW18727   3.185   4.583   5.801
 5943SOL    HW118728   3.242   4.600   5.882
 5943SOL    HW218729   3.214   4.644   5.727
 5944SOL     OW18730   0.047   2.709   1.156
 5944SOL    HW118731   0.124   2.645   1.149
 5944SOL    HW218732   6.990   2.659   1.166
 5945SOL     OW18733   6.659   5.026   5.061
 5945SOL    HW118734   6.640   4.942   5.010
 5945SOL    HW218735   6.573   5.070   5.086
 5946SOL     OW18736   3.759   3.616   6.085
 5946SOL    HW118737   3.675   3.593   6.035
 5946SOL    HW218738   3.826   3.543   6.073
 5947SOL     OW18739   3.121   3.146   2.010
 5947SOL    HW118740   3.220   3.162   2.008
 5947SOL    HW218741   3.080   3.204   2.081
 5948SOL     OW18742   3.853   4.896   2.938
 5948SOL    HW118743   3.757   4.914   2.917
 5948SOL    HW218744   3.881   4.950   3.018
 5949SOL     OW18745   4.997   3.791   1.724
 5949SOL    HW118746   5.034   3.883   1.711
 5949SOL    HW218747   4.918   3.779   1.663
 5950SOL     OW18748   5.100   1.024   5.570
 5950SOL    HW118749   5.058   1.022   5.479
 5950SOL    HW218750   5.088   0.936   5.614
 5951SOL     OW18751   1.120   5.696   3.764
 5951SOL    HW118752   1.173   5.639   3.827
 5951SOL    HW218753   1.031   5.653   3.748
 5952SOL     OW18754   5.708   4.503   3.213
 5952SOL    HW118755   5.621   4.541   3.244
 5952SOL    HW218756   5.772   4.496   3.290
 5953SOL     OW18757   6.255   3.125   5.913
 5953SOL    HW118758   6.198   3.144   5.833
 5953SOL    HW218759   6.299   3.209   5.943
 5954SOL     OW18760   6.401   5.136   5.155
 5954SOL    HW118761   6.370   5.112   5.247
 5954SOL    HW218762   6.322   5.146   5.094
 5955SOL     OW18763   4.689   5.712   2.438
 5955SOL    HW118764   4.770   5.759   2.474
 5955SOL    HW218765   4.661   5.756   2.352
 5956SOL     OW18766   4.830   1.985   4.826
 5956SOL    HW118767   4.814   1.959   4.731
 5956SOL    HW218768   4.925   1.969   4.850
 5957SOL     OW18769   3.853   1.368   5.092
 5957SOL    HW118770   3.922   1.357   5.020
 5957SOL    HW218771   3.842   1.282   5.141
 5958SOL     OW18772   5.476   6.253   2.638
 5958SOL    HW118773   5.528   6.251   2.723
 5958SOL    HW218774   5.520   6.315   2.573
 5959SOL     OW18775   4.537   2.864   5.306
 5959SOL    HW118776   4.507   2.958   5.318
 5959SOL    HW218777   4.459   2.803   5.312
 5960SOL     OW18778   4.154   5.400   5.192
 5960SOL    HW118779   4.121   5.333   5.258
 5960SOL    HW218780   4.078   5.430   5.134
 5961SOL     OW18781   4.852   1.513   2.735
 5961SOL    HW118782   4.834   1.587   2.800
 5961SOL    HW218783   4.766   1.468   2.712
 5962SOL     OW18784   5.767   6.690   0.480
 5962SOL    HW118785   5.730   6.598   0.492
 5962SOL    HW218786   5.867   6.687   0.492
 5963SOL     OW18787   4.147   3.461   6.535
 5963SOL    HW118788   4.210   3.401   6.485
 5963SOL    HW218789   4.102   3.410   6.608
 5964SOL     OW18790   0.411   5.670   5.534
 5964SOL    HW118791   0.430   5.604   5.462
 5964SOL    HW218792   0.383   5.622   5.617
 5965SOL     OW18793   1.976   1.547   6.940
 5965SOL    HW118794   2.008   1.628   6.892
 5965SOL    HW218795   1.931   1.485   6.876
 5966SOL     OW18796   2.022   6.036   5.137
 5966SOL    HW118797   2.070   5.989   5.063
 5966SOL    HW218798   2.085   6.097   5.185
 5967SOL     OW18799   3.826   6.700   6.273
 5967SOL    HW118800   3.872   6.639   6.337
 5967SOL    HW218801   3.894   6.740   6.211
 5968SOL     OW18802   5.247   2.278   0.374
 5968SOL    HW118803   5.243   2.346   0.447
 5968SOL    HW218804   5.156   2.267   0.333
 5969SOL     OW18805   6.426   0.039   6.856
 5969SOL    HW118806   6.430   0.023   6.955
 5969SOL    HW218807   6.493   0.109   6.831
 5970SOL     OW18808   0.175   4.235   2.532
 5970SOL    HW118809   0.104   4.305   2.528
 5970SOL    HW218810   0.139   4.149   2.496
 5971SOL     OW18811   0.337   1.205   2.545
 5971SOL    HW118812   0.372   1.166   2.630
 5971SOL    HW218813   0.245   1.170   2.528
 5972SOL     OW18814   5.738   5.721   6.207
 5972SOL    HW118815   5.696   5.807   6.176
 5972SOL    HW218816   5.676   5.645   6.189
 5973SOL     OW18817   1.499   3.667   2.564
 5973SOL    HW118818   1.419   3.660   2.504
 5973SOL    HW218819   1.492   3.599   2.637
 5974SOL     OW18820   5.829   6.162   6.842
 5974SOL    HW118821   5.841   6.079   6.897
 5974SOL    HW218822   5.816   6.136   6.746
 5975SOL     OW18823   4.497   0.217   0.669
 5975SOL    HW118824   4.448   0.224   0.756
 5975SOL    HW218825   4.590   0.187   0.685
 5976SOL     OW18826   3.728   2.766   6.313
 5976SOL    HW118827   3.820   2.795   6.285
 5976SOL    HW218828   3.682   2.723   6.235
 5977SOL     OW18829   1.503   5.682   6.515
 5977SOL    HW118830   1.453   5.768   6.527
 5977SOL    HW218831   1.581   5.680   6.578
 5978SOL     OW18832   4.329   5.488   1.713
 5978SOL    HW118833   4.381   5.402   1.709
 5978SOL    HW218834   4.327   5.530   1.623
 5979SOL     OW18835   5.184   0.562   3.304
 5979SOL    HW118836   5.128   0.595   3.228
 5979SOL    HW218837   5.264   0.514   3.268
 5980SOL     OW18838   3.327   3.578   1.088
 5980SOL    HW118839   3.257   3.604   1.022
 5980SOL    HW218840   3.401   3.531   1.040
 5981SOL     OW18841   5.447   2.112   1.428
 5981SOL    HW118842   5.388   2.178   1.475
 5981SOL    HW218843   5.483   2.047   1.495
 5982SOL     OW18844   5.839   3.023   1.991
 5982SOL    HW118845   5.791   3.092   2.044
 5982SOL    HW218846   5.836   2.935   2.040
 5983SOL     OW18847   1.659   1.614   3.777
 5983SOL    HW118848   1.568   1.577   3.759
 5983SOL    HW218849   1.679   1.687   3.711
 5984SOL     OW18850   6.577   5.459   3.752
 5984SOL    HW118851   6.579   5.537   3.815
 5984SOL    HW218852   6.546   5.489   3.662
 5985SOL     OW18853   6.698   2.911   4.193
 5985SOL    HW118854   6.668   2.825   4.234
 5985SOL    HW218855   6.630   2.943   4.128
 5986SOL     OW18856   3.653   4.073   4.330
 5986SOL    HW118857   3.742   4.065   4.375
 5986SOL    HW218858   3.582   4.086   4.399
 5987SOL     OW18859   5.716   0.166   3.920
 5987SOL    HW118860   5.782   0.240   3.902
 5987SOL    HW218861   5.728   0.132   4.013
 5988SOL     OW18862   4.799   0.448   6.207
 5988SOL    HW118863   4.885   0.412   6.243
 5988SOL    HW218864   4.803   0.452   6.107
 5989SOL     OW18865   2.238   5.610   6.572
 5989SOL    HW118866   2.230   5.701   6.531
 5989SOL    HW218867   2.264   5.544   6.502
 5990SOL     OW18868   3.824   3.496   0.692
 5990SOL    HW118869   3.917   3.518   0.724
 5990SOL    HW218870   3.799   3.404   0.723
 5991SOL     OW18871   3.665   5.432   6.629
 5991SOL    HW118872   3.702   5.339   6.625
 5991SOL    HW218873   3.657   5.461   6.724
 5992SOL     OW18874   3.730   0.507   2.062
 5992SOL    HW118875   3.796   0.555   2.004
 5992SOL    HW218876   3.638   0.520   2.025
 5993SOL     OW18877   3.889   5.174   6.041
 5993SOL    HW118878   3.915   5.268   6.060
 5993SOL    HW218879   3.963   5.112   6.069
 5994SOL     OW18880   5.832   2.620   2.022
 5994SOL    HW118881   5.826   2.521   2.009
 5994SOL    HW218882   5.777   2.667   1.953
 5995SOL     OW18883   4.953   3.573   2.590
 5995SOL    HW118884   5.038   3.621   2.569
 5995SOL    HW218885   4.885   3.591   2.518
 5996SOL     OW18886   1.219   5.912   1.491
 5996SOL    HW118887   1.180   5.871   1.573
 5996SOL    HW218888   1.179   5.869   1.410
 5997SOL     OW18889   0.326   5.505   2.706
 5997SOL    HW118890   0.262   5.520   2.781
 5997SOL    HW218891   0.310   5.415   2.665
 5998SOL     OW18892   5.916   1.346   3.373
 5998SOL    HW118893   5.827   1.337   3.329
 5998SOL    HW218894   5.903   1.356   3.472
 5999SOL     OW18895   2.331   2.463   1.702
 5999SOL    HW118896   2.293   2.449   1.611
 5999SOL    HW218897   2.413   2.521   1.696
 6000SOL     OW18898   2.708   0.006   0.799
 6000SOL    HW118899   2.706   0.078   0.730
 6000SOL    HW218900   2.783   6.972   0.780
 6001SOL     OW18901   0.435   4.097   6.704
 6001SOL    HW118902   0.523   4.051   6.697
 6001SOL    HW218903   0.376   4.070   6.627
 6002SOL     OW18904   6.064   1.435   0.828
 6002SOL    HW118905   6.133   1.409   0.896
 6002SOL    HW218906   6.028   1.525   0.851
 6003SOL     OW18907   6.180   2.169   4.480
 6003SOL    HW118908   6.213   2.262   4.492
 6003SOL    HW218909   6.098   2.155   4.537
 6004SOL     OW18910   0.044   3.857   2.983
 6004SOL    HW118911   0.101   3.778   3.004
 6004SOL    HW218912   0.080   3.939   3.027
 6005SOL     OW18913   4.712   5.312   3.946
 6005SOL    HW118914   4.727   5.376   4.022
 6005SOL    HW218915   4.685   5.223   3.983
 6006SOL     OW18916   2.417   1.222   5.271
 6006SOL    HW118917   2.516   1.216   5.268
 6006SOL    HW218918   2.378   1.175   5.192
 6007SOL     OW18919   5.439   4.342   5.281
 6007SOL    HW118920   5.466   4.286   5.202
 6007SOL    HW218921   5.515   4.345   5.346
 6008SOL     OW18922   2.463   4.634   5.277
 6008SOL    HW118923   2.554   4.622   5.318
 6008SOL    HW218924   2.445   4.558   5.214
 6009SOL     OW18925   2.172   1.420   3.199
 6009SOL    HW118926   2.203   1.471   3.119
 6009SOL    HW218927   2.082   1.452   3.228
 6010SOL     OW18928   1.117   4.813   4.202
 6010SOL    HW118929   1.047   4.811   4.274
 6010SOL    HW218930   1.195   4.868   4.233
 6011SOL     OW18931   5.095   2.843   3.538
 6011SOL    HW118932   5.038   2.834   3.620
 6011SOL    HW218933   5.038   2.833   3.456
 6012SOL     OW18934   5.846   1.171   0.238
 6012SOL    HW118935   5.816   1.230   0.163
 6012SOL    HW218936   5.790   1.089   0.241
 6013SOL     OW18937   4.842   1.946   2.717
 6013SOL    HW118938   4.839   2.044   2.740
 6013SOL    HW218939   4.764   1.923   2.659
 6014SOL     OW18940   3.974   3.323   2.851
 6014SOL    HW118941   3.962   3.380   2.770
 6014SOL    HW218942   3.973   3.226   2.825
 6015SOL     OW18943   6.381   3.748   4.260
 6015SOL    HW118944   6.286   3.724   4.283
 6015SOL    HW218945   6.425   3.788   4.340
 6016SOL     OW18946   6.684   1.935   5.396
 6016SOL    HW118947   6.601   1.958   5.447
 6016SOL    HW218948   6.660   1.917   5.300
 6017SOL     OW18949   6.550   4.643   3.447
 6017SOL    HW118950   6.483   4.632   3.374
 6017SOL    HW218951   6.541   4.567   3.512
 6018SOL     OW18952   4.550   0.369   6.576
 6018SOL    HW118953   4.592   0.280   6.590
 6018SOL    HW218954   4.466   0.375   6.630
 6019SOL     OW18955   0.170   2.363   4.112
 6019SOL    HW118956   0.176   2.458   4.142
 6019SOL    HW218957   0.261   2.331   4.084
 6020SOL     OW18958   1.095   5.335   0.783
 6020SOL    HW118959   1.080   5.274   0.860
 6020SOL    HW218960   1.012   5.339   0.727
 6021SOL     OW18961   4.490   0.597   2.958
 6021SOL    HW118962   4.396   0.612   2.989
 6021SOL    HW218963   4.525   0.680   2.914
 6022SOL     OW18964   5.337   1.587   4.018
 6022SOL    HW118965   5.287   1.625   4.096
 6022SOL    HW218966   5.361   1.661   3.955
 6023SOL     OW18967   5.781   1.141   1.366
 6023SOL    HW118968   5.824   1.051   1.374
 6023SOL    HW218969   5.734   1.164   1.451
 6024SOL     OW18970   1.592   4.668   2.838
 6024SOL    HW118971   1.618   4.697   2.746
 6024SOL    HW218972   1.614   4.740   2.903
 6025SOL     OW18973   3.500   1.595   3.183
 6025SOL    HW118974   3.441   1.644   3.119
 6025SOL    HW218975   3.562   1.659   3.229
 6026SOL     OW18976   0.044   4.378   5.330
 6026SOL    HW118977   0.048   4.278   5.324
 6026SOL    HW218978   6.978   4.408   5.316
 6027SOL     OW18979   0.357   3.297   5.583
 6027SOL    HW118980   0.280   3.313   5.522
 6027SOL    HW218981   0.356   3.365   5.657
 6028SOL     OW18982   6.536   5.313   0.295
 6028SOL    HW118983   6.629   5.320   0.257
 6028SOL    HW218984   6.541   5.321   0.395
 6029SOL     OW18985   2.607   6.890   5.007
 6029SOL    HW118986   2.596   6.827   4.929
 6029SOL    HW218987   2.590   6.983   4.976
 6030SOL     OW18988   3.992   5.189   2.279
 6030SOL    HW118989   3.905   5.144   2.299
 6030SOL    HW218990   3.989   5.284   2.311
 6031SOL     OW18991   3.036   5.351   3.879
 6031SOL    HW118992   3.124   5.355   3.832
 6031SOL    HW218993   2.964   5.385   3.818
 6032SOL     OW18994   2.088   4.604   2.463
 6032SOL    HW118995   2.014   4.589   2.398
 6032SOL    HW218996   2.094   4.526   2.526
 6033SOL     OW18997   2.642   2.228   2.520
 6033SOL    HW118998   2.565   2.189   2.571
 6033SOL    HW218999   2.622   2.323   2.499
 6034SOL     OW19000   1.683   6.625   5.438
 6034SOL    HW119001   1.591   6.594   5.415
 6034SOL    HW219002   1.725   6.562   5.502
 6035SOL     OW19003   0.119   1.041   2.412
 6035SOL    HW119004   0.090   1.068   2.320
 6035SOL    HW219005   0.048   0.985   2.454
 6036SOL     OW19006   5.146   4.418   3.164
 6036SOL    HW119007   5.176   4.483   3.234
 6036SOL    HW219008   5.064   4.453   3.119
 6037SOL     OW19009   4.594   5.883   0.049
 6037SOL    HW119010   4.672   5.820   0.055
 6037SOL    HW219011   4.510   5.833   0.069
 6038SOL     OW19012   1.765   2.649   5.770
 6038SOL    HW119013   1.744   2.740   5.806
 6038SOL    HW219014   1.681   2.606   5.737
 6039SOL     OW19015   3.099   3.301   2.486
 6039SOL    HW119016   3.105   3.201   2.484
 6039SOL    HW219017   3.124   3.334   2.577
 6040SOL     OW19018   1.198   1.371   0.335
 6040SOL    HW119019   1.103   1.373   0.365
 6040SOL    HW219020   1.258   1.382   0.414
 6041SOL     OW19021   3.022   0.428   4.855
 6041SOL    HW119022   2.971   0.482   4.788
 6041SOL    HW219023   3.030   0.333   4.822
 6042SOL     OW19024   4.561   6.404   2.486
 6042SOL    HW119025   4.633   6.416   2.418
 6042SOL    HW219026   4.541   6.306   2.497
 6043SOL     OW19027   0.839   4.927   5.773
 6043SOL    HW119028   0.846   4.855   5.842
 6043SOL    HW219029   0.885   5.010   5.805
 6044SOL     OW19030   1.293   2.377   1.474
 6044SOL    HW119031   1.371   2.319   1.450
 6044SOL    HW219032   1.326   2.463   1.512
 6045SOL     OW19033   5.886   4.347   2.470
 6045SOL    HW119034   5.914   4.436   2.504
 6045SOL    HW219035   5.795   4.354   2.428
 6046SOL     OW19036   3.843   2.013   0.142
 6046SOL    HW119037   3.840   1.981   0.047
 6046SOL    HW219038   3.805   1.943   0.202
 6047SOL     OW19039   4.891   1.814   1.914
 6047SOL    HW119040   4.834   1.746   1.961
 6047SOL    HW219041   4.874   1.904   1.955
 6048SOL     OW19042   4.657   5.828   5.437
 6048SOL    HW119043   4.720   5.780   5.376
 6048SOL    HW219044   4.579   5.769   5.458
 6049SOL     OW19045   4.839   3.162   0.302
 6049SOL    HW119046   4.809   3.257   0.290
 6049SOL    HW219047   4.771   3.112   0.355
 6050SOL     OW19048   3.998   5.671   5.375
 6050SOL    HW119049   4.092   5.648   5.350
 6050SOL    HW219050   3.991   5.770   5.392
 6051SOL     OW19051   2.247   6.885   3.867
 6051SOL    HW119052   2.333   6.887   3.815
 6051SOL    HW219053   2.194   6.967   3.845
 6052SOL     OW19054   6.594   0.933   0.186
 6052SOL    HW119055   6.557   0.859   0.129
 6052SOL    HW219056   6.546   1.018   0.167
 6053SOL     OW19057   3.905   1.891   6.938
 6053SOL    HW119058   3.909   1.794   6.963
 6053SOL    HW219059   3.848   1.902   6.856
 6054SOL     OW19060   2.439   3.126   0.327
 6054SOL    HW119061   2.494   3.050   0.292
 6054SOL    HW219062   2.391   3.097   0.410
 6055SOL     OW19063   4.860   0.138   4.906
 6055SOL    HW119064   4.863   0.234   4.932
 6055SOL    HW219065   4.907   0.126   4.819
 6056SOL     OW19066   4.926   3.310   4.339
 6056SOL    HW119067   5.002   3.364   4.304
 6056SOL    HW219068   4.911   3.231   4.280
 6057SOL     OW19069   5.948   2.198   3.302
 6057SOL    HW119070   5.875   2.234   3.244
 6057SOL    HW219071   6.031   2.253   3.289
 6058SOL     OW19072   4.510   3.665   1.527
 6058SOL    HW119073   4.518   3.565   1.535
 6058SOL    HW219074   4.602   3.705   1.525
 6059SOL     OW19075   4.935   4.855   5.311
 6059SOL    HW119076   4.973   4.920   5.246
 6059SOL    HW219077   4.938   4.894   5.403
 6060SOL     OW19078   3.081   3.645   6.794
 6060SOL    HW119079   3.069   3.655   6.696
 6060SOL    HW219080   3.177   3.623   6.813
 6061SOL     OW19081   3.643   2.800   1.016
 6061SOL    HW119082   3.583   2.762   1.085
 6061SOL    HW219083   3.664   2.730   0.947
 6062SOL     OW19084   2.549   0.714   5.053
 6062SOL    HW119085   2.576   0.651   4.981
 6062SOL    HW219086   2.621   0.783   5.066
 6063SOL     OW19087   4.177   3.079   5.939
 6063SOL    HW119088   4.258   3.137   5.927
 6063SOL    HW219089   4.151   3.080   6.036
 6064SOL     OW19090   1.828   5.989   1.062
 6064SOL    HW119091   1.763   5.961   1.133
 6064SOL    HW219092   1.848   5.912   1.002
 6065SOL     OW19093   0.142   6.861   2.514
 6065SOL    HW119094   0.058   6.825   2.474
 6065SOL    HW219095   0.153   6.957   2.488
 6066SOL     OW19096   4.891   1.399   5.840
 6066SOL    HW119097   4.960   1.467   5.815
 6066SOL    HW219098   4.831   1.437   5.911
 6067SOL     OW19099   5.761   0.826   5.411
 6067SOL    HW119100   5.819   0.840   5.492
 6067SOL    HW219101   5.675   0.784   5.439
 6068SOL     OW19102   5.337   3.387   4.385
 6068SOL    HW119103   5.295   3.334   4.459
 6068SOL    HW219104   5.271   3.455   4.351
 6069SOL     OW19105   6.138   3.689   5.402
 6069SOL    HW119106   6.108   3.641   5.485
 6069SOL    HW219107   6.092   3.651   5.322
 6070SOL     OW19108   2.920   2.085   0.842
 6070SOL    HW119109   2.822   2.062   0.837
 6070SOL    HW219110   2.954   2.068   0.934
 6071SOL     OW19111   5.358   5.499   3.932
 6071SOL    HW119112   5.399   5.415   3.896
 6071SOL    HW219113   5.405   5.525   4.017
 6072SOL     OW19114   6.931   0.389   1.246
 6072SOL    HW119115   6.880   0.474   1.245
 6072SOL    HW219116   6.872   0.315   1.279
 6073SOL     OW19117   5.860   3.069   6.985
 6073SOL    HW119118   5.840   3.078   0.054
 6073SOL    HW219119   5.937   3.007   6.972
 6074SOL     OW19120   0.942   6.341   3.317
 6074SOL    HW119121   1.011   6.269   3.315
 6074SOL    HW219122   0.856   6.305   3.353
 6075SOL     OW19123   6.309   0.970   6.036
 6075SOL    HW119124   6.296   0.870   6.034
 6075SOL    HW219125   6.236   1.013   5.983
 6076SOL     OW19126   3.344   5.589   4.263
 6076SOL    HW119127   3.405   5.533   4.318
 6076SOL    HW219128   3.382   5.682   4.254
 6077SOL     OW19129   6.160   5.822   0.879
 6077SOL    HW119130   6.170   5.754   0.952
 6077SOL    HW219131   6.162   5.914   0.918
 6078SOL     OW19132   4.838   4.964   0.111
 6078SOL    HW119133   4.815   4.868   0.125
 6078SOL    HW219134   4.935   4.973   0.089
 6079SOL     OW19135   4.231   4.046   5.971
 6079SOL    HW119136   4.168   4.005   5.905
 6079SOL    HW219137   4.182   4.064   6.056
 6080SOL     OW19138   0.330   6.886   1.576
 6080SOL    HW119139   0.396   6.893   1.651
 6080SOL    HW219140   0.350   6.806   1.520
 6081SOL     OW19141   6.899   3.032   5.268
 6081SOL    HW119142   6.966   2.974   5.315
 6081SOL    HW219143   6.877   3.110   5.327
 6082SOL     OW19144   2.093   1.322   4.066
 6082SOL    HW119145   2.039   1.256   4.014
 6082SOL    HW219146   2.077   1.309   4.164
 6083SOL     OW19147   6.318   5.662   6.686
 6083SOL    HW119148   6.304   5.712   6.772
 6083SOL    HW219149   6.335   5.565   6.707
 6084SOL     OW19150   0.765   6.962   3.961
 6084SOL    HW119151   0.695   7.013   3.911
 6084SOL    HW219152   0.733   6.945   4.054
 6085SOL     OW19153   0.271   5.420   0.257
 6085SOL    HW119154   0.310   5.444   0.168
 6085SOL    HW219155   0.345   5.390   0.318
 6086SOL     OW19156   4.002   0.650   5.951
 6086SOL    HW119157   4.039   0.576   5.895
 6086SOL    HW219158   4.072   0.682   6.015
 6087SOL     OW19159   3.612   5.351   1.039
 6087SOL    HW119160   3.643   5.327   1.132
 6087SOL    HW219161   3.592   5.267   0.988
 6088SOL     OW19162   5.239   5.764   3.925
 6088SOL    HW119163   5.267   5.669   3.911
 6088SOL    HW219164   5.320   5.822   3.926
 6089SOL     OW19165   5.089   3.211   1.752
 6089SOL    HW119166   5.150   3.136   1.729
 6089SOL    HW219167   5.057   3.256   1.668
 6090SOL     OW19168   1.886   5.717   5.184
 6090SOL    HW119169   1.871   5.674   5.274
 6090SOL    HW219170   1.983   5.738   5.173
 6091SOL     OW19171   2.109   1.181   0.018
 6091SOL    HW119172   2.070   1.117   0.084
 6091SOL    HW219173   2.150   1.129   6.971
 6092SOL     OW19174   4.356   6.882   2.926
 6092SOL    HW119175   4.269   6.860   2.881
 6092SOL    HW219176   4.396   6.799   2.964
 6093SOL     OW19177   1.911   3.511   1.940
 6093SOL    HW119178   1.898   3.566   2.022
 6093SOL    HW219179   2.007   3.516   1.911
 6094SOL     OW19180   2.548   6.906   1.666
 6094SOL    HW119181   2.584   6.987   1.712
 6094SOL    HW219182   2.457   6.885   1.701
 6095SOL     OW19183   5.070   3.862   0.338
 6095SOL    HW119184   5.158   3.844   0.294
 6095SOL    HW219185   5.085   3.889   0.433
 6096SOL     OW19186   6.181   6.513   4.026
 6096SOL    HW119187   6.094   6.562   4.029
 6096SOL    HW219188   6.170   6.429   3.974
 6097SOL     OW19189   2.298   6.332   2.221
 6097SOL    HW119190   2.275   6.353   2.316
 6097SOL    HW219191   2.395   6.349   2.205
 6098SOL     OW19192   2.016   2.015   5.365
 6098SOL    HW119193   2.080   2.064   5.424
 6098SOL    HW219194   1.932   2.069   5.355
 6099SOL     OW19195   5.964   6.494   0.015
 6099SOL    HW119196   6.029   6.569   0.003
 6099SOL    HW219197   5.871   6.527   7.023
 6100SOL     OW19198   5.189   5.741   0.604
 6100SOL    HW119199   5.272   5.792   0.628
 6100SOL    HW219200   5.144   5.786   0.527
 6101SOL     OW19201   6.486   2.904   3.870
 6101SOL    HW119202   6.551   2.978   3.885
 6101SOL    HW219203   6.453   2.869   3.957
 6102SOL     OW19204   3.488   6.617   3.143
 6102SOL    HW119205   3.508   6.520   3.151
 6102SOL    HW219206   3.530   6.666   3.220
 6103SOL     OW19207   6.331   1.749   2.273
 6103SOL    HW119208   6.273   1.691   2.330
 6103SOL    HW219209   6.346   1.706   2.184
 6104SOL     OW19210   6.411   0.771   5.427
 6104SOL    HW119211   6.407   0.772   5.527
 6104SOL    HW219212   6.497   0.729   5.398
 6105SOL     OW19213   3.231   6.524   6.420
 6105SOL    HW119214   3.262   6.570   6.336
 6105SOL    HW219215   3.304   6.465   6.454
 6106SOL     OW19216   1.590   4.164   6.574
 6106SOL    HW119217   1.564   4.083   6.627
 6106SOL    HW219218   1.569   4.148   6.477
 6107SOL     OW19219   3.568   5.408   4.377
 6107SOL    HW119220   3.564   5.327   4.319
 6107SOL    HW219221   3.662   5.422   4.408
 6108SOL     OW19222   1.874   3.145   1.923
 6108SOL    HW119223   1.867   3.048   1.944
 6108SOL    HW219224   1.840   3.162   1.830
 6109SOL     OW19225   5.491   2.327   5.009
 6109SOL    HW119226   5.430   2.311   5.087
 6109SOL    HW219227   5.446   2.387   4.943
 6110SOL     OW19228   3.941   4.190   0.733
 6110SOL    HW119229   3.925   4.097   0.702
 6110SOL    HW219230   4.031   4.196   0.776
 6111SOL     OW19231   1.893   4.043   2.317
 6111SOL    HW119232   1.872   3.954   2.359
 6111SOL    HW219233   1.874   4.116   2.382
 6112SOL     OW19234   4.180   0.174   2.621
 6112SOL    HW119235   4.211   0.242   2.687
 6112SOL    HW219236   4.259   0.128   2.581
 6113SOL     OW19237   2.483   0.901   6.590
 6113SOL    HW119238   2.466   0.805   6.612
 6113SOL    HW219239   2.411   0.957   6.631
 6114SOL     OW19240   5.007   5.496   1.129
 6114SOL    HW119241   4.988   5.593   1.147
 6114SOL    HW219242   5.024   5.449   1.215
 6115SOL     OW19243   5.323   6.788   4.158
 6115SOL    HW119244   5.245   6.827   4.109
 6115SOL    HW219245   5.341   6.696   4.123
 6116SOL     OW19246   3.621   1.020   5.965
 6116SOL    HW119247   3.671   1.008   6.050
 6116SOL    HW219248   3.530   0.979   5.973
 6117SOL     OW19249   1.576   1.163   3.918
 6117SOL    HW119250   1.549   1.102   3.992
 6117SOL    HW219251   1.509   1.236   3.909
 6118SOL     OW19252   6.909   0.895   2.437
 6118SOL    HW119253   6.860   0.870   2.354
 6118SOL    HW219254   6.890   0.829   2.509
 6119SOL     OW19255   0.982   3.952   6.336
 6119SOL    HW119256   0.963   3.896   6.417
 6119SOL    HW219257   0.903   4.010   6.316
 6120SOL     OW19258   3.679   6.656   5.231
 6120SOL    HW119259   3.632   6.575   5.194
 6120SOL    HW219260   3.620   6.736   5.220
 6121SOL     OW19261   0.527   3.518   5.403
 6121SOL    HW119262   0.604   3.455   5.410
 6121SOL    HW219263   0.523   3.556   5.311
 6122SOL     OW19264   4.057   5.143   0.779
 6122SOL    HW119265   4.078   5.059   0.828
 6122SOL    HW219266   4.141   5.195   0.763
 6123SOL     OW19267   5.410   6.826   0.022
 6123SOL    HW119268   5.472   6.758   0.062
 6123SOL    HW219269   5.443   6.853   6.961
 6124SOL     OW19270   2.466   6.903   6.310
 6124SOL    HW119271   2.523   6.823   6.327
 6124SOL    HW219272   2.386   6.900   6.369
 6125SOL     OW19273   1.774   5.168   0.450
 6125SOL    HW119274   1.791   5.156   0.548
 6125SOL    HW219275   1.698   5.233   0.437
 6126SOL     OW19276   1.208   6.873   4.658
 6126SOL    HW119277   1.267   6.842   4.733
 6126SOL    HW219278   1.132   6.926   4.696
 6127SOL     OW19279   3.487   0.112   0.636
 6127SOL    HW119280   3.526   0.170   0.564
 6127SOL    HW219281   3.506   0.152   0.726
 6128SOL     OW19282   5.878   4.016   0.802
 6128SOL    HW119283   5.973   4.046   0.789
 6128SOL    HW219284   5.850   3.961   0.723
 6129SOL     OW19285   6.941   3.286   3.246
 6129SOL    HW119286   6.890   3.205   3.274
 6129SOL    HW219287   6.877   3.362   3.231
 6130SOL     OW19288   6.378   2.496   3.612
 6130SOL    HW119289   6.305   2.530   3.670
 6130SOL    HW219290   6.457   2.472   3.669
 6131SOL     OW19291   0.447   1.388   5.225
 6131SOL    HW119292   0.533   1.343   5.200
 6131SOL    HW219293   0.378   1.318   5.247
 6132SOL     OW19294   4.913   2.605   6.892
 6132SOL    HW119295   5.012   2.607   6.902
 6132SOL    HW219296   4.890   2.561   6.805
 6133SOL     OW19297   1.601   3.026   1.812
 6133SOL    HW119298   1.577   3.028   1.715
 6133SOL    HW219299   1.581   2.936   1.850
 6134SOL     OW19300   3.747   4.531   6.475
 6134SOL    HW119301   3.679   4.502   6.542
 6134SOL    HW219302   3.792   4.451   6.436
 6135SOL     OW19303   0.615   0.835   1.907
 6135SOL    HW119304   0.653   0.839   2.000
 6135SOL    HW219305   0.622   0.741   1.873
 6136SOL     OW19306   1.000   2.616   2.088
 6136SOL    HW119307   0.922   2.649   2.035
 6136SOL    HW219308   1.078   2.601   2.028
 6137SOL     OW19309   6.377   2.956   2.716
 6137SOL    HW119310   6.299   2.893   2.712
 6137SOL    HW219311   6.444   2.930   2.648
 6138SOL     OW19312   3.535   6.350   3.105
 6138SOL    HW119313   3.581   6.292   3.038
 6138SOL    HW219314   3.574   6.335   3.196
 6139SOL     OW19315   1.153   6.956   5.895
 6139SOL    HW119316   1.206   6.877   5.926
 6139SOL    HW219317   1.071   6.923   5.847
 6140SOL     OW19318   0.485   6.112   1.453
 6140SOL    HW119319   0.458   6.055   1.531
 6140SOL    HW219320   0.426   6.192   1.450
 6141SOL     OW19321   6.788   6.689   6.594
 6141SOL    HW119322   6.774   6.603   6.643
 6141SOL    HW219323   6.881   6.691   6.557
 6142SOL     OW19324   1.309   6.451   0.044
 6142SOL    HW119325   1.277   6.390   7.000
 6142SOL    HW219326   1.355   6.530   0.003
 6143SOL     OW19327   6.726   3.791   1.267
 6143SOL    HW119328   6.629   3.769   1.276
 6143SOL    HW219329   6.773   3.766   1.352
 6144SOL     OW19330   5.620   4.827   3.061
 6144SOL    HW119331   5.568   4.742   3.068
 6144SOL    HW219332   5.716   4.806   3.042
 6145SOL     OW19333   4.842   4.933   3.034
 6145SOL    HW119334   4.829   4.969   3.126
 6145SOL    HW219335   4.776   4.861   3.016
 6146SOL     OW19336   3.331   5.629   3.533
 6146SOL    HW119337   3.386   5.621   3.617
 6146SOL    HW219338   3.301   5.538   3.504
 6147SOL     OW19339   2.303   2.137   4.624
 6147SOL    HW119340   2.229   2.076   4.597
 6147SOL    HW219341   2.367   2.088   4.683
 6148SOL     OW19342   5.528   6.450   4.274
 6148SOL    HW119343   5.481   6.493   4.351
 6148SOL    HW219344   5.500   6.494   4.189
 6149SOL     OW19345   2.580   5.819   0.948
 6149SOL    HW119346   2.670   5.783   0.971
 6149SOL    HW219347   2.538   5.761   0.879
 6150SOL     OW19348   4.455   5.785   6.852
 6150SOL    HW119349   4.517   5.763   6.777
 6150SOL    HW219350   4.504   5.839   6.921
 6151SOL     OW19351   5.829   4.259   6.241
 6151SOL    HW119352   5.852   4.319   6.165
 6151SOL    HW219353   5.830   4.164   6.210
 6152SOL     OW19354   6.288   5.182   4.389
 6152SOL    HW119355   6.191   5.182   4.363
 6152SOL    HW219356   6.338   5.119   4.331
 6153SOL     OW19357   5.073   4.764   1.331
 6153SOL    HW119358   5.146   4.812   1.282
 6153SOL    HW219359   5.060   4.808   1.421
 6154SOL     OW19360   5.960   1.897   2.542
 6154SOL    HW119361   5.907   1.923   2.461
 6154SOL    HW219362   5.951   1.799   2.559
 6155SOL     OW19363   1.630   1.744   4.040
 6155SOL    HW119364   1.560   1.747   4.112
 6155SOL    HW219365   1.616   1.662   3.983
 6156SOL     OW19366   4.022   4.520   1.157
 6156SOL    HW119367   4.002   4.428   1.190
 6156SOL    HW219368   3.937   4.564   1.127
 6157SOL     OW19369   0.281   0.599   5.039
 6157SOL    HW119370   0.344   0.525   5.063
 6157SOL    HW219371   0.196   0.587   5.090
 6158SOL     OW19372   3.671   1.865   5.766
 6158SOL    HW119373   3.699   1.777   5.728
 6158SOL    HW219374   3.660   1.931   5.692
 6159SOL     OW19375   5.084   2.631   2.268
 6159SOL    HW119376   5.097   2.641   2.169
 6159SOL    HW219377   5.123   2.710   2.315
 6160SOL     OW19378   4.991   1.436   6.144
 6160SOL    HW119379   4.980   1.535   6.133
 6160SOL    HW219380   5.068   1.405   6.088
 6161SOL     OW19381   4.493   1.618   5.283
 6161SOL    HW119382   4.418   1.558   5.311
 6161SOL    HW219383   4.481   1.645   5.188
 6162SOL     OW19384   0.840   6.132   3.471
 6162SOL    HW119385   0.830   6.085   3.558
 6162SOL    HW219386   0.858   6.066   3.398
 6163SOL     OW19387   6.008   6.984   1.058
 6163SOL    HW119388   6.010   0.053   1.040
 6163SOL    HW219389   5.933   6.942   1.008
 6164SOL     OW19390   3.939   3.393   2.104
 6164SOL    HW119391   3.871   3.326   2.134
 6164SOL    HW219392   4.014   3.397   2.170
 6165SOL     OW19393   4.763   1.242   0.007
 6165SOL    HW119394   4.741   1.248   6.938
 6165SOL    HW219395   4.709   1.169   0.049
 6166SOL     OW19396   5.251   1.231   6.246
 6166SOL    HW119397   5.293   1.277   6.168
 6166SOL    HW219398   5.296   1.261   6.330
 6167SOL     OW19399   1.311   5.218   3.707
 6167SOL    HW119400   1.370   5.160   3.649
 6167SOL    HW219401   1.264   5.285   3.649
 6168SOL     OW19402   0.963   4.730   1.734
 6168SOL    HW119403   1.031   4.658   1.747
 6168SOL    HW219404   0.885   4.694   1.684
 6169SOL     OW19405   1.103   2.040   1.115
 6169SOL    HW119406   1.153   1.954   1.118
 6169SOL    HW219407   1.127   2.096   1.194
 6170SOL     OW19408   0.700   4.104   5.894
 6170SOL    HW119409   0.654   4.035   5.949
 6170SOL    HW219410   0.649   4.118   5.809
 6171SOL     OW19411   0.860   2.868   0.915
 6171SOL    HW119412   0.871   2.831   1.008
 6171SOL    HW219413   0.830   2.795   0.854
 6172SOL     OW19414   1.895   2.859   2.655
 6172SOL    HW119415   1.947   2.814   2.728
 6172SOL    HW219416   1.803   2.819   2.651
 6173SOL     OW19417   6.650   5.618   1.350
 6173SOL    HW119418   6.601   5.649   1.431
 6173SOL    HW219419   6.649   5.518   1.346
 6174SOL     OW19420   5.432   5.309   2.986
 6174SOL    HW119421   5.511   5.314   2.925
 6174SOL    HW219422   5.436   5.225   3.040
 6175SOL     OW19423   4.332   0.493   3.505
 6175SOL    HW119424   4.350   0.583   3.464
 6175SOL    HW219425   4.378   0.422   3.450
 6176SOL     OW19426   4.915   4.131   6.331
 6176SOL    HW119427   4.911   4.143   6.232
 6176SOL    HW219428   4.844   4.066   6.360
 6177SOL     OW19429   5.802   1.321   0.826
 6177SOL    HW119430   5.789   1.291   0.921
 6177SOL    HW219431   5.896   1.354   0.814
 6178SOL     OW19432   4.807   4.711   2.166
 6178SOL    HW119433   4.800   4.776   2.242
 6178SOL    HW219434   4.883   4.738   2.106
 6179SOL     OW19435   6.261   4.701   2.785
 6179SOL    HW119436   6.217   4.764   2.849
 6179SOL    HW219437   6.324   4.751   2.726
 6180SOL     OW19438   3.530   4.131   0.416
 6180SOL    HW119439   3.559   4.045   0.374
 6180SOL    HW219440   3.430   4.134   0.421
 6181SOL     OW19441   4.279   6.669   0.990
 6181SOL    HW119442   4.268   6.600   0.920
 6181SOL    HW219443   4.294   6.758   0.947
 6182SOL     OW19444   5.426   3.813   5.483
 6182SOL    HW119445   5.425   3.902   5.439
 6182SOL    HW219446   5.418   3.824   5.582
 6183SOL     OW19447   0.959   2.271   3.136
 6183SOL    HW119448   0.950   2.363   3.174
 6183SOL    HW219449   1.008   2.213   3.201
 6184SOL     OW19450   2.452   0.090   6.549
 6184SOL    HW119451   2.369   0.076   6.496
 6184SOL    HW219452   2.431   0.145   6.630
 6185SOL     OW19453   0.646   3.606   5.916
 6185SOL    HW119454   0.699   3.684   5.883
 6185SOL    HW219455   0.632   3.540   5.842
 6186SOL     OW19456   0.403   0.203   0.390
 6186SOL    HW119457   0.373   0.110   0.409
 6186SOL    HW219458   0.483   0.201   0.330
 6187SOL     OW19459   5.165   4.240   3.831
 6187SOL    HW119460   5.078   4.258   3.786
 6187SOL    HW219461   5.191   4.320   3.885
 6188SOL     OW19462   2.197   1.023   6.843
 6188SOL    HW119463   2.255   1.097   6.810
 6188SOL    HW219464   2.188   0.953   6.771
 6189SOL     OW19465   4.478   4.477   2.770
 6189SOL    HW119466   4.505   4.465   2.674
 6189SOL    HW219467   4.559   4.470   2.828
 6190SOL     OW19468   0.983   4.154   5.114
 6190SOL    HW119469   1.045   4.103   5.173
 6190SOL    HW219470   0.983   4.250   5.140
 6191SOL     OW19471   2.972   1.774   0.079
 6191SOL    HW119472   3.034   1.801   0.153
 6191SOL    HW219473   2.947   1.678   0.090
 6192SOL     OW19474   3.243   2.532   5.649
 6192SOL    HW119475   3.149   2.513   5.620
 6192SOL    HW219476   3.299   2.550   5.568
 6193SOL     OW19477   4.730   0.251   1.932
 6193SOL    HW119478   4.683   0.302   2.005
 6193SOL    HW219479   4.700   0.286   1.843
 6194SOL     OW19480   1.610   0.287   1.242
 6194SOL    HW119481   1.570   0.376   1.221
 6194SOL    HW219482   1.537   0.218   1.244
 6195SOL     OW19483   4.213   6.077   5.558
 6195SOL    HW119484   4.299   6.124   5.538
 6195SOL    HW219485   4.195   6.082   5.656
 6196SOL     OW19486   5.573   3.188   1.712
 6196SOL    HW119487   5.554   3.132   1.793
 6196SOL    HW219488   5.541   3.141   1.630
 6197SOL     OW19489   3.415   4.753   0.816
 6197SOL    HW119490   3.385   4.660   0.841
 6197SOL    HW219491   3.419   4.761   0.717
 6198SOL     OW19492   4.143   6.758   1.270
 6198SOL    HW119493   4.157   6.659   1.280
 6198SOL    HW219494   4.187   6.789   1.186
 6199SOL     OW19495   0.670   1.272   0.494
 6199SOL    HW119496   0.755   1.223   0.513
 6199SOL    HW219497   0.672   1.307   0.401
 6200SOL     OW19498   1.047   1.168   5.579
 6200SOL    HW119499   1.108   1.225   5.524
 6200SOL    HW219500   1.101   1.099   5.628
 6201SOL     OW19501   0.207   4.050   5.153
 6201SOL    HW119502   0.135   3.992   5.192
 6201SOL    HW219503   0.166   4.134   5.119
 6202SOL     OW19504   4.252   1.311   2.198
 6202SOL    HW119505   4.157   1.341   2.203
 6202SOL    HW219506   4.257   1.227   2.143
 6203SOL     OW19507   6.787   5.597   2.368
 6203SOL    HW119508   6.861   5.541   2.406
 6203SOL    HW219509   6.769   5.674   2.428
 6204SOL     OW19510   0.056   5.080   4.175
 6204SOL    HW119511   0.155   5.084   4.185
 6204SOL    HW219512   0.031   5.096   4.079
 6205SOL     OW19513   6.223   5.475   0.020
 6205SOL    HW119514   6.231   5.377   0.036
 6205SOL    HW219515   6.158   5.492   6.975
 6206SOL     OW19516   5.302   1.860   3.291
 6206SOL    HW119517   5.352   1.818   3.216
 6206SOL    HW219518   5.222   1.908   3.256
 6207SOL     OW19519   0.757   5.196   5.062
 6207SOL    HW119520   0.785   5.292   5.056
 6207SOL    HW219521   0.784   5.159   5.150
 6208SOL     OW19522   5.142   2.437   5.494
 6208SOL    HW119523   5.158   2.499   5.417
 6208SOL    HW219524   5.204   2.460   5.569
 6209SOL     OW19525   4.070   5.998   6.988
 6209SOL    HW119526   4.095   5.970   0.052
 6209SOL    HW219527   4.138   5.963   6.924
 6210SOL     OW19528   5.539   3.829   4.062
 6210SOL    HW119529   5.557   3.746   4.114
 6210SOL    HW219530   5.496   3.897   4.121
 6211SOL     OW19531   2.868   6.518   5.761
 6211SOL    HW119532   2.875   6.436   5.703
 6211SOL    HW219533   2.959   6.558   5.772
 6212SOL     OW19534   2.559   5.029   4.553
 6212SOL    HW119535   2.566   4.984   4.464
 6212SOL    HW219536   2.557   4.960   4.625
 6213SOL     OW19537   6.733   0.675   0.565
 6213SOL    HW119538   6.673   0.737   0.514
 6213SOL    HW219539   6.815   0.655   0.510
 6214SOL     OW19540   4.393   5.312   3.976
 6214SOL    HW119541   4.415   5.372   4.053
 6214SOL    HW219542   4.446   5.340   3.896
 6215SOL     OW19543   4.475   2.044   6.930
 6215SOL    HW119544   4.399   2.008   6.985
 6215SOL    HW219545   4.449   2.134   6.894
 6216SOL     OW19546   6.579   1.322   2.309
 6216SOL    HW119547   6.491   1.293   2.272
 6216SOL    HW219548   6.568   1.408   2.358
 6217SOL     OW19549   0.636   3.685   2.451
 6217SOL    HW119550   0.577   3.612   2.417
 6217SOL    HW219551   0.579   3.761   2.484
 6218SOL     OW19552   3.872   6.145   6.875
 6218SOL    HW119553   3.802   6.076   6.856
 6218SOL    HW219554   3.932   6.112   6.948
 6219SOL     OW19555   1.672   1.888   4.626
 6219SOL    HW119556   1.676   1.977   4.579
 6219SOL    HW219557   1.703   1.899   4.721
 6220SOL     OW19558   2.670   1.475   4.728
 6220SOL    HW119559   2.639   1.546   4.666
 6220SOL    HW219560   2.684   1.390   4.677
 6221SOL     OW19561   5.701   6.141   0.483
 6221SOL    HW119562   5.788   6.188   0.471
 6221SOL    HW219563   5.711   6.044   0.458
 6222SOL     OW19564   1.220   6.442   1.640
 6222SOL    HW119565   1.210   6.346   1.612
 6222SOL    HW219566   1.265   6.446   1.729
 6223SOL     OW19567   1.629   4.778   3.598
 6223SOL    HW119568   1.626   4.794   3.697
 6223SOL    HW219569   1.706   4.829   3.558
 6224SOL     OW19570   3.542   1.280   6.068
 6224SOL    HW119571   3.588   1.198   6.033
 6224SOL    HW219572   3.593   1.361   6.040
 6225SOL     OW19573   4.178   3.363   6.178
 6225SOL    HW119574   4.216   3.326   6.262
 6225SOL    HW219575   4.246   3.421   6.133
 6226SOL     OW19576   0.124   1.885   5.553
 6226SOL    HW119577   0.205   1.940   5.531
 6226SOL    HW219578   0.149   1.788   5.554
 6227SOL     OW19579   3.444   5.293   5.351
 6227SOL    HW119580   3.411   5.201   5.327
 6227SOL    HW219581   3.543   5.297   5.340
 6228SOL     OW19582   1.014   3.635   2.209
 6228SOL    HW119583   0.961   3.593   2.135
 6228SOL    HW219584   1.031   3.568   2.280
 6229SOL     OW19585   1.243   1.855   3.938
 6229SOL    HW119586   1.186   1.937   3.941
 6229SOL    HW219587   1.312   1.865   3.866
 6230SOL     OW19588   1.025   2.023   3.931
 6230SOL    HW119589   1.062   2.091   3.867
 6230SOL    HW219590   0.927   2.013   3.916
 6231SOL     OW19591   6.310   6.536   0.549
 6231SOL    HW119592   6.347   6.480   0.475
 6231SOL    HW219593   6.299   6.480   0.631
 6232SOL     OW19594   6.464   1.335   0.777
 6232SOL    HW119595   6.502   1.259   0.830
 6232SOL    HW219596   6.393   1.300   0.716
 6233SOL     OW19597   6.633   1.851   1.372
 6233SOL    HW119598   6.617   1.762   1.330
 6233SOL    HW219599   6.708   1.844   1.438
 6234SOL     OW19600   0.091   0.628   5.350
 6234SOL    HW119601   0.159   0.701   5.361
 6234SOL    HW219602   0.043   0.641   5.263
 6235SOL     OW19603   0.192   6.932   1.168
 6235SOL    HW119604   0.170   6.835   1.175
 6235SOL    HW219605   0.211   6.969   1.259
 6236SOL     OW19606   0.843   4.110   1.186
 6236SOL    HW119607   0.892   4.053   1.252
 6236SOL    HW219608   0.842   4.064   1.097
 6237SOL     OW19609   4.087   0.428   6.177
 6237SOL    HW119610   4.180   0.464   6.183
 6237SOL    HW219611   4.024   0.489   6.224
 6238SOL     OW19612   4.180   5.181   2.638
 6238SOL    HW119613   4.083   5.182   2.613
 6238SOL    HW219614   4.189   5.175   2.737
 6239SOL     OW19615   3.187   0.808   1.304
 6239SOL    HW119616   3.179   0.816   1.403
 6239SOL    HW219617   3.217   0.895   1.265
 6240SOL     OW19618   2.397   4.009   5.589
 6240SOL    HW119619   2.338   3.930   5.577
 6240SOL    HW219620   2.458   4.018   5.510
 6241SOL     OW19621   2.859   0.133   1.395
 6241SOL    HW119622   2.922   0.174   1.461
 6241SOL    HW219623   2.859   0.186   1.311
 6242SOL     OW19624   4.009   0.526   3.944
 6242SOL    HW119625   4.059   0.613   3.936
 6242SOL    HW219626   4.065   0.461   3.995
 6243SOL     OW19627   6.570   6.765   5.273
 6243SOL    HW119628   6.668   6.761   5.251
 6243SOL    HW219629   6.531   6.847   5.232
 6244SOL     OW19630   6.014   2.487   2.765
 6244SOL    HW119631   5.994   2.427   2.688
 6244SOL    HW219632   5.983   2.445   2.850
 6245SOL     OW19633   1.589   3.619   0.429
 6245SOL    HW119634   1.687   3.602   0.435
 6245SOL    HW219635   1.564   3.640   0.335
 6246SOL     OW19636   1.458   2.200   5.876
 6246SOL    HW119637   1.365   2.200   5.838
 6246SOL    HW219638   1.522   2.236   5.808
 6247SOL     OW19639   0.609   5.574   4.003
 6247SOL    HW119640   0.518   5.563   3.961
 6247SOL    HW219641   0.620   5.668   4.035
 6248SOL     OW19642   3.277   3.492   0.030
 6248SOL    HW119643   3.242   3.552   0.102
 6248SOL    HW219644   3.309   3.406   0.070
 6249SOL     OW19645   6.974   4.003   0.273
 6249SOL    HW119646   7.018   4.067   0.335
 6249SOL    HW219647   0.013   3.969   0.208
 6250SOL     OW19648   6.784   0.715   0.837
 6250SOL    HW119649   6.759   0.671   0.751
 6250SOL    HW219650   6.881   0.736   0.838
 6251SOL     OW19651   3.769   5.886   5.691
 6251SOL    HW119652   3.741   5.981   5.705
 6251SOL    HW219653   3.746   5.858   5.598
 6252SOL     OW19654   2.212   5.966   5.408
 6252SOL    HW119655   2.201   6.052   5.359
 6252SOL    HW219656   2.303   5.964   5.451
 6253SOL     OW19657   2.891   5.090   4.128
 6253SOL    HW119658   2.898   5.140   4.215
 6253SOL    HW219659   2.885   4.992   4.147
 6254SOL     OW19660   5.511   1.554   1.486
 6254SOL    HW119661   5.474   1.631   1.434
 6254SOL    HW219662   5.560   1.493   1.424
 6255SOL     OW19663   2.774   0.600   0.364
 6255SOL    HW119664   2.797   0.544   0.443
 6255SOL    HW219665   2.844   0.589   0.293
 6256SOL     OW19666   3.510   5.214   1.686
 6256SOL    HW119667   3.559   5.297   1.659
 6256SOL    HW219668   3.576   5.140   1.701
 6257SOL     OW19669   4.789   2.408   0.639
 6257SOL    HW119670   4.769   2.505   0.629
 6257SOL    HW219671   4.772   2.361   0.552
 6258SOL     OW19672   2.864   0.923   3.513
 6258SOL    HW119673   2.955   0.953   3.483
 6258SOL    HW219674   2.798   0.995   3.494
 6259SOL     OW19675   1.692   2.756   6.896
 6259SOL    HW119676   1.785   2.793   6.906
 6259SOL    HW219677   1.659   2.724   6.985
 6260SOL     OW19678   3.478   5.726   0.674
 6260SOL    HW119679   3.516   5.818   0.677
 6260SOL    HW219680   3.510   5.674   0.753
 6261SOL     OW19681   4.140   1.477   6.803
 6261SOL    HW119682   4.072   1.446   6.870
 6261SOL    HW219683   4.232   1.456   6.836
 6262SOL     OW19684   2.386   6.051   1.751
 6262SOL    HW119685   2.365   6.149   1.751
 6262SOL    HW219686   2.309   6.000   1.789
 6263SOL     OW19687   0.114   6.792   3.977
 6263SOL    HW119688   0.164   6.783   4.064
 6263SOL    HW219689   0.158   6.734   3.908
 6264SOL     OW19690   1.836   0.542   1.540
 6264SOL    HW119691   1.880   0.461   1.501
 6264SOL    HW219692   1.905   0.613   1.555
 6265SOL     OW19693   3.680   3.631   0.232
 6265SOL    HW119694   3.686   3.532   0.217
 6265SOL    HW219695   3.725   3.679   0.157
 6266SOL     OW19696   4.254   1.151   3.582
 6266SOL    HW119697   4.284   1.073   3.637
 6266SOL    HW219698   4.264   1.236   3.635
 6267SOL     OW19699   2.403   0.026   5.527
 6267SOL    HW119700   2.337   6.996   5.479
 6267SOL    HW219701   2.491   0.024   5.478
 6268SOL     OW19702   2.767   0.544   2.919
 6268SOL    HW119703   2.735   0.474   2.855
 6268SOL    HW219704   2.690   0.575   2.975
 6269SOL     OW19705   0.062   6.881   2.030
 6269SOL    HW119706   0.132   6.848   1.967
 6269SOL    HW219707   0.065   6.981   2.035
 6270SOL     OW19708   1.140   0.562   6.509
 6270SOL    HW119709   1.201   0.506   6.454
 6270SOL    HW219710   1.143   0.657   6.477
 6271SOL     OW19711   5.797   2.825   6.170
 6271SOL    HW119712   5.832   2.794   6.259
 6271SOL    HW219713   5.738   2.755   6.131
 6272SOL     OW19714   0.572   2.732   0.348
 6272SOL    HW119715   0.601   2.700   0.258
 6272SOL    HW219716   0.488   2.785   0.339
 6273SOL     OW19717   0.683   6.356   2.663
 6273SOL    HW119718   0.646   6.402   2.582
 6273SOL    HW219719   0.680   6.418   2.741
 6274SOL     OW19720   3.345   6.163   5.687
 6274SOL    HW119721   3.258   6.115   5.693
 6274SOL    HW219722   3.331   6.260   5.709
 6275SOL     OW19723   2.189   6.703   6.518
 6275SOL    HW119724   2.273   6.747   6.549
 6275SOL    HW219725   2.173   6.620   6.571
 6276SOL     OW19726   2.122   4.731   3.962
 6276SOL    HW119727   2.149   4.671   4.038
 6276SOL    HW219728   2.118   4.677   3.878
 6277SOL     OW19729   5.101   3.137   0.928
 6277SOL    HW119730   5.143   3.155   0.839
 6277SOL    HW219731   5.009   3.178   0.930
 6278SOL     OW19732   5.290   6.891   4.821
 6278SOL    HW119733   5.201   6.862   4.856
 6278SOL    HW219734   5.287   6.987   4.796
 6279SOL     OW19735   4.034   6.602   6.821
 6279SOL    HW119736   3.988   6.592   6.733
 6279SOL    HW219737   4.009   6.527   6.881
 6280SOL     OW19738   0.839   1.395   6.127
 6280SOL    HW119739   0.773   1.361   6.194
 6280SOL    HW219740   0.828   1.344   6.042
 6281SOL     OW19741   0.298   5.030   4.291
 6281SOL    HW119742   0.368   4.967   4.259
 6281SOL    HW219743   0.340   5.101   4.348
 6282SOL     OW19744   6.867   5.468   5.934
 6282SOL    HW119745   6.808   5.466   5.853
 6282SOL    HW219746   6.836   5.398   5.998
 6283SOL     OW19747   6.963   3.751   4.682
 6283SOL    HW119748   6.975   3.842   4.641
 6283SOL    HW219749   0.018   3.698   4.670
 6284SOL     OW19750   1.432   4.783   4.894
 6284SOL    HW119751   1.483   4.699   4.874
 6284SOL    HW219752   1.496   4.860   4.900
 6285SOL     OW19753   0.027   3.554   4.402
 6285SOL    HW119754   0.034   3.561   4.501
 6285SOL    HW219755   0.015   3.458   4.376
 6286SOL     OW19756   6.362   1.997   4.242
 6286SOL    HW119757   6.319   1.911   4.268
 6286SOL    HW219758   6.300   2.073   4.263
 6287SOL     OW19759   3.264   5.019   4.558
 6287SOL    HW119760   3.295   5.113   4.544
 6287SOL    HW219761   3.341   4.956   4.548
 6288SOL     OW19762   4.747   4.489   2.317
 6288SOL    HW119763   4.752   4.409   2.257
 6288SOL    HW219764   4.753   4.572   2.261
 6289SOL     OW19765   2.702   4.719   0.210
 6289SOL    HW119766   2.746   4.638   0.249
 6289SOL    HW219767   2.669   4.698   0.118
 6290SOL     OW19768   6.418   5.144   5.657
 6290SOL    HW119769   6.511   5.124   5.688
 6290SOL    HW219770   6.370   5.197   5.727
 6291SOL     OW19771   4.090   3.479   4.024
 6291SOL    HW119772   4.134   3.526   3.948
 6291SOL    HW219773   3.991   3.495   4.020
 6292SOL     OW19774   1.943   1.647   4.733
 6292SOL    HW119775   1.946   1.672   4.637
 6292SOL    HW219776   1.943   1.731   4.789
 6293SOL     OW19777   4.495   1.248   0.987
 6293SOL    HW119778   4.448   1.164   1.014
 6293SOL    HW219779   4.438   1.299   0.923
 6294SOL     OW19780   3.855   6.980   4.453
 6294SOL    HW119781   3.819   6.914   4.387
 6294SOL    HW219782   3.951   6.961   4.471
 6295SOL     OW19783   5.238   4.545   4.779
 6295SOL    HW119784   5.311   4.482   4.752
 6295SOL    HW219785   5.176   4.558   4.701
 6296SOL     OW19786   7.013   5.788   5.543
 6296SOL    HW119787   6.950   5.865   5.551
 6296SOL    HW219788   0.048   5.806   5.468
 6297SOL     OW19789   5.366   0.555   5.214
 6297SOL    HW119790   5.410   0.636   5.174
 6297SOL    HW219791   5.301   0.517   5.148
 6298SOL     OW19792   1.348   3.532   0.271
 6298SOL    HW119793   1.253   3.528   0.302
 6298SOL    HW219794   1.383   3.625   0.283
 6299SOL     OW19795   6.349   2.210   1.907
 6299SOL    HW119796   6.284   2.157   1.854
 6299SOL    HW219797   6.366   2.166   1.995
 6300SOL     OW19798   0.101   1.661   6.880
 6300SOL    HW119799   0.121   1.745   6.829
 6300SOL    HW219800   0.140   1.668   6.972
 6301SOL     OW19801   3.637   0.315   6.976
 6301SOL    HW119802   3.595   0.246   6.918
 6301SOL    HW219803   3.736   0.300   6.980
 6302SOL     OW19804   1.589   0.882   3.715
 6302SOL    HW119805   1.580   0.802   3.774
 6302SOL    HW219806   1.665   0.938   3.746
 6303SOL     OW19807   1.144   0.758   4.444
 6303SOL    HW119808   1.207   0.830   4.416
 6303SOL    HW219809   1.071   0.748   4.376
 6304SOL     OW19810   2.625   1.056   1.302
 6304SOL    HW119811   2.603   1.095   1.392
 6304SOL    HW219812   2.550   1.074   1.239
 6305SOL     OW19813   5.981   6.844   0.749
 6305SOL    HW119814   5.927   6.911   0.800
 6305SOL    HW219815   5.954   6.845   0.653
 6306SOL     OW19816   0.087   4.253   4.707
 6306SOL    HW119817   0.116   4.249   4.803
 6306SOL    HW219818   0.167   4.255   4.648
 6307SOL     OW19819   3.713   4.152   4.687
 6307SOL    HW119820   3.617   4.149   4.658
 6307SOL    HW219821   3.770   4.182   4.611
 6308SOL     OW19822   2.088   2.172   4.413
 6308SOL    HW119823   2.180   2.194   4.381
 6308SOL    HW219824   2.093   2.098   4.481
 6309SOL     OW19825   6.244   5.165   4.650
 6309SOL    HW119826   6.161   5.109   4.655
 6309SOL    HW219827   6.268   5.180   4.553
 6310SOL     OW19828   2.070   5.771   2.806
 6310SOL    HW119829   2.068   5.773   2.906
 6310SOL    HW219830   1.990   5.819   2.770
 6311SOL     OW19831   5.641   1.575   5.685
 6311SOL    HW119832   5.683   1.609   5.769
 6311SOL    HW219833   5.712   1.538   5.625
 6312SOL     OW19834   6.992   6.474   5.513
 6312SOL    HW119835   7.008   6.570   5.491
 6312SOL    HW219836   6.894   6.455   5.509
 6313SOL     OW19837   0.224   6.081   3.810
 6313SOL    HW119838   0.243   6.114   3.902
 6313SOL    HW219839   0.297   6.019   3.781
 6314SOL     OW19840   4.129   0.110   1.458
 6314SOL    HW119841   4.039   0.138   1.425
 6314SOL    HW219842   4.122   0.077   1.552
 6315SOL     OW19843   2.704   2.351   5.531
 6315SOL    HW119844   2.681   2.387   5.621
 6315SOL    HW219845   2.779   2.286   5.539
 6316SOL     OW19846   5.287   2.009   6.646
 6316SOL    HW119847   5.250   2.040   6.559
 6316SOL    HW219848   5.214   1.972   6.703
 6317SOL     OW19849   4.818   5.093   1.618
 6317SOL    HW119850   4.741   5.054   1.567
 6317SOL    HW219851   4.898   5.098   1.558
 6318SOL     OW19852   4.477   0.027   5.975
 6318SOL    HW119853   4.476   0.032   6.075
 6318SOL    HW219854   4.458   0.117   5.937
 6319SOL     OW19855   6.465   2.084   4.892
 6319SOL    HW119856   6.468   2.105   4.990
 6319SOL    HW219857   6.519   2.001   4.875
 6320SOL     OW19858   6.282   6.236   5.177
 6320SOL    HW119859   6.356   6.172   5.157
 6320SOL    HW219860   6.296   6.321   5.126
 6321SOL     OW19861   4.024   3.692   0.996
 6321SOL    HW119862   4.117   3.729   0.990
 6321SOL    HW219863   4.001   3.646   0.910
 6322SOL     OW19864   1.569   2.750   0.812
 6322SOL    HW119865   1.648   2.699   0.846
 6322SOL    HW219866   1.491   2.733   0.872
 6323SOL     OW19867   2.289   2.079   1.554
 6323SOL    HW119868   2.386   2.104   1.551
 6323SOL    HW219869   2.275   2.005   1.620
 6324SOL     OW19870   4.881   1.222   0.864
 6324SOL    HW119871   4.800   1.253   0.915
 6324SOL    HW219872   4.915   1.296   0.807
 6325SOL     OW19873   1.663   3.141   2.571
 6325SOL    HW119874   1.608   3.135   2.488
 6325SOL    HW219875   1.613   3.193   2.641
 6326SOL     OW19876   5.276   5.051   1.603
 6326SOL    HW119877   5.306   5.147   1.599
 6326SOL    HW219878   5.284   5.010   1.512
 6327SOL     OW19879   0.689   1.264   5.083
 6327SOL    HW119880   0.709   1.268   4.985
 6327SOL    HW219881   0.754   1.202   5.127
 6328SOL     OW19882   3.420   3.469   0.353
 6328SOL    HW119883   3.508   3.428   0.329
 6328SOL    HW219884   3.429   3.569   0.353
 6329SOL     OW19885   1.584   2.494   2.977
 6329SOL    HW119886   1.580   2.487   3.077
 6329SOL    HW219887   1.546   2.581   2.948
 6330SOL     OW19888   5.679   0.048   1.465
 6330SOL    HW119889   5.774   0.046   1.496
 6330SOL    HW219890   5.677   0.066   1.367
 6331SOL     OW19891   6.455   2.937   4.999
 6331SOL    HW119892   6.472   2.920   4.902
 6331SOL    HW219893   6.398   2.863   5.036
 6332SOL     OW19894   0.284   2.997   0.905
 6332SOL    HW119895   0.211   2.965   0.965
 6332SOL    HW219896   0.365   3.017   0.959
 6333SOL     OW19897   4.607   6.800   5.298
 6333SOL    HW119898   4.570   6.708   5.299
 6333SOL    HW219899   4.546   6.861   5.247
 6334SOL     OW19900   2.566   1.375   2.354
 6334SOL    HW119901   2.648   1.393   2.409
 6334SOL    HW219902   2.500   1.449   2.367
 6335SOL     OW19903   4.349   0.868   0.542
 6335SOL    HW119904   4.262   0.883   0.494
 6335SOL    HW219905   4.359   0.770   0.561
 6336SOL     OW19906   1.637   2.444   0.056
 6336SOL    HW119907   1.717   2.420   0.112
 6336SOL    HW219908   1.554   2.417   0.104
 6337SOL     OW19909   4.677   5.151   5.149
 6337SOL    HW119910   4.614   5.122   5.221
 6337SOL    HW219911   4.627   5.197   5.076
 6338SOL     OW19912   2.991   2.176   3.824
 6338SOL    HW119913   3.003   2.089   3.871
 6338SOL    HW219914   2.902   2.215   3.848
 6339SOL     OW19915   0.983   4.111   3.709
 6339SOL    HW119916   0.964   4.209   3.699
 6339SOL    HW219917   1.054   4.085   3.643
 6340SOL     OW19918   1.456   5.028   1.612
 6340SOL    HW119919   1.500   5.035   1.522
 6340SOL    HW219920   1.356   5.032   1.601
 6341SOL     OW19921   6.646   3.986   4.493
 6341SOL    HW119922   6.556   3.952   4.517
 6341SOL    HW219923   6.710   3.970   4.569
 6342SOL     OW19924   2.722   0.927   1.945
 6342SOL    HW119925   2.744   1.024   1.941
 6342SOL    HW219926   2.731   0.887   1.853
 6343SOL     OW19927   4.499   1.175   6.049
 6343SOL    HW119928   4.561   1.247   6.082
 6343SOL    HW219929   4.454   1.205   5.965
 6344SOL     OW19930   4.975   1.992   4.522
 6344SOL    HW119931   4.936   2.084   4.530
 6344SOL    HW219932   5.075   1.999   4.520
 6345SOL     OW19933   5.704   2.830   2.467
 6345SOL    HW119934   5.745   2.753   2.516
 6345SOL    HW219935   5.611   2.846   2.500
 6346SOL     OW19936   6.912   5.525   4.101
 6346SOL    HW119937   6.897   5.533   4.200
 6346SOL    HW219938   6.962   5.605   4.069
 6347SOL     OW19939   2.207   0.815   1.199
 6347SOL    HW119940   2.262   0.749   1.148
 6347SOL    HW219941   2.167   0.881   1.136
 6348SOL     OW19942   1.649   2.924   5.804
 6348SOL    HW119943   1.574   2.859   5.814
 6348SOL    HW219944   1.692   2.940   5.893
 6349SOL     OW19945   2.047   0.424   1.228
 6349SOL    HW119946   2.137   0.402   1.266
 6349SOL    HW219947   1.994   0.339   1.217
 6350SOL     OW19948   0.747   4.898   4.146
 6350SOL    HW119949   0.806   4.978   4.139
 6350SOL    HW219950   0.769   4.847   4.230
 6351SOL     OW19951   5.975   3.262   3.642
 6351SOL    HW119952   5.965   3.201   3.563
 6351SOL    HW219953   6.057   3.238   3.693
 6352SOL     OW19954   3.104   6.731   4.765
 6352SOL    HW119955   3.009   6.759   4.751
 6352SOL    HW219956   3.165   6.805   4.737
 6353SOL     OW19957   1.073   6.538   6.166
 6353SOL    HW119958   1.028   6.461   6.211
 6353SOL    HW219959   1.057   6.621   6.219
 6354SOL     OW19960   2.931   5.046   3.360
 6354SOL    HW119961   2.921   4.972   3.293
 6354SOL    HW219962   2.973   5.011   3.443
 6355SOL     OW19963   1.847   5.276   6.959
 6355SOL    HW119964   1.885   5.356   6.914
 6355SOL    HW219965   1.767   5.303   7.013
 6356SOL     OW19966   4.708   6.028   1.694
 6356SOL    HW119967   4.670   5.948   1.647
 6356SOL    HW219968   4.729   6.099   1.627
 6357SOL     OW19969   6.508   3.705   2.698
 6357SOL    HW119970   6.593   3.661   2.668
 6357SOL    HW219971   6.499   3.696   2.797
 6358SOL     OW19972   0.303   2.240   6.664
 6358SOL    HW119973   0.329   2.176   6.591
 6358SOL    HW219974   0.215   2.213   6.702
 6359SOL     OW19975   6.472   0.603   0.647
 6359SOL    HW119976   6.557   0.639   0.607
 6359SOL    HW219977   6.417   0.562   0.575
 6360SOL     OW19978   1.168   4.136   4.903
 6360SOL    HW119979   1.235   4.206   4.927
 6360SOL    HW219980   1.100   4.130   4.976
 6361SOL     OW19981   1.392   6.794   0.988
 6361SOL    HW119982   1.331   6.776   1.065
 6361SOL    HW219983   1.469   6.730   0.990
 6362SOL     OW19984   0.183   5.758   6.907
 6362SOL    HW119985   0.115   5.710   6.851
 6362SOL    HW219986   0.143   5.782   6.995
 6363SOL     OW19987   2.278   5.486   3.649
 6363SOL    HW119988   2.187   5.524   3.664
 6363SOL    HW219989   2.347   5.558   3.656
 6364SOL     OW19990   2.507   1.746   5.786
 6364SOL    HW119991   2.495   1.836   5.743
 6364SOL    HW219992   2.500   1.755   5.885
 6365SOL     OW19993   5.312   0.064   3.977
 6365SOL    HW119994   5.259   7.013   4.005
 6365SOL    HW219995   5.325   0.125   4.056
 6366SOL     OW19996   0.671   5.671   5.220
 6366SOL    HW119997   0.621   5.758   5.225
 6366SOL    HW219998   0.606   5.597   5.203
 6367SOL     OW19999   4.002   1.203   4.430
 6367SOL    HW120000   4.089   1.158   4.449
 6367SOL    HW220001   3.983   1.272   4.499
 6368SOL     OW20002   3.521   4.953   3.639
 6368SOL    HW120003   3.565   5.041   3.625
 6368SOL    HW220004   3.433   4.951   3.593
 6369SOL     OW20005   2.654   6.954   4.605
 6369SOL    HW120006   2.633   6.907   4.520
 6369SOL    HW220007   2.572   6.999   4.640
 6370SOL     OW20008   0.182   2.694   3.365
 6370SOL    HW120009   0.275   2.727   3.382
 6370SOL    HW220010   0.125   2.770   3.333
 6371SOL     OW20011   5.095   4.901   3.096
 6371SOL    HW120012   5.150   4.880   3.015
 6371SOL    HW220013   5.000   4.913   3.070
 6372SOL     OW20014   1.916   1.360   1.347
 6372SOL    HW120015   1.865   1.443   1.326
 6372SOL    HW220016   2.014   1.381   1.353
 6373SOL     OW20017   4.254   4.653   2.432
 6373SOL    HW120018   4.205   4.720   2.376
 6373SOL    HW220019   4.281   4.575   2.375
 6374SOL     OW20020   4.197   3.440   2.974
 6374SOL    HW120021   4.126   3.381   2.935
 6374SOL    HW220022   4.260   3.384   3.029
 6375SOL     OW20023   0.174   1.581   3.094
 6375SOL    HW120024   0.111   1.621   3.028
 6375SOL    HW220025   0.135   1.589   3.186
 6376SOL     OW20026   5.159   2.589   5.278
 6376SOL    HW120027   5.235   2.654   5.276
 6376SOL    HW220028   5.073   2.638   5.263
 6377SOL     OW20029   0.238   1.181   5.190
 6377SOL    HW120030   0.221   1.102   5.131
 6377SOL    HW220031   0.210   1.160   5.283
 6378SOL     OW20032   4.657   4.453   3.696
 6378SOL    HW120033   4.653   4.477   3.793
 6378SOL    HW220034   4.579   4.494   3.649
 6379SOL     OW20035   1.558   4.110   4.896
 6379SOL    HW120036   1.571   4.040   4.967
 6379SOL    HW220037   1.645   4.155   4.877
 6380SOL     OW20038   0.415   1.571   5.014
 6380SOL    HW120039   0.357   1.549   4.935
 6380SOL    HW220040   0.441   1.488   5.061
 6381SOL     OW20041   3.986   2.858   1.333
 6381SOL    HW120042   3.961   2.761   1.332
 6381SOL    HW220043   3.939   2.905   1.258
 6382SOL     OW20044   2.862   1.600   0.677
 6382SOL    HW120045   2.822   1.624   0.588
 6382SOL    HW220046   2.958   1.575   0.665
 6383SOL     OW20047   2.255   2.478   3.010
 6383SOL    HW120048   2.253   2.518   2.918
 6383SOL    HW220049   2.321   2.528   3.066
 6384SOL     OW20050   6.164   3.880   3.134
 6384SOL    HW120051   6.254   3.924   3.136
 6384SOL    HW220052   6.120   3.891   3.223
 6385SOL     OW20053   6.981   3.879   3.345
 6385SOL    HW120054   6.954   3.870   3.441
 6385SOL    HW220055   0.019   3.954   3.337
 6386SOL     OW20056   1.992   3.533   6.486
 6386SOL    HW120057   2.046   3.453   6.461
 6386SOL    HW220058   2.050   3.615   6.480
 6387SOL     OW20059   6.446   1.917   6.255
 6387SOL    HW120060   6.494   1.904   6.168
 6387SOL    HW220061   6.471   1.844   6.319
 6388SOL     OW20062   4.180   6.847   1.976
 6388SOL    HW120063   4.108   6.914   1.956
 6388SOL    HW220064   4.249   6.850   1.903
 6389SOL     OW20065   0.025   5.716   1.888
 6389SOL    HW120066   7.012   5.627   1.868
 6389SOL    HW220067   7.027   5.781   1.816
 6390SOL     OW20068   0.637   0.564   6.055
 6390SOL    HW120069   0.599   0.471   6.054
 6390SOL    HW220070   0.595   0.616   6.130
 6391SOL     OW20071   2.308   0.378   5.959
 6391SOL    HW120072   2.353   0.383   5.869
 6391SOL    HW220073   2.312   0.467   6.003
 6392SOL     OW20074   2.466   5.616   3.026
 6392SOL    HW120075   2.526   5.671   3.084
 6392SOL    HW220076   2.438   5.670   2.946
 6393SOL     OW20077   0.390   5.987   1.669
 6393SOL    HW120078   0.324   6.062   1.678
 6393SOL    HW220079   0.364   5.913   1.731
 6394SOL     OW20080   2.380   5.357   0.662
 6394SOL    HW120081   2.415   5.421   0.593
 6394SOL    HW220082   2.284   5.336   0.642
 6395SOL     OW20083   0.018   2.659   1.531
 6395SOL    HW120084   0.063   2.576   1.497
 6395SOL    HW220085   0.075   2.738   1.509
 6396SOL     OW20086   5.363   3.454   6.983
 6396SOL    HW120087   5.396   3.469   0.047
 6396SOL    HW220088   5.362   3.541   6.933
 6397SOL     OW20089   5.645   1.405   1.282
 6397SOL    HW120090   5.668   1.307   1.282
 6397SOL    HW220091   5.729   1.459   1.281
 6398SOL     OW20092   2.998   6.804   1.487
 6398SOL    HW120093   2.898   6.807   1.478
 6398SOL    HW220094   3.036   6.749   1.412
 6399SOL     OW20095   1.731   6.644   6.780
 6399SOL    HW120096   1.702   6.725   6.830
 6399SOL    HW220097   1.806   6.667   6.718
 6400SOL     OW20098   2.665   5.324   1.951
 6400SOL    HW120099   2.636   5.354   1.860
 6400SOL    HW220100   2.738   5.257   1.941
 6401SOL     OW20101   5.496   6.042   3.572
 6401SOL    HW120102   5.419   5.980   3.554
 6401SOL    HW220103   5.471   6.104   3.646
 6402SOL     OW20104   2.606   2.459   2.956
 6402SOL    HW120105   2.552   2.509   2.888
 6402SOL    HW220106   2.565   2.368   2.969
 6403SOL     OW20107   0.035   5.130   6.371
 6403SOL    HW120108   6.988   5.084   6.325
 6403SOL    HW220109   0.057   5.215   6.323
 6404SOL     OW20110   4.155   0.616   2.596
 6404SOL    HW120111   4.198   0.532   2.628
 6404SOL    HW220112   4.058   0.599   2.577
 6405SOL     OW20113   3.540   0.070   4.004
 6405SOL    HW120114   3.515   0.119   3.920
 6405SOL    HW220115   3.563   7.004   3.982
 6406SOL     OW20116   0.756   3.068   2.939
 6406SOL    HW120117   0.800   3.154   2.966
 6406SOL    HW220118   0.775   2.998   3.008
 6407SOL     OW20119   2.789   6.850   3.844
 6407SOL    HW120120   2.842   6.852   3.759
 6407SOL    HW220121   2.845   6.887   3.919
 6408SOL     OW20122   5.348   1.306   0.475
 6408SOL    HW120123   5.379   1.316   0.381
 6408SOL    HW220124   5.390   1.225   0.516
 6409SOL     OW20125   6.391   4.266   3.604
 6409SOL    HW120126   6.408   4.357   3.642
 6409SOL    HW220127   6.298   4.262   3.568
 6410SOL     OW20128   1.937   1.417   6.332
 6410SOL    HW120129   1.888   1.427   6.418
 6410SOL    HW220130   1.948   1.320   6.310
 6411SOL     OW20131   0.665   2.941   3.238
 6411SOL    HW120132   0.611   3.015   3.198
 6411SOL    HW220133   0.604   2.869   3.271
 6412SOL     OW20134   1.427   2.283   4.729
 6412SOL    HW120135   1.426   2.191   4.770
 6412SOL    HW220136   1.334   2.310   4.706
 6413SOL     OW20137   3.778   4.849   3.637
 6413SOL    HW120138   3.793   4.916   3.709
 6413SOL    HW220139   3.679   4.836   3.624
 6414SOL     OW20140   6.107   0.920   0.262
 6414SOL    HW120141   6.135   0.845   0.322
 6414SOL    HW220142   6.031   0.970   0.305
 6415SOL     OW20143   2.178   3.150   2.993
 6415SOL    HW120144   2.117   3.188   3.062
 6415SOL    HW220145   2.198   3.220   2.924
 6416SOL     OW20146   1.033   1.030   6.852
 6416SOL    HW120147   1.102   1.046   6.922
 6416SOL    HW220148   0.961   1.099   6.859
 6417SOL     OW20149   5.554   5.058   0.954
 6417SOL    HW120150   5.498   4.984   0.919
 6417SOL    HW220151   5.623   5.022   1.016
 6418SOL     OW20152   4.947   3.615   2.298
 6418SOL    HW120153   4.999   3.533   2.275
 6418SOL    HW220154   4.970   3.689   2.234
 6419SOL     OW20155   1.412   4.686   3.156
 6419SOL    HW120156   1.469   4.612   3.192
 6419SOL    HW220157   1.370   4.656   3.070
 6420SOL     OW20158   2.628   5.929   3.973
 6420SOL    HW120159   2.561   5.854   3.967
 6420SOL    HW220160   2.580   6.016   3.980
 6421SOL     OW20161   4.921   6.963   2.720
 6421SOL    HW120162   5.006   7.014   2.734
 6421SOL    HW220163   4.894   6.969   2.624
 6422SOL     OW20164   6.840   1.144   4.892
 6422SOL    HW120165   6.894   1.219   4.852
 6422SOL    HW220166   6.855   1.142   4.991
 6423SOL     OW20167   4.914   5.334   3.154
 6423SOL    HW120168   4.912   5.241   3.190
 6423SOL    HW220169   4.965   5.336   3.069
 6424SOL     OW20170   0.012   5.103   5.447
 6424SOL    HW120171   0.018   5.007   5.475
 6424SOL    HW220172   0.100   5.133   5.411
 6425SOL     OW20173   6.391   5.799   3.338
 6425SOL    HW120174   6.385   5.805   3.238
 6425SOL    HW220175   6.302   5.822   3.378
 6426SOL     OW20176   1.145   4.995   3.212
 6426SOL    HW120177   1.150   5.087   3.174
 6426SOL    HW220178   1.089   4.995   3.295
 6427SOL     OW20179   3.456   4.182   4.528
 6427SOL    HW120180   3.363   4.145   4.527
 6427SOL    HW220181   3.455   4.276   4.495
 6428SOL     OW20182   5.850   3.541   6.069
 6428SOL    HW120183   5.756   3.507   6.079
 6428SOL    HW220184   5.870   3.606   6.142
 6429SOL     OW20185   0.792   2.087   5.684
 6429SOL    HW120186   0.713   2.059   5.738
 6429SOL    HW220187   0.852   2.009   5.669
 6430SOL     OW20188   5.891   1.055   3.589
 6430SOL    HW120189   5.850   1.139   3.552
 6430SOL    HW220190   5.951   1.078   3.666
 6431SOL     OW20191   4.757   6.728   3.913
 6431SOL    HW120192   4.822   6.662   3.875
 6431SOL    HW220193   4.805   6.812   3.937
 6432SOL     OW20194   4.589   4.806   6.246
 6432SOL    HW120195   4.493   4.816   6.272
 6432SOL    HW220196   4.643   4.779   6.325
 6433SOL     OW20197   1.590   5.393   5.684
 6433SOL    HW120198   1.599   5.305   5.731
 6433SOL    HW220199   1.515   5.445   5.726
 6434SOL     OW20200   2.521   5.160   6.339
 6434SOL    HW120201   2.432   5.124   6.368
 6434SOL    HW220202   2.510   5.209   6.252
 6435SOL     OW20203   5.200   6.412   1.123
 6435SOL    HW120204   5.235   6.369   1.040
 6435SOL    HW220205   5.126   6.356   1.161
 6436SOL     OW20206   1.252   2.888   2.807
 6436SOL    HW120207   1.181   2.841   2.753
 6436SOL    HW220208   1.242   2.987   2.796
 6437SOL     OW20209   2.261   1.178   0.588
 6437SOL    HW120210   2.279   1.080   0.590
 6437SOL    HW220211   2.347   1.228   0.598
 6438SOL     OW20212   6.412   4.528   5.426
 6438SOL    HW120213   6.470   4.559   5.352
 6438SOL    HW220214   6.316   4.538   5.400
 6439SOL     OW20215   5.604   1.376   1.965
 6439SOL    HW120216   5.614   1.396   1.868
 6439SOL    HW220217   5.536   1.303   1.977
 6440SOL     OW20218   2.201   1.637   6.323
 6440SOL    HW120219   2.110   1.678   6.331
 6440SOL    HW220220   2.255   1.688   6.257
 6441SOL     OW20221   6.955   6.944   2.265
 6441SOL    HW120222   7.005   6.918   2.182
 6441SOL    HW220223   6.918   0.008   2.254
 6442SOL     OW20224   2.696   1.312   4.280
 6442SOL    HW120225   2.599   1.290   4.274
 6442SOL    HW220226   2.738   1.305   4.189
 6443SOL     OW20227   3.802   2.337   5.321
 6443SOL    HW120228   3.844   2.261   5.372
 6443SOL    HW220229   3.710   2.310   5.293
 6444SOL     OW20230   5.150   3.101   4.867
 6444SOL    HW120231   5.081   3.129   4.933
 6444SOL    HW220232   5.150   3.164   4.789
 6445SOL     OW20233   3.862   3.006   4.975
 6445SOL    HW120234   3.859   2.922   4.920
 6445SOL    HW220235   3.773   3.052   4.971
 6446SOL     OW20236   1.175   1.254   6.977
 6446SOL    HW120237   1.248   1.188   6.996
 6446SOL    HW220238   1.194   1.340   7.025
 6447SOL     OW20239   5.536   4.897   3.872
 6447SOL    HW120240   5.502   4.906   3.966
 6447SOL    HW220241   5.634   4.918   3.870
 6448SOL     OW20242   4.334   5.940   1.709
 6448SOL    HW120243   4.320   6.007   1.782
 6448SOL    HW220244   4.361   5.852   1.750
 6449SOL     OW20245   3.399   6.128   0.890
 6449SOL    HW120246   3.454   6.052   0.925
 6449SOL    HW220247   3.455   6.185   0.830
 6450SOL     OW20248   1.011   3.990   1.370
 6450SOL    HW120249   1.003   3.900   1.414
 6450SOL    HW220250   1.106   4.022   1.375
 6451SOL     OW20251   2.306   0.523   5.092
 6451SOL    HW120252   2.288   0.461   5.016
 6451SOL    HW220253   2.361   0.477   5.162
 6452SOL     OW20254   4.462   5.255   3.280
 6452SOL    HW120255   4.516   5.330   3.318
 6452SOL    HW220256   4.417   5.285   3.196
 6453SOL     OW20257   2.581   6.542   1.865
 6453SOL    HW120258   2.534   6.594   1.936
 6453SOL    HW220259   2.549   6.571   1.775
 6454SOL     OW20260   0.598   2.311   3.084
 6454SOL    HW120261   0.647   2.360   3.156
 6454SOL    HW220262   0.661   2.286   3.011
 6455SOL     OW20263   6.839   3.481   4.172
 6455SOL    HW120264   6.904   3.429   4.228
 6455SOL    HW220265   6.747   3.443   4.182
 6456SOL     OW20266   1.453   0.875   3.478
 6456SOL    HW120267   1.358   0.905   3.487
 6456SOL    HW220268   1.499   0.882   3.566
 6457SOL     OW20269   5.073   1.634   1.239
 6457SOL    HW120270   4.985   1.678   1.254
 6457SOL    HW220271   5.130   1.644   1.321
 6458SOL     OW20272   1.186   6.097   4.763
 6458SOL    HW120273   1.098   6.090   4.717
 6458SOL    HW220274   1.227   6.186   4.741
 6459SOL     OW20275   6.490   2.888   1.240
 6459SOL    HW120276   6.555   2.812   1.241
 6459SOL    HW220277   6.398   2.853   1.258
 6460SOL     OW20278   5.687   6.267   6.006
 6460SOL    HW120279   5.601   6.318   5.995
 6460SOL    HW220280   5.754   6.325   6.052
 6461SOL     OW20281   2.256   4.155   6.619
 6461SOL    HW120282   2.248   4.240   6.567
 6461SOL    HW220283   2.179   4.095   6.597
 6462SOL     OW20284   2.323   2.761   4.413
 6462SOL    HW120285   2.246   2.698   4.418
 6462SOL    HW220286   2.381   2.750   4.494
 6463SOL     OW20287   6.114   2.228   0.003
 6463SOL    HW120288   6.189   2.255   6.971
 6463SOL    HW220289   6.145   2.234   0.098
 6464SOL     OW20290   1.354   5.229   4.740
 6464SOL    HW120291   1.289   5.163   4.705
 6464SOL    HW220292   1.309   5.318   4.750
 6465SOL     OW20293   6.988   3.052   2.823
 6465SOL    HW120294   7.003   3.150   2.836
 6465SOL    HW220295   6.994   3.005   2.911
 6466SOL     OW20296   0.567   0.917   6.122
 6466SOL    HW120297   0.524   0.943   6.209
 6466SOL    HW220298   0.514   0.956   6.046
 6467SOL     OW20299   4.125   1.525   0.045
 6467SOL    HW120300   4.208   1.564   0.004
 6467SOL    HW220301   4.151   1.463   0.120
 6468SOL     OW20302   2.850   6.807   0.618
 6468SOL    HW120303   2.942   6.774   0.642
 6468SOL    HW220304   2.858   6.874   0.544
 6469SOL     OW20305   4.161   1.741   3.916
 6469SOL    HW120306   4.065   1.769   3.907
 6469SOL    HW220307   4.219   1.801   3.861
 6470SOL     OW20308   6.011   3.000   0.908
 6470SOL    HW120309   5.985   2.904   0.902
 6470SOL    HW220310   6.079   3.021   0.838
 6471SOL     OW20311   6.865   6.537   6.126
 6471SOL    HW120312   6.907   6.621   6.160
 6471SOL    HW220313   6.859   6.541   6.026
 6472SOL     OW20314   0.137   5.812   2.118
 6472SOL    HW120315   0.090   5.766   2.043
 6472SOL    HW220316   0.205   5.750   2.157
 6473SOL     OW20317   3.031   1.824   4.562
 6473SOL    HW120318   3.111   1.799   4.507
 6473SOL    HW220319   3.054   1.903   4.620
 6474SOL     OW20320   3.167   4.873   6.134
 6474SOL    HW120321   3.213   4.962   6.128
 6474SOL    HW220322   3.162   4.845   6.230
 6475SOL     OW20323   5.807   4.998   3.637
 6475SOL    HW120324   5.731   4.953   3.589
 6475SOL    HW220325   5.794   5.097   3.634
 6476SOL     OW20326   4.468   3.698   1.002
 6476SOL    HW120327   4.446   3.608   1.038
 6476SOL    HW220328   4.405   3.722   0.928
 6477SOL     OW20329   6.012   4.559   0.803
 6477SOL    HW120330   5.975   4.633   0.747
 6477SOL    HW220331   5.936   4.507   0.843
 6478SOL     OW20332   3.446   0.528   1.958
 6478SOL    HW120333   3.435   0.559   1.863
 6478SOL    HW220334   3.361   0.546   2.008
 6479SOL     OW20335   4.338   5.274   3.570
 6479SOL    HW120336   4.308   5.275   3.475
 6479SOL    HW220337   4.389   5.189   3.588
 6480SOL     OW20338   3.031   1.004   6.755
 6480SOL    HW120339   2.986   1.050   6.831
 6480SOL    HW220340   3.067   0.916   6.786
 6481SOL     OW20341   3.588   2.092   2.232
 6481SOL    HW120342   3.492   2.101   2.206
 6481SOL    HW220343   3.646   2.123   2.156
 6482SOL     OW20344   6.703   0.949   5.692
 6482SOL    HW120345   6.637   0.891   5.741
 6482SOL    HW220346   6.753   0.893   5.626
 6483SOL     OW20347   1.171   6.789   2.967
 6483SOL    HW120348   1.264   6.762   2.942
 6483SOL    HW220349   1.118   6.807   2.885
 6484SOL     OW20350   3.049   0.132   0.997
 6484SOL    HW120351   3.140   0.150   1.036
 6484SOL    HW220352   3.018   0.042   1.026
 6485SOL     OW20353   2.440   4.865   3.624
 6485SOL    HW120354   2.421   4.829   3.715
 6485SOL    HW220355   2.504   4.942   3.632
 6486SOL     OW20356   1.537   4.063   3.405
 6486SOL    HW120357   1.464   4.071   3.337
 6486SOL    HW220358   1.604   4.136   3.392
 6487SOL     OW20359   0.436   6.575   5.120
 6487SOL    HW120360   0.501   6.650   5.104
 6487SOL    HW220361   0.484   6.488   5.110
 6488SOL     OW20362   3.800   5.869   4.471
 6488SOL    HW120363   3.899   5.884   4.469
 6488SOL    HW220364   3.780   5.790   4.529
 6489SOL     OW20365   2.925   3.120   5.977
 6489SOL    HW120366   2.975   3.105   6.062
 6489SOL    HW220367   2.900   3.217   5.970
 6490SOL     OW20368   3.822   1.237   0.037
 6490SOL    HW120369   3.813   1.152   7.015
 6490SOL    HW220370   3.802   1.314   7.005
 6491SOL     OW20371   4.078   0.973   0.874
 6491SOL    HW120372   4.154   0.939   0.928
 6491SOL    HW220373   4.112   1.039   0.807
 6492SOL     OW20374   4.019   4.525   6.605
 6492SOL    HW120375   3.923   4.552   6.607
 6492SOL    HW220376   4.039   4.465   6.682
 6493SOL     OW20377   1.767   4.171   5.226
 6493SOL    HW120378   1.795   4.185   5.320
 6493SOL    HW220379   1.667   4.164   5.221
 6494SOL     OW20380   6.890   0.192   3.489
 6494SOL    HW120381   6.895   0.291   3.499
 6494SOL    HW220382   6.872   0.150   3.578
 6495SOL     OW20383   6.119   0.329   4.561
 6495SOL    HW120384   6.145   0.368   4.473
 6495SOL    HW220385   6.020   0.321   4.566
 6496SOL     OW20386   6.096   1.209   3.227
 6496SOL    HW120387   6.028   1.246   3.290
 6496SOL    HW220388   6.050   1.163   3.151
 6497SOL     OW20389   0.883   1.407   1.050
 6497SOL    HW120390   0.850   1.356   1.130
 6497SOL    HW220391   0.964   1.459   1.076
 6498SOL     OW20392   1.557   3.757   3.764
 6498SOL    HW120393   1.637   3.710   3.802
 6498SOL    HW220394   1.558   3.853   3.795
 6499SOL     OW20395   5.860   3.313   5.573
 6499SOL    HW120396   5.927   3.282   5.506
 6499SOL    HW220397   5.803   3.236   5.602
 6500SOL     OW20398   6.501   3.568   4.489
 6500SOL    HW120399   6.576   3.548   4.551
 6500SOL    HW220400   6.497   3.666   4.472
 6501SOL     OW20401   0.058   1.869   6.480
 6501SOL    HW120402   0.138   1.870   6.421
 6501SOL    HW220403   7.005   1.853   6.425
 6502SOL     OW20404   6.601   2.060   2.396
 6502SOL    HW120405   6.620   2.149   2.439
 6502SOL    HW220406   6.668   1.993   2.428
 6503SOL     OW20407   5.224   0.856   3.507
 6503SOL    HW120408   5.247   0.838   3.412
 6503SOL    HW220409   5.176   0.777   3.545
 6504SOL     OW20410   4.326   6.644   5.449
 6504SOL    HW120411   4.336   6.652   5.350
 6504SOL    HW220412   4.401   6.692   5.495
 6505SOL     OW20413   5.392   5.842   6.736
 6505SOL    HW120414   5.355   5.757   6.698
 6505SOL    HW220415   5.453   5.819   6.812
 6506SOL     OW20416   6.744   2.779   2.804
 6506SOL    HW120417   6.724   2.839   2.882
 6506SOL    HW220418   6.752   2.835   2.721
 6507SOL     OW20419   1.300   5.215   5.573
 6507SOL    HW120420   1.226   5.283   5.565
 6507SOL    HW220421   1.320   5.200   5.670
 6508SOL     OW20422   1.605   0.570   2.613
 6508SOL    HW120423   1.680   0.570   2.548
 6508SOL    HW220424   1.634   0.614   2.698
 6509SOL     OW20425   3.494   1.495   4.727
 6509SOL    HW120426   3.534   1.433   4.794
 6509SOL    HW220427   3.520   1.466   4.635
 6510SOL     OW20428   6.415   5.599   0.189
 6510SOL    HW120429   6.485   5.637   0.128
 6510SOL    HW220430   6.368   5.523   0.143
 6511SOL     OW20431   4.175   1.767   4.681
 6511SOL    HW120432   4.145   1.862   4.671
 6511SOL    HW220433   4.188   1.746   4.777
 6512SOL     OW20434   4.130   6.745   2.220
 6512SOL    HW120435   4.214   6.754   2.273
 6512SOL    HW220436   4.145   6.779   2.127
 6513SOL     OW20437   2.234   4.780   2.948
 6513SOL    HW120438   2.198   4.855   3.003
 6513SOL    HW220439   2.210   4.794   2.852
 6514SOL     OW20440   6.560   1.004   3.986
 6514SOL    HW120441   6.651   1.044   3.974
 6514SOL    HW220442   6.500   1.038   3.913
 6515SOL     OW20443   0.464   4.883   4.165
 6515SOL    HW120444   0.538   4.947   4.143
 6515SOL    HW220445   0.503   4.794   4.186
 6516SOL     OW20446   0.324   3.570   1.553
 6516SOL    HW120447   0.387   3.509   1.505
 6516SOL    HW220448   0.242   3.582   1.498
 6517SOL     OW20449   6.301   1.062   1.435
 6517SOL    HW120450   6.267   1.152   1.410
 6517SOL    HW220451   6.233   1.014   1.489
 6518SOL     OW20452   0.420   0.829   0.228
 6518SOL    HW120453   0.354   0.755   0.244
 6518SOL    HW220454   0.373   0.917   0.229
 6519SOL     OW20455   0.894   2.528   3.251
 6519SOL    HW120456   0.950   2.592   3.304
 6519SOL    HW220457   0.873   2.567   3.161
 6520SOL     OW20458   5.831   5.436   1.567
 6520SOL    HW120459   5.921   5.435   1.610
 6520SOL    HW220460   5.782   5.520   1.592
 6521SOL     OW20461   1.910   2.588   3.863
 6521SOL    HW120462   1.910   2.667   3.802
 6521SOL    HW220463   1.816   2.560   3.883
 6522SOL     OW20464   3.088   5.417   6.318
 6522SOL    HW120465   3.043   5.334   6.351
 6522SOL    HW220466   3.187   5.402   6.315
 6523SOL     OW20467   3.615   1.805   6.512
 6523SOL    HW120468   3.667   1.815   6.427
 6523SOL    HW220469   3.517   1.806   6.492
 6524SOL     OW20470   3.730   3.447   1.549
 6524SOL    HW120471   3.687   3.394   1.476
 6524SOL    HW220472   3.665   3.513   1.586
 6525SOL     OW20473   2.496   4.952   2.582
 6525SOL    HW120474   2.405   4.913   2.595
 6525SOL    HW220475   2.542   4.960   2.671
 6526SOL     OW20476   2.059   0.099   6.612
 6526SOL    HW120477   2.090   0.191   6.588
 6526SOL    HW220478   2.081   0.080   6.708
 6527SOL     OW20479   0.669   1.549   4.831
 6527SOL    HW120480   0.763   1.515   4.838
 6527SOL    HW220481   0.662   1.637   4.879
 6528SOL     OW20482   6.896   0.964   5.408
 6528SOL    HW120483   6.906   0.911   5.492
 6528SOL    HW220484   6.891   0.903   5.329
 6529SOL     OW20485   1.838   0.424   2.878
 6529SOL    HW120486   1.919   0.448   2.932
 6529SOL    HW220487   1.867   0.387   2.790
 6530SOL     OW20488   0.042   2.817   0.559
 6530SOL    HW120489   0.119   2.753   0.571
 6530SOL    HW220490   0.002   2.838   0.647
 6531SOL     OW20491   5.350   3.145   5.412
 6531SOL    HW120492   5.340   3.174   5.317
 6531SOL    HW220493   5.379   3.223   5.467
 6532SOL     OW20494   6.823   1.306   1.007
 6532SOL    HW120495   6.836   1.243   1.084
 6532SOL    HW220496   6.728   1.335   1.004
 6533SOL     OW20497   4.410   6.872   0.833
 6533SOL    HW120498   4.360   6.892   0.748
 6533SOL    HW220499   4.506   6.897   0.821
 6534SOL     OW20500   4.253   4.745   1.448
 6534SOL    HW120501   4.166   4.714   1.410
 6534SOL    HW220502   4.327   4.690   1.409
 6535SOL     OW20503   6.188   3.683   4.563
 6535SOL    HW120504   6.153   3.746   4.494
 6535SOL    HW220505   6.112   3.649   4.619
 6536SOL     OW20506   0.757   0.972   5.891
 6536SOL    HW120507   0.722   0.925   5.972
 6536SOL    HW220508   0.827   1.038   5.919
 6537SOL     OW20509   6.559   5.631   6.939
 6537SOL    HW120510   6.493   5.577   6.887
 6537SOL    HW220511   6.557   5.726   6.908
 6538SOL     OW20512   2.517   3.852   6.264
 6538SOL    HW120513   2.456   3.900   6.201
 6538SOL    HW220514   2.529   3.757   6.233
 6539SOL     OW20515   4.255   0.717   6.193
 6539SOL    HW120516   4.330   0.653   6.176
 6539SOL    HW220517   4.280   0.808   6.159
 6540SOL     OW20518   4.642   1.930   5.656
 6540SOL    HW120519   4.720   1.976   5.614
 6540SOL    HW220520   4.577   1.901   5.586
 6541SOL     OW20521   4.310   2.326   4.810
 6541SOL    HW120522   4.320   2.228   4.792
 6541SOL    HW220523   4.250   2.340   4.889
 6542SOL     OW20524   6.597   3.375   4.235
 6542SOL    HW120525   6.544   3.433   4.173
 6542SOL    HW220526   6.570   3.394   4.329
 6543SOL     OW20527   5.069   2.572   5.989
 6543SOL    HW120528   5.060   2.554   5.891
 6543SOL    HW220529   4.979   2.588   6.028
 6544SOL     OW20530   1.149   6.127   3.105
 6544SOL    HW120531   1.220   6.061   3.084
 6544SOL    HW220532   1.158   6.206   3.044
 6545SOL     OW20533   4.310   1.890   0.065
 6545SOL    HW120534   4.215   1.864   0.077
 6545SOL    HW220535   4.351   1.910   0.154
 6546SOL     OW20536   3.112   4.147   6.977
 6546SOL    HW120537   3.091   4.052   6.954
 6546SOL    HW220538   3.178   4.184   6.912
 6547SOL     OW20539   4.667   1.022   5.871
 6547SOL    HW120540   4.585   1.076   5.851
 6547SOL    HW220541   4.673   1.005   5.970
 6548SOL     OW20542   0.508   4.228   0.728
 6548SOL    HW120543   0.586   4.205   0.669
 6548SOL    HW220544   0.516   4.323   0.758
 6549SOL     OW20545   5.126   0.994   1.419
 6549SOL    HW120546   5.092   0.992   1.325
 6549SOL    HW220547   5.154   1.087   1.442
 6550SOL     OW20548   7.025   6.439   3.696
 6550SOL    HW120549   7.004   6.449   3.793
 6550SOL    HW220550   0.091   6.407   3.685
 6551SOL     OW20551   1.730   4.495   2.352
 6551SOL    HW120552   1.736   4.523   2.256
 6551SOL    HW220553   1.719   4.575   2.410
 6552SOL     OW20554   1.733   6.891   6.923
 6552SOL    HW120555   1.770   6.936   6.842
 6552SOL    HW220556   1.655   6.944   6.958
 6553SOL     OW20557   0.151   1.674   3.356
 6553SOL    HW120558   0.094   1.744   3.398
 6553SOL    HW220559   0.243   1.710   3.340
 6554SOL     OW20560   0.373   0.414   4.637
 6554SOL    HW120561   0.440   0.392   4.708
 6554SOL    HW220562   0.382   0.348   4.562
 6555SOL     OW20563   5.918   1.650   3.095
 6555SOL    HW120564   5.838   1.710   3.105
 6555SOL    HW220565   5.957   1.632   3.185
 6556SOL     OW20566   5.085   4.749   4.252
 6556SOL    HW120567   5.132   4.661   4.248
 6556SOL    HW220568   5.018   4.748   4.325
 6557SOL     OW20569   3.654   6.700   2.728
 6557SOL    HW120570   3.729   6.691   2.663
 6557SOL    HW220571   3.633   6.611   2.769
 6558SOL     OW20572   6.754   5.240   0.107
 6558SOL    HW120573   6.712   5.153   0.134
 6558SOL    HW220574   6.801   5.228   0.019
 6559SOL     OW20575   0.845   3.301   6.447
 6559SOL    HW120576   0.806   3.297   6.539
 6559SOL    HW220577   0.787   3.249   6.384
 6560SOL     OW20578   4.624   4.970   1.475
 6560SOL    HW120579   4.607   4.882   1.518
 6560SOL    HW220580   4.597   4.967   1.379
 6561SOL     OW20581   3.236   3.723   1.327
 6561SOL    HW120582   3.147   3.679   1.313
 6561SOL    HW220583   3.282   3.733   1.239
 6562SOL     OW20584   5.842   3.541   0.770
 6562SOL    HW120585   5.818   3.528   0.674
 6562SOL    HW220586   5.771   3.594   0.816
 6563SOL     OW20587   5.553   6.421   6.862
 6563SOL    HW120588   5.484   6.475   6.911
 6563SOL    HW220589   5.526   6.325   6.863
 6564SOL     OW20590   6.889   4.545   3.128
 6564SOL    HW120591   6.809   4.527   3.071
 6564SOL    HW220592   6.864   4.607   3.201
 6565SOL     OW20593   5.477   1.765   3.474
 6565SOL    HW120594   5.417   1.697   3.517
 6565SOL    HW220595   5.429   1.808   3.397
 6566SOL     OW20596   3.757   6.341   2.327
 6566SOL    HW120597   3.769   6.275   2.401
 6566SOL    HW220598   3.702   6.300   2.254
 6567SOL     OW20599   4.259   0.841   2.830
 6567SOL    HW120600   4.323   0.897   2.778
 6567SOL    HW220601   4.189   0.804   2.769
 6568SOL     OW20602   3.299   0.745   3.480
 6568SOL    HW120603   3.335   0.667   3.429
 6568SOL    HW220604   3.295   0.721   3.577
 6569SOL     OW20605   2.921   3.403   6.841
 6569SOL    HW120606   2.984   3.476   6.867
 6569SOL    HW220607   2.973   3.328   6.799
 6570SOL     OW20608   3.928   0.738   2.233
 6570SOL    HW120609   3.890   0.782   2.315
 6570SOL    HW220610   3.949   0.642   2.254
 6571SOL     OW20611   3.184   5.130   1.252
 6571SOL    HW120612   3.085   5.143   1.260
 6571SOL    HW220613   3.203   5.032   1.245
 6572SOL     OW20614   6.653   4.773   5.598
 6572SOL    HW120615   6.560   4.751   5.569
 6572SOL    HW220616   6.712   4.781   5.518
 6573SOL     OW20617   1.423   1.624   2.086
 6573SOL    HW120618   1.409   1.560   2.010
 6573SOL    HW220619   1.467   1.576   2.161
 6574SOL     OW20620   3.072   5.713   2.098
 6574SOL    HW120621   3.074   5.630   2.042
 6574SOL    HW220622   2.978   5.736   2.120
 6575SOL     OW20623   1.005   6.878   3.370
 6575SOL    HW120624   1.004   6.904   3.274
 6575SOL    HW220625   0.920   6.832   3.394
 6576SOL     OW20626   2.122   6.016   6.441
 6576SOL    HW120627   2.071   6.092   6.400
 6576SOL    HW220628   2.128   5.941   6.374
 6577SOL     OW20629   0.683   0.953   4.174
 6577SOL    HW120630   0.596   0.968   4.220
 6577SOL    HW220631   0.727   1.041   4.157
 6578SOL     OW20632   1.236   5.376   3.488
 6578SOL    HW120633   1.220   5.338   3.397
 6578SOL    HW220634   1.158   5.433   3.515
 6579SOL     OW20635   6.743   3.562   4.647
 6579SOL    HW120636   6.760   3.473   4.687
 6579SOL    HW220637   6.825   3.619   4.654
 6580SOL     OW20638   0.633   2.753   1.099
 6580SOL    HW120639   0.583   2.667   1.091
 6580SOL    HW220640   0.728   2.734   1.122
 6581SOL     OW20641   3.123   0.557   6.768
 6581SOL    HW120642   3.045   0.495   6.759
 6581SOL    HW220643   3.202   0.518   6.720
 6582SOL     OW20644   0.950   1.517   2.101
 6582SOL    HW120645   0.962   1.455   2.179
 6582SOL    HW220646   0.862   1.499   2.057
 6583SOL     OW20647   4.600   0.952   5.239
 6583SOL    HW120648   4.614   0.992   5.330
 6583SOL    HW220649   4.566   1.023   5.177
 6584SOL     OW20650   4.534   3.030   1.307
 6584SOL    HW120651   4.501   2.968   1.378
 6584SOL    HW220652   4.576   2.977   1.233
 6585SOL     OW20653   5.612   0.035   0.028
 6585SOL    HW120654   5.602   7.000   6.981
 6585SOL    HW220655   5.689   0.007   0.086
 6586SOL     OW20656   0.257   1.817   5.024
 6586SOL    HW120657   0.204   1.843   5.105
 6586SOL    HW220658   0.298   1.727   5.038
 6587SOL     OW20659   2.075   6.451   5.064
 6587SOL    HW120660   2.027   6.370   5.099
 6587SOL    HW220661   2.164   6.423   5.027
 6588SOL     OW20662   0.985   3.741   1.518
 6588SOL    HW120663   0.942   3.809   1.577
 6588SOL    HW220664   1.060   3.697   1.566
 6589SOL     OW20665   5.427   1.316   0.194
 6589SOL    HW120666   5.511   1.355   0.155
 6589SOL    HW220667   5.420   1.220   0.169
 6590SOL     OW20668   0.850   0.870   6.173
 6590SOL    HW120669   0.810   0.961   6.172
 6590SOL    HW220670   0.784   0.805   6.211
 6591SOL     OW20671   5.364   5.575   2.649
 6591SOL    HW120672   5.459   5.569   2.617
 6591SOL    HW220673   5.327   5.482   2.658
 6592SOL     OW20674   5.512   0.084   3.762
 6592SOL    HW120675   5.580   0.116   3.827
 6592SOL    HW220676   5.457   0.013   3.804
 6593SOL     OW20677   2.128   2.271   2.265
 6593SOL    HW120678   2.153   2.363   2.236
 6593SOL    HW220679   2.210   2.214   2.270
 6594SOL     OW20680   3.710   1.740   0.185
 6594SOL    HW120681   3.767   1.689   0.121
 6594SOL    HW220682   3.615   1.739   0.155
 6595SOL     OW20683   0.633   3.687   6.616
 6595SOL    HW120684   0.652   3.616   6.685
 6595SOL    HW220685   0.546   3.731   6.636
 6596SOL     OW20686   3.307   6.317   4.576
 6596SOL    HW120687   3.329   6.327   4.674
 6596SOL    HW220688   3.209   6.332   4.562
 6597SOL     OW20689   1.518   5.284   1.692
 6597SOL    HW120690   1.488   5.298   1.786
 6597SOL    HW220691   1.513   5.187   1.669
 6598SOL     OW20692   1.832   6.194   4.445
 6598SOL    HW120693   1.845   6.195   4.346
 6598SOL    HW220694   1.781   6.112   4.471
 6599SOL     OW20695   4.774   6.623   6.419
 6599SOL    HW120696   4.767   6.669   6.507
 6599SOL    HW220697   4.870   6.623   6.389
 6600SOL     OW20698   5.011   4.886   4.933
 6600SOL    HW120699   4.952   4.825   4.986
 6600SOL    HW220700   5.014   4.856   4.837
 6601SOL     OW20701   1.786   2.188   5.298
 6601SOL    HW120702   1.707   2.206   5.239
 6601SOL    HW220703   1.793   2.260   5.367
 6602SOL     OW20704   1.300   1.040   1.958
 6602SOL    HW120705   1.210   1.064   1.994
 6602SOL    HW220706   1.336   0.962   2.009
 6603SOL     OW20707   6.821   2.507   3.811
 6603SOL    HW120708   6.908   2.555   3.800
 6603SOL    HW220709   6.764   2.555   3.878
 6604SOL     OW20710   1.884   0.156   0.668
 6604SOL    HW120711   1.830   0.072   0.672
 6604SOL    HW220712   1.930   0.169   0.756
 6605SOL     OW20713   5.411   4.078   1.861
 6605SOL    HW120714   5.459   4.165   1.848
 6605SOL    HW220715   5.387   4.068   1.958
 6606SOL     OW20716   6.956   6.244   1.780
 6606SOL    HW120717   6.928   6.247   1.876
 6606SOL    HW220718   7.023   6.316   1.763
 6607SOL     OW20719   1.774   3.407   2.251
 6607SOL    HW120720   1.865   3.408   2.210
 6607SOL    HW220721   1.705   3.411   2.178
 6608SOL     OW20722   5.954   6.553   1.050
 6608SOL    HW120723   5.935   6.542   1.147
 6608SOL    HW220724   6.020   6.628   1.037
 6609SOL     OW20725   4.595   0.687   6.160
 6609SOL    HW120726   4.625   0.610   6.104
 6609SOL    HW220727   4.577   0.654   6.253
 6610SOL     OW20728   3.183   6.903   6.612
 6610SOL    HW120729   3.154   6.820   6.565
 6610SOL    HW220730   3.112   6.974   6.601
 6611SOL     OW20731   5.032   2.418   3.641
 6611SOL    HW120732   5.125   2.385   3.625
 6611SOL    HW220733   4.992   2.369   3.719
 6612SOL     OW20734   5.371   2.493   5.669
 6612SOL    HW120735   5.386   2.571   5.730
 6612SOL    HW220736   5.448   2.485   5.605
 6613SOL     OW20737   6.350   6.594   5.319
 6613SOL    HW120738   6.420   6.664   5.304
 6613SOL    HW220739   6.334   6.544   5.233
 6614SOL     OW20740   5.372   6.343   0.660
 6614SOL    HW120741   5.431   6.358   0.581
 6614SOL    HW220742   5.277   6.358   0.633
 6615SOL     OW20743   1.353   5.378   2.449
 6615SOL    HW120744   1.351   5.356   2.546
 6615SOL    HW220745   1.327   5.474   2.436
 6616SOL     OW20746   4.347   1.008   6.385
 6616SOL    HW120747   4.343   0.960   6.298
 6616SOL    HW220748   4.286   1.088   6.382
 6617SOL     OW20749   4.533   5.016   3.382
 6617SOL    HW120750   4.539   5.112   3.354
 6617SOL    HW220751   4.439   4.993   3.404
 6618SOL     OW20752   1.002   2.692   2.386
 6618SOL    HW120753   1.071   2.668   2.318
 6618SOL    HW220754   0.917   2.643   2.367
 6619SOL     OW20755   6.165   6.507   3.611
 6619SOL    HW120756   6.102   6.540   3.541
 6619SOL    HW220757   6.246   6.468   3.568
 6620SOL     OW20758   1.948   2.960   5.133
 6620SOL    HW120759   2.033   2.911   5.113
 6620SOL    HW220760   1.952   2.998   5.226
 6621SOL     OW20761   3.115   3.080   5.781
 6621SOL    HW120762   3.067   3.072   5.868
 6621SOL    HW220763   3.115   2.992   5.734
 6622SOL     OW20764   5.814   6.893   1.237
 6622SOL    HW120765   5.812   6.878   1.336
 6622SOL    HW220766   5.908   6.912   1.208
 6623SOL     OW20767   2.939   3.231   5.621
 6623SOL    HW120768   2.852   3.236   5.669
 6623SOL    HW220769   3.012   3.207   5.685
 6624SOL     OW20770   0.301   5.050   6.395
 6624SOL    HW120771   0.203   5.040   6.410
 6624SOL    HW220772   0.318   5.079   6.301
 6625SOL     OW20773   5.274   1.792   5.599
 6625SOL    HW120774   5.249   1.739   5.518
 6625SOL    HW220775   5.294   1.886   5.573
 6626SOL     OW20776   4.293   5.067   5.105
 6626SOL    HW120777   4.340   5.143   5.151
 6626SOL    HW220778   4.351   4.985   5.111
 6627SOL     OW20779   2.344   6.082   4.550
 6627SOL    HW120780   2.280   6.147   4.591
 6627SOL    HW220781   2.406   6.131   4.489
 6628SOL     OW20782   4.576   4.946   4.822
 6628SOL    HW120783   4.645   4.884   4.860
 6628SOL    HW220784   4.492   4.896   4.803
 6629SOL     OW20785   4.695   6.146   6.962
 6629SOL    HW120786   4.640   6.071   7.001
 6629SOL    HW220787   4.692   6.140   6.862
 6630SOL     OW20788   4.190   1.353   1.738
 6630SOL    HW120789   4.215   1.400   1.653
 6630SOL    HW220790   4.090   1.352   1.747
 6631SOL     OW20791   2.604   5.377   3.417
 6631SOL    HW120792   2.507   5.375   3.393
 6631SOL    HW220793   2.653   5.435   3.353
 6632SOL     OW20794   0.235   0.029   1.399
 6632SOL    HW120795   0.190   0.113   1.429
 6632SOL    HW220796   0.273   7.010   1.478
 6633SOL     OW20797   1.002   4.583   6.131
 6633SOL    HW120798   1.066   4.640   6.182
 6633SOL    HW220799   1.053   4.522   6.070
 6634SOL     OW20800   5.294   2.112   4.294
 6634SOL    HW120801   5.261   2.055   4.219
 6634SOL    HW220802   5.286   2.209   4.269
 6635SOL     OW20803   4.502   4.878   3.127
 6635SOL    HW120804   4.504   4.940   3.205
 6635SOL    HW220805   4.437   4.912   3.059
 6636SOL     OW20806   5.167   1.872   6.093
 6636SOL    HW120807   5.217   1.870   6.007
 6636SOL    HW220808   5.196   1.951   6.147
 6637SOL     OW20809   1.452   6.949   6.892
 6637SOL    HW120810   1.424   6.864   6.937
 6637SOL    HW220811   1.413   6.952   6.800
 6638SOL     OW20812   3.168   3.971   3.666
 6638SOL    HW120813   3.179   3.940   3.760
 6638SOL    HW220814   3.240   4.036   3.643
 6639SOL     OW20815   5.189   4.969   6.293
 6639SOL    HW120816   5.201   5.067   6.274
 6639SOL    HW220817   5.228   4.916   6.218
 6640SOL     OW20818   1.481   1.573   4.847
 6640SOL    HW120819   1.576   1.573   4.877
 6640SOL    HW220820   1.449   1.478   4.838
 6641SOL     OW20821   1.886   2.194   6.426
 6641SOL    HW120822   1.821   2.248   6.478
 6641SOL    HW220823   1.838   2.121   6.377
 6642SOL     OW20824   2.220   5.552   6.867
 6642SOL    HW120825   2.234   5.600   6.781
 6642SOL    HW220826   2.280   5.471   6.870
 6643SOL     OW20827   6.211   4.887   0.414
 6643SOL    HW120828   6.191   4.790   0.411
 6643SOL    HW220829   6.126   4.938   0.430
 6644SOL     OW20830   2.471   5.624   1.688
 6644SOL    HW120831   2.499   5.530   1.705
 6644SOL    HW220832   2.471   5.675   1.774
 6645SOL     OW20833   6.360   5.104   0.529
 6645SOL    HW120834   6.302   5.085   0.450
 6645SOL    HW220835   6.377   5.202   0.535
 6646SOL     OW20836   4.386   0.845   4.433
 6646SOL    HW120837   4.428   0.810   4.349
 6646SOL    HW220838   4.449   0.907   4.478
 6647SOL     OW20839   4.950   1.112   1.163
 6647SOL    HW120840   4.973   1.153   1.075
 6647SOL    HW220841   4.970   1.014   1.161
 6648SOL     OW20842   4.445   6.355   3.669
 6648SOL    HW120843   4.538   6.323   3.684
 6648SOL    HW220844   4.404   6.381   3.757
 6649SOL     OW20845   5.001   1.047   6.597
 6649SOL    HW120846   5.095   1.047   6.630
 6649SOL    HW220847   4.948   1.115   6.648
 6650SOL     OW20848   3.993   1.508   5.295
 6650SOL    HW120849   3.961   1.496   5.389
 6650SOL    HW220850   3.942   1.446   5.235
 6651SOL     OW20851   2.028   1.772   5.524
 6651SOL    HW120852   2.032   1.867   5.494
 6651SOL    HW220853   1.984   1.716   5.453
 6652SOL     OW20854   0.989   4.194   0.795
 6652SOL    HW120855   1.036   4.277   0.824
 6652SOL    HW220856   1.050   4.138   0.739
 6653SOL     OW20857   3.229   4.065   2.702
 6653SOL    HW120858   3.312   4.100   2.658
 6653SOL    HW220859   3.199   3.982   2.654
 6654SOL     OW20860   1.218   4.815   1.277
 6654SOL    HW120861   1.218   4.720   1.309
 6654SOL    HW220862   1.283   4.824   1.201
 6655SOL     OW20863   1.080   6.972   3.825
 6655SOL    HW120864   1.112   6.891   3.774
 6655SOL    HW220865   0.990   6.999   3.792
 6656SOL     OW20866   6.066   1.642   4.218
 6656SOL    HW120867   6.123   1.710   4.263
 6656SOL    HW220868   5.987   1.686   4.177
 6657SOL     OW20869   5.984   5.344   6.024
 6657SOL    HW120870   5.998   5.397   6.108
 6657SOL    HW220871   5.965   5.405   5.948
 6658SOL     OW20872   6.860   1.217   4.534
 6658SOL    HW120873   6.841   1.283   4.461
 6658SOL    HW220874   6.939   1.248   4.587
 6659SOL     OW20875   1.851   2.686   0.707
 6659SOL    HW120876   1.944   2.668   0.674
 6659SOL    HW220877   1.792   2.710   0.629
 6660SOL     OW20878   0.966   4.637   1.332
 6660SOL    HW120879   1.016   4.721   1.356
 6660SOL    HW220880   0.920   4.650   1.244
 6661SOL     OW20881   1.149   6.399   4.927
 6661SOL    HW120882   1.092   6.320   4.948
 6661SOL    HW220883   1.205   6.380   4.847
 6662SOL     OW20884   1.381   0.234   6.668
 6662SOL    HW120885   1.444   0.161   6.642
 6662SOL    HW220886   1.432   0.318   6.685
 6663SOL     OW20887   6.540   4.655   4.126
 6663SOL    HW120888   6.562   4.672   4.222
 6663SOL    HW220889   6.524   4.557   4.112
 6664SOL     OW20890   2.047   6.357   0.479
 6664SOL    HW120891   2.001   6.318   0.559
 6664SOL    HW220892   1.979   6.399   0.418
 6665SOL     OW20893   1.989   5.845   4.433
 6665SOL    HW120894   2.088   5.854   4.422
 6665SOL    HW220895   1.966   5.751   4.458
 6666SOL     OW20896   6.150   0.210   5.873
 6666SOL    HW120897   6.109   0.162   5.950
 6666SOL    HW220898   6.096   0.291   5.851
 6667SOL     OW20899   6.579   6.005   6.518
 6667SOL    HW120900   6.556   6.088   6.468
 6667SOL    HW220901   6.654   6.023   6.581
 6668SOL     OW20902   6.910   5.324   1.075
 6668SOL    HW120903   6.961   5.239   1.091
 6668SOL    HW220904   6.812   5.305   1.076
 6669SOL     OW20905   1.770   2.499   2.769
 6669SOL    HW120906   1.701   2.504   2.841
 6669SOL    HW220907   1.751   2.569   2.700
 6670SOL     OW20908   3.536   1.560   5.565
 6670SOL    HW120909   3.485   1.622   5.505
 6670SOL    HW220910   3.473   1.499   5.612
 6671SOL     OW20911   5.957   6.420   0.520
 6671SOL    HW120912   6.020   6.355   0.562
 6671SOL    HW220913   5.866   6.409   0.559
 6672SOL     OW20914   6.323   2.353   6.767
 6672SOL    HW120915   6.291   2.258   6.764
 6672SOL    HW220916   6.309   2.396   6.678
 6673SOL     OW20917   4.749   5.445   4.184
 6673SOL    HW120918   4.765   5.372   4.251
 6673SOL    HW220919   4.831   5.502   4.176
 6674SOL     OW20920   0.603   4.359   5.976
 6674SOL    HW120921   0.510   4.323   5.964
 6674SOL    HW220922   0.664   4.319   5.907
 6675SOL     OW20923   4.552   3.335   1.294
 6675SOL    HW120924   4.546   3.237   1.274
 6675SOL    HW220925   4.559   3.349   1.392
 6676SOL     OW20926   0.366   3.808   5.278
 6676SOL    HW120927   0.415   3.750   5.214
 6676SOL    HW220928   0.319   3.881   5.228
 6677SOL     OW20929   1.586   1.227   6.215
 6677SOL    HW120930   1.570   1.292   6.289
 6677SOL    HW220931   1.644   1.269   6.145
 6678SOL     OW20932   3.326   3.257   6.445
 6678SOL    HW120933   3.291   3.182   6.501
 6678SOL    HW220934   3.350   3.334   6.504
 6679SOL     OW20935   3.308   0.989   4.073
 6679SOL    HW120936   3.339   1.073   4.027
 6679SOL    HW220937   3.357   0.979   4.159
 6680SOL     OW20938   4.899   6.670   6.978
 6680SOL    HW120939   4.952   6.736   0.003
 6680SOL    HW220940   4.872   6.594   0.007
 6681SOL     OW20941   3.541   6.276   1.481
 6681SOL    HW120942   3.587   6.268   1.570
 6681SOL    HW220943   3.548   6.370   1.449
 6682SOL     OW20944   0.318   4.695   2.601
 6682SOL    HW120945   0.240   4.734   2.649
 6682SOL    HW220946   0.354   4.618   2.654
 6683SOL     OW20947   5.739   3.223   5.275
 6683SOL    HW120948   5.657   3.278   5.286
 6683SOL    HW220949   5.718   3.143   5.219
 6684SOL     OW20950   2.915   0.436   1.278
 6684SOL    HW120951   2.907   0.526   1.235
 6684SOL    HW220952   2.843   0.377   1.244
 6685SOL     OW20953   6.620   3.702   5.950
 6685SOL    HW120954   6.569   3.616   5.944
 6685SOL    HW220955   6.710   3.689   5.908
 6686SOL     OW20956   5.386   5.984   4.508
 6686SOL    HW120957   5.386   6.083   4.518
 6686SOL    HW220958   5.444   5.958   4.431
 6687SOL     OW20959   1.077   3.565   0.317
 6687SOL    HW120960   1.011   3.639   0.323
 6687SOL    HW220961   1.060   3.498   0.390
 6688SOL     OW20962   6.754   3.941   2.661
 6688SOL    HW120963   6.780   3.993   2.743
 6688SOL    HW220964   6.825   3.874   2.641
 6689SOL     OW20965   4.317   2.883   0.719
 6689SOL    HW120966   4.348   2.951   0.652
 6689SOL    HW220967   4.286   2.929   0.802
 6690SOL     OW20968   1.547   1.505   0.861
 6690SOL    HW120969   1.484   1.493   0.937
 6690SOL    HW220970   1.635   1.537   0.896
 6691SOL     OW20971   2.802   6.408   2.015
 6691SOL    HW120972   2.799   6.316   2.052
 6691SOL    HW220973   2.724   6.421   1.953
 6692SOL     OW20974   3.743   3.714   5.389
 6692SOL    HW120975   3.694   3.684   5.471
 6692SOL    HW220976   3.796   3.637   5.352
 6693SOL     OW20977   4.285   3.531   5.265
 6693SOL    HW120978   4.359   3.582   5.308
 6693SOL    HW220979   4.243   3.471   5.333
 6694SOL     OW20980   3.619   5.599   0.906
 6694SOL    HW120981   3.708   5.645   0.909
 6694SOL    HW220982   3.626   5.509   0.950
 6695SOL     OW20983   2.922   1.926   0.602
 6695SOL    HW120984   2.827   1.955   0.615
 6695SOL    HW220985   2.952   1.872   0.681
 6696SOL     OW20986   2.685   3.241   5.758
 6696SOL    HW120987   2.617   3.202   5.820
 6696SOL    HW220988   2.668   3.339   5.748
 6697SOL     OW20989   4.541   2.567   2.778
 6697SOL    HW120990   4.624   2.512   2.775
 6697SOL    HW220991   4.566   2.664   2.787
 6698SOL     OW20992   2.602   2.578   1.690
 6698SOL    HW120993   2.565   2.591   1.598
 6698SOL    HW220994   2.632   2.484   1.701
 6699SOL     OW20995   2.513   5.769   6.058
 6699SOL    HW120996   2.425   5.810   6.035
 6699SOL    HW220997   2.518   5.676   6.021
 6700SOL     OW20998   6.898   6.296   1.485
 6700SOL    HW120999   6.909   6.394   1.501
 6700SOL    HW221000   6.986   6.250   1.497
 6701SOL     OW21001   5.260   3.834   2.121
 6701SOL    HW121002   5.213   3.817   2.034
 6701SOL    HW221003   5.322   3.759   2.140
 6702SOL     OW21004   3.484   1.929   1.853
 6702SOL    HW121005   3.553   1.995   1.823
 6702SOL    HW221006   3.419   1.974   1.914
 6703SOL     OW21007   5.949   2.059   6.666
 6703SOL    HW121008   5.926   2.014   6.752
 6703SOL    HW221009   5.871   2.115   6.636
 6704SOL     OW21010   3.069   1.728   3.173
 6704SOL    HW121011   3.108   1.644   3.211
 6704SOL    HW221012   3.111   1.747   3.084
 6705SOL     OW21013   6.818   2.891   1.701
 6705SOL    HW121014   6.722   2.883   1.674
 6705SOL    HW221015   6.877   2.866   1.625
 6706SOL     OW21016   1.275   3.762   2.424
 6706SOL    HW121017   1.237   3.695   2.360
 6706SOL    HW221018   1.344   3.817   2.377
 6707SOL     OW21019   6.834   5.979   3.208
 6707SOL    HW121020   6.903   5.939   3.269
 6707SOL    HW221021   6.748   5.991   3.259
 6708SOL     OW21022   6.698   5.721   1.926
 6708SOL    HW121023   6.697   5.808   1.877
 6708SOL    HW221024   6.632   5.658   1.885
 6709SOL     OW21025   3.023   6.061   3.318
 6709SOL    HW121026   2.961   5.985   3.339
 6709SOL    HW221027   3.056   6.051   3.224
 6710SOL     OW21028   3.769   0.673   5.729
 6710SOL    HW121029   3.684   0.645   5.774
 6710SOL    HW221030   3.835   0.702   5.799
 6711SOL     OW21031   4.333   5.445   6.092
 6711SOL    HW121032   4.402   5.380   6.061
 6711SOL    HW221033   4.378   5.526   6.130
 6712SOL     OW21034   5.549   4.100   0.049
 6712SOL    HW121035   5.586   4.172   0.108
 6712SOL    HW221036   5.535   4.017   0.103
 6713SOL     OW21037   2.232   7.006   2.411
 6713SOL    HW121038   2.237   0.070   2.448
 6713SOL    HW221039   2.303   6.949   2.453
 6714SOL     OW21040   5.877   0.808   5.888
 6714SOL    HW121041   5.778   0.791   5.890
 6714SOL    HW221042   5.901   0.871   5.962
 6715SOL     OW21043   0.648   0.119   0.246
 6715SOL    HW121044   0.714   0.055   0.207
 6715SOL    HW221045   0.691   0.170   0.321
 6716SOL     OW21046   0.668   5.866   1.595
 6716SOL    HW121047   0.673   5.896   1.499
 6716SOL    HW221048   0.581   5.897   1.634
 6717SOL     OW21049   4.225   3.140   0.135
 6717SOL    HW121050   4.129   3.162   0.118
 6717SOL    HW221051   4.235   3.041   0.149
 6718SOL     OW21052   5.078   0.591   0.474
 6718SOL    HW121053   5.053   0.507   0.425
 6718SOL    HW221054   5.005   0.614   0.539
 6719SOL     OW21055   2.725   0.329   6.566
 6719SOL    HW121056   2.775   0.415   6.579
 6719SOL    HW221057   2.708   0.288   6.656
 6720SOL     OW21058   1.383   6.852   4.244
 6720SOL    HW121059   1.396   6.896   4.333
 6720SOL    HW221060   1.471   6.818   4.211
 6721SOL     OW21061   6.821   0.337   0.038
 6721SOL    HW121062   6.920   0.330   0.035
 6721SOL    HW221063   6.795   0.431   0.063
 6722SOL     OW21064   6.769   2.674   1.438
 6722SOL    HW121065   6.851   2.667   1.494
 6722SOL    HW221066   6.738   2.582   1.413
 6723SOL     OW21067   2.824   6.408   3.138
 6723SOL    HW121068   2.765   6.374   3.211
 6723SOL    HW221069   2.769   6.452   3.068
 6724SOL     OW21070   1.476   3.234   5.389
 6724SOL    HW121071   1.426   3.210   5.306
 6724SOL    HW221072   1.573   3.248   5.367
 6725SOL     OW21073   0.332   3.848   1.293
 6725SOL    HW121074   0.396   3.849   1.369
 6725SOL    HW221075   0.371   3.795   1.217
 6726SOL     OW21076   0.542   1.826   5.175
 6726SOL    HW121077   0.572   1.784   5.090
 6726SOL    HW221078   0.482   1.762   5.225
 6727SOL     OW21079   6.831   4.436   5.191
 6727SOL    HW121080   6.731   4.435   5.190
 6727SOL    HW221081   6.865   4.423   5.098
 6728SOL     OW21082   3.651   1.806   2.851
 6728SOL    HW121083   3.558   1.783   2.878
 6728SOL    HW221084   3.679   1.749   2.774
 6729SOL     OW21085   6.880   0.862   3.032
 6729SOL    HW121086   6.871   0.889   2.936
 6729SOL    HW221087   6.792   0.826   3.064
 6730SOL     OW21088   2.717   6.838   0.151
 6730SOL    HW121089   2.813   6.856   0.173
 6730SOL    HW221090   2.660   6.911   0.190
 6731SOL     OW21091   0.814   5.931   1.861
 6731SOL    HW121092   0.813   5.867   1.937
 6731SOL    HW221093   0.755   5.897   1.788
 6732SOL     OW21094   5.746   4.791   5.200
 6732SOL    HW121095   5.711   4.870   5.149
 6732SOL    HW221096   5.816   4.745   5.146
 6733SOL     OW21097   4.149   5.322   0.309
 6733SOL    HW121098   4.226   5.336   0.246
 6733SOL    HW221099   4.174   5.352   0.401
 6734SOL     OW21100   6.181   2.169   4.907
 6734SOL    HW121101   6.107   2.221   4.865
 6734SOL    HW221102   6.235   2.124   4.835
 6735SOL     OW21103   6.727   4.332   4.751
 6735SOL    HW121104   6.760   4.312   4.659
 6735SOL    HW221105   6.648   4.274   4.772
 6736SOL     OW21106   3.454   3.665   6.939
 6736SOL    HW121107   3.394   3.610   6.997
 6736SOL    HW221108   3.516   3.605   6.888
 6737SOL     OW21109   2.127   2.514   0.562
 6737SOL    HW121110   2.198   2.491   0.629
 6737SOL    HW221111   2.111   2.613   0.564
 6738SOL     OW21112   1.847   5.480   2.546
 6738SOL    HW121113   1.787   5.558   2.528
 6738SOL    HW221114   1.793   5.403   2.580
 6739SOL     OW21115   3.704   6.166   5.429
 6739SOL    HW121116   3.611   6.154   5.394
 6739SOL    HW221117   3.707   6.137   5.525
 6740SOL     OW21118   1.895   0.346   4.448
 6740SOL    HW121119   1.914   0.440   4.417
 6740SOL    HW221120   1.796   0.336   4.464
 6741SOL     OW21121   4.485   1.117   5.524
 6741SOL    HW121122   4.456   1.024   5.544
 6741SOL    HW221123   4.573   1.116   5.477
 6742SOL     OW21124   6.589   6.062   2.996
 6742SOL    HW121125   6.686   6.062   3.017
 6742SOL    HW221126   6.576   6.084   2.899
 6743SOL     OW21127   3.609   4.515   0.449
 6743SOL    HW121128   3.575   4.606   0.474
 6743SOL    HW221129   3.668   4.480   0.521
 6744SOL     OW21130   5.796   4.099   6.499
 6744SOL    HW121131   5.713   4.146   6.530
 6744SOL    HW221132   5.856   4.164   6.453
 6745SOL     OW21133   6.828   0.336   2.975
 6745SOL    HW121134   6.857   0.242   2.990
 6745SOL    HW221135   6.837   0.388   3.060
 6746SOL     OW21136   1.120   0.877   3.302
 6746SOL    HW121137   1.124   0.956   3.364
 6746SOL    HW221138   1.201   0.877   3.244
 6747SOL     OW21139   5.884   1.090   5.026
 6747SOL    HW121140   5.975   1.103   4.988
 6747SOL    HW221141   5.815   1.112   4.957
 6748SOL     OW21142   1.938   0.921   3.761
 6748SOL    HW121143   2.010   0.989   3.743
 6748SOL    HW221144   1.920   0.869   3.678
 6749SOL     OW21145   2.784   6.551   0.077
 6749SOL    HW121146   2.754   6.646   0.083
 6749SOL    HW221147   2.711   6.495   0.038
 6750SOL     OW21148   4.125   2.162   5.269
 6750SOL    HW121149   4.084   2.127   5.185
 6750SOL    HW221150   4.062   2.149   5.345
 6751SOL     OW21151   4.315   0.218   3.770
 6751SOL    HW121152   4.399   0.209   3.717
 6751SOL    HW221153   4.243   0.255   3.711
 6752SOL     OW21154   0.234   2.461   2.658
 6752SOL    HW121155   0.273   2.528   2.594
 6752SOL    HW221156   0.277   2.372   2.642
 6753SOL     OW21157   4.135   1.149   6.346
 6753SOL    HW121158   4.084   1.209   6.284
 6753SOL    HW221159   4.073   1.113   6.416
 6754SOL     OW21160   0.244   1.700   0.084
 6754SOL    HW121161   0.219   1.662   0.173
 6754SOL    HW221162   0.342   1.691   0.071
 6755SOL     OW21163   3.719   0.587   3.604
 6755SOL    HW121164   3.731   0.589   3.505
 6755SOL    HW221165   3.749   0.675   3.643
 6756SOL     OW21166   3.982   5.160   5.246
 6756SOL    HW121167   3.921   5.088   5.213
 6756SOL    HW221168   4.030   5.128   5.328
 6757SOL     OW21169   4.153   0.852   2.059
 6757SOL    HW121170   4.227   0.791   2.085
 6757SOL    HW221171   4.084   0.853   2.131
 6758SOL     OW21172   6.671   2.338   1.555
 6758SOL    HW121173   6.658   2.427   1.598
 6758SOL    HW221174   6.629   2.267   1.611
 6759SOL     OW21175   1.070   4.409   4.360
 6759SOL    HW121176   1.090   4.447   4.451
 6759SOL    HW221177   0.989   4.351   4.366
 6760SOL     OW21178   6.119   4.289   3.524
 6760SOL    HW121179   6.134   4.308   3.427
 6760SOL    HW221180   6.021   4.279   3.542
 6761SOL     OW21181   6.458   2.268   6.071
 6761SOL    HW121182   6.483   2.347   6.128
 6761SOL    HW221183   6.371   2.231   6.103
 6762SOL     OW21184   0.247   5.284   3.656
 6762SOL    HW121185   0.286   5.374   3.643
 6762SOL    HW221186   0.147   5.290   3.654
 6763SOL     OW21187   0.518   4.731   3.070
 6763SOL    HW121188   0.615   4.750   3.057
 6763SOL    HW221189   0.494   4.740   3.167
 6764SOL     OW21190   2.378   5.068   6.886
 6764SOL    HW121191   2.410   5.022   6.802
 6764SOL    HW221192   2.370   5.166   6.869
 6765SOL     OW21193   5.531   4.326   3.717
 6765SOL    HW121194   5.503   4.301   3.810
 6765SOL    HW221195   5.619   4.373   3.719
 6766SOL     OW21196   5.201   6.832   6.253
 6766SOL    HW121197   5.276   6.790   6.201
 6766SOL    HW221198   5.235   6.913   6.300
 6767SOL     OW21199   1.343   2.067   0.709
 6767SOL    HW121200   1.406   2.089   0.635
 6767SOL    HW221201   1.354   1.971   0.734
 6768SOL     OW21202   1.018   6.292   3.611
 6768SOL    HW121203   0.963   6.229   3.556
 6768SOL    HW221204   1.063   6.359   3.551
 6769SOL     OW21205   2.456   0.082   5.947
 6769SOL    HW121206   2.422   7.017   5.939
 6769SOL    HW221207   2.473   0.103   6.043
 6770SOL     OW21208   4.913   1.951   3.729
 6770SOL    HW121209   4.930   1.900   3.813
 6770SOL    HW221210   4.981   1.925   3.660
 6771SOL     OW21211   3.838   1.183   2.184
 6771SOL    HW121212   3.873   1.117   2.118
 6771SOL    HW221213   3.824   1.271   2.139
 6772SOL     OW21214   4.687   2.257   2.716
 6772SOL    HW121215   4.598   2.245   2.674
 6772SOL    HW221216   4.682   2.235   2.813
 6773SOL     OW21217   0.158   6.461   1.823
 6773SOL    HW121218   0.132   6.499   1.912
 6773SOL    HW221219   0.177   6.535   1.759
 6774SOL     OW21220   1.539   3.178   4.330
 6774SOL    HW121221   1.510   3.227   4.412
 6774SOL    HW221222   1.499   3.221   4.249
 6775SOL     OW21223   0.865   2.216   3.507
 6775SOL    HW121224   0.954   2.256   3.485
 6775SOL    HW221225   0.870   2.117   3.497
 6776SOL     OW21226   4.338   4.098   0.767
 6776SOL    HW121227   4.280   4.087   0.686
 6776SOL    HW221228   4.284   4.078   0.849
 6777SOL     OW21229   4.544   5.464   0.865
 6777SOL    HW121230   4.491   5.483   0.782
 6777SOL    HW221231   4.488   5.486   0.945
 6778SOL     OW21232   5.894   3.849   2.038
 6778SOL    HW121233   5.883   3.858   1.939
 6778SOL    HW221234   5.992   3.839   2.060
 6779SOL     OW21235   5.275   4.542   5.997
 6779SOL    HW121236   5.322   4.455   5.980
 6779SOL    HW221237   5.185   4.524   6.035
 6780SOL     OW21238   0.444   3.122   3.102
 6780SOL    HW121239   0.506   3.180   3.049
 6780SOL    HW221240   0.393   3.062   3.041
 6781SOL     OW21241   6.872   1.732   4.465
 6781SOL    HW121242   6.822   1.669   4.405
 6781SOL    HW221243   6.808   1.794   4.509
 6782SOL     OW21244   0.715   1.051   3.312
 6782SOL    HW121245   0.695   1.142   3.276
 6782SOL    HW221246   0.736   0.989   3.236
 6783SOL     OW21247   0.911   2.520   6.432
 6783SOL    HW121248   0.907   2.530   6.333
 6783SOL    HW221249   0.924   2.424   6.455
 6784SOL     OW21250   2.617   3.645   0.747
 6784SOL    HW121251   2.567   3.685   0.670
 6784SOL    HW221252   2.653   3.555   0.720
 6785SOL     OW21253   5.578   4.964   4.944
 6785SOL    HW121254   5.657   4.937   4.888
 6785SOL    HW221255   5.496   4.964   4.888
 6786SOL     OW21256   0.823   2.738   0.086
 6786SOL    HW121257   0.891   2.729   0.159
 6786SOL    HW221258   0.834   2.825   0.040
 6787SOL     OW21259   3.468   2.351   0.952
 6787SOL    HW121260   3.389   2.409   0.971
 6787SOL    HW221261   3.442   2.254   0.959
 6788SOL     OW21262   0.172   4.639   2.140
 6788SOL    HW121263   0.201   4.735   2.130
 6788SOL    HW221264   0.231   4.581   2.084
 6789SOL     OW21265   0.262   4.369   4.000
 6789SOL    HW121266   0.218   4.428   4.068
 6789SOL    HW221267   0.217   4.280   3.998
 6790SOL     OW21268   0.923   4.083   6.806
 6790SOL    HW121269   0.984   4.004   6.813
 6790SOL    HW221270   0.907   4.121   6.898
 6791SOL     OW21271   3.962   2.185   2.506
 6791SOL    HW121272   3.949   2.201   2.604
 6791SOL    HW221273   4.052   2.220   2.478
 6792SOL     OW21274   5.453   0.135   5.785
 6792SOL    HW121275   5.426   0.150   5.690
 6792SOL    HW221276   5.466   0.037   5.800
 6793SOL     OW21277   3.797   1.029   6.903
 6793SOL    HW121278   3.755   0.951   6.950
 6793SOL    HW221279   3.734   1.063   6.832
 6794SOL     OW21280   5.588   1.261   5.037
 6794SOL    HW121281   5.560   1.302   5.124
 6794SOL    HW221282   5.572   1.325   4.962
 6795SOL     OW21283   1.156   5.752   0.547
 6795SOL    HW121284   1.237   5.808   0.530
 6795SOL    HW221285   1.136   5.698   0.465
 6796SOL     OW21286   6.328   0.111   2.467
 6796SOL    HW121287   6.328   0.016   2.435
 6796SOL    HW221288   6.408   0.159   2.431
 6797SOL     OW21289   6.524   1.859   1.948
 6797SOL    HW121290   6.614   1.839   1.910
 6797SOL    HW221291   6.535   1.900   2.039
 6798SOL     OW21292   6.474   6.922   2.013
 6798SOL    HW121293   6.382   6.960   2.006
 6798SOL    HW221294   6.475   6.830   1.973
 6799SOL     OW21295   5.992   0.125   2.287
 6799SOL    HW121296   6.088   0.152   2.278
 6799SOL    HW221297   5.972   0.050   2.224
 6800SOL     OW21298   2.509   2.477   2.145
 6800SOL    HW121299   2.509   2.540   2.068
 6800SOL    HW221300   2.570   2.400   2.126
 6801SOL     OW21301   1.145   6.856   4.107
 6801SOL    HW121302   1.148   6.900   4.018
 6801SOL    HW221303   1.236   6.861   4.150
 6802SOL     OW21304   3.140   6.252   1.444
 6802SOL    HW121305   3.167   6.312   1.368
 6802SOL    HW221306   3.066   6.295   1.496
 6803SOL     OW21307   4.082   4.326   6.779
 6803SOL    HW121308   4.155   4.299   6.716
 6803SOL    HW221309   4.037   4.245   6.815
 6804SOL     OW21310   4.162   5.127   2.912
 6804SOL    HW121311   4.199   5.035   2.914
 6804SOL    HW221312   4.065   5.124   2.937
 6805SOL     OW21313   0.343   5.357   6.489
 6805SOL    HW121314   0.366   5.342   6.393
 6805SOL    HW221315   0.336   5.268   6.535
 6806SOL     OW21316   6.496   0.971   4.435
 6806SOL    HW121317   6.496   1.004   4.341
 6806SOL    HW221318   6.588   0.944   4.461
 6807SOL     OW21319   3.654   3.530   2.577
 6807SOL    HW121320   3.666   3.588   2.658
 6807SOL    HW221321   3.677   3.436   2.600
 6808SOL     OW21322   6.791   1.630   5.408
 6808SOL    HW121323   6.873   1.633   5.466
 6808SOL    HW221324   6.744   1.718   5.412
 6809SOL     OW21325   6.325   2.953   0.966
 6809SOL    HW121326   6.411   3.004   0.974
 6809SOL    HW221327   6.284   2.972   0.876
 6810SOL     OW21328   2.696   1.219   1.910
 6810SOL    HW121329   2.772   1.242   1.849
 6810SOL    HW221330   2.661   1.302   1.952
 6811SOL     OW21331   6.249   3.558   2.453
 6811SOL    HW121332   6.319   3.506   2.502
 6811SOL    HW221333   6.290   3.642   2.417
 6812SOL     OW21334   3.719   3.993   4.929
 6812SOL    HW121335   3.803   3.972   4.979
 6812SOL    HW221336   3.742   4.035   4.842
 6813SOL     OW21337   5.797   3.120   2.733
 6813SOL    HW121338   5.848   3.206   2.728
 6813SOL    HW221339   5.843   3.057   2.795
 6814SOL     OW21340   4.752   1.955   6.240
 6814SOL    HW121341   4.819   2.028   6.231
 6814SOL    HW221342   4.684   1.980   6.309
 6815SOL     OW21343   2.589   6.673   6.404
 6815SOL    HW121344   2.671   6.628   6.438
 6815SOL    HW221345   2.530   6.606   6.359
 6816SOL     OW21346   6.930   1.081   5.812
 6816SOL    HW121347   6.855   1.074   5.746
 6816SOL    HW221348   6.892   1.086   5.905
 6817SOL     OW21349   2.139   2.896   3.768
 6817SOL    HW121350   2.101   2.986   3.747
 6817SOL    HW221351   2.125   2.876   3.864
 6818SOL     OW21352   2.104   6.777   0.430
 6818SOL    HW121353   2.011   6.743   0.446
 6818SOL    HW221354   2.161   6.703   0.394
 6819SOL     OW21355   4.213   1.388   3.323
 6819SOL    HW121356   4.308   1.358   3.326
 6819SOL    HW221357   4.161   1.344   3.396
 6820SOL     OW21358   1.388   6.030   1.770
 6820SOL    HW121359   1.317   5.962   1.751
 6820SOL    HW221360   1.411   6.079   1.686
 6821SOL     OW21361   4.314   2.686   5.376
 6821SOL    HW121362   4.303   2.617   5.304
 6821SOL    HW221363   4.225   2.721   5.402
 6822SOL     OW21364   5.871   2.541   5.650
 6822SOL    HW121365   5.856   2.551   5.552
 6822SOL    HW221366   5.794   2.492   5.691
 6823SOL     OW21367   5.882   4.506   6.032
 6823SOL    HW121368   5.841   4.576   5.973
 6823SOL    HW221369   5.965   4.542   6.074
 6824SOL     OW21370   1.343   1.482   0.560
 6824SOL    HW121371   1.366   1.419   0.634
 6824SOL    HW221372   1.414   1.551   0.552
 6825SOL     OW21373   6.174   0.630   0.374
 6825SOL    HW121374   6.270   0.653   0.361
 6825SOL    HW221375   6.142   0.665   0.462
 6826SOL     OW21376   1.842   3.673   3.781
 6826SOL    HW121377   1.921   3.676   3.843
 6826SOL    HW221378   1.818   3.766   3.752
 6827SOL     OW21379   5.494   5.451   6.329
 6827SOL    HW121380   5.541   5.533   6.359
 6827SOL    HW221381   5.471   5.395   6.408
 6828SOL     OW21382   3.781   1.756   2.381
 6828SOL    HW121383   3.708   1.825   2.383
 6828SOL    HW221384   3.865   1.796   2.345
 6829SOL     OW21385   5.465   6.437   5.191
 6829SOL    HW121386   5.530   6.362   5.173
 6829SOL    HW221387   5.509   6.508   5.245
 6830SOL     OW21388   4.763   0.551   3.559
 6830SOL    HW121389   4.742   0.530   3.464
 6830SOL    HW221390   4.694   0.510   3.619
 6831SOL     OW21391   1.858   1.376   5.578
 6831SOL    HW121392   1.823   1.404   5.667
 6831SOL    HW221393   1.931   1.309   5.591
 6832SOL     OW21394   2.210   4.321   0.817
 6832SOL    HW121395   2.196   4.418   0.794
 6832SOL    HW221396   2.287   4.285   0.766
 6833SOL     OW21397   2.448   4.481   6.130
 6833SOL    HW121398   2.401   4.423   6.196
 6833SOL    HW221399   2.511   4.543   6.179
 6834SOL     OW21400   6.732   6.828   0.735
 6834SOL    HW121401   6.709   6.766   0.660
 6834SOL    HW221402   6.804   6.891   0.706
 6835SOL     OW21403   3.579   1.310   4.410
 6835SOL    HW121404   3.618   1.316   4.318
 6835SOL    HW221405   3.546   1.216   4.427
 6836SOL     OW21406   2.673   4.230   6.445
 6836SOL    HW121407   2.620   4.203   6.525
 6836SOL    HW221408   2.749   4.289   6.473
 6837SOL     OW21409   0.620   2.035   3.347
 6837SOL    HW121410   0.711   2.009   3.381
 6837SOL    HW221411   0.622   2.041   3.247
 6838SOL     OW21412   2.760   4.896   6.593
 6838SOL    HW121413   2.850   4.937   6.600
 6838SOL    HW221414   2.733   4.889   6.497
 6839SOL     OW21415   5.096   1.088   5.043
 6839SOL    HW121416   5.050   1.067   5.130
 6839SOL    HW221417   5.044   1.159   4.995
 6840SOL     OW21418   3.094   6.408   5.361
 6840SOL    HW121419   3.010   6.454   5.388
 6840SOL    HW221420   3.131   6.451   5.279
 6841SOL     OW21421   3.743   4.909   0.740
 6841SOL    HW121422   3.772   4.813   0.739
 6841SOL    HW221423   3.745   4.943   0.834
 6842SOL     OW21424   2.605   2.911   0.211
 6842SOL    HW121425   2.656   2.996   0.193
 6842SOL    HW221426   2.562   2.880   0.127
 6843SOL     OW21427   5.548   0.083   1.697
 6843SOL    HW121428   5.592   0.065   1.609
 6843SOL    HW221429   5.533   7.024   1.744
 6844SOL     OW21430   5.693   6.848   3.860
 6844SOL    HW121431   5.769   6.885   3.806
 6844SOL    HW221432   5.707   6.751   3.875
 6845SOL     OW21433   5.474   4.478   2.432
 6845SOL    HW121434   5.403   4.452   2.367
 6845SOL    HW221435   5.561   4.492   2.384
 6846SOL     OW21436   4.232   3.146   1.348
 6846SOL    HW121437   4.325   3.122   1.322
 6846SOL    HW221438   4.191   3.204   1.277
 6847SOL     OW21439   6.820   4.703   2.757
 6847SOL    HW121440   6.898   4.732   2.813
 6847SOL    HW221441   6.753   4.658   2.815
 6848SOL     OW21442   3.232   6.225   3.337
 6848SOL    HW121443   3.217   6.306   3.394
 6848SOL    HW221444   3.154   6.163   3.346
 6849SOL     OW21445   3.430   5.573   4.948
 6849SOL    HW121446   3.379   5.536   4.871
 6849SOL    HW221447   3.391   5.537   5.034
 6850SOL     OW21448   5.782   3.418   2.112
 6850SOL    HW121449   5.787   3.517   2.129
 6850SOL    HW221450   5.693   3.397   2.071
 6851SOL     OW21451   1.273   2.839   3.661
 6851SOL    HW121452   1.341   2.859   3.590
 6851SOL    HW221453   1.248   2.742   3.656
 6852SOL     OW21454   1.741   4.774   0.991
 6852SOL    HW121455   1.798   4.816   1.062
 6852SOL    HW221456   1.647   4.767   1.025
 6853SOL     OW21457   0.180   3.970   0.058
 6853SOL    HW121458   0.183   3.919   7.000
 6853SOL    HW221459   0.226   4.058   0.046
 6854SOL     OW21460   6.160   2.034   5.960
 6854SOL    HW121461   6.201   2.017   5.870
 6854SOL    HW221462   6.229   2.068   6.023
 6855SOL     OW21463   3.003   5.788   2.824
 6855SOL    HW121464   2.906   5.805   2.846
 6855SOL    HW221465   3.036   5.711   2.878
 6856SOL     OW21466   5.239   4.672   5.620
 6856SOL    HW121467   5.151   4.646   5.580
 6856SOL    HW221468   5.282   4.591   5.661
 6857SOL     OW21469   3.090   1.680   0.375
 6857SOL    HW121470   3.020   1.608   0.386
 6857SOL    HW221471   3.068   1.757   0.434
 6858SOL     OW21472   3.838   3.579   4.043
 6858SOL    HW121473   3.745   3.556   4.012
 6858SOL    HW221474   3.832   3.622   4.133
 6859SOL     OW21475   1.244   0.171   1.050
 6859SOL    HW121476   1.220   0.263   1.078
 6859SOL    HW221477   1.308   0.175   0.973
 6860SOL     OW21478   5.792   5.646   1.194
 6860SOL    HW121479   5.720   5.593   1.238
 6860SOL    HW221480   5.845   5.588   1.134
 6861SOL     OW21481   5.829   4.356   1.172
 6861SOL    HW121482   5.864   4.293   1.241
 6861SOL    HW221483   5.896   4.427   1.154
 6862SOL     OW21484   2.091   4.936   4.871
 6862SOL    HW121485   1.993   4.923   4.858
 6862SOL    HW221486   2.122   4.883   4.950
 6863SOL     OW21487   6.045   1.453   5.115
 6863SOL    HW121488   6.065   1.518   5.042
 6863SOL    HW221489   6.108   1.375   5.108
 6864SOL     OW21490   3.377   6.097   4.031
 6864SOL    HW121491   3.298   6.155   4.050
 6864SOL    HW221492   3.367   6.055   3.942
 6865SOL     OW21493   0.093   5.552   2.840
 6865SOL    HW121494   0.078   5.631   2.780
 6865SOL    HW221495   0.026   5.552   2.913
 6866SOL     OW21496   6.863   4.845   2.536
 6866SOL    HW121497   6.956   4.818   2.508
 6866SOL    HW221498   6.830   4.780   2.604
 6867SOL     OW21499   1.568   5.094   1.372
 6867SOL    HW121500   1.525   5.175   1.412
 6867SOL    HW221501   1.591   5.113   1.277
 6868SOL     OW21502   1.034   5.105   5.871
 6868SOL    HW121503   1.038   5.156   5.957
 6868SOL    HW221504   1.072   5.014   5.884
 6869SOL     OW21505   5.629   0.836   4.972
 6869SOL    HW121506   5.583   0.754   4.940
 6869SOL    HW221507   5.727   0.821   4.975
 6870SOL     OW21508   6.941   5.147   2.035
 6870SOL    HW121509   6.975   5.070   1.981
 6870SOL    HW221510   7.009   5.170   2.105
 6871SOL     OW21511   5.943   4.343   2.800
 6871SOL    HW121512   5.897   4.274   2.745
 6871SOL    HW221513   5.888   4.364   2.881
 6872SOL     OW21514   0.704   3.387   1.144
 6872SOL    HW121515   0.793   3.353   1.174
 6872SOL    HW221516   0.656   3.316   1.093
 6873SOL     OW21517   6.491   3.966   5.101
 6873SOL    HW121518   6.556   4.032   5.064
 6873SOL    HW221519   6.540   3.894   5.150
 6874SOL     OW21520   1.138   5.048   2.528
 6874SOL    HW121521   1.173   5.012   2.441
 6874SOL    HW221522   1.206   5.108   2.569
 6875SOL     OW21523   1.272   2.503   3.185
 6875SOL    HW121524   1.316   2.575   3.240
 6875SOL    HW221525   1.276   2.529   3.088
 6876SOL     OW21526   4.032   6.566   4.971
 6876SOL    HW121527   4.108   6.503   4.955
 6876SOL    HW221528   3.994   6.550   5.062
 6877SOL     OW21529   2.518   4.315   7.001
 6877SOL    HW121530   2.485   4.223   6.979
 6877SOL    HW221531   2.473   4.348   0.056
 6878SOL     OW21532   2.915   2.140   5.503
 6878SOL    HW121533   2.982   2.155   5.576
 6878SOL    HW221534   2.957   2.162   5.415
 6879SOL     OW21535   1.146   2.100   0.421
 6879SOL    HW121536   1.173   2.190   0.387
 6879SOL    HW221537   1.103   2.110   0.511
 6880SOL     OW21538   1.931   3.586   4.922
 6880SOL    HW121539   2.017   3.569   4.970
 6880SOL    HW221540   1.922   3.521   4.846
 6881SOL     OW21541   0.731   4.038   2.314
 6881SOL    HW121542   0.765   4.123   2.273
 6881SOL    HW221543   0.809   3.985   2.349
 6882SOL     OW21544   3.250   0.254   6.421
 6882SOL    HW121545   3.270   0.179   6.358
 6882SOL    HW221546   3.167   0.233   6.473
 6883SOL     OW21547   4.051   1.645   0.384
 6883SOL    HW121548   3.995   1.690   0.454
 6883SOL    HW221549   4.060   1.706   0.305
 6884SOL     OW21550   1.779   3.969   4.480
 6884SOL    HW121551   1.817   3.902   4.544
 6884SOL    HW221552   1.683   3.986   4.503
 6885SOL     OW21553   4.153   6.299   4.764
 6885SOL    HW121554   4.151   6.238   4.843
 6885SOL    HW221555   4.078   6.277   4.702
 6886SOL     OW21556   6.732   0.450   4.203
 6886SOL    HW121557   6.714   0.431   4.299
 6886SOL    HW221558   6.660   0.509   4.166
 6887SOL     OW21559   5.162   6.525   5.198
 6887SOL    HW121560   5.212   6.547   5.282
 6887SOL    HW221561   5.164   6.427   5.183
 6888SOL     OW21562   5.413   6.265   6.553
 6888SOL    HW121563   5.372   6.211   6.627
 6888SOL    HW221564   5.508   6.237   6.541
 6889SOL     OW21565   1.614   2.494   4.998
 6889SOL    HW121566   1.611   2.394   5.008
 6889SOL    HW221567   1.684   2.531   5.060
 6890SOL     OW21568   3.484   0.118   1.108
 6890SOL    HW121569   3.511   0.072   1.193
 6890SOL    HW221570   3.479   0.052   1.034
 6891SOL     OW21571   2.337   4.918   4.206
 6891SOL    HW121572   2.264   4.870   4.157
 6891SOL    HW221573   2.350   4.877   4.296
 6892SOL     OW21574   3.222   1.534   3.339
 6892SOL    HW121575   3.165   1.499   3.413
 6892SOL    HW221576   3.291   1.465   3.314
 6893SOL     OW21577   5.502   5.343   6.597
 6893SOL    HW121578   5.469   5.402   6.670
 6893SOL    HW221579   5.470   5.249   6.612
 6894SOL     OW21580   6.157   4.626   0.393
 6894SOL    HW121581   6.067   4.590   0.418
 6894SOL    HW221582   6.174   4.609   0.296
 6895SOL     OW21583   2.325   5.466   6.320
 6895SOL    HW121584   2.396   5.416   6.269
 6895SOL    HW221585   2.246   5.480   6.261
 6896SOL     OW21586   1.534   6.881   3.692
 6896SOL    HW121587   1.478   6.829   3.755
 6896SOL    HW221588   1.503   6.976   3.690
 6897SOL     OW21589   2.704   3.145   0.114
 6897SOL    HW121590   2.776   3.146   0.045
 6897SOL    HW221591   2.688   3.238   0.148
 6898SOL     OW21592   3.930   1.174   2.449
 6898SOL    HW121593   3.929   1.256   2.506
 6898SOL    HW221594   3.899   1.197   2.356
 6899SOL     OW21595   5.061   6.628   1.394
 6899SOL    HW121596   5.113   6.605   1.312
 6899SOL    HW221597   5.035   6.724   1.392
 6900SOL     OW21598   6.635   0.234   5.641
 6900SOL    HW121599   6.570   0.298   5.599
 6900SOL    HW221600   6.617   0.142   5.608
 6901SOL     OW21601   0.548   6.803   5.928
 6901SOL    HW121602   0.457   6.789   5.888
 6901SOL    HW221603   0.557   6.749   6.012
 6902SOL     OW21604   5.728   6.941   0.552
 6902SOL    HW121605   5.744   6.850   0.514
 6902SOL    HW221606   5.644   6.941   0.605
 6903SOL     OW21607   4.133   5.575   4.621
 6903SOL    HW121608   4.124   5.555   4.523
 6903SOL    HW221609   4.083   5.508   4.674
 6904SOL     OW21610   5.917   1.846   4.086
 6904SOL    HW121611   5.964   1.890   4.009
 6904SOL    HW221612   5.818   1.857   4.076
 6905SOL     OW21613   6.117   6.721   7.014
 6905SOL    HW121614   6.202   6.713   6.961
 6905SOL    HW221615   6.101   6.817   0.009
 6906SOL     OW21616   4.568   1.089   4.179
 6906SOL    HW121617   4.566   1.119   4.084
 6906SOL    HW221618   4.663   1.090   4.213
 6907SOL     OW21619   5.068   2.351   1.100
 6907SOL    HW121620   5.067   2.294   1.018
 6907SOL    HW221621   4.977   2.354   1.141
 6908SOL     OW21622   1.369   5.907   6.594
 6908SOL    HW121623   1.334   5.953   6.513
 6908SOL    HW221624   1.389   5.975   6.665
 6909SOL     OW21625   6.250   3.944   1.563
 6909SOL    HW121626   6.237   3.988   1.652
 6909SOL    HW221627   6.231   3.846   1.571
 6910SOL     OW21628   0.368   2.404   3.804
 6910SOL    HW121629   0.413   2.428   3.890
 6910SOL    HW221630   0.437   2.384   3.735
 6911SOL     OW21631   4.714   6.254   3.619
 6911SOL    HW121632   4.702   6.158   3.594
 6911SOL    HW221633   4.808   6.282   3.602
 6912SOL     OW21634   3.542   4.822   0.531
 6912SOL    HW121635   3.621   4.852   0.585
 6912SOL    HW221636   3.476   4.896   0.524
 6913SOL     OW21637   5.278   4.773   5.114
 6913SOL    HW121638   5.288   4.852   5.175
 6913SOL    HW221639   5.264   4.690   5.168
 6914SOL     OW21640   5.512   4.446   6.939
 6914SOL    HW121641   5.528   4.430   6.842
 6914SOL    HW221642   5.463   4.533   6.951
 6915SOL     OW21643   6.119   4.012   1.812
 6915SOL    HW121644   6.022   3.988   1.812
 6915SOL    HW221645   6.137   4.081   1.882
 6916SOL     OW21646   6.339   3.821   6.789
 6916SOL    HW121647   6.292   3.879   6.856
 6916SOL    HW221648   6.403   3.877   6.736
 6917SOL     OW21649   3.090   5.506   1.212
 6917SOL    HW121650   3.061   5.516   1.307
 6917SOL    HW221651   3.187   5.481   1.209
 6918SOL     OW21652   0.767   3.166   4.345
 6918SOL    HW121653   0.681   3.161   4.293
 6918SOL    HW221654   0.838   3.115   4.296
 6919SOL     OW21655   0.696   6.534   2.843
 6919SOL    HW121656   0.773   6.499   2.895
 6919SOL    HW221657   0.699   6.634   2.842
 6920SOL     OW21658   4.461   5.644   5.536
 6920SOL    HW121659   4.396   5.650   5.461
 6920SOL    HW221660   4.463   5.550   5.571
 6921SOL     OW21661   5.445   6.245   3.413
 6921SOL    HW121662   5.355   6.214   3.383
 6921SOL    HW221663   5.494   6.168   3.456
 6922SOL     OW21664   1.928   5.608   6.411
 6922SOL    HW121665   2.017   5.606   6.457
 6922SOL    HW221666   1.897   5.703   6.402
 6923SOL     OW21667   4.815   5.052   3.278
 6923SOL    HW121668   4.879   5.006   3.339
 6923SOL    HW221669   4.721   5.026   3.303
 6924SOL     OW21670   1.169   4.310   6.810
 6924SOL    HW121671   1.109   4.281   6.884
 6924SOL    HW221672   1.181   4.236   6.745
 6925SOL     OW21673   3.962   5.965   4.975
 6925SOL    HW121674   3.989   5.869   4.985
 6925SOL    HW221675   4.044   6.022   4.971
 6926SOL     OW21676   2.851   3.556   2.178
 6926SOL    HW121677   2.888   3.648   2.165
 6926SOL    HW221678   2.760   3.562   2.219
 6927SOL     OW21679   5.400   3.282   6.467
 6927SOL    HW121680   5.348   3.198   6.457
 6927SOL    HW221681   5.369   3.349   6.399
 6928SOL     OW21682   6.071   6.661   0.477
 6928SOL    HW121683   6.157   6.647   0.527
 6928SOL    HW221684   6.015   6.578   0.484
 6929SOL     OW21685   5.053   5.378   0.869
 6929SOL    HW121686   5.089   5.405   0.958
 6929SOL    HW221687   5.020   5.460   0.821
 6930SOL     OW21688   6.882   0.194   2.682
 6930SOL    HW121689   6.789   0.193   2.720
 6930SOL    HW221690   6.937   0.125   2.728
 6931SOL     OW21691   1.981   0.523   2.467
 6931SOL    HW121692   2.051   0.477   2.411
 6931SOL    HW221693   1.961   0.467   2.547
 6932SOL     OW21694   3.783   6.953   0.363
 6932SOL    HW121695   3.811   0.008   0.410
 6932SOL    HW221696   3.745   6.889   0.430
 6933SOL     OW21697   3.137   6.105   5.102
 6933SOL    HW121698   3.137   6.119   5.201
 6933SOL    HW221699   3.047   6.073   5.074
 6934SOL     OW21700   5.099   4.017   6.023
 6934SOL    HW121701   5.022   4.074   6.050
 6934SOL    HW221702   5.077   3.967   5.939
 6935SOL     OW21703   4.363   6.085   3.356
 6935SOL    HW121704   4.431   6.154   3.381
 6935SOL    HW221705   4.295   6.077   3.429
 6936SOL     OW21706   6.818   2.355   3.353
 6936SOL    HW121707   6.856   2.438   3.393
 6936SOL    HW221708   6.754   2.379   3.280
 6937SOL     OW21709   0.042   6.205   0.630
 6937SOL    HW121710   0.078   6.281   0.685
 6937SOL    HW221711   6.973   6.219   0.614
 6938SOL     OW21712   5.145   3.727   5.900
 6938SOL    HW121713   5.086   3.716   5.820
 6938SOL    HW221714   5.153   3.640   5.948
 6939SOL     OW21715   6.937   4.519   1.603
 6939SOL    HW121716   6.960   4.478   1.514
 6939SOL    HW221717   6.924   4.446   1.671
 6940SOL     OW21718   4.852   1.436   0.658
 6940SOL    HW121719   4.827   1.357   0.602
 6940SOL    HW221720   4.946   1.462   0.638
 6941SOL     OW21721   3.124   3.178   2.932
 6941SOL    HW121722   3.198   3.114   2.951
 6941SOL    HW221723   3.160   3.258   2.883
 6942SOL     OW21724   6.251   2.556   1.260
 6942SOL    HW121725   6.232   2.652   1.278
 6942SOL    HW221726   6.324   2.524   1.320
 6943SOL     OW21727   4.677   6.113   6.692
 6943SOL    HW121728   4.732   6.040   6.651
 6943SOL    HW221729   4.702   6.201   6.651
 6944SOL     OW21730   1.667   3.737   6.458
 6944SOL    HW121731   1.656   3.794   6.377
 6944SOL    HW221732   1.694   3.645   6.431
 6945SOL     OW21733   6.551   3.140   6.448
 6945SOL    HW121734   6.521   3.180   6.534
 6945SOL    HW221735   6.494   3.174   6.373
 6946SOL     OW21736   6.252   6.554   1.329
 6946SOL    HW121737   6.288   6.644   1.305
 6946SOL    HW221738   6.155   6.561   1.352
 6947SOL     OW21739   3.302   6.430   5.588
 6947SOL    HW121740   3.243   6.468   5.516
 6947SOL    HW221741   3.398   6.440   5.561
 6948SOL     OW21742   6.149   0.250   6.610
 6948SOL    HW121743   6.073   0.216   6.554
 6948SOL    HW221744   6.152   0.350   6.604
 6949SOL     OW21745   5.035   6.785   3.603
 6949SOL    HW121746   4.949   6.778   3.552
 6949SOL    HW221747   5.054   6.880   3.624
 6950SOL     OW21748   2.481   0.467   3.805
 6950SOL    HW121749   2.462   0.371   3.824
 6950SOL    HW221750   2.507   0.513   3.889
 6951SOL     OW21751   6.362   6.361   5.856
 6951SOL    HW121752   6.428   6.290   5.831
 6951SOL    HW221753   6.380   6.443   5.800
 6952SOL     OW21754   0.176   5.589   4.039
 6952SOL    HW121755   0.222   5.569   3.953
 6952SOL    HW221756   0.211   5.528   4.110
 6953SOL     OW21757   5.085   0.385   6.938
 6953SOL    HW121758   5.164   0.445   6.954
 6953SOL    HW221759   5.022   0.430   6.875
 6954SOL     OW21760   0.115   3.417   3.797
 6954SOL    HW121761   0.093   3.485   3.867
 6954SOL    HW221762   0.183   3.353   3.832
 6955SOL     OW21763   6.223   0.645   1.684
 6955SOL    HW121764   6.235   0.547   1.669
 6955SOL    HW221765   6.312   0.691   1.675
 6956SOL     OW21766   4.793   6.772   3.457
 6956SOL    HW121767   4.744   6.850   3.417
 6956SOL    HW221768   4.739   6.732   3.530
 6957SOL     OW21769   6.112   5.283   0.704
 6957SOL    HW121770   6.181   5.253   0.770
 6957SOL    HW221771   6.151   5.355   0.646
 6958SOL     OW21772   3.191   4.171   5.081
 6958SOL    HW121773   3.239   4.255   5.057
 6958SOL    HW221774   3.167   4.173   5.178
 6959SOL     OW21775   2.188   1.551   4.700
 6959SOL    HW121776   2.185   1.462   4.654
 6959SOL    HW221777   2.095   1.578   4.724
 6960SOL     OW21778   1.621   5.636   1.130
 6960SOL    HW121779   1.691   5.565   1.133
 6960SOL    HW221780   1.571   5.630   1.044
 6961SOL     OW21781   6.197   2.418   4.221
 6961SOL    HW121782   6.231   2.443   4.312
 6961SOL    HW221783   6.110   2.370   4.231
 6962SOL     OW21784   5.645   6.198   1.870
 6962SOL    HW121785   5.585   6.139   1.923
 6962SOL    HW221786   5.694   6.144   1.801
 6963SOL     OW21787   6.321   5.450   0.971
 6963SOL    HW121788   6.365   5.361   0.956
 6963SOL    HW221789   6.340   5.481   1.065
 6964SOL     OW21790   3.560   7.002   5.007
 6964SOL    HW121791   3.495   6.957   4.946
 6964SOL    HW221792   3.577   0.067   4.975
 6965SOL     OW21793   0.282   3.299   0.077
 6965SOL    HW121794   0.359   3.266   0.023
 6965SOL    HW221795   0.273   3.398   0.065
 6966SOL     OW21796   6.970   1.874   3.312
 6966SOL    HW121797   6.881   1.852   3.351
 6966SOL    HW221798   6.959   1.916   3.222
 6967SOL     OW21799   1.793   0.271   5.604
 6967SOL    HW121800   1.860   0.328   5.556
 6967SOL    HW221801   1.704   0.317   5.604
 6968SOL     OW21802   4.729   6.515   2.679
 6968SOL    HW121803   4.637   6.485   2.653
 6968SOL    HW221804   4.795   6.442   2.660
 6969SOL     OW21805   2.518   2.572   1.228
 6969SOL    HW121806   2.548   2.630   1.152
 6969SOL    HW221807   2.566   2.485   1.224
 6970SOL     OW21808   2.963   4.001   6.367
 6970SOL    HW121809   3.015   3.974   6.449
 6970SOL    HW221810   2.876   3.952   6.365
 6971SOL     OW21811   6.209   4.780   1.460
 6971SOL    HW121812   6.135   4.757   1.523
 6971SOL    HW221813   6.219   4.707   1.392
 6972SOL     OW21814   5.507   5.095   3.107
 6972SOL    HW121815   5.437   5.077   3.176
 6972SOL    HW221816   5.545   5.008   3.074
 6973SOL     OW21817   0.430   3.224   5.305
 6973SOL    HW121818   0.411   3.309   5.355
 6973SOL    HW221819   0.402   3.146   5.360
 6974SOL     OW21820   3.275   2.954   2.947
 6974SOL    HW121821   3.295   2.938   2.850
 6974SOL    HW221822   3.232   2.873   2.986
 6975SOL     OW21823   2.075   5.541   6.191
 6975SOL    HW121824   2.004   5.523   6.259
 6975SOL    HW221825   2.043   5.514   6.100
 6976SOL     OW21826   4.545   5.780   5.024
 6976SOL    HW121827   4.643   5.799   5.034
 6976SOL    HW221828   4.500   5.859   4.982
 6977SOL     OW21829   4.280   2.481   1.816
 6977SOL    HW121830   4.293   2.454   1.721
 6977SOL    HW221831   4.369   2.502   1.857
 6978SOL     OW21832   4.351   1.674   2.536
 6978SOL    HW121833   4.295   1.593   2.517
 6978SOL    HW221834   4.318   1.751   2.481
 6979SOL     OW21835   1.387   4.360   1.051
 6979SOL    HW121836   1.477   4.364   1.005
 6979SOL    HW221837   1.316   4.346   0.982
 6980SOL     OW21838   1.394   1.041   3.751
 6980SOL    HW121839   1.393   1.018   3.849
 6980SOL    HW221840   1.473   1.000   3.708
 6981SOL     OW21841   3.966   2.967   5.713
 6981SOL    HW121842   3.869   2.990   5.706
 6981SOL    HW221843   3.975   2.870   5.737
 6982SOL     OW21844   1.248   0.555   4.814
 6982SOL    HW121845   1.149   0.563   4.803
 6982SOL    HW221846   1.293   0.580   4.728
 6983SOL     OW21847   4.493   2.282   4.116
 6983SOL    HW121848   4.535   2.367   4.083
 6983SOL    HW221849   4.489   2.284   4.216
 6984SOL     OW21850   2.521   1.436   4.019
 6984SOL    HW121851   2.433   1.455   3.976
 6984SOL    HW221852   2.568   1.522   4.037
 6985SOL     OW21853   4.458   5.322   1.367
 6985SOL    HW121854   4.431   5.332   1.463
 6985SOL    HW221855   4.557   5.323   1.360
 6986SOL     OW21856   2.099   6.319   6.100
 6986SOL    HW121857   2.018   6.284   6.148
 6986SOL    HW221858   2.150   6.380   6.161
 6987SOL     OW21859   0.359   1.689   6.118
 6987SOL    HW121860   0.368   1.606   6.172
 6987SOL    HW221861   0.426   1.688   6.044
 6988SOL     OW21862   6.771   1.131   6.042
 6988SOL    HW121863   6.704   1.059   6.058
 6988SOL    HW221864   6.751   1.210   6.100
 6989SOL     OW21865   0.302   3.836   3.470
 6989SOL    HW121866   0.296   3.790   3.558
 6989SOL    HW221867   0.237   3.913   3.468
 6990SOL     OW21868   4.864   2.485   1.426
 6990SOL    HW121869   4.827   2.420   1.360
 6990SOL    HW221870   4.930   2.438   1.485
 6991SOL     OW21871   3.626   4.873   3.880
 6991SOL    HW121872   3.550   4.854   3.942
 6991SOL    HW221873   3.590   4.894   3.789
 6992SOL     OW21874   5.388   6.473   5.648
 6992SOL    HW121875   5.472   6.436   5.610
 6992SOL    HW221876   5.389   6.462   5.748
 6993SOL     OW21877   6.678   0.830   3.515
 6993SOL    HW121878   6.731   0.787   3.441
 6993SOL    HW221879   6.693   0.929   3.514
 6994SOL     OW21880   0.332   2.040   4.625
 6994SOL    HW121881   0.251   2.071   4.576
 6994SOL    HW221882   0.376   1.966   4.574
 6995SOL     OW21883   6.832   4.599   6.057
 6995SOL    HW121884   6.796   4.671   5.997
 6995SOL    HW221885   6.888   4.536   6.003
 6996SOL     OW21886   2.369   0.614   6.628
 6996SOL    HW121887   2.436   0.548   6.663
 6996SOL    HW221888   2.283   0.567   6.610
 6997SOL     OW21889   5.791   6.239   5.376
 6997SOL    HW121890   5.852   6.164   5.403
 6997SOL    HW221891   5.820   6.275   5.287
 6998SOL     OW21892   1.883   1.870   1.281
 6998SOL    HW121893   1.843   1.939   1.220
 6998SOL    HW221894   1.881   1.904   1.375
 6999SOL     OW21895   2.497   2.884   5.964
 6999SOL    HW121896   2.596   2.881   5.979
 6999SOL    HW221897   2.471   2.975   5.933
 7000SOL     OW21898   6.197   6.127   1.623
 7000SOL    HW121899   6.156   6.091   1.707
 7000SOL    HW221900   6.296   6.132   1.635
 7001SOL     OW21901   2.334   3.089   5.371
 7001SOL    HW121902   2.367   3.051   5.285
 7001SOL    HW221903   2.390   3.167   5.397
 7002SOL     OW21904   2.419   5.081   3.388
 7002SOL    HW121905   2.511   5.043   3.396
 7002SOL    HW221906   2.352   5.007   3.388
 7003SOL     OW21907   3.544   5.601   0.120
 7003SOL    HW121908   3.579   5.544   0.194
 7003SOL    HW221909   3.444   5.602   0.125
 7004SOL     OW21910   1.258   4.519   2.458
 7004SOL    HW121911   1.237   4.543   2.363
 7004SOL    HW221912   1.180   4.469   2.497
 7005SOL     OW21913   1.240   6.954   0.327
 7005SOL    HW121914   1.296   6.880   0.362
 7005SOL    HW221915   1.173   6.918   0.261
 7006SOL     OW21916   4.630   5.036   3.970
 7006SOL    HW121917   4.681   5.036   4.056
 7006SOL    HW221918   4.538   5.001   3.985
 7007SOL     OW21919   4.566   0.010   3.885
 7007SOL    HW121920   4.506   7.015   3.809
 7007SOL    HW221921   4.648   0.056   3.851
 7008SOL     OW21922   0.934   4.521   4.856
 7008SOL    HW121923   1.009   4.564   4.906
 7008SOL    HW221924   0.971   4.463   4.784
 7009SOL     OW21925   6.036   6.142   1.880
 7009SOL    HW121926   5.967   6.126   1.810
 7009SOL    HW221927   6.043   6.060   1.938
 7010SOL     OW21928   5.327   4.801   4.859
 7010SOL    HW121929   5.315   4.712   4.814
 7010SOL    HW221930   5.300   4.792   4.955
 7011SOL     OW21931   4.117   6.703   6.568
 7011SOL    HW121932   4.183   6.665   6.632
 7011SOL    HW221933   4.163   6.725   6.482
 7012SOL     OW21934   1.807   1.857   1.689
 7012SOL    HW121935   1.839   1.762   1.686
 7012SOL    HW221936   1.873   1.916   1.642
 7013SOL     OW21937   0.825   0.427   0.888
 7013SOL    HW121938   0.729   0.407   0.872
 7013SOL    HW221939   0.834   0.519   0.925
 7014SOL     OW21940   4.166   3.266   1.121
 7014SOL    HW121941   4.101   3.341   1.127
 7014SOL    HW221942   4.183   3.245   1.025
 7015SOL     OW21943   5.811   4.523   2.033
 7015SOL    HW121944   5.881   4.467   2.077
 7015SOL    HW221945   5.851   4.577   1.959
 7016SOL     OW21946   3.503   4.549   1.480
 7016SOL    HW121947   3.601   4.546   1.461
 7016SOL    HW221948   3.486   4.612   1.556
 7017SOL     OW21949   2.795   5.724   2.226
 7017SOL    HW121950   2.832   5.751   2.315
 7017SOL    HW221951   2.728   5.792   2.195
 7018SOL     OW21952   6.176   4.178   3.867
 7018SOL    HW121953   6.153   4.270   3.837
 7018SOL    HW221954   6.255   4.181   3.928
 7019SOL     OW21955   2.512   4.161   6.665
 7019SOL    HW121956   2.541   4.124   6.753
 7019SOL    HW221957   2.416   4.137   6.650
 7020SOL     OW21958   5.809   6.950   6.711
 7020SOL    HW121959   5.858   6.925   6.628
 7020SOL    HW221960   5.875   6.962   6.786
 7021SOL     OW21961   1.384   1.109   6.072
 7021SOL    HW121962   1.300   1.090   6.123
 7021SOL    HW221963   1.451   1.153   6.132
 7022SOL     OW21964   4.469   6.283   0.403
 7022SOL    HW121965   4.488   6.295   0.306
 7022SOL    HW221966   4.400   6.349   0.432
 7023SOL     OW21967   0.586   1.847   3.826
 7023SOL    HW121968   0.509   1.906   3.799
 7023SOL    HW221969   0.551   1.760   3.860
 7024SOL     OW21970   1.958   3.928   5.055
 7024SOL    HW121971   1.945   4.027   5.044
 7024SOL    HW221972   1.959   3.905   5.152
 7025SOL     OW21973   2.600   0.708   6.827
 7025SOL    HW121974   2.659   0.671   6.898
 7025SOL    HW221975   2.638   0.794   6.793
 7026SOL     OW21976   3.458   2.313   1.681
 7026SOL    HW121977   3.517   2.335   1.758
 7026SOL    HW221978   3.365   2.296   1.714
 7027SOL     OW21979   2.906   5.199   4.383
 7027SOL    HW121980   2.940   5.151   4.464
 7027SOL    HW221981   2.821   5.248   4.406
 7028SOL     OW21982   4.231   0.676   3.892
 7028SOL    HW121983   4.231   0.734   3.973
 7028SOL    HW221984   4.283   0.592   3.911
 7029SOL     OW21985   5.142   4.900   5.738
 7029SOL    HW121986   5.218   4.950   5.780
 7029SOL    HW221987   5.175   4.815   5.699
 7030SOL     OW21988   1.049   1.383   5.252
 7030SOL    HW121989   1.115   1.429   5.194
 7030SOL    HW221990   1.094   1.350   5.335
 7031SOL     OW21991   2.614   6.450   5.020
 7031SOL    HW121992   2.593   6.422   5.113
 7031SOL    HW221993   2.713   6.449   5.006
 7032SOL     OW21994   3.520   0.722   2.799
 7032SOL    HW121995   3.474   0.636   2.782
 7032SOL    HW221996   3.558   0.757   2.714
 7033SOL     OW21997   1.605   2.414   3.229
 7033SOL    HW121998   1.555   2.418   3.316
 7033SOL    HW221999   1.694   2.370   3.243
 7034SOL     OW22000   5.941   0.680   2.939
 7034SOL    HW122001   5.901   0.710   2.852
 7034SOL    HW222002   6.002   0.751   2.974
 7035SOL     OW22003   1.848   6.615   1.451
 7035SOL    HW122004   1.937   6.606   1.407
 7035SOL    HW222005   1.858   6.599   1.549
 7036SOL     OW22006   0.350   0.551   2.351
 7036SOL    HW122007   0.335   0.648   2.368
 7036SOL    HW222008   0.274   0.498   2.390
 7037SOL     OW22009   1.948   0.779   6.189
 7037SOL    HW122010   1.925   0.698   6.243
 7037SOL    HW222011   1.872   0.800   6.127
 7038SOL     OW22012   1.764   3.437   4.591
 7038SOL    HW122013   1.782   3.402   4.499
 7038SOL    HW222014   1.798   3.373   4.659
 7039SOL     OW22015   2.858   4.666   1.452
 7039SOL    HW122016   2.932   4.718   1.409
 7039SOL    HW222017   2.853   4.689   1.549
 7040SOL     OW22018   6.614   2.254   4.709
 7040SOL    HW122019   6.544   2.207   4.762
 7040SOL    HW222020   6.703   2.243   4.753
 7041SOL     OW22021   0.258   1.865   1.961
 7041SOL    HW122022   0.164   1.892   1.944
 7041SOL    HW222023   0.275   1.863   2.060
 7042SOL     OW22024   5.333   4.871   5.388
 7042SOL    HW122025   5.302   4.778   5.407
 7042SOL    HW222026   5.276   4.936   5.439
 7043SOL     OW22027   2.162   3.350   2.817
 7043SOL    HW122028   2.230   3.401   2.765
 7043SOL    HW222029   2.074   3.352   2.769
 7044SOL     OW22030   4.581   4.611   3.442
 7044SOL    HW122031   4.503   4.585   3.384
 7044SOL    HW222032   4.658   4.637   3.383
 7045SOL     OW22033   5.200   5.272   3.295
 7045SOL    HW122034   5.184   5.307   3.387
 7045SOL    HW222035   5.228   5.348   3.235
 7046SOL     OW22036   3.285   1.866   2.715
 7046SOL    HW122037   3.310   1.780   2.670
 7046SOL    HW222038   3.333   1.941   2.670
 7047SOL     OW22039   0.282   2.705   2.343
 7047SOL    HW122040   0.353   2.643   2.377
 7047SOL    HW222041   0.232   2.744   2.420
 7048SOL     OW22042   6.255   6.377   2.827
 7048SOL    HW122043   6.298   6.464   2.806
 7048SOL    HW222044   6.178   6.362   2.766
 7049SOL     OW22045   3.510   1.618   1.237
 7049SOL    HW122046   3.511   1.551   1.163
 7049SOL    HW222047   3.564   1.698   1.209
 7050SOL     OW22048   4.051   3.916   1.952
 7050SOL    HW122049   3.955   3.941   1.942
 7050SOL    HW222050   4.088   3.956   2.035
 7051SOL     OW22051   6.715   0.340   1.979
 7051SOL    HW122052   6.621   0.320   1.952
 7051SOL    HW222053   6.744   0.427   1.937
 7052SOL     OW22054   5.412   2.381   4.207
 7052SOL    HW122055   5.327   2.434   4.216
 7052SOL    HW222056   5.460   2.408   4.124
 7053SOL     OW22057   0.545   3.411   4.902
 7053SOL    HW122058   0.464   3.388   4.955
 7053SOL    HW222059   0.625   3.367   4.943
 7054SOL     OW22060   0.592   6.838   0.434
 7054SOL    HW122061   0.554   6.746   0.438
 7054SOL    HW222062   0.573   6.879   0.345
 7055SOL     OW22063   3.096   6.720   5.784
 7055SOL    HW122064   3.079   6.692   5.879
 7055SOL    HW222065   3.011   6.752   5.743
 7056SOL     OW22066   6.819   5.544   2.085
 7056SOL    HW122067   6.781   5.619   2.030
 7056SOL    HW222068   6.808   5.564   2.182
 7057SOL     OW22069   1.287   5.549   3.949
 7057SOL    HW122070   1.285   5.590   4.040
 7057SOL    HW222071   1.321   5.455   3.955
 7058SOL     OW22072   6.239   5.303   5.837
 7058SOL    HW122073   6.261   5.372   5.906
 7058SOL    HW222074   6.139   5.295   5.829
 7059SOL     OW22075   6.876   0.857   4.085
 7059SOL    HW122076   6.878   0.941   4.030
 7059SOL    HW222077   6.937   0.790   4.044
 7060SOL     OW22078   4.057   7.006   1.714
 7060SOL    HW122079   4.153   6.981   1.721
 7060SOL    HW222080   4.040   0.059   1.769
 7061SOL     OW22081   1.533   2.998   3.788
 7061SOL    HW122082   1.460   3.023   3.852
 7061SOL    HW222083   1.584   3.080   3.762
 7062SOL     OW22084   4.334   1.200   5.330
 7062SOL    HW122085   4.395   1.183   5.407
 7062SOL    HW222086   4.294   1.291   5.340
 7063SOL     OW22087   1.058   0.324   2.049
 7063SOL    HW122088   1.111   0.408   2.034
 7063SOL    HW222089   1.075   0.260   1.974
 7064SOL     OW22090   3.684   2.238   1.555
 7064SOL    HW122091   3.732   2.206   1.637
 7064SOL    HW222092   3.585   2.239   1.573
 7065SOL     OW22093   3.961   3.905   6.321
 7065SOL    HW122094   3.866   3.898   6.290
 7065SOL    HW222095   3.972   3.853   6.406
 7066SOL     OW22096   4.747   0.436   0.568
 7066SOL    HW122097   4.793   0.515   0.607
 7066SOL    HW222098   4.782   0.353   0.612
 7067SOL     OW22099   2.171   1.591   5.103
 7067SOL    HW122100   2.237   1.592   5.178
 7067SOL    HW222101   2.213   1.550   5.022
 7068SOL     OW22102   0.169   4.111   4.018
 7068SOL    HW122103   0.142   4.065   3.933
 7068SOL    HW222104   0.240   4.058   4.063
 7069SOL     OW22105   5.613   1.178   4.708
 7069SOL    HW122106   5.570   1.268   4.703
 7069SOL    HW222107   5.556   1.117   4.762
 7070SOL     OW22108   6.789   5.923   5.146
 7070SOL    HW122109   6.774   5.988   5.072
 7070SOL    HW222110   6.704   5.874   5.166
 7071SOL     OW22111   2.275   5.923   6.653
 7071SOL    HW122112   2.226   5.954   6.571
 7071SOL    HW222113   2.373   5.930   6.638
 7072SOL     OW22114   1.378   5.927   6.977
 7072SOL    HW122115   1.420   5.950   0.036
 7072SOL    HW222116   1.395   5.999   6.911
 7073SOL     OW22117   5.215   0.032   4.576
 7073SOL    HW122118   5.238   6.970   4.541
 7073SOL    HW222119   5.262   0.102   4.522
 7074SOL     OW22120   4.442   2.322   2.509
 7074SOL    HW122121   4.412   2.342   2.603
 7074SOL    HW222122   4.508   2.392   2.480
 7075SOL     OW22123   1.857   4.572   4.790
 7075SOL    HW122124   1.884   4.540   4.699
 7075SOL    HW222125   1.895   4.511   4.860
 7076SOL     OW22126   5.772   1.753   6.663
 7076SOL    HW122127   5.834   1.713   6.596
 7076SOL    HW222128   5.681   1.764   6.621
 7077SOL     OW22129   2.573   4.588   4.291
 7077SOL    HW122130   2.526   4.557   4.374
 7077SOL    HW222131   2.531   4.546   4.211
 7078SOL     OW22132   6.904   6.955   1.839
 7078SOL    HW122133   6.913   6.927   1.743
 7078SOL    HW222134   6.950   6.888   1.898
 7079SOL     OW22135   6.731   6.531   4.614
 7079SOL    HW122136   6.741   6.435   4.589
 7079SOL    HW222137   6.692   6.538   4.706
 7080SOL     OW22138   2.696   1.860   4.697
 7080SOL    HW122139   2.708   1.782   4.759
 7080SOL    HW222140   2.711   1.831   4.603
 7081SOL     OW22141   3.002   0.056   0.094
 7081SOL    HW122142   2.923   0.077   0.036
 7081SOL    HW222143   3.045   7.001   0.062
 7082SOL     OW22144   6.391   4.175   6.719
 7082SOL    HW122145   6.295   4.196   6.701
 7082SOL    HW222146   6.423   4.107   6.652
 7083SOL     OW22147   2.745   0.190   0.566
 7083SOL    HW122148   2.764   0.282   0.532
 7083SOL    HW222149   2.791   0.123   0.507
 7084SOL     OW22150   0.243   5.840   5.986
 7084SOL    HW122151   0.170   5.893   6.028
 7084SOL    HW222152   0.205   5.782   5.914
 7085SOL     OW22153   0.646   1.847   2.031
 7085SOL    HW122154   0.738   1.853   1.991
 7085SOL    HW222155   0.653   1.832   2.129
 7086SOL     OW22156   5.343   0.471   5.507
 7086SOL    HW122157   5.415   0.402   5.500
 7086SOL    HW222158   5.302   0.485   5.417
 7087SOL     OW22159   6.123   2.959   4.067
 7087SOL    HW122160   6.125   2.986   4.163
 7087SOL    HW222161   6.074   3.029   4.014
 7088SOL     OW22162   5.791   2.986   3.747
 7088SOL    HW122163   5.836   3.037   3.674
 7088SOL    HW222164   5.844   2.903   3.767
 7089SOL     OW22165   3.195   2.167   4.544
 7089SOL    HW122166   3.203   2.160   4.444
 7089SOL    HW222167   3.129   2.239   4.566
 7090SOL     OW22168   2.208   0.391   6.948
 7090SOL    HW122169   2.232   0.340   0.003
 7090SOL    HW222170   2.113   0.423   6.955
 7091SOL     OW22171   0.649   1.655   6.858
 7091SOL    HW122172   0.612   1.571   6.817
 7091SOL    HW222173   0.662   1.724   6.786
 7092SOL     OW22174   4.762   2.809   5.758
 7092SOL    HW122175   4.697   2.844   5.692
 7092SOL    HW222176   4.849   2.789   5.712
 7093SOL     OW22177   2.936   3.749   3.076
 7093SOL    HW122178   2.881   3.791   3.148
 7093SOL    HW222179   3.001   3.815   3.041
 7094SOL     OW22180   6.684   6.236   5.865
 7094SOL    HW122181   6.738   6.222   5.947
 7094SOL    HW222182   6.671   6.149   5.817
 7095SOL     OW22183   3.621   4.124   5.813
 7095SOL    HW122184   3.640   4.100   5.717
 7095SOL    HW222185   3.695   4.089   5.871
 7096SOL     OW22186   6.420   0.563   3.886
 7096SOL    HW122187   6.517   0.539   3.894
 7096SOL    HW222188   6.412   0.655   3.847
 7097SOL     OW22189   5.982   1.829   1.357
 7097SOL    HW122190   5.902   1.885   1.335
 7097SOL    HW222191   6.064   1.872   1.320
 7098SOL     OW22192   1.621   6.317   5.147
 7098SOL    HW122193   1.550   6.273   5.092
 7098SOL    HW222194   1.579   6.387   5.206
 7099SOL     OW22195   3.366   1.118   5.330
 7099SOL    HW122196   3.347   1.208   5.368
 7099SOL    HW222197   3.412   1.127   5.241
 7100SOL     OW22198   5.160   2.763   1.137
 7100SOL    HW122199   5.064   2.737   1.123
 7100SOL    HW222200   5.191   2.817   1.059
 7101SOL     OW22201   2.189   0.512   4.803
 7101SOL    HW122202   2.216   0.604   4.831
 7101SOL    HW222203   2.253   0.479   4.733
 7102SOL     OW22204   5.456   6.888   0.632
 7102SOL    HW122205   5.482   6.802   0.587
 7102SOL    HW222206   5.488   6.886   0.727
 7103SOL     OW22207   4.877   4.549   1.747
 7103SOL    HW122208   4.829   4.474   1.701
 7103SOL    HW222209   4.861   4.542   1.846
 7104SOL     OW22210   0.187   2.615   3.821
 7104SOL    HW122211   0.254   2.542   3.807
 7104SOL    HW222212   0.130   2.592   3.901
 7105SOL     OW22213   2.934   2.820   5.602
 7105SOL    HW122214   2.871   2.896   5.586
 7105SOL    HW222215   2.895   2.758   5.670
 7106SOL     OW22216   3.977   3.897   2.828
 7106SOL    HW122217   4.016   3.806   2.814
 7106SOL    HW222218   3.958   3.939   2.739
 7107SOL     OW22219   4.517   1.382   0.483
 7107SOL    HW122220   4.556   1.447   0.418
 7107SOL    HW222221   4.428   1.415   0.514
 7108SOL     OW22222   4.663   5.779   3.095
 7108SOL    HW122223   4.611   5.826   3.166
 7108SOL    HW222224   4.660   5.681   3.110
 7109SOL     OW22225   3.083   0.697   5.952
 7109SOL    HW122226   3.068   0.712   5.855
 7109SOL    HW222227   3.013   0.747   6.005
 7110SOL     OW22228   2.914   5.841   4.154
 7110SOL    HW122229   2.844   5.790   4.104
 7110SOL    HW222230   2.964   5.900   4.091
 7111SOL     OW22231   0.972   2.358   4.854
 7111SOL    HW122232   0.954   2.425   4.926
 7111SOL    HW222233   0.943   2.267   4.885
 7112SOL     OW22234   1.692   4.981   4.616
 7112SOL    HW122235   1.766   4.931   4.570
 7112SOL    HW222236   1.647   5.042   4.550
 7113SOL     OW22237   4.119   3.726   5.157
 7113SOL    HW122238   4.167   3.779   5.087
 7113SOL    HW222239   4.170   3.642   5.175
 7114SOL     OW22240   4.052   6.733   1.564
 7114SOL    HW122241   4.121   6.703   1.498
 7114SOL    HW222242   4.077   6.823   1.599
 7115SOL     OW22243   5.687   2.913   1.349
 7115SOL    HW122244   5.670   2.975   1.273
 7115SOL    HW222245   5.694   2.819   1.314
 7116SOL     OW22246   6.314   3.988   3.440
 7116SOL    HW122247   6.404   3.944   3.434
 7116SOL    HW222248   6.292   4.003   3.536
 7117SOL     OW22249   0.546   6.314   5.190
 7117SOL    HW122250   0.523   6.226   5.233
 7117SOL    HW222251   0.625   6.354   5.236
 7118SOL     OW22252   2.678   4.149   1.090
 7118SOL    HW122253   2.731   4.098   1.021
 7118SOL    HW222254   2.611   4.088   1.131
 7119SOL     OW22255   5.218   2.073   3.469
 7119SOL    HW122256   5.286   2.010   3.432
 7119SOL    HW222257   5.135   2.023   3.494
 7120SOL     OW22258   3.566   1.367   2.395
 7120SOL    HW122259   3.588   1.456   2.355
 7120SOL    HW222260   3.525   1.380   2.485
 7121SOL     OW22261   1.397   6.852   3.433
 7121SOL    HW122262   1.473   6.839   3.496
 7121SOL    HW222263   1.411   6.936   3.381
 7122SOL     OW22264   0.556   0.040   5.982
 7122SOL    HW122265   0.628   0.093   5.937
 7122SOL    HW222266   0.562   6.973   5.953
 7123SOL     OW22267   1.688   4.271   3.362
 7123SOL    HW122268   1.611   4.329   3.337
 7123SOL    HW222269   1.748   4.321   3.424
 7124SOL     OW22270   6.987   2.312   1.296
 7124SOL    HW122271   6.929   2.385   1.259
 7124SOL    HW222272   6.930   2.241   1.336
 7125SOL     OW22273   7.008   6.646   1.412
 7125SOL    HW122274   6.921   6.603   1.386
 7125SOL    HW222275   0.034   6.660   1.329
 7126SOL     OW22276   3.694   5.023   0.013
 7126SOL    HW122277   3.667   4.971   0.095
 7126SOL    HW222278   3.650   5.112   0.014
 7127SOL     OW22279   1.516   5.141   5.416
 7127SOL    HW122280   1.518   5.150   5.316
 7127SOL    HW222281   1.442   5.198   5.452
 7128SOL     OW22282   3.001   4.976   0.321
 7128SOL    HW122283   2.925   4.957   0.259
 7128SOL    HW222284   3.054   5.053   0.286
 7129SOL     OW22285   1.958   1.950   6.570
 7129SOL    HW122286   1.908   2.027   6.529
 7129SOL    HW222287   1.955   1.872   6.508
 7130SOL     OW22288   4.402   6.168   5.177
 7130SOL    HW122289   4.349   6.217   5.246
 7130SOL    HW222290   4.498   6.164   5.206
 7131SOL     OW22291   2.622   0.551   0.813
 7131SOL    HW122292   2.635   0.554   0.912
 7131SOL    HW222293   2.543   0.494   0.791
 7132SOL     OW22294   3.585   4.256   6.982
 7132SOL    HW122295   3.487   4.239   6.992
 7132SOL    HW222296   3.619   4.207   6.902
 7133SOL     OW22297   5.089   5.694   5.926
 7133SOL    HW122298   5.111   5.694   6.024
 7133SOL    HW222299   5.081   5.789   5.894
 7134SOL     OW22300   5.462   0.008   2.306
 7134SOL    HW122301   5.489   6.989   2.223
 7134SOL    HW222302   5.509   0.097   2.310
 7135SOL     OW22303   1.427   3.187   3.043
 7135SOL    HW122304   1.382   3.226   3.123
 7135SOL    HW222305   1.449   3.091   3.060
 7136SOL     OW22306   2.716   2.987   1.264
 7136SOL    HW122307   2.777   2.908   1.275
 7136SOL    HW222308   2.769   3.071   1.274
 7137SOL     OW22309   3.665   0.058   6.523
 7137SOL    HW122310   3.576   0.042   6.481
 7137SOL    HW222311   3.681   7.019   6.595
 7138SOL     OW22312   2.045   2.575   0.112
 7138SOL    HW122313   2.069   2.506   0.180
 7138SOL    HW222314   1.993   2.649   0.156
 7139SOL     OW22315   5.806   4.149   1.619
 7139SOL    HW122316   5.877   4.168   1.687
 7139SOL    HW222317   5.735   4.092   1.661
 7140SOL     OW22318   6.005   3.978   3.349
 7140SOL    HW122319   5.987   3.964   3.446
 7140SOL    HW222320   5.948   4.053   3.315
 7141SOL     OW22321   3.830   5.735   1.629
 7141SOL    HW122322   3.819   5.730   1.729
 7141SOL    HW222323   3.754   5.686   1.586
 7142SOL     OW22324   4.118   0.299   3.589
 7142SOL    HW122325   4.141   0.370   3.523
 7142SOL    HW222326   4.041   0.330   3.645
 7143SOL     OW22327   1.368   2.542   5.969
 7143SOL    HW122328   1.421   2.555   5.886
 7143SOL    HW222329   1.392   2.614   6.035
 7144SOL     OW22330   1.976   2.851   1.943
 7144SOL    HW122331   2.066   2.819   1.974
 7144SOL    HW222332   1.910   2.845   2.018
 7145SOL     OW22333   4.477   0.481   0.244
 7145SOL    HW122334   4.469   0.477   0.343
 7145SOL    HW222335   4.570   0.459   0.217
 7146SOL     OW22336   1.985   0.215   0.910
 7146SOL    HW122337   1.929   0.233   0.991
 7146SOL    HW222338   2.079   0.241   0.929
 7147SOL     OW22339   0.300   6.766   3.175
 7147SOL    HW122340   0.212   6.812   3.187
 7147SOL    HW222341   0.315   6.747   3.078
 7148SOL     OW22342   0.633   5.782   0.913
 7148SOL    HW122343   0.652   5.879   0.898
 7148SOL    HW222344   0.659   5.731   0.831
 7149SOL     OW22345   5.960   6.378   3.104
 7149SOL    HW122346   5.908   6.461   3.122
 7149SOL    HW222347   5.931   6.338   3.017
 7150SOL     OW22348   3.197   2.236   1.824
 7150SOL    HW122349   3.178   2.218   1.728
 7150SOL    HW222350   3.131   2.302   1.860
 7151SOL     OW22351   2.351   5.900   0.562
 7151SOL    HW122352   2.325   5.824   0.622
 7151SOL    HW222353   2.334   5.876   0.467
 7152SOL     OW22354   0.887   0.532   5.429
 7152SOL    HW122355   0.952   0.465   5.466
 7152SOL    HW222356   0.914   0.557   5.336
 7153SOL     OW22357   3.723   5.689   1.884
 7153SOL    HW122358   3.645   5.745   1.857
 7153SOL    HW222359   3.692   5.600   1.917
 7154SOL     OW22360   4.160   0.373   3.257
 7154SOL    HW122361   4.064   0.351   3.241
 7154SOL    HW222362   4.180   0.463   3.218
 7155SOL     OW22363   1.721   3.513   1.026
 7155SOL    HW122364   1.681   3.594   1.067
 7155SOL    HW222365   1.784   3.470   1.092
 7156SOL     OW22366   6.914   3.352   3.662
 7156SOL    HW122367   6.985   3.374   3.729
 7156SOL    HW222368   6.948   3.283   3.599
 7157SOL     OW22369   0.010   3.739   1.583
 7157SOL    HW122370   0.006   3.696   1.674
 7157SOL    HW222371   7.013   3.835   1.592
 7158SOL     OW22372   1.395   0.003   3.931
 7158SOL    HW122373   1.417   0.018   4.027
 7158SOL    HW222374   1.385   6.934   3.914
 7159SOL     OW22375   0.537   5.095   2.625
 7159SOL    HW122376   0.581   5.053   2.545
 7159SOL    HW222377   0.597   5.085   2.705
 7160SOL     OW22378   5.498   0.266   2.851
 7160SOL    HW122379   5.427   0.205   2.887
 7160SOL    HW222380   5.499   0.259   2.751
 7161SOL     OW22381   3.190   4.075   4.071
 7161SOL    HW122382   3.111   4.015   4.065
 7161SOL    HW222383   3.186   4.128   4.155
 7162SOL     OW22384   1.023   5.211   6.136
 7162SOL    HW122385   1.047   5.262   6.219
 7162SOL    HW222386   1.016   5.114   6.158
 7163SOL     OW22387   3.245   6.546   2.584
 7163SOL    HW122388   3.285   6.529   2.674
 7163SOL    HW222389   3.215   6.641   2.579
 7164SOL     OW22390   2.089   0.228   4.033
 7164SOL    HW122391   2.098   0.311   3.979
 7164SOL    HW222392   2.174   0.213   4.085
 7165SOL     OW22393   6.563   0.971   2.380
 7165SOL    HW122394   6.630   0.918   2.327
 7165SOL    HW222395   6.586   1.068   2.374
 7166SOL     OW22396   6.167   2.348   0.664
 7166SOL    HW122397   6.239   2.323   0.600
 7166SOL    HW222398   6.193   2.432   0.711
 7167SOL     OW22399   5.308   3.174   4.126
 7167SOL    HW122400   5.267   3.170   4.217
 7167SOL    HW222401   5.385   3.110   4.121
 7168SOL     OW22402   1.006   2.838   2.995
 7168SOL    HW122403   1.102   2.859   2.975
 7168SOL    HW222404   0.980   2.881   3.081
 7169SOL     OW22405   0.483   2.475   4.719
 7169SOL    HW122406   0.393   2.436   4.736
 7169SOL    HW222407   0.536   2.412   4.662
 7170SOL     OW22408   4.694   6.873   4.252
 7170SOL    HW122409   4.623   6.942   4.266
 7170SOL    HW222410   4.659   6.783   4.277
 7171SOL     OW22411   5.777   3.851   0.238
 7171SOL    HW122412   5.821   3.786   0.299
 7171SOL    HW222413   5.678   3.837   0.241
 7172SOL     OW22414   1.400   7.005   4.865
 7172SOL    HW122415   1.386   6.922   4.920
 7172SOL    HW222416   1.441   6.979   4.777
 7173SOL     OW22417   6.633   4.858   6.254
 7173SOL    HW122418   6.534   4.846   6.266
 7173SOL    HW222419   6.658   4.834   6.160
 7174SOL     OW22420   0.882   4.595   0.228
 7174SOL    HW122421   0.906   4.612   0.324
 7174SOL    HW222422   0.877   4.682   0.179
 7175SOL     OW22423   5.749   2.539   6.824
 7175SOL    HW122424   5.762   2.552   6.726
 7175SOL    HW222425   5.728   2.627   6.867
 7176SOL     OW22426   6.966   0.013   2.886
 7176SOL    HW122427   7.023   6.962   2.866
 7176SOL    HW222428   7.024   0.092   2.906
 7177SOL     OW22429   1.660   4.877   4.303
 7177SOL    HW122430   1.638   4.973   4.284
 7177SOL    HW222431   1.757   4.870   4.328
 7178SOL     OW22432   2.027   1.989   6.107
 7178SOL    HW122433   1.994   1.997   6.013
 7178SOL    HW222434   1.950   1.994   6.170
 7179SOL     OW22435   2.125   3.692   4.698
 7179SOL    HW122436   2.155   3.604   4.660
 7179SOL    HW222437   2.139   3.691   4.797
 7180SOL     OW22438   2.452   5.318   0.302
 7180SOL    HW122439   2.456   5.404   0.251
 7180SOL    HW222440   2.399   5.252   0.250
 7181SOL     OW22441   2.101   6.564   0.123
 7181SOL    HW122442   2.040   6.644   0.120
 7181SOL    HW222443   2.148   6.561   0.210
 7182SOL     OW22444   0.710   2.625   4.323
 7182SOL    HW122445   0.737   2.687   4.396
 7182SOL    HW222446   0.768   2.543   4.327
 7183SOL     OW22447   2.174   6.034   6.873
 7183SOL    HW122448   2.195   5.957   6.933
 7183SOL    HW222449   2.194   6.009   6.778
 7184SOL     OW22450   0.036   0.831   3.652
 7184SOL    HW122451   7.023   0.841   3.742
 7184SOL    HW222452   0.046   0.921   3.609
 7185SOL     OW22453   5.827   0.180   5.270
 7185SOL    HW122454   5.868   0.116   5.335
 7185SOL    HW222455   5.900   0.229   5.222
 7186SOL     OW22456   6.800   1.895   0.546
 7186SOL    HW122457   6.777   1.912   0.642
 7186SOL    HW222458   6.882   1.838   0.541
 7187SOL     OW22459   3.809   4.707   6.247
 7187SOL    HW122460   3.808   4.805   6.263
 7187SOL    HW222461   3.756   4.661   6.319
 7188SOL     OW22462   6.295   1.040   0.667
 7188SOL    HW122463   6.380   1.076   0.628
 7188SOL    HW222464   6.223   1.109   0.662
 7189SOL     OW22465   0.257   1.343   5.906
 7189SOL    HW122466   0.195   1.351   5.828
 7189SOL    HW222467   0.204   1.331   5.990
 7190SOL     OW22468   0.468   3.488   2.388
 7190SOL    HW122469   0.380   3.457   2.352
 7190SOL    HW222470   0.477   3.461   2.483
 7191SOL     OW22471   0.683   4.298   2.687
 7191SOL    HW122472   0.591   4.266   2.708
 7191SOL    HW222473   0.750   4.234   2.725
 7192SOL     OW22474   2.926   4.739   5.996
 7192SOL    HW122475   2.913   4.650   6.040
 7192SOL    HW222476   2.996   4.790   6.045
 7193SOL     OW22477   0.830   2.478   2.256
 7193SOL    HW122478   0.783   2.562   2.284
 7193SOL    HW222479   0.914   2.502   2.206
 7194SOL     OW22480   2.707   1.868   0.323
 7194SOL    HW122481   2.782   1.930   0.303
 7194SOL    HW222482   2.655   1.849   0.240
 7195SOL     OW22483   0.065   4.113   6.668
 7195SOL    HW122484   7.008   4.086   6.624
 7195SOL    HW222485   0.058   4.208   6.698
 7196SOL     OW22486   3.421   4.078   0.795
 7196SOL    HW122487   3.490   4.143   0.764
 7196SOL    HW222488   3.331   4.106   0.761
 7197SOL     OW22489   0.526   2.553   6.192
 7197SOL    HW122490   0.493   2.587   6.104
 7197SOL    HW222491   0.586   2.621   6.233
 7198SOL     OW22492   0.006   0.657   0.571
 7198SOL    HW122493   6.976   0.585   0.610
 7198SOL    HW222494   0.077   0.682   0.637
 7199SOL     OW22495   1.937   0.754   2.330
 7199SOL    HW122496   1.955   0.670   2.381
 7199SOL    HW222497   1.838   0.767   2.320
 7200SOL     OW22498   2.266   2.330   6.748
 7200SOL    HW122499   2.347   2.276   6.727
 7200SOL    HW222500   2.184   2.280   6.721
 7201SOL     OW22501   0.914   5.591   4.918
 7201SOL    HW122502   0.814   5.599   4.920
 7201SOL    HW222503   0.941   5.533   4.841
 7202SOL     OW22504   5.139   0.217   6.700
 7202SOL    HW122505   5.055   0.235   6.649
 7202SOL    HW222506   5.117   0.207   6.797
 7203SOL     OW22507   0.672   1.537   1.282
 7203SOL    HW122508   0.677   1.438   1.294
 7203SOL    HW222509   0.584   1.561   1.240
 7204SOL     OW22510   0.762   6.969   5.574
 7204SOL    HW122511   0.793   6.987   5.480
 7204SOL    HW222512   0.746   6.871   5.586
 7205SOL     OW22513   1.346   5.115   4.170
 7205SOL    HW122514   1.304   5.054   4.238
 7205SOL    HW222515   1.437   5.142   4.201
 7206SOL     OW22516   1.345   0.300   1.616
 7206SOL    HW122517   1.312   0.206   1.625
 7206SOL    HW222518   1.277   0.363   1.653
 7207SOL     OW22519   3.791   0.231   2.759
 7207SOL    HW122520   3.693   0.224   2.777
 7207SOL    HW222521   3.830   0.139   2.752
 7208SOL     OW22522   4.047   0.137   2.878
 7208SOL    HW122523   4.091   0.128   2.788
 7208SOL    HW222524   4.059   0.230   2.911
 7209SOL     OW22525   2.830   4.023   1.668
 7209SOL    HW122526   2.894   3.952   1.696
 7209SOL    HW222527   2.742   3.981   1.644
 7210SOL     OW22528   4.669   0.872   3.933
 7210SOL    HW122529   4.613   0.836   3.858
 7210SOL    HW222530   4.669   0.972   3.929
 7211SOL     OW22531   3.253   6.546   4.096
 7211SOL    HW122532   3.254   6.640   4.062
 7211SOL    HW222533   3.347   6.514   4.105
 7212SOL     OW22534   0.469   6.155   4.586
 7212SOL    HW122535   0.485   6.076   4.527
 7212SOL    HW222536   0.371   6.174   4.590
 7213SOL     OW22537   5.159   6.109   0.388
 7213SOL    HW122538   5.112   6.073   0.468
 7213SOL    HW222539   5.116   6.195   0.360
 7214SOL     OW22540   6.813   5.976   5.697
 7214SOL    HW122541   6.815   5.920   5.780
 7214SOL    HW222542   6.864   6.060   5.712
 7215SOL     OW22543   6.870   4.073   5.058
 7215SOL    HW122544   6.897   3.984   5.023
 7215SOL    HW222545   6.923   4.094   5.141
 7216SOL     OW22546   3.659   6.434   0.244
 7216SOL    HW122547   3.652   6.370   0.320
 7216SOL    HW222548   3.663   6.384   0.158
 7217SOL     OW22549   2.547   4.661   2.654
 7217SOL    HW122550   2.535   4.690   2.749
 7217SOL    HW222551   2.469   4.693   2.600
 7218SOL     OW22552   5.087   2.919   5.085
 7218SOL    HW122553   5.050   2.855   5.018
 7218SOL    HW222554   5.167   2.879   5.130
 7219SOL     OW22555   4.522   0.198   3.598
 7219SOL    HW122556   4.574   0.114   3.592
 7219SOL    HW222557   4.486   0.222   3.507
 7220SOL     OW22558   0.865   5.448   5.175
 7220SOL    HW122559   0.784   5.505   5.188
 7220SOL    HW222560   0.924   5.489   5.105
 7221SOL     OW22561   3.718   6.061   4.951
 7221SOL    HW122562   3.698   6.159   4.961
 7221SOL    HW222563   3.817   6.047   4.954
 7222SOL     OW22564   5.727   0.433   3.284
 7222SOL    HW122565   5.793   0.378   3.234
 7222SOL    HW222566   5.674   0.374   3.346
 7223SOL     OW22567   2.567   1.437   1.177
 7223SOL    HW122568   2.538   1.421   1.271
 7223SOL    HW222569   2.663   1.467   1.176
 7224SOL     OW22570   5.662   1.878   4.099
 7224SOL    HW122571   5.677   1.815   4.175
 7224SOL    HW222572   5.617   1.961   4.132
 7225SOL     OW22573   0.639   5.931   0.293
 7225SOL    HW122574   0.567   5.907   0.228
 7225SOL    HW222575   0.670   5.849   0.340
 7226SOL     OW22576   6.625   1.078   0.663
 7226SOL    HW122577   6.662   1.036   0.745
 7226SOL    HW222578   6.681   1.157   0.637
 7227SOL     OW22579   1.420   1.092   1.019
 7227SOL    HW122580   1.356   1.064   0.948
 7227SOL    HW222581   1.507   1.044   1.006
 7228SOL     OW22582   1.061   1.664   2.751
 7228SOL    HW122583   1.081   1.759   2.725
 7228SOL    HW222584   0.980   1.662   2.810
 7229SOL     OW22585   1.769   5.828   5.899
 7229SOL    HW122586   1.860   5.866   5.917
 7229SOL    HW222587   1.777   5.731   5.877
 7230SOL     OW22588   4.342   5.622   4.359
 7230SOL    HW122589   4.245   5.602   4.343
 7230SOL    HW222590   4.352   5.716   4.389
 7231SOL     OW22591   4.433   0.793   0.220
 7231SOL    HW122592   4.405   0.886   0.243
 7231SOL    HW222593   4.387   0.764   0.136
 7232SOL     OW22594   5.220   5.777   3.148
 7232SOL    HW122595   5.253   5.749   3.057
 7232SOL    HW222596   5.192   5.873   3.145
 7233SOL     OW22597   0.122   1.573   3.940
 7233SOL    HW122598   0.096   1.646   4.003
 7233SOL    HW222599   0.220   1.555   3.948
 7234SOL     OW22600   5.814   3.462   3.547
 7234SOL    HW122601   5.842   3.467   3.451
 7234SOL    HW222602   5.888   3.426   3.602
 7235SOL     OW22603   6.546   3.916   1.914
 7235SOL    HW122604   6.620   3.981   1.903
 7235SOL    HW222605   6.567   3.854   1.990
 7236SOL     OW22606   1.999   2.171   1.789
 7236SOL    HW122607   2.007   2.195   1.886
 7236SOL    HW222608   1.903   2.151   1.768
 7237SOL     OW22609   4.566   1.044   4.551
 7237SOL    HW122610   4.572   1.141   4.524
 7237SOL    HW222611   4.653   0.999   4.531
 7238SOL     OW22612   3.666   1.385   0.827
 7238SOL    HW122613   3.723   1.379   0.745
 7238SOL    HW222614   3.714   1.438   0.897
 7239SOL     OW22615   1.407   2.766   2.535
 7239SOL    HW122616   1.343   2.832   2.494
 7239SOL    HW222617   1.368   2.730   2.620
 7240SOL     OW22618   2.008   5.796   6.045
 7240SOL    HW122619   1.993   5.707   6.003
 7240SOL    HW222620   2.106   5.812   6.056
 7241SOL     OW22621   1.963   1.061   0.212
 7241SOL    HW122622   2.010   1.012   0.285
 7241SOL    HW222623   1.864   1.061   0.229
 7242SOL     OW22624   6.572   6.114   0.361
 7242SOL    HW122625   6.500   6.104   0.430
 7242SOL    HW222626   6.659   6.134   0.407
 7243SOL     OW22627   6.356   4.865   6.242
 7243SOL    HW122628   6.367   4.942   6.178
 7243SOL    HW222629   6.275   4.881   6.299
 7244SOL     OW22630   5.663   1.205   1.588
 7244SOL    HW122631   5.627   1.294   1.616
 7244SOL    HW222632   5.651   1.139   1.662
 7245SOL     OW22633   1.022   2.052   4.561
 7245SOL    HW122634   0.945   2.103   4.599
 7245SOL    HW222635   1.023   2.064   4.462
 7246SOL     OW22636   6.226   0.434   4.303
 7246SOL    HW122637   6.222   0.473   4.211
 7246SOL    HW222638   6.273   0.497   4.364
 7247SOL     OW22639   2.885   6.893   4.133
 7247SOL    HW122640   2.838   6.813   4.170
 7247SOL    HW222641   2.840   6.976   4.166
 7248SOL     OW22642   2.574   1.801   3.561
 7248SOL    HW122643   2.654   1.847   3.599
 7248SOL    HW222644   2.602   1.722   3.506
 7249SOL     OW22645   6.477   4.153   2.237
 7249SOL    HW122646   6.500   4.250   2.236
 7249SOL    HW222647   6.551   4.101   2.279
 7250SOL     OW22648   4.278   6.844   6.362
 7250SOL    HW122649   4.289   6.943   6.354
 7250SOL    HW222650   4.364   6.798   6.340
 7251SOL     OW22651   0.691   6.716   5.644
 7251SOL    HW122652   0.599   6.731   5.607
 7251SOL    HW222653   0.691   6.637   5.705
 7252SOL     OW22654   3.153   3.442   2.805
 7252SOL    HW122655   3.076   3.486   2.852
 7252SOL    HW222656   3.182   3.500   2.728
 7253SOL     OW22657   2.535   6.452   6.233
 7253SOL    HW122658   2.618   6.415   6.191
 7253SOL    HW222659   2.482   6.501   6.163
 7254SOL     OW22660   4.372   4.997   3.721
 7254SOL    HW122661   4.371   4.898   3.705
 7254SOL    HW222662   4.465   5.031   3.708
 7255SOL     OW22663   3.418   3.524   0.804
 7255SOL    HW122664   3.471   3.608   0.793
 7255SOL    HW222665   3.321   3.546   0.808
 7256SOL     OW22666   4.282   4.767   4.330
 7256SOL    HW122667   4.191   4.767   4.373
 7256SOL    HW222668   4.346   4.818   4.387
 7257SOL     OW22669   5.339   2.629   3.935
 7257SOL    HW122670   5.437   2.611   3.922
 7257SOL    HW222671   5.309   2.699   3.871
 7258SOL     OW22672   4.031   1.312   3.508
 7258SOL    HW122673   4.067   1.223   3.535
 7258SOL    HW222674   3.962   1.301   3.436
 7259SOL     OW22675   2.819   3.275   0.993
 7259SOL    HW122676   2.803   3.203   0.925
 7259SOL    HW222677   2.873   3.238   1.068
 7260SOL     OW22678   3.512   1.709   2.049
 7260SOL    HW122679   3.549   1.792   2.007
 7260SOL    HW222680   3.414   1.720   2.063
 7261SOL     OW22681   1.278   2.892   1.603
 7261SOL    HW122682   1.294   2.893   1.702
 7261SOL    HW222683   1.180   2.895   1.584
 7262SOL     OW22684   5.536   1.604   5.420
 7262SOL    HW122685   5.479   1.684   5.401
 7262SOL    HW222686   5.557   1.600   5.518
 7263SOL     OW22687   0.613   6.580   1.216
 7263SOL    HW122688   0.674   6.620   1.147
 7263SOL    HW222689   0.619   6.481   1.212
 7264SOL     OW22690   5.660   1.305   5.874
 7264SOL    HW122691   5.671   1.293   5.973
 7264SOL    HW222692   5.567   1.337   5.855
 7265SOL     OW22693   5.349   5.433   6.037
 7265SOL    HW122694   5.446   5.422   6.058
 7265SOL    HW222695   5.338   5.458   5.941
 7266SOL     OW22696   5.662   0.098   1.196
 7266SOL    HW122697   5.592   0.123   1.130
 7266SOL    HW222698   5.725   0.032   1.156
 7267SOL     OW22699   6.623   5.936   5.500
 7267SOL    HW122700   6.652   5.989   5.420
 7267SOL    HW222701   6.688   5.950   5.575
 7268SOL     OW22702   5.288   5.020   3.242
 7268SOL    HW122703   5.243   5.109   3.252
 7268SOL    HW222704   5.227   4.958   3.193
 7269SOL     OW22705   6.779   6.100   1.150
 7269SOL    HW122706   6.710   6.096   1.223
 7269SOL    HW222707   6.854   6.038   1.172
 7270SOL     OW22708   0.580   3.181   5.106
 7270SOL    HW122709   0.651   3.111   5.106
 7270SOL    HW222710   0.529   3.177   5.192
 7271SOL     OW22711   0.600   5.960   3.942
 7271SOL    HW122712   0.658   6.005   3.874
 7271SOL    HW222713   0.638   5.974   4.033
 7272SOL     OW22714   5.731   5.560   2.395
 7272SOL    HW122715   5.814   5.518   2.431
 7272SOL    HW222716   5.685   5.612   2.467
 7273SOL     OW22717   5.547   4.333   1.867
 7273SOL    HW122718   5.622   4.278   1.904
 7273SOL    HW222719   5.556   4.339   1.768
 7274SOL     OW22720   0.872   5.675   6.890
 7274SOL    HW122721   0.780   5.700   6.919
 7274SOL    HW222722   0.912   5.751   6.838
 7275SOL     OW22723   6.572   0.515   2.882
 7275SOL    HW122724   6.639   0.450   2.918
 7275SOL    HW222725   6.480   0.489   2.911
 7276SOL     OW22726   3.523   1.857   2.499
 7276SOL    HW122727   3.581   1.938   2.513
 7276SOL    HW222728   3.546   1.787   2.566
 7277SOL     OW22729   4.507   0.793   4.211
 7277SOL    HW122730   4.478   0.889   4.208
 7277SOL    HW222731   4.495   0.752   4.121
 7278SOL     OW22732   3.454   2.453   1.448
 7278SOL    HW122733   3.549   2.459   1.417
 7278SOL    HW222734   3.451   2.425   1.544
 7279SOL     OW22735   4.564   3.284   6.541
 7279SOL    HW122736   4.592   3.206   6.596
 7279SOL    HW222737   4.610   3.366   6.572
 7280SOL     OW22738   0.414   1.402   3.996
 7280SOL    HW122739   0.473   1.374   3.920
 7280SOL    HW222740   0.454   1.481   4.041
 7281SOL     OW22741   1.675   0.471   0.460
 7281SOL    HW122742   1.665   0.402   0.388
 7281SOL    HW222743   1.624   0.553   0.434
 7282SOL     OW22744   5.904   6.823   1.497
 7282SOL    HW122745   5.947   6.913   1.500
 7282SOL    HW222746   5.937   6.768   1.574
 7283SOL     OW22747   3.217   0.227   1.874
 7283SOL    HW122748   3.294   0.189   1.926
 7283SOL    HW222749   3.251   0.289   1.804
 7284SOL     OW22750   0.079   2.139   5.062
 7284SOL    HW122751   0.156   2.125   4.999
 7284SOL    HW222752   0.112   2.141   5.156
 7285SOL     OW22753   5.748   3.650   1.511
 7285SOL    HW122754   5.655   3.684   1.496
 7285SOL    HW222755   5.788   3.621   1.425
 7286SOL     OW22756   0.826   0.560   1.235
 7286SOL    HW122757   0.750   0.621   1.210
 7286SOL    HW222758   0.880   0.603   1.307
 7287SOL     OW22759   6.853   3.093   4.901
 7287SOL    HW122760   6.803   3.134   4.978
 7287SOL    HW222761   6.791   3.083   4.823
 7288SOL     OW22762   1.227   2.073   1.838
 7288SOL    HW122763   1.219   2.044   1.933
 7288SOL    HW222764   1.312   2.123   1.825
 7289SOL     OW22765   5.978   1.603   3.355
 7289SOL    HW122766   5.956   1.630   3.448
 7289SOL    HW222767   5.970   1.504   3.345
 7290SOL     OW22768   2.758   0.912   5.050
 7290SOL    HW122769   2.738   0.990   4.990
 7290SOL    HW222770   2.829   0.938   5.116
 7291SOL     OW22771   2.181   0.267   0.558
 7291SOL    HW122772   2.092   0.275   0.602
 7291SOL    HW222773   2.205   0.171   0.549
 7292SOL     OW22774   3.216   6.928   2.425
 7292SOL    HW122775   3.262   6.931   2.337
 7292SOL    HW222776   3.268   6.871   2.489
 7293SOL     OW22777   1.318   1.602   6.029
 7293SOL    HW122778   1.338   1.690   5.986
 7293SOL    HW222779   1.359   1.599   6.120
 7294SOL     OW22780   3.145   4.321   0.746
 7294SOL    HW122781   3.183   4.317   0.654
 7294SOL    HW222782   3.048   4.343   0.741
 7295SOL     OW22783   6.755   4.546   0.944
 7295SOL    HW122784   6.797   4.477   0.884
 7295SOL    HW222785   6.826   4.589   1.000
 7296SOL     OW22786   4.362   5.337   2.241
 7296SOL    HW122787   4.303   5.302   2.168
 7296SOL    HW222788   4.309   5.347   2.325
 7297SOL     OW22789   2.268   6.854   1.456
 7297SOL    HW122790   2.301   6.855   1.550
 7297SOL    HW222791   2.340   6.820   1.395
 7298SOL     OW22792   5.381   4.723   6.400
 7298SOL    HW122793   5.478   4.740   6.415
 7298SOL    HW222794   5.353   4.764   6.313
 7299SOL     OW22795   0.947   1.883   0.986
 7299SOL    HW122796   1.000   1.951   1.035
 7299SOL    HW222797   0.869   1.855   1.042
 7300SOL     OW22798   0.509   6.916   2.745
 7300SOL    HW122799   0.606   6.890   2.745
 7300SOL    HW222800   0.457   6.854   2.803
 7301SOL     OW22801   6.315   2.353   5.573
 7301SOL    HW122802   6.263   2.290   5.515
 7301SOL    HW222803   6.257   2.431   5.597
 7302SOL     OW22804   0.387   2.316   6.051
 7302SOL    HW122805   0.385   2.341   5.955
 7302SOL    HW222806   0.366   2.219   6.061
 7303SOL     OW22807   3.758   1.232   6.624
 7303SOL    HW122808   3.672   1.185   6.645
 7303SOL    HW222809   3.738   1.324   6.590
 7304SOL     OW22810   2.994   5.679   1.674
 7304SOL    HW122811   2.985   5.766   1.724
 7304SOL    HW222812   2.919   5.670   1.608
 7305SOL     OW22813   4.951   2.168   1.420
 7305SOL    HW122814   4.953   2.071   1.398
 7305SOL    HW222815   4.900   2.217   1.350
 7306SOL     OW22816   3.502   1.673   1.744
 7306SOL    HW122817   3.479   1.762   1.785
 7306SOL    HW222818   3.447   1.601   1.786
 7307SOL     OW22819   4.219   6.776   2.516
 7307SOL    HW122820   4.214   6.769   2.615
 7307SOL    HW222821   4.237   6.686   2.477
 7308SOL     OW22822   6.411   1.569   4.334
 7308SOL    HW122823   6.483   1.637   4.341
 7308SOL    HW222824   6.418   1.504   4.409
 7309SOL     OW22825   3.632   0.074   1.373
 7309SOL    HW122826   3.595   7.022   1.419
 7309SOL    HW222827   3.731   0.077   1.385
 7310SOL     OW22828   2.036   3.834   0.277
 7310SOL    HW122829   2.053   3.930   0.299
 7310SOL    HW222830   2.031   3.823   0.178
 7311SOL     OW22831   1.690   1.016   0.260
 7311SOL    HW122832   1.608   1.019   0.317
 7311SOL    HW222833   1.665   1.030   0.164
 7312SOL     OW22834   1.398   2.034   4.831
 7312SOL    HW122835   1.452   1.961   4.873
 7312SOL    HW222836   1.304   2.029   4.865
 7313SOL     OW22837   2.082   1.519   0.361
 7313SOL    HW122838   2.030   1.488   0.282
 7313SOL    HW222839   2.173   1.478   0.359
 7314SOL     OW22840   6.862   4.041   5.918
 7314SOL    HW122841   6.925   3.987   5.974
 7314SOL    HW222842   6.892   4.136   5.916
 7315SOL     OW22843   4.652   5.631   1.919
 7315SOL    HW122844   4.667   5.650   2.016
 7315SOL    HW222845   4.561   5.664   1.893
 7316SOL     OW22846   3.206   3.045   6.561
 7316SOL    HW122847   3.108   3.033   6.570
 7316SOL    HW222848   3.250   2.957   6.544
 7317SOL     OW22849   4.004   1.317   1.955
 7317SOL    HW122850   4.073   1.367   2.008
 7317SOL    HW222851   3.913   1.345   1.984
 7318SOL     OW22852   2.924   0.277   2.600
 7318SOL    HW122853   2.925   0.288   2.501
 7318SOL    HW222854   2.838   0.313   2.636
 7319SOL     OW22855   5.734   2.781   0.012
 7319SOL    HW122856   5.665   2.807   0.079
 7319SOL    HW222857   5.740   2.851   6.970
 7320SOL     OW22858   0.293   3.343   1.210
 7320SOL    HW122859   0.307   3.370   1.115
 7320SOL    HW222860   0.200   3.367   1.238
 7321SOL     OW22861   2.439   6.588   6.016
 7321SOL    HW122862   2.521   6.606   5.961
 7321SOL    HW222863   2.394   6.505   5.983
 7322SOL     OW22864   6.839   2.113   2.826
 7322SOL    HW122865   6.747   2.152   2.833
 7322SOL    HW222866   6.832   2.018   2.795
 7323SOL     OW22867   2.500   2.930   1.431
 7323SOL    HW122868   2.572   2.947   1.365
 7323SOL    HW222869   2.533   2.950   1.523
 7324SOL     OW22870   5.456   4.837   2.207
 7324SOL    HW122871   5.504   4.781   2.140
 7324SOL    HW222872   5.514   4.913   2.234
 7325SOL     OW22873   2.877   0.219   5.417
 7325SOL    HW122874   2.861   0.286   5.489
 7325SOL    HW222875   2.849   0.256   5.329
 7326SOL     OW22876   3.726   6.141   5.695
 7326SOL    HW122877   3.700   6.170   5.788
 7326SOL    HW222878   3.788   6.209   5.655
 7327SOL     OW22879   6.060   2.856   4.774
 7327SOL    HW122880   5.976   2.902   4.803
 7327SOL    HW222881   6.059   2.843   4.674
 7328SOL     OW22882   4.810   6.983   5.616
 7328SOL    HW122883   4.796   6.899   5.562
 7328SOL    HW222884   4.757   0.028   5.575
 7329SOL     OW22885   0.629   3.957   0.485
 7329SOL    HW122886   0.631   3.925   0.580
 7329SOL    HW222887   0.568   3.900   0.432
 7330SOL     OW22888   2.405   3.230   0.690
 7330SOL    HW122889   2.329   3.255   0.750
 7330SOL    HW222890   2.410   3.130   0.684
 7331SOL     OW22891   5.869   6.376   1.458
 7331SOL    HW122892   5.832   6.284   1.462
 7331SOL    HW222893   5.904   6.402   1.548
 7332SOL     OW22894   2.681   3.952   6.449
 7332SOL    HW122895   2.671   4.051   6.458
 7332SOL    HW222896   2.630   3.921   6.369
 7333SOL     OW22897   6.177   3.170   2.722
 7333SOL    HW122898   6.266   3.128   2.738
 7333SOL    HW222899   6.186   3.270   2.724
 7334SOL     OW22900   2.202   5.780   6.324
 7334SOL    HW122901   2.302   5.775   6.318
 7334SOL    HW222902   2.163   5.730   6.247
 7335SOL     OW22903   7.005   2.920   3.056
 7335SOL    HW122904   7.002   2.828   3.018
 7335SOL    HW222905   0.013   2.916   3.149
 7336SOL     OW22906   2.226   6.572   1.615
 7336SOL    HW122907   2.163   6.576   1.537
 7336SOL    HW222908   2.320   6.572   1.581
 7337SOL     OW22909   2.177   3.202   1.466
 7337SOL    HW122910   2.159   3.106   1.488
 7337SOL    HW222911   2.240   3.240   1.532
 7338SOL     OW22912   5.330   1.901   1.660
 7338SOL    HW122913   5.305   1.883   1.755
 7338SOL    HW222914   5.277   1.841   1.600
 7339SOL     OW22915   6.592   0.320   5.235
 7339SOL    HW122916   6.600   0.221   5.230
 7339SOL    HW222917   6.496   0.347   5.232
 7340SOL     OW22918   3.716   1.302   0.296
 7340SOL    HW122919   3.730   1.268   0.203
 7340SOL    HW222920   3.626   1.345   0.303
 7341SOL     OW22921   0.762   4.783   4.587
 7341SOL    HW122922   0.714   4.698   4.566
 7341SOL    HW222923   0.803   4.776   4.678
 7342SOL     OW22924   6.552   6.589   0.117
 7342SOL    HW122925   6.587   6.632   0.034
 7342SOL    HW222926   6.472   6.533   0.094
 7343SOL     OW22927   5.034   3.959   1.343
 7343SOL    HW122928   5.091   3.954   1.425
 7343SOL    HW222929   5.068   4.031   1.283
 7344SOL     OW22930   2.200   0.575   6.154
 7344SOL    HW122931   2.127   0.584   6.222
 7344SOL    HW222932   2.169   0.614   6.067
 7345SOL     OW22933   4.907   6.537   5.688
 7345SOL    HW122934   4.957   6.460   5.726
 7345SOL    HW222935   4.935   6.621   5.735
 7346SOL     OW22936   3.746   4.452   1.369
 7346SOL    HW122937   3.783   4.496   1.451
 7346SOL    HW222938   3.738   4.354   1.385
 7347SOL     OW22939   6.867   3.195   0.858
 7347SOL    HW122940   6.869   3.116   0.919
 7347SOL    HW222941   6.789   3.254   0.882
 7348SOL     OW22942   1.695   3.189   3.664
 7348SOL    HW122943   1.764   3.260   3.682
 7348SOL    HW222944   1.627   3.225   3.601
 7349SOL     OW22945   4.210   1.889   0.998
 7349SOL    HW122946   4.112   1.877   1.013
 7349SOL    HW222947   4.237   1.982   1.023
 7350SOL     OW22948   1.467   3.618   4.500
 7350SOL    HW122949   1.509   3.674   4.572
 7350SOL    HW222950   1.466   3.523   4.529
 7351SOL     OW22951   4.687   6.099   4.932
 7351SOL    HW122952   4.648   6.110   4.840
 7351SOL    HW222953   4.613   6.080   4.997
 7352SOL     OW22954   1.249   3.163   2.660
 7352SOL    HW122955   1.198   3.197   2.739
 7352SOL    HW222956   1.347   3.170   2.679
 7353SOL     OW22957   0.202   0.220   6.171
 7353SOL    HW122958   0.205   0.141   6.231
 7353SOL    HW222959   0.153   0.295   6.217
 7354SOL     OW22960   1.191   1.706   6.969
 7354SOL    HW122961   1.116   1.736   0.000
 7354SOL    HW222962   1.234   1.624   7.008
 7355SOL     OW22963   1.462   1.253   0.704
 7355SOL    HW122964   1.519   1.175   0.732
 7355SOL    HW222965   1.477   1.330   0.766
 7356SOL     OW22966   4.753   3.116   6.231
 7356SOL    HW122967   4.740   3.210   6.201
 7356SOL    HW222968   4.843   3.083   6.202
 7357SOL     OW22969   4.434   0.612   1.734
 7357SOL    HW122970   4.427   0.567   1.823
 7357SOL    HW222971   4.523   0.657   1.726
 7358SOL     OW22972   1.167   2.935   2.093
 7358SOL    HW122973   1.255   2.943   2.141
 7358SOL    HW222974   1.104   3.003   2.130
 7359SOL     OW22975   2.767   2.645   0.149
 7359SOL    HW122976   2.853   2.680   0.111
 7359SOL    HW222977   2.737   2.705   0.222
 7360SOL     OW22978   3.110   3.691   6.014
 7360SOL    HW122979   3.058   3.631   5.953
 7360SOL    HW222980   3.191   3.725   5.967
 7361SOL     OW22981   4.341   0.458   2.307
 7361SOL    HW122982   4.349   0.378   2.248
 7361SOL    HW222983   4.370   0.434   2.399
 7362SOL     OW22984   0.916   6.033   4.659
 7362SOL    HW122985   0.846   6.096   4.692
 7362SOL    HW222986   0.875   5.943   4.643
 7363SOL     OW22987   4.103   1.430   1.071
 7363SOL    HW122988   4.040   1.354   1.092
 7363SOL    HW222989   4.105   1.493   1.148
 7364SOL     OW22990   4.536   0.565   1.244
 7364SOL    HW122991   4.634   0.551   1.262
 7364SOL    HW222992   4.484   0.541   1.326
 7365SOL     OW22993   1.432   6.647   1.738
 7365SOL    HW122994   1.375   6.594   1.800
 7365SOL    HW222995   1.487   6.713   1.790
 7366SOL     OW22996   2.183   5.592   0.448
 7366SOL    HW122997   2.086   5.612   0.444
 7366SOL    HW222998   2.231   5.645   0.379
 7367SOL     OW22999   4.829   3.841   1.216
 7367SOL    HW123000   4.743   3.878   1.252
 7367SOL    HW223001   4.905   3.897   1.248
 7368SOL     OW23002   3.891   3.010   3.584
 7368SOL    HW123003   3.809   2.979   3.633
 7368SOL    HW223004   3.944   3.070   3.643
 7369SOL     OW23005   4.733   2.703   0.606
 7369SOL    HW123006   4.817   2.719   0.553
 7369SOL    HW223007   4.736   2.757   0.689
 7370SOL     OW23008   2.711   0.616   5.289
 7370SOL    HW123009   2.652   0.696   5.294
 7370SOL    HW223010   2.782   0.630   5.219
 7371SOL     OW23011   1.776   5.963   3.794
 7371SOL    HW123012   1.799   5.926   3.704
 7371SOL    HW223013   1.681   5.938   3.816
 7372SOL     OW23014   3.102   1.293   5.561
 7372SOL    HW123015   3.075   1.198   5.577
 7372SOL    HW223016   3.022   1.346   5.530
 7373SOL     OW23017   5.590   1.150   4.292
 7373SOL    HW123018   5.497   1.176   4.266
 7373SOL    HW223019   5.604   1.053   4.273
 7374SOL     OW23020   2.744   1.957   5.621
 7374SOL    HW123021   2.808   2.012   5.568
 7374SOL    HW223022   2.680   1.911   5.559
 7375SOL     OW23023   2.250   2.962   2.699
 7375SOL    HW123024   2.321   2.907   2.655
 7375SOL    HW223025   2.254   2.948   2.798
 7376SOL     OW23026   3.916   1.695   6.578
 7376SOL    HW123027   3.846   1.752   6.622
 7376SOL    HW223028   4.001   1.701   6.630
 7377SOL     OW23029   5.362   5.318   1.028
 7377SOL    HW123030   5.399   5.323   0.935
 7377SOL    HW223031   5.438   5.306   1.093
 7378SOL     OW23032   0.410   1.066   5.574
 7378SOL    HW123033   0.414   1.037   5.670
 7378SOL    HW223034   0.325   1.116   5.558
 7379SOL     OW23035   3.208   2.112   2.537
 7379SOL    HW123036   3.278   2.144   2.601
 7379SOL    HW223037   3.117   2.126   2.576
 7380SOL     OW23038   6.790   3.291   5.364
 7380SOL    HW123039   6.834   3.331   5.444
 7380SOL    HW223040   6.711   3.346   5.338
 7381SOL     OW23041   4.652   3.918   1.766
 7381SOL    HW123042   4.557   3.937   1.740
 7381SOL    HW223043   4.687   3.842   1.711
 7382SOL     OW23044   0.009   5.876   6.308
 7382SOL    HW123045   0.089   5.872   6.367
 7382SOL    HW223046   6.992   5.787   6.306
 7383SOL     OW23047   0.920   6.488   1.143
 7383SOL    HW123048   0.906   6.420   1.072
 7383SOL    HW223049   0.872   6.573   1.119
 7384SOL     OW23050   5.473   0.774   2.745
 7384SOL    HW123051   5.527   0.830   2.682
 7384SOL    HW223052   5.459   0.683   2.706
 7385SOL     OW23053   4.225   6.169   1.805
 7385SOL    HW123054   4.147   6.167   1.743
 7385SOL    HW223055   4.195   6.200   1.895
 7386SOL     OW23056   0.390   1.966   5.615
 7386SOL    HW123057   0.434   1.983   5.527
 7386SOL    HW223058   0.402   1.869   5.640
 7387SOL     OW23059   4.523   6.278   4.248
 7387SOL    HW123060   4.540   6.376   4.260
 7387SOL    HW223061   4.601   6.226   4.282
 7388SOL     OW23062   0.303   4.968   3.155
 7388SOL    HW123063   0.361   4.942   3.232
 7388SOL    HW223064   0.210   4.933   3.170
 7389SOL     OW23065   0.307   3.652   6.199
 7389SOL    HW123066   0.312   3.733   6.258
 7389SOL    HW223067   0.351   3.574   6.244
 7390SOL     OW23068   2.506   1.596   6.745
 7390SOL    HW123069   2.461   1.561   6.662
 7390SOL    HW223070   2.448   1.576   6.824
 7391SOL     OW23071   5.190   4.249   4.987
 7391SOL    HW123072   5.262   4.316   5.004
 7391SOL    HW223073   5.157   4.213   5.074
 7392SOL     OW23074   2.547   5.856   6.872
 7392SOL    HW123075   2.559   5.951   6.901
 7392SOL    HW223076   2.524   5.854   6.774
 7393SOL     OW23077   5.253   4.955   1.855
 7393SOL    HW123078   5.258   5.000   1.766
 7393SOL    HW223079   5.180   4.887   1.854
 7394SOL     OW23080   2.965   2.684   5.887
 7394SOL    HW123081   2.965   2.625   5.806
 7394SOL    HW223082   3.060   2.704   5.912
 7395SOL     OW23083   2.452   1.676   0.152
 7395SOL    HW123084   2.455   1.642   0.246
 7395SOL    HW223085   2.413   1.768   0.151
 7396SOL     OW23086   0.903   6.603   0.302
 7396SOL    HW123087   0.837   6.538   0.339
 7396SOL    HW223088   0.896   6.689   0.352
 7397SOL     OW23089   4.690   5.119   4.645
 7397SOL    HW123090   4.647   5.067   4.719
 7397SOL    HW223091   4.638   5.107   4.561
 7398SOL     OW23092   2.902   5.586   4.501
 7398SOL    HW123093   2.975   5.611   4.437
 7398SOL    HW223094   2.817   5.569   4.450
 7399SOL     OW23095   0.772   2.860   5.464
 7399SOL    HW123096   0.856   2.871   5.411
 7399SOL    HW223097   0.795   2.845   5.560
 7400SOL     OW23098   3.919   3.189   5.944
 7400SOL    HW123099   3.981   3.142   5.882
 7400SOL    HW223100   3.915   3.141   6.031
 7401SOL     OW23101   1.351   0.643   4.577
 7401SOL    HW123102   1.285   0.684   4.514
 7401SOL    HW223103   1.437   0.694   4.573
 7402SOL     OW23104   3.044   5.613   5.905
 7402SOL    HW123105   3.000   5.568   5.828
 7402SOL    HW223106   2.990   5.598   5.988
 7403SOL     OW23107   2.168   4.055   2.673
 7403SOL    HW123108   2.183   3.986   2.602
 7403SOL    HW223109   2.160   4.145   2.630
 7404SOL     OW23110   2.696   5.049   1.241
 7404SOL    HW123111   2.614   4.995   1.261
 7404SOL    HW223112   2.680   5.103   1.158
 7405SOL     OW23113   4.028   4.865   4.111
 7405SOL    HW123114   4.095   4.843   4.040
 7405SOL    HW223115   3.992   4.780   4.150
 7406SOL     OW23116   0.740   3.141   3.544
 7406SOL    HW123117   0.647   3.139   3.508
 7406SOL    HW223118   0.802   3.180   3.475
 7407SOL     OW23119   7.012   6.375   4.672
 7407SOL    HW123120   6.948   6.405   4.601
 7407SOL    HW223121   7.002   6.434   4.752
 7408SOL     OW23122   1.279   3.618   6.208
 7408SOL    HW123123   1.315   3.704   6.172
 7408SOL    HW223124   1.316   3.542   6.156
 7409SOL     OW23125   0.557   1.201   6.169
 7409SOL    HW123126   0.493   1.128   6.191
 7409SOL    HW223127   0.532   1.240   6.080
 7410SOL     OW23128   0.312   5.256   0.790
 7410SOL    HW123129   0.226   5.223   0.752
 7410SOL    HW223130   0.294   5.321   0.863
 7411SOL     OW23131   2.876   0.138   4.240
 7411SOL    HW123132   2.795   0.188   4.268
 7411SOL    HW223133   2.905   0.169   4.149
 7412SOL     OW23134   4.427   0.375   2.549
 7412SOL    HW123135   4.384   0.353   2.636
 7412SOL    HW223136   4.501   0.310   2.532
 7413SOL     OW23137   4.897   5.675   5.366
 7413SOL    HW123138   4.953   5.734   5.308
 7413SOL    HW223139   4.879   5.589   5.320
 7414SOL     OW23140   0.047   6.924   3.736
 7414SOL    HW123141   0.135   6.935   3.690
 7414SOL    HW223142   0.057   6.861   3.813
 7415SOL     OW23143   1.060   3.713   3.805
 7415SOL    HW123144   1.010   3.745   3.724
 7415SOL    HW223145   1.029   3.621   3.829
 7416SOL     OW23146   3.031   1.339   3.788
 7416SOL    HW123147   3.004   1.393   3.708
 7416SOL    HW223148   2.992   1.247   3.780
 7417SOL     OW23149   2.320   0.821   6.346
 7417SOL    HW123150   2.330   0.881   6.426
 7417SOL    HW223151   2.385   0.746   6.352
 7418SOL     OW23152   3.542   5.227   0.516
 7418SOL    HW123153   3.483   5.280   0.455
 7418SOL    HW223154   3.600   5.289   0.569
 7419SOL     OW23155   5.655   2.998   5.152
 7419SOL    HW123156   5.622   2.988   5.058
 7419SOL    HW223157   5.660   2.908   5.196
 7420SOL     OW23158   0.216   6.745   1.842
 7420SOL    HW123159   0.313   6.763   1.853
 7420SOL    HW223160   0.196   6.727   1.746
 7421SOL     OW23161   3.151   3.404   1.221
 7421SOL    HW123162   3.218   3.468   1.182
 7421SOL    HW223163   3.059   3.439   1.205
 7422SOL     OW23164   0.098   2.802   2.722
 7422SOL    HW123165   0.027   2.867   2.749
 7422SOL    HW223166   0.061   2.709   2.724
 7423SOL     OW23167   6.452   4.844   5.362
 7423SOL    HW123168   6.508   4.817   5.283
 7423SOL    HW223169   6.492   4.924   5.406
 7424SOL     OW23170   6.700   0.286   4.926
 7424SOL    HW123171   6.683   0.304   5.023
 7424SOL    HW223172   6.772   0.217   4.917
 7425SOL     OW23173   4.794   5.733   6.176
 7425SOL    HW123174   4.837   5.812   6.133
 7425SOL    HW223175   4.705   5.759   6.213
 7426SOL     OW23176   1.783   1.401   6.076
 7426SOL    HW123177   1.763   1.485   6.025
 7426SOL    HW223178   1.807   1.424   6.171
 7427SOL     OW23179   3.516   6.383   4.377
 7427SOL    HW123180   3.513   6.477   4.343
 7427SOL    HW223181   3.442   6.370   4.443
 7428SOL     OW23182   4.217   1.299   6.137
 7428SOL    HW123183   4.193   1.373   6.200
 7428SOL    HW223184   4.310   1.268   6.156
 7429SOL     OW23185   6.221   6.721   3.173
 7429SOL    HW123186   6.267   6.654   3.115
 7429SOL    HW223187   6.193   6.678   3.258
 7430SOL     OW23188   0.374   3.765   6.648
 7430SOL    HW123189   0.331   3.793   6.735
 7430SOL    HW223190   0.316   3.697   6.603
 7431SOL     OW23191   0.332   3.184   2.833
 7431SOL    HW123192   0.288   3.211   2.919
 7431SOL    HW223193   0.308   3.089   2.811
 7432SOL     OW23194   7.022   0.488   3.413
 7432SOL    HW123195   0.059   0.485   3.488
 7432SOL    HW223196   0.033   0.538   3.335
 7433SOL     OW23197   5.590   4.836   6.735
 7433SOL    HW123198   5.642   4.857   6.818
 7433SOL    HW223199   5.638   4.767   6.681
 7434SOL     OW23200   5.460   0.483   5.788
 7434SOL    HW123201   5.543   0.428   5.802
 7434SOL    HW223202   5.419   0.460   5.700
 7435SOL     OW23203   4.191   5.782   0.573
 7435SOL    HW123204   4.093   5.769   0.559
 7435SOL    HW223205   4.217   5.873   0.542
 7436SOL     OW23206   5.604   3.084   6.883
 7436SOL    HW123207   5.704   3.090   6.890
 7436SOL    HW223208   5.568   3.167   6.842
 7437SOL     OW23209   0.310   5.707   0.490
 7437SOL    HW123210   0.250   5.787   0.495
 7437SOL    HW223211   0.345   5.698   0.397
 7438SOL     OW23212   0.415   4.983   6.908
 7438SOL    HW123213   0.401   4.890   6.873
 7438SOL    HW223214   0.334   5.012   6.958
 7439SOL     OW23215   1.774   5.950   4.599
 7439SOL    HW123216   1.842   5.913   4.537
 7439SOL    HW223217   1.816   5.968   4.688
 7440SOL     OW23218   0.416   3.618   4.544
 7440SOL    HW123219   0.470   3.657   4.469
 7440SOL    HW223220   0.438   3.521   4.554
 7441SOL     OW23221   5.125   5.748   4.314
 7441SOL    HW123222   5.114   5.797   4.400
 7441SOL    HW223223   5.185   5.800   4.253
 7442SOL     OW23224   0.316   0.786   6.596
 7442SOL    HW123225   0.238   0.730   6.567
 7442SOL    HW223226   0.401   0.747   6.560
 7443SOL     OW23227   0.145   0.579   2.521
 7443SOL    HW123228   0.074   0.545   2.584
 7443SOL    HW223229   0.186   0.662   2.559
 7444SOL     OW23230   6.184   3.331   4.914
 7444SOL    HW123231   6.189   3.309   5.012
 7444SOL    HW223232   6.187   3.246   4.861
 7445SOL     OW23233   3.140   1.187   1.317
 7445SOL    HW123234   3.230   1.159   1.285
 7445SOL    HW223235   3.072   1.121   1.286
 7446SOL     OW23236   5.434   4.004   0.674
 7446SOL    HW123237   5.458   4.079   0.611
 7446SOL    HW223238   5.458   4.030   0.767
 7447SOL     OW23239   0.588   3.416   5.702
 7447SOL    HW123240   0.658   3.479   5.668
 7447SOL    HW223241   0.547   3.368   5.624
 7448SOL     OW23242   6.574   6.993   5.516
 7448SOL    HW123243   6.615   6.908   5.549
 7448SOL    HW223244   6.474   6.985   5.518
 7449SOL     OW23245   6.470   2.773   1.991
 7449SOL    HW123246   6.417   2.713   2.051
 7449SOL    HW223247   6.539   2.822   2.045
 7450SOL     OW23248   5.530   1.743   4.749
 7450SOL    HW123249   5.502   1.735   4.653
 7450SOL    HW223250   5.630   1.746   4.754
 7451SOL     OW23251   0.857   6.727   3.802
 7451SOL    HW123252   0.844   6.803   3.866
 7451SOL    HW223253   0.953   6.700   3.802
 7452SOL     OW23254   0.987   6.221   5.018
 7452SOL    HW123255   1.040   6.167   5.083
 7452SOL    HW223256   0.901   6.174   4.999
 7453SOL     OW23257   4.894   6.137   5.357
 7453SOL    HW123258   4.956   6.067   5.322
 7453SOL    HW223259   4.934   6.227   5.342
 7454SOL     OW23260   1.126   2.330   2.047
 7454SOL    HW123261   1.054   2.262   2.065
 7454SOL    HW223262   1.134   2.344   1.948
 7455SOL     OW23263   6.772   1.717   2.280
 7455SOL    HW123264   6.804   1.801   2.236
 7455SOL    HW223265   6.750   1.649   2.210
 7456SOL     OW23266   0.299   1.796   4.208
 7456SOL    HW123267   0.264   1.854   4.134
 7456SOL    HW223268   0.238   1.719   4.222
 7457SOL     OW23269   4.060   0.524   5.446
 7457SOL    HW123270   4.049   0.446   5.384
 7457SOL    HW223271   3.971   0.567   5.463
 7458SOL     OW23272   2.336   6.838   6.064
 7458SOL    HW123273   2.377   6.747   6.062
 7458SOL    HW223274   2.364   6.886   6.147
 7459SOL     OW23275   5.082   0.573   1.793
 7459SOL    HW123276   5.052   0.499   1.733
 7459SOL    HW223277   5.065   0.548   1.889
 7460SOL     OW23278   2.139   5.405   1.026
 7460SOL    HW123279   2.106   5.475   0.962
 7460SOL    HW223280   2.098   5.419   1.116
 7461SOL     OW23281   6.205   1.671   5.667
 7461SOL    HW123282   6.262   1.718   5.734
 7461SOL    HW223283   6.216   1.715   5.577
 7462SOL     OW23284   1.240   4.103   3.032
 7462SOL    HW123285   1.288   4.019   3.005
 7462SOL    HW223286   1.206   4.150   2.950
 7463SOL     OW23287   2.916   4.981   0.565
 7463SOL    HW123288   2.956   4.969   0.474
 7463SOL    HW223289   2.825   4.941   0.567
 7464SOL     OW23290   4.892   0.292   6.565
 7464SOL    HW123291   4.905   0.363   6.495
 7464SOL    HW223292   4.835   0.219   6.528
 7465SOL     OW23293   0.692   6.125   0.117
 7465SOL    HW123294   0.697   6.216   0.157
 7465SOL    HW223295   0.681   6.057   0.190
 7466SOL     OW23296   0.454   0.361   6.017
 7466SOL    HW123297   0.388   0.387   5.946
 7466SOL    HW223298   0.417   0.285   6.070
 7467SOL     OW23299   6.988   2.058   0.740
 7467SOL    HW123300   0.051   2.024   0.762
 7467SOL    HW223301   6.995   2.149   0.699
 7468SOL     OW23302   6.389   2.249   3.094
 7468SOL    HW123303   6.366   2.168   3.148
 7468SOL    HW223304   6.309   2.308   3.086
 7469SOL     OW23305   0.574   0.819   0.738
 7469SOL    HW123306   0.523   0.905   0.738
 7469SOL    HW223307   0.586   0.788   0.644
 7470SOL     OW23308   0.140   3.016   3.811
 7470SOL    HW123309   0.191   3.098   3.835
 7470SOL    HW223310   0.095   2.979   3.892
 7471SOL     OW23311   0.131   6.429   6.238
 7471SOL    HW123312   0.041   6.465   6.214
 7471SOL    HW223313   0.201   6.475   6.183
 7472SOL     OW23314   6.289   0.074   4.020
 7472SOL    HW123315   6.348   0.005   4.062
 7472SOL    HW223316   6.341   0.157   4.003
 7473SOL     OW23317   6.482   4.685   2.981
 7473SOL    HW123318   6.410   4.663   2.916
 7473SOL    HW223319   6.448   4.674   3.074
 7474SOL     OW23320   2.295   1.367   5.551
 7474SOL    HW123321   2.354   1.351   5.471
 7474SOL    HW223322   2.292   1.465   5.570
 7475SOL     OW23323   4.259   1.378   2.791
 7475SOL    HW123324   4.263   1.355   2.693
 7475SOL    HW223325   4.214   1.466   2.802
 7476SOL     OW23326   3.502   5.381   3.277
 7476SOL    HW123327   3.500   5.314   3.202
 7476SOL    HW223328   3.445   5.459   3.252
 7477SOL     OW23329   7.022   1.444   5.125
 7477SOL    HW123330   6.995   1.454   5.029
 7477SOL    HW223331   6.952   1.390   5.173
 7478SOL     OW23332   4.673   5.419   6.329
 7478SOL    HW123333   4.605   5.429   6.403
 7478SOL    HW223334   4.761   5.394   6.368
 7479SOL     OW23335   4.131   2.181   1.579
 7479SOL    HW123336   4.089   2.235   1.506
 7479SOL    HW223337   4.088   2.205   1.666
 7480SOL     OW23338   6.716   4.116   1.812
 7480SOL    HW123339   6.695   4.070   1.726
 7480SOL    HW223340   6.762   4.203   1.793
 7481SOL     OW23341   6.043   5.466   1.295
 7481SOL    HW123342   6.014   5.398   1.362
 7481SOL    HW223343   6.131   5.504   1.322
 7482SOL     OW23344   4.264   2.223   3.556
 7482SOL    HW123345   4.193   2.250   3.491
 7482SOL    HW223346   4.222   2.174   3.633
 7483SOL     OW23347   4.882   2.891   4.852
 7483SOL    HW123348   4.852   2.940   4.769
 7483SOL    HW223349   4.804   2.880   4.913
 7484SOL     OW23350   1.110   0.873   3.790
 7484SOL    HW123351   1.024   0.890   3.744
 7484SOL    HW223352   1.180   0.936   3.756
 7485SOL     OW23353   3.420   0.769   4.911
 7485SOL    HW123354   3.354   0.696   4.930
 7485SOL    HW223355   3.382   0.831   4.843
 7486SOL     OW23356   2.659   0.489   5.936
 7486SOL    HW123357   2.673   0.455   6.030
 7486SOL    HW223358   2.744   0.477   5.884
 7487SOL     OW23359   2.296   6.370   2.514
 7487SOL    HW123360   2.373   6.378   2.577
 7487SOL    HW223361   2.272   6.274   2.501
 7488SOL     OW23362   1.660   6.516   3.931
 7488SOL    HW123363   1.644   6.450   3.858
 7488SOL    HW223364   1.758   6.521   3.950
 7489SOL     OW23365   5.462   2.793   4.714
 7489SOL    HW123366   5.550   2.748   4.697
 7489SOL    HW223367   5.452   2.870   4.650
 7490SOL     OW23368   0.870   0.644   1.554
 7490SOL    HW123369   0.937   0.703   1.510
 7490SOL    HW223370   0.873   0.553   1.513
 7491SOL     OW23371   5.936   3.321   5.902
 7491SOL    HW123372   5.901   3.250   5.964
 7491SOL    HW223373   5.908   3.411   5.935
 7492SOL     OW23374   2.123   0.691   3.558
 7492SOL    HW123375   2.065   0.627   3.507
 7492SOL    HW223376   2.174   0.640   3.628
 7493SOL     OW23377   6.817   3.853   6.902
 7493SOL    HW123378   6.892   3.788   6.912
 7493SOL    HW223379   6.853   3.946   6.903
 7494SOL     OW23380   5.265   1.248   2.341
 7494SOL    HW123381   5.249   1.158   2.299
 7494SOL    HW223382   5.340   1.294   2.294
 7495SOL     OW23383   1.629   1.362   0.448
 7495SOL    HW123384   1.563   1.320   0.386
 7495SOL    HW223385   1.615   1.327   0.541
 7496SOL     OW23386   6.850   3.442   6.208
 7496SOL    HW123387   6.839   3.366   6.145
 7496SOL    HW223388   6.763   3.462   6.252
 7497SOL     OW23389   2.271   5.007   0.628
 7497SOL    HW123390   2.237   4.953   0.705
 7497SOL    HW223391   2.221   5.094   0.624
 7498SOL     OW23392   2.521   1.507   5.347
 7498SOL    HW123393   2.476   1.428   5.305
 7498SOL    HW223394   2.613   1.517   5.308
 7499SOL     OW23395   3.576   2.083   2.931
 7499SOL    HW123396   3.497   2.064   2.990
 7499SOL    HW223397   3.612   1.997   2.895
 7500SOL     OW23398   3.347   5.279   3.495
 7500SOL    HW123399   3.259   5.284   3.448
 7500SOL    HW223400   3.421   5.297   3.431
 7501SOL     OW23401   5.728   4.059   4.152
 7501SOL    HW123402   5.677   4.072   4.068
 7501SOL    HW223403   5.753   3.962   4.162
 7502SOL     OW23404   1.743   0.076   4.753
 7502SOL    HW123405   1.646   0.096   4.748
 7502SOL    HW223406   1.760   7.010   4.725
 7503SOL     OW23407   3.150   1.815   0.728
 7503SOL    HW123408   3.202   1.829   0.813
 7503SOL    HW223409   3.188   1.873   0.656
 7504SOL     OW23410   1.953   0.009   2.864
 7504SOL    HW123411   2.002   0.086   2.825
 7504SOL    HW223412   1.901   0.040   2.944
 7505SOL     OW23413   1.619   1.987   5.780
 7505SOL    HW123414   1.626   1.932   5.863
 7505SOL    HW223415   1.577   2.076   5.802
 7506SOL     OW23416   5.327   0.561   2.958
 7506SOL    HW123417   5.341   0.502   3.038
 7506SOL    HW223418   5.373   0.649   2.973
 7507SOL     OW23419   1.008   0.491   2.379
 7507SOL    HW123420   1.092   0.538   2.351
 7507SOL    HW223421   0.968   0.445   2.300
 7508SOL     OW23422   0.492   6.239   2.215
 7508SOL    HW123423   0.426   6.311   2.195
 7508SOL    HW223424   0.529   6.202   2.130
 7509SOL     OW23425   5.603   4.856   0.478
 7509SOL    HW123426   5.568   4.827   0.389
 7509SOL    HW223427   5.612   4.956   0.479
 7510SOL     OW23428   3.817   4.333   5.237
 7510SOL    HW123429   3.896   4.272   5.248
 7510SOL    HW223430   3.754   4.293   5.172
 7511SOL     OW23431   2.663   0.022   3.965
 7511SOL    HW123432   2.626   6.966   4.003
 7511SOL    HW223433   2.721   0.001   3.886
 7512SOL     OW23434   3.136   5.904   6.835
 7512SOL    HW123435   3.173   5.856   6.914
 7512SOL    HW223436   3.211   5.933   6.775
 7513SOL     OW23437   2.200   0.738   1.848
 7513SOL    HW123438   2.168   0.695   1.764
 7513SOL    HW223439   2.264   0.812   1.825
 7514SOL     OW23440   2.597   5.505   1.137
 7514SOL    HW123441   2.652   5.587   1.120
 7514SOL    HW223442   2.640   5.451   1.209
 7515SOL     OW23443   0.048   4.885   1.979
 7515SOL    HW123444   0.139   4.921   2.004
 7515SOL    HW223445   0.010   4.836   2.057
 7516SOL     OW23446   6.416   6.065   5.798
 7516SOL    HW123447   6.420   5.977   5.751
 7516SOL    HW223448   6.364   6.055   5.882
 7517SOL     OW23449   6.877   3.514   0.567
 7517SOL    HW123450   6.890   3.415   0.559
 7517SOL    HW223451   6.912   3.559   0.486
 7518SOL     OW23452   4.173   5.363   3.349
 7518SOL    HW123453   4.107   5.288   3.355
 7518SOL    HW223454   4.180   5.394   3.254
 7519SOL     OW23455   6.762   6.672   3.852
 7519SOL    HW123456   6.833   6.632   3.795
 7519SOL    HW223457   6.704   6.600   3.890
 7520SOL     OW23458   3.663   0.580   2.359
 7520SOL    HW123459   3.676   0.556   2.263
 7520SOL    HW223460   3.652   0.679   2.367
 7521SOL     OW23461   4.885   4.205   6.052
 7521SOL    HW123462   4.910   4.265   5.977
 7521SOL    HW223463   4.786   4.204   6.063
 7522SOL     OW23464   2.776   0.622   6.633
 7522SOL    HW123465   2.815   0.689   6.570
 7522SOL    HW223466   2.685   0.653   6.661
 7523SOL     OW23467   6.021   0.173   6.142
 7523SOL    HW123468   5.924   0.163   6.119
 7523SOL    HW223469   6.057   0.085   6.172
 7524SOL     OW23470   2.204   1.949   5.779
 7524SOL    HW123471   2.239   2.018   5.843
 7524SOL    HW223472   2.156   1.878   5.830
 7525SOL     OW23473   3.593   0.662   5.911
 7525SOL    HW123474   3.509   0.694   5.955
 7525SOL    HW223475   3.640   0.598   5.971
 7526SOL     OW23476   2.575   3.269   1.449
 7526SOL    HW123477   2.507   3.329   1.489
 7526SOL    HW223478   2.540   3.175   1.447
 7527SOL     OW23479   4.102   5.924   3.004
 7527SOL    HW123480   4.160   6.004   3.018
 7527SOL    HW223481   4.054   5.902   3.089
 7528SOL     OW23482   5.345   1.871   7.015
 7528SOL    HW123483   5.268   1.859   0.048
 7528SOL    HW223484   5.353   1.790   6.956
 7529SOL     OW23485   5.153   0.423   4.599
 7529SOL    HW123486   5.243   0.383   4.582
 7529SOL    HW223487   5.163   0.505   4.656
 7530SOL     OW23488   0.658   3.685   2.817
 7530SOL    HW123489   0.720   3.764   2.816
 7530SOL    HW223490   0.576   3.707   2.765
 7531SOL     OW23491   4.740   2.774   4.394
 7531SOL    HW123492   4.838   2.772   4.371
 7531SOL    HW223493   4.728   2.749   4.490
 7532SOL     OW23494   5.821   4.741   0.636
 7532SOL    HW123495   5.866   4.710   0.552
 7532SOL    HW223496   5.747   4.804   0.613
 7533SOL     OW23497   2.379   1.900   2.373
 7533SOL    HW123498   2.309   1.921   2.304
 7533SOL    HW223499   2.453   1.968   2.367
 7534SOL     OW23500   4.436   6.234   5.583
 7534SOL    HW123501   4.472   6.286   5.506
 7534SOL    HW223502   4.504   6.232   5.656
 7535SOL     OW23503   2.083   6.967   5.656
 7535SOL    HW123504   2.089   0.009   5.586
 7535SOL    HW223505   2.049   6.882   5.616
 7536SOL     OW23506   4.798   4.493   4.490
 7536SOL    HW123507   4.851   4.427   4.437
 7536SOL    HW223508   4.844   4.511   4.577
 7537SOL     OW23509   3.196   5.490   2.344
 7537SOL    HW123510   3.147   5.421   2.397
 7537SOL    HW223511   3.148   5.577   2.351
 7538SOL     OW23512   2.576   2.989   1.680
 7538SOL    HW123513   2.518   2.941   1.745
 7538SOL    HW223514   2.672   2.964   1.696
 7539SOL     OW23515   0.761   3.056   3.992
 7539SOL    HW123516   0.819   2.974   3.999
 7539SOL    HW223517   0.782   3.105   3.907
 7540SOL     OW23518   4.799   0.517   5.394
 7540SOL    HW123519   4.740   0.436   5.403
 7540SOL    HW223520   4.842   0.517   5.303
 7541SOL     OW23521   0.181   4.667   4.636
 7541SOL    HW123522   0.164   4.656   4.734
 7541SOL    HW223523   0.277   4.646   4.617
 7542SOL     OW23524   1.076   5.242   6.849
 7542SOL    HW123525   1.010   5.173   6.819
 7542SOL    HW223526   1.057   5.329   6.803
 7543SOL     OW23527   3.390   1.946   6.968
 7543SOL    HW123528   3.349   2.036   6.956
 7543SOL    HW223529   3.397   1.900   6.879
 7544SOL     OW23530   0.136   1.962   2.790
 7544SOL    HW123531   0.108   2.021   2.715
 7544SOL    HW223532   0.192   2.014   2.854
 7545SOL     OW23533   6.523   5.777   1.159
 7545SOL    HW123534   6.468   5.846   1.207
 7545SOL    HW223535   6.582   5.729   1.224
 7546SOL     OW23536   3.243   1.750   2.073
 7546SOL    HW123537   3.158   1.730   2.023
 7546SOL    HW223538   3.262   1.848   2.068
 7547SOL     OW23539   4.866   0.968   0.437
 7547SOL    HW123540   4.810   0.968   0.520
 7547SOL    HW223541   4.846   0.886   0.384
 7548SOL     OW23542   4.078   1.860   0.203
 7548SOL    HW123543   4.118   1.938   0.252
 7548SOL    HW223544   3.989   1.886   0.165
 7549SOL     OW23545   5.565   2.281   1.269
 7549SOL    HW123546   5.552   2.376   1.298
 7549SOL    HW223547   5.541   2.219   1.344
 7550SOL     OW23548   2.515   4.920   2.252
 7550SOL    HW123549   2.536   4.981   2.328
 7550SOL    HW223550   2.525   4.969   2.165
 7551SOL     OW23551   5.308   3.977   6.439
 7551SOL    HW123552   5.298   3.921   6.356
 7551SOL    HW223553   5.235   4.045   6.443
 7552SOL     OW23554   1.347   5.326   2.709
 7552SOL    HW123555   1.407   5.384   2.763
 7552SOL    HW223556   1.253   5.335   2.742
 7553SOL     OW23557   4.848   6.305   5.065
 7553SOL    HW123558   4.917   6.317   4.994
 7553SOL    HW223559   4.786   6.230   5.040
 7554SOL     OW23560   4.606   1.787   0.926
 7554SOL    HW123561   4.682   1.723   0.910
 7554SOL    HW223562   4.521   1.744   0.897
 7555SOL     OW23563   2.068   4.909   5.521
 7555SOL    HW123564   2.123   4.946   5.446
 7555SOL    HW223565   1.974   4.893   5.489
 7556SOL     OW23566   1.353   3.012   0.457
 7556SOL    HW123567   1.361   2.952   0.378
 7556SOL    HW223568   1.440   3.059   0.472
 7557SOL     OW23569   5.423   1.832   6.266
 7557SOL    HW123570   5.375   1.916   6.241
 7557SOL    HW223571   5.520   1.840   6.245
 7558SOL     OW23572   1.419   2.761   4.523
 7558SOL    HW123573   1.440   2.729   4.616
 7558SOL    HW223574   1.488   2.726   4.460
 7559SOL     OW23575   5.861   4.366   6.756
 7559SOL    HW123576   5.784   4.302   6.762
 7559SOL    HW223577   5.894   4.369   6.662
 7560SOL     OW23578   4.920   6.035   1.017
 7560SOL    HW123579   4.932   6.112   1.081
 7560SOL    HW223580   4.830   5.993   1.033
 7561SOL     OW23581   1.525   3.310   6.810
 7561SOL    HW123582   1.555   3.398   6.849
 7561SOL    HW223583   1.507   3.322   6.713
 7562SOL     OW23584   6.827   6.259   3.848
 7562SOL    HW123585   6.752   6.205   3.886
 7562SOL    HW223586   6.878   6.203   3.783
 7563SOL     OW23587   2.635   6.627   0.689
 7563SOL    HW123588   2.681   6.702   0.643
 7563SOL    HW223589   2.540   6.652   0.709
 7564SOL     OW23590   4.709   0.717   3.149
 7564SOL    HW123591   4.648   0.693   3.074
 7564SOL    HW223592   4.713   0.816   3.160
 7565SOL     OW23593   5.780   2.963   0.578
 7565SOL    HW123594   5.853   2.915   0.529
 7565SOL    HW223595   5.715   2.897   0.615
 7566SOL     OW23596   5.946   4.997   2.823
 7566SOL    HW123597   6.013   5.068   2.844
 7566SOL    HW223598   5.958   4.967   2.728
 7567SOL     OW23599   1.569   2.225   5.061
 7567SOL    HW123600   1.574   2.169   4.978
 7567SOL    HW223601   1.473   2.235   5.089
 7568SOL     OW23602   5.358   6.149   2.241
 7568SOL    HW123603   5.309   6.169   2.326
 7568SOL    HW223604   5.453   6.180   2.249
 7569SOL     OW23605   4.044   6.262   5.819
 7569SOL    HW123606   4.100   6.242   5.899
 7569SOL    HW223607   3.992   6.180   5.793
 7570SOL     OW23608   5.467   3.821   5.200
 7570SOL    HW123609   5.425   3.818   5.291
 7570SOL    HW223610   5.414   3.880   5.140
 7571SOL     OW23611   4.921   5.479   3.379
 7571SOL    HW123612   4.903   5.433   3.292
 7571SOL    HW223613   5.019   5.482   3.395
 7572SOL     OW23614   4.694   1.164   1.579
 7572SOL    HW123615   4.601   1.161   1.618
 7572SOL    HW223616   4.692   1.129   1.485
 7573SOL     OW23617   0.393   6.919   5.102
 7573SOL    HW123618   0.319   6.910   5.037
 7573SOL    HW223619   0.472   6.865   5.072
 7574SOL     OW23620   6.279   0.921   5.213
 7574SOL    HW123621   6.228   0.890   5.133
 7574SOL    HW223622   6.301   0.843   5.271
 7575SOL     OW23623   4.526   0.038   6.231
 7575SOL    HW123624   4.541   0.117   6.291
 7575SOL    HW223625   4.579   6.989   6.265
 7576SOL     OW23626   4.979   4.779   6.311
 7576SOL    HW123627   5.028   4.859   6.345
 7576SOL    HW223628   4.982   4.779   6.211
 7577SOL     OW23629   0.282   6.853   7.026
 7577SOL    HW123630   0.184   6.869   0.011
 7577SOL    HW223631   0.299   6.826   6.932
 7578SOL     OW23632   2.459   5.745   1.929
 7578SOL    HW123633   2.503   5.663   1.965
 7578SOL    HW223634   2.473   5.822   1.991
 7579SOL     OW23635   6.421   1.051   1.776
 7579SOL    HW123636   6.378   0.972   1.731
 7579SOL    HW223637   6.395   1.135   1.728
 7580SOL     OW23638   1.133   3.956   3.909
 7580SOL    HW123639   1.110   3.859   3.917
 7580SOL    HW223640   1.065   4.001   3.850
 7581SOL     OW23641   0.005   0.742   1.252
 7581SOL    HW123642   6.959   0.680   1.226
 7581SOL    HW223643   7.027   0.760   1.350
 7582SOL     OW23644   3.560   1.075   1.425
 7582SOL    HW123645   3.558   1.167   1.463
 7582SOL    HW223646   3.643   1.062   1.372
 7583SOL     OW23647   6.153   2.820   1.343
 7583SOL    HW123648   6.090   2.845   1.270
 7583SOL    HW223649   6.105   2.766   1.412
 7584SOL     OW23650   2.687   6.731   1.500
 7584SOL    HW123651   2.777   6.695   1.526
 7584SOL    HW223652   2.655   6.796   1.569
 7585SOL     OW23653   1.615   2.876   6.476
 7585SOL    HW123654   1.621   2.784   6.515
 7585SOL    HW223655   1.523   2.913   6.493
 7586SOL     OW23656   2.963   1.070   3.746
 7586SOL    HW123657   2.921   0.999   3.689
 7586SOL    HW223658   2.994   1.030   3.832
 7587SOL     OW23659   2.077   1.919   0.024
 7587SOL    HW123660   2.038   1.864   6.979
 7587SOL    HW223661   2.166   1.956   7.024
 7588SOL     OW23662   1.501   2.745   2.876
 7588SOL    HW123663   1.407   2.778   2.874
 7588SOL    HW223664   1.550   2.789   2.951
 7589SOL     OW23665   0.751   0.254   2.418
 7589SOL    HW123666   0.709   0.343   2.400
 7589SOL    HW223667   0.720   0.189   2.349
 7590SOL     OW23668   4.946   1.737   6.214
 7590SOL    HW123669   5.026   1.772   6.164
 7590SOL    HW223670   4.874   1.806   6.212
 7591SOL     OW23671   6.862   3.813   0.441
 7591SOL    HW123672   6.917   3.887   0.404
 7591SOL    HW223673   6.824   3.759   0.366
 7592SOL     OW23674   6.804   4.802   5.320
 7592SOL    HW123675   6.832   4.849   5.236
 7592SOL    HW223676   6.885   4.777   5.373
 7593SOL     OW23677   5.852   3.211   1.377
 7593SOL    HW123678   5.869   3.165   1.464
 7593SOL    HW223679   5.932   3.266   1.352
 7594SOL     OW23680   1.318   5.171   2.240
 7594SOL    HW123681   1.355   5.228   2.314
 7594SOL    HW223682   1.274   5.091   2.279
 7595SOL     OW23683   0.238   2.215   5.546
 7595SOL    HW123684   0.278   2.123   5.552
 7595SOL    HW223685   0.160   2.222   5.608
 7596SOL     OW23686   4.511   5.784   4.074
 7596SOL    HW123687   4.454   5.702   4.070
 7596SOL    HW223688   4.455   5.862   4.102
 7597SOL     OW23689   3.715   6.260   2.728
 7597SOL    HW123690   3.790   6.232   2.668
 7597SOL    HW223691   3.703   6.192   2.800
 7598SOL     OW23692   6.491   1.296   2.996
 7598SOL    HW123693   6.468   1.231   3.068
 7598SOL    HW223694   6.409   1.346   2.969
 7599SOL     OW23695   5.023   1.768   2.653
 7599SOL    HW123696   4.959   1.844   2.666
 7599SOL    HW223697   4.999   1.717   2.571
 7600SOL     OW23698   1.964   1.646   2.368
 7600SOL    HW123699   1.914   1.719   2.414
 7600SOL    HW223700   2.004   1.585   2.437
 7601SOL     OW23701   1.850   5.138   3.191
 7601SOL    HW123702   1.945   5.113   3.169
 7601SOL    HW223703   1.792   5.057   3.182
 7602SOL     OW23704   1.500   4.226   5.549
 7602SOL    HW123705   1.402   4.207   5.551
 7602SOL    HW223706   1.551   4.142   5.570
 7603SOL     OW23707   1.440   5.571   5.840
 7603SOL    HW123708   1.421   5.510   5.917
 7603SOL    HW223709   1.496   5.648   5.872
 7604SOL     OW23710   1.616   4.277   4.630
 7604SOL    HW123711   1.586   4.181   4.633
 7604SOL    HW223712   1.683   4.293   4.703
 7605SOL     OW23713   0.407   0.247   1.202
 7605SOL    HW123714   0.481   0.307   1.232
 7605SOL    HW223715   0.400   0.169   1.264
 7606SOL     OW23716   5.616   3.925   4.904
 7606SOL    HW123717   5.662   3.983   4.837
 7606SOL    HW223718   5.678   3.853   4.934
 7607SOL     OW23719   3.572   4.770   6.592
 7607SOL    HW123720   3.617   4.806   6.511
 7607SOL    HW223721   3.543   4.676   6.576
 7608SOL     OW23722   4.034   3.450   2.619
 7608SOL    HW123723   3.975   3.490   2.549
 7608SOL    HW223724   4.099   3.387   2.577
 7609SOL     OW23725   1.001   3.491   4.071
 7609SOL    HW123726   1.079   3.551   4.085
 7609SOL    HW223727   1.006   3.414   4.134
 7610SOL     OW23728   4.828   5.984   6.508
 7610SOL    HW123729   4.794   5.997   6.415
 7610SOL    HW223730   4.928   5.988   6.507
 7611SOL     OW23731   6.846   2.511   1.112
 7611SOL    HW123732   6.834   2.519   1.014
 7611SOL    HW223733   6.757   2.508   1.157
 7612SOL     OW23734   4.861   2.982   3.727
 7612SOL    HW123735   4.811   2.937   3.801
 7612SOL    HW223736   4.882   3.076   3.754
 7613SOL     OW23737   6.298   3.385   1.068
 7613SOL    HW123738   6.274   3.292   1.099
 7613SOL    HW223739   6.222   3.422   1.015
 7614SOL     OW23740   5.185   3.134   0.632
 7614SOL    HW123741   5.157   3.218   0.585
 7614SOL    HW223742   5.107   3.071   0.638
 7615SOL     OW23743   3.742   5.172   6.592
 7615SOL    HW123744   3.812   5.180   6.521
 7615SOL    HW223745   3.785   5.143   6.678
 7616SOL     OW23746   6.294   5.454   4.780
 7616SOL    HW123747   6.298   5.365   4.734
 7616SOL    HW223748   6.212   5.457   4.838
 7617SOL     OW23749   3.898   4.945   2.514
 7617SOL    HW123750   3.963   4.937   2.439
 7617SOL    HW223751   3.919   4.877   2.585
 7618SOL     OW23752   0.535   1.316   5.899
 7618SOL    HW123753   0.446   1.358   5.882
 7618SOL    HW223754   0.572   1.283   5.812
 7619SOL     OW23755   5.988   3.173   5.347
 7619SOL    HW123756   6.007   3.075   5.340
 7619SOL    HW223757   5.892   3.190   5.322
 7620SOL     OW23758   3.989   5.698   0.995
 7620SOL    HW123759   4.058   5.677   1.064
 7620SOL    HW223760   3.959   5.614   0.951
 7621SOL     OW23761   7.016   1.756   1.127
 7621SOL    HW123762   0.001   1.778   1.031
 7621SOL    HW223763   6.936   1.697   1.137
 7622SOL     OW23764   4.030   5.944   1.055
 7622SOL    HW123765   4.007   5.856   1.012
 7622SOL    HW223766   4.120   5.974   1.023
 7623SOL     OW23767   4.740   4.723   6.741
 7623SOL    HW123768   4.691   4.646   6.781
 7623SOL    HW223769   4.727   4.722   6.642
 7624SOL     OW23770   6.718   3.471   5.620
 7624SOL    HW123771   6.680   3.414   5.693
 7624SOL    HW223772   6.683   3.564   5.630
 7625SOL     OW23773   4.711   0.371   1.679
 7625SOL    HW123774   4.743   0.340   1.590
 7625SOL    HW223775   4.707   0.471   1.679
 7626SOL     OW23776   5.557   6.867   4.731
 7626SOL    HW123777   5.463   6.882   4.762
 7626SOL    HW223778   5.573   6.918   4.646
 7627SOL     OW23779   4.964   2.770   0.221
 7627SOL    HW123780   5.044   2.812   0.178
 7627SOL    HW223781   4.882   2.820   0.193
 7628SOL     OW23782   3.633   1.628   2.595
 7628SOL    HW123783   3.711   1.663   2.542
 7628SOL    HW223784   3.667   1.568   2.668
 7629SOL     OW23785   0.218   6.134   3.140
 7629SOL    HW123786   0.148   6.205   3.140
 7629SOL    HW223787   0.246   6.114   3.234
 7630SOL     OW23788   6.686   6.865   1.281
 7630SOL    HW123789   6.655   6.948   1.234
 7630SOL    HW223790   6.750   6.816   1.222
 7631SOL     OW23791   1.121   1.432   6.168
 7631SOL    HW123792   1.028   1.428   6.204
 7631SOL    HW223793   1.128   1.504   6.099
 7632SOL     OW23794   3.442   2.761   1.577
 7632SOL    HW123795   3.390   2.714   1.505
 7632SOL    HW223796   3.488   2.693   1.634
 7633SOL     OW23797   5.224   0.466   1.436
 7633SOL    HW123798   5.283   0.390   1.412
 7633SOL    HW223799   5.158   0.436   1.506
 7634SOL     OW23800   1.353   2.277   2.471
 7634SOL    HW123801   1.401   2.287   2.383
 7634SOL    HW223802   1.412   2.311   2.544
 7635SOL     OW23803   3.729   5.195   5.032
 7635SOL    HW123804   3.695   5.143   5.110
 7635SOL    HW223805   3.653   5.214   4.969
 7636SOL     OW23806   1.660   2.663   4.095
 7636SOL    HW123807   1.712   2.742   4.065
 7636SOL    HW223808   1.588   2.642   4.029
 7637SOL     OW23809   2.278   5.598   2.327
 7637SOL    HW123810   2.191   5.554   2.350
 7637SOL    HW223811   2.326   5.623   2.412
 7638SOL     OW23812   3.128   6.142   0.902
 7638SOL    HW123813   3.087   6.085   0.973
 7638SOL    HW223814   3.227   6.132   0.904
 7639SOL     OW23815   1.317   2.339   0.916
 7639SOL    HW123816   1.407   2.321   0.876
 7639SOL    HW223817   1.260   2.258   0.909
 7640SOL     OW23818   3.081   1.702   5.840
 7640SOL    HW123819   3.024   1.711   5.759
 7640SOL    HW223820   3.133   1.787   5.853
 7641SOL     OW23821   1.042   4.379   2.577
 7641SOL    HW123822   1.050   4.339   2.669
 7641SOL    HW223823   1.073   4.313   2.509
 7642SOL     OW23824   3.559   0.817   3.041
 7642SOL    HW123825   3.593   0.911   3.048
 7642SOL    HW223826   3.552   0.792   2.945
 7643SOL     OW23827   5.067   2.837   4.467
 7643SOL    HW123828   5.114   2.838   4.555
 7643SOL    HW223829   5.036   2.745   4.447
 7644SOL     OW23830   5.754   2.191   2.823
 7644SOL    HW123831   5.783   2.155   2.734
 7644SOL    HW223832   5.751   2.117   2.890
 7645SOL     OW23833   4.101   4.049   5.490
 7645SOL    HW123834   4.095   3.949   5.493
 7645SOL    HW223835   4.168   4.081   5.556
 7646SOL     OW23836   0.937   3.645   3.122
 7646SOL    HW123837   0.953   3.737   3.086
 7646SOL    HW223838   0.863   3.648   3.189
 7647SOL     OW23839   6.716   3.497   2.974
 7647SOL    HW123840   6.635   3.552   2.993
 7647SOL    HW223841   6.783   3.551   2.922
 7648SOL     OW23842   2.700   1.173   2.619
 7648SOL    HW123843   2.714   1.265   2.582
 7648SOL    HW223844   2.605   1.145   2.603
 7649SOL     OW23845   1.177   0.738   2.641
 7649SOL    HW123846   1.165   0.795   2.560
 7649SOL    HW223847   1.237   0.661   2.619
 7650SOL     OW23848   4.607   1.971   0.727
 7650SOL    HW123849   4.672   1.935   0.659
 7650SOL    HW223850   4.602   1.908   0.804
 7651SOL     OW23851   2.223   0.491   3.701
 7651SOL    HW123852   2.310   0.483   3.749
 7651SOL    HW223853   2.148   0.489   3.767
 7652SOL     OW23854   5.964   3.932   5.065
 7652SOL    HW123855   5.947   3.915   5.163
 7652SOL    HW223856   5.912   4.012   5.036
 7653SOL     OW23857   1.158   2.206   0.045
 7653SOL    HW123858   1.188   2.297   0.072
 7653SOL    HW223859   1.059   2.203   0.039
 7654SOL     OW23860   4.599   2.558   4.065
 7654SOL    HW123861   4.668   2.630   4.058
 7654SOL    HW223862   4.547   2.570   4.149
 7655SOL     OW23863   4.444   0.114   2.918
 7655SOL    HW123864   4.402   0.023   2.912
 7655SOL    HW223865   4.540   0.108   2.894
 7656SOL     OW23866   2.973   4.161   5.917
 7656SOL    HW123867   3.034   4.117   5.983
 7656SOL    HW223868   2.893   4.196   5.965
 7657SOL     OW23869   1.441   2.961   4.047
 7657SOL    HW123870   1.461   2.961   4.145
 7657SOL    HW223871   1.526   2.944   3.996
 7658SOL     OW23872   4.031   6.875   6.191
 7658SOL    HW123873   3.979   6.932   6.255
 7658SOL    HW223874   4.124   6.862   6.225
 7659SOL     OW23875   5.890   5.644   6.480
 7659SOL    HW123876   5.826   5.676   6.409
 7659SOL    HW223877   5.846   5.573   6.534
 7660SOL     OW23878   0.691   6.047   4.210
 7660SOL    HW123879   0.790   6.033   4.207
 7660SOL    HW223880   0.654   6.006   4.293
 7661SOL     OW23881   6.136   2.613   4.860
 7661SOL    HW123882   6.128   2.712   4.862
 7661SOL    HW223883   6.184   2.585   4.777
 7662SOL     OW23884   1.314   3.277   3.272
 7662SOL    HW123885   1.249   3.351   3.258
 7662SOL    HW223886   1.370   3.297   3.353
 7663SOL     OW23887   0.261   5.925   5.584
 7663SOL    HW123888   0.340   5.865   5.580
 7663SOL    HW223889   0.195   5.898   5.513
 7664SOL     OW23890   3.564   0.322   1.481
 7664SOL    HW123891   3.511   0.268   1.547
 7664SOL    HW223892   3.606   0.261   1.414
 7665SOL     OW23893   5.763   6.727   4.835
 7665SOL    HW123894   5.684   6.781   4.807
 7665SOL    HW223895   5.805   6.686   4.754
 7666SOL     OW23896   0.397   5.516   1.808
 7666SOL    HW123897   0.327   5.473   1.864
 7666SOL    HW223898   0.464   5.447   1.780
 7667SOL     OW23899   4.973   6.496   2.184
 7667SOL    HW123900   4.957   6.556   2.263
 7667SOL    HW223901   5.004   6.551   2.107
 7668SOL     OW23902   3.322   4.278   6.860
 7668SOL    HW123903   3.286   4.367   6.886
 7668SOL    HW223904   3.338   4.276   6.761
 7669SOL     OW23905   4.888   1.882   5.330
 7669SOL    HW123906   4.924   1.921   5.415
 7669SOL    HW223907   4.904   1.784   5.329
 7670SOL     OW23908   0.730   5.051   6.545
 7670SOL    HW123909   0.667   5.110   6.596
 7670SOL    HW223910   0.677   4.982   6.495
 7671SOL     OW23911   4.450   0.987   2.709
 7671SOL    HW123912   4.426   1.061   2.772
 7671SOL    HW223913   4.443   1.019   2.615
 7672SOL     OW23914   0.322   6.749   2.905
 7672SOL    HW123915   0.232   6.760   2.863
 7672SOL    HW223916   0.365   6.665   2.871
 7673SOL     OW23917   1.639   6.136   0.392
 7673SOL    HW123918   1.598   6.124   0.301
 7673SOL    HW223919   1.573   6.109   0.462
 7674SOL     OW23920   5.483   1.114   3.038
 7674SOL    HW123921   5.399   1.124   3.092
 7674SOL    HW223922   5.459   1.101   2.942
 7675SOL     OW23923   6.385   6.804   2.603
 7675SOL    HW123924   6.383   6.827   2.505
 7675SOL    HW223925   6.398   6.706   2.614
 7676SOL     OW23926   2.547   2.176   0.361
 7676SOL    HW123927   2.512   2.149   0.451
 7676SOL    HW223928   2.538   2.100   0.298
 7677SOL     OW23929   0.222   4.934   1.681
 7677SOL    HW123930   0.126   4.961   1.682
 7677SOL    HW223931   0.246   4.898   1.590
 7678SOL     OW23932   2.135   2.539   4.439
 7678SOL    HW123933   2.043   2.573   4.461
 7678SOL    HW223934   2.173   2.491   4.518
 7679SOL     OW23935   2.894   5.506   6.157
 7679SOL    HW123936   2.873   5.418   6.114
 7679SOL    HW223937   2.965   5.493   6.226
 7680SOL     OW23938   1.292   0.782   0.811
 7680SOL    HW123939   1.243   0.861   0.849
 7680SOL    HW223940   1.344   0.736   0.883
 7681SOL     OW23941   2.278   0.653   0.775
 7681SOL    HW123942   2.313   0.665   0.682
 7681SOL    HW223943   2.178   0.656   0.773
 7682SOL     OW23944   3.388   7.011   2.229
 7682SOL    HW123945   3.486   0.004   2.227
 7682SOL    HW223946   3.335   0.064   2.206
 7683SOL     OW23947   5.099   1.424   4.348
 7683SOL    HW123948   5.001   1.429   4.367
 7683SOL    HW223949   5.144   1.506   4.383
 7684SOL     OW23950   3.364   1.998   1.453
 7684SOL    HW123951   3.404   2.042   1.372
 7684SOL    HW223952   3.438   1.959   1.509
 7685SOL     OW23953   2.921   2.272   5.948
 7685SOL    HW123954   3.016   2.274   5.917
 7685SOL    HW223955   2.883   2.182   5.931
 7686SOL     OW23956   0.073   6.757   2.791
 7686SOL    HW123957   0.083   6.787   2.696
 7686SOL    HW223958   7.008   6.727   2.808
 7687SOL     OW23959   5.670   5.527   3.781
 7687SOL    HW123960   5.575   5.555   3.766
 7687SOL    HW223961   5.724   5.549   3.699
 7688SOL     OW23962   1.207   5.661   6.046
 7688SOL    HW123963   1.209   5.692   5.951
 7688SOL    HW223964   1.300   5.651   6.080
 7689SOL     OW23965   6.090   6.423   2.403
 7689SOL    HW123966   6.084   6.457   2.497
 7689SOL    HW223967   6.003   6.437   2.357
 7690SOL     OW23968   5.518   5.308   0.408
 7690SOL    HW123969   5.461   5.283   0.486
 7690SOL    HW223970   5.492   5.399   0.375
 7691SOL     OW23971   5.114   3.949   4.618
 7691SOL    HW123972   5.121   4.025   4.683
 7691SOL    HW223973   5.045   3.884   4.650
 7692SOL     OW23974   0.231   6.181   1.765
 7692SOL    HW123975   0.222   6.127   1.848
 7692SOL    HW223976   0.254   6.276   1.790
 7693SOL     OW23977   3.804   6.891   1.027
 7693SOL    HW123978   3.871   6.947   0.979
 7693SOL    HW223979   3.823   6.893   1.125
 7694SOL     OW23980   6.894   4.844   4.834
 7694SOL    HW123981   6.906   4.853   4.735
 7694SOL    HW223982   6.796   4.839   4.855
 7695SOL     OW23983   4.495   0.453   1.008
 7695SOL    HW123984   4.586   0.423   0.980
 7695SOL    HW223985   4.502   0.515   1.086
 7696SOL     OW23986   0.125   0.343   5.377
 7696SOL    HW123987   0.035   0.305   5.354
 7696SOL    HW223988   0.127   0.440   5.356
 7697SOL     OW23989   2.744   6.646   2.155
 7697SOL    HW123990   2.783   6.559   2.125
 7697SOL    HW223991   2.764   6.717   2.088
 7698SOL     OW23992   6.485   1.472   3.925
 7698SOL    HW123993   6.399   1.523   3.926
 7698SOL    HW223994   6.468   1.377   3.901
 7699SOL     OW23995   3.693   6.134   6.563
 7699SOL    HW123996   3.718   6.046   6.522
 7699SOL    HW223997   3.769   6.198   6.552
 7700SOL     OW23998   4.885   5.848   3.690
 7700SOL    HW123999   4.918   5.771   3.634
 7700SOL    HW224000   4.914   5.834   3.785
 7701SOL     OW24001   6.601   2.076   6.703
 7701SOL    HW124002   6.518   2.080   6.648
 7701SOL    HW224003   6.586   2.124   6.790
 7702SOL     OW24004   3.230   6.991   5.294
 7702SOL    HW124005   3.239   6.929   5.216
 7702SOL    HW224006   3.139   6.981   5.334
 7703SOL     OW24007   6.746   6.906   6.738
 7703SOL    HW124008   6.648   6.897   6.719
 7703SOL    HW224009   6.796   6.836   6.687
 7704SOL     OW24010   5.476   5.384   4.822
 7704SOL    HW124011   5.547   5.446   4.790
 7704SOL    HW224012   5.500   5.350   4.913
 7705SOL     OW24013   3.602   5.427   6.898
 7705SOL    HW124014   3.596   5.351   6.963
 7705SOL    HW224015   3.572   5.511   6.942
 7706SOL     OW24016   4.738   3.191   5.259
 7706SOL    HW124017   4.786   3.104   5.245
 7706SOL    HW224018   4.642   3.173   5.276
 7707SOL     OW24019   6.855   5.267   5.525
 7707SOL    HW124020   6.892   5.183   5.485
 7707SOL    HW224021   6.903   5.346   5.486
 7708SOL     OW24022   0.295   6.992   5.899
 7708SOL    HW124023   0.359   7.012   5.974
 7708SOL    HW224024   0.255   0.049   5.867
 7709SOL     OW24025   6.199   5.013   1.792
 7709SOL    HW124026   6.124   5.004   1.858
 7709SOL    HW224027   6.273   5.066   1.833
 7710SOL     OW24028   2.908   1.083   0.202
 7710SOL    HW124029   2.999   1.095   0.240
 7710SOL    HW224030   2.841   1.082   0.276
 7711SOL     OW24031   6.328   6.844   5.774
 7711SOL    HW124032   6.327   6.944   5.765
 7711SOL    HW224033   6.399   6.818   5.840
 7712SOL     OW24034   6.094   5.452   2.374
 7712SOL    HW124035   6.176   5.412   2.415
 7712SOL    HW224036   6.023   5.382   2.365
 7713SOL     OW24037   1.685   4.033   0.903
 7713SOL    HW124038   1.592   4.054   0.935
 7713SOL    HW224039   1.748   4.103   0.936
 7714SOL     OW24040   6.249   4.293   5.559
 7714SOL    HW124041   6.215   4.295   5.653
 7714SOL    HW224042   6.348   4.273   5.560
 7715SOL     OW24043   3.727   2.219   0.317
 7715SOL    HW124044   3.755   2.179   0.230
 7715SOL    HW224045   3.808   2.252   0.366
 7716SOL     OW24046   6.215   4.347   2.928
 7716SOL    HW124047   6.259   4.283   2.990
 7716SOL    HW224048   6.142   4.300   2.877
 7717SOL     OW24049   1.904   0.794   5.172
 7717SOL    HW124050   1.837   0.768   5.102
 7717SOL    HW224051   1.868   0.871   5.225
 7718SOL     OW24052   1.110   3.247   3.688
 7718SOL    HW124053   1.210   3.249   3.680
 7718SOL    HW224054   1.083   3.167   3.742
 7719SOL     OW24055   6.633   4.793   4.923
 7719SOL    HW124056   6.539   4.790   4.956
 7719SOL    HW224057   6.661   4.703   4.891
 7720SOL     OW24058   6.982   1.702   0.539
 7720SOL    HW124059   6.975   1.610   0.502
 7720SOL    HW224060   0.050   1.728   0.546
 7721SOL     OW24061   0.599   5.361   2.704
 7721SOL    HW124062   0.559   5.271   2.684
 7721SOL    HW224063   0.526   5.429   2.708
 7722SOL     OW24064   1.408   4.646   3.516
 7722SOL    HW124065   1.498   4.690   3.519
 7722SOL    HW224066   1.404   4.573   3.584
 7723SOL     OW24067   4.513   3.256   6.910
 7723SOL    HW124068   4.609   3.245   6.887
 7723SOL    HW224069   4.456   3.229   6.831
 7724SOL     OW24070   3.480   3.796   0.736
 7724SOL    HW124071   3.442   3.869   0.793
 7724SOL    HW224072   3.564   3.762   0.778
 7725SOL     OW24073   6.544   0.962   2.872
 7725SOL    HW124074   6.534   0.886   2.808
 7725SOL    HW224075   6.519   0.931   2.964
 7726SOL     OW24076   1.695   5.599   5.384
 7726SOL    HW124077   1.616   5.576   5.328
 7726SOL    HW224078   1.686   5.692   5.420
 7727SOL     OW24079   0.637   0.727   3.264
 7727SOL    HW124080   0.616   0.646   3.209
 7727SOL    HW224081   0.730   0.758   3.244
 7728SOL     OW24082   0.977   4.582   4.156
 7728SOL    HW124083   1.021   4.670   4.173
 7728SOL    HW224084   1.015   4.514   4.218
 7729SOL     OW24085   5.688   3.208   0.651
 7729SOL    HW124086   5.702   3.278   0.582
 7729SOL    HW224087   5.724   3.121   0.618
 7730SOL     OW24088   5.852   6.039   0.193
 7730SOL    HW124089   5.759   6.064   0.220
 7730SOL    HW224090   5.914   6.115   0.213
 7731SOL     OW24091   6.808   1.256   0.592
 7731SOL    HW124092   6.889   1.233   0.646
 7731SOL    HW224093   6.831   1.253   0.495
 7732SOL     OW24094   4.933   6.570   0.872
 7732SOL    HW124095   4.988   6.492   0.843
 7732SOL    HW224096   4.907   6.623   0.791
 7733SOL     OW24097   4.970   6.260   2.942
 7733SOL    HW124098   5.010   6.334   2.888
 7733SOL    HW224099   4.875   6.282   2.964
 7734SOL     OW24100   2.130   4.560   3.056
 7734SOL    HW124101   2.177   4.635   3.009
 7734SOL    HW224102   2.198   4.500   3.097
 7735SOL     OW24103   4.702   6.851   6.897
 7735SOL    HW124104   4.772   6.785   6.923
 7735SOL    HW224105   4.612   6.807   6.899
 7736SOL     OW24106   3.601   3.428   6.408
 7736SOL    HW124107   3.535   3.411   6.481
 7736SOL    HW224108   3.552   3.458   6.326
 7737SOL     OW24109   3.461   6.790   2.547
 7737SOL    HW124110   3.531   6.746   2.602
 7737SOL    HW224111   3.493   6.881   2.518
 7738SOL     OW24112   3.315   5.745   6.991
 7738SOL    HW124113   3.332   5.698   6.904
 7738SOL    HW224114   3.387   5.812   7.007
 7739SOL     OW24115   0.373   2.589   1.400
 7739SOL    HW124116   0.281   2.556   1.377
 7739SOL    HW224117   0.369   2.686   1.424
 7740SOL     OW24118   2.025   1.494   2.586
 7740SOL    HW124119   1.996   1.404   2.555
 7740SOL    HW224120   1.999   1.506   2.682
 7741SOL     OW24121   0.555   4.912   5.665
 7741SOL    HW124122   0.637   4.941   5.714
 7741SOL    HW224123   0.474   4.956   5.705
 7742SOL     OW24124   4.059   2.235   3.391
 7742SOL    HW124125   4.057   2.170   3.315
 7742SOL    HW224126   4.008   2.197   3.468
 7743SOL     OW24127   5.794   1.075   6.414
 7743SOL    HW124128   5.727   1.076   6.339
 7743SOL    HW224129   5.745   1.072   6.501
 7744SOL     OW24130   0.801   6.506   4.030
 7744SOL    HW124131   0.884   6.549   4.066
 7744SOL    HW224132   0.740   6.576   3.994
 7745SOL     OW24133   3.701   1.433   6.892
 7745SOL    HW124134   3.610   1.415   6.927
 7745SOL    HW224135   3.709   1.396   6.799
 7746SOL     OW24136   1.552   0.217   0.358
 7746SOL    HW124137   1.475   0.281   0.356
 7746SOL    HW224138   1.517   0.123   0.349
 7747SOL     OW24139   5.624   5.725   0.910
 7747SOL    HW124140   5.603   5.823   0.917
 7747SOL    HW224141   5.723   5.712   0.916
 7748SOL     OW24142   3.368   4.135   4.882
 7748SOL    HW124143   3.282   4.107   4.926
 7748SOL    HW224144   3.378   4.086   4.796
 7749SOL     OW24145   2.829   3.449   6.184
 7749SOL    HW124146   2.909   3.424   6.130
 7749SOL    HW224147   2.830   3.399   6.270
 7750SOL     OW24148   0.181   5.872   1.393
 7750SOL    HW124149   0.200   5.923   1.309
 7750SOL    HW224150   0.243   5.794   1.399
 7751SOL     OW24151   1.750   2.870   2.093
 7751SOL    HW124152   1.712   2.844   2.182
 7751SOL    HW224153   1.697   2.825   2.021
 7752SOL     OW24154   5.582   6.717   5.618
 7752SOL    HW124155   5.534   6.680   5.697
 7752SOL    HW224156   5.570   6.817   5.615
 7753SOL     OW24157   2.693   0.763   3.825
 7753SOL    HW124158   2.712   0.692   3.892
 7753SOL    HW224159   2.709   0.726   3.733
 7754SOL     OW24160   3.357   6.297   2.082
 7754SOL    HW124161   3.378   6.329   2.174
 7754SOL    HW224162   3.275   6.344   2.049
 7755SOL     OW24163   2.134   2.433   5.385
 7755SOL    HW124164   2.196   2.376   5.438
 7755SOL    HW224165   2.177   2.521   5.367
 7756SOL     OW24166   2.644   6.437   2.884
 7756SOL    HW124167   2.598   6.368   2.940
 7756SOL    HW224168   2.627   6.528   2.923
 7757SOL     OW24169   5.592   4.962   0.073
 7757SOL    HW124170   5.602   4.875   0.121
 7757SOL    HW224171   5.520   5.016   0.116
 7758SOL     OW24172   2.352   0.752   5.588
 7758SOL    HW124173   2.367   0.781   5.683
 7758SOL    HW224174   2.423   0.792   5.530
 7759SOL     OW24175   1.842   2.377   5.759
 7759SOL    HW124176   1.853   2.469   5.796
 7759SOL    HW224177   1.839   2.311   5.834
 7760SOL     OW24178   5.920   3.433   2.762
 7760SOL    HW124179   5.895   3.457   2.669
 7760SOL    HW224180   6.019   3.441   2.773
 7761SOL     OW24181   0.419   0.252   4.427
 7761SOL    HW124182   0.491   0.235   4.360
 7761SOL    HW224183   0.333   0.271   4.380
 7762SOL     OW24184   2.786   0.500   3.865
 7762SOL    HW124185   2.830   0.410   3.865
 7762SOL    HW224186   2.854   0.570   3.888
 7763SOL     OW24187   1.949   0.466   6.940
 7763SOL    HW124188   1.960   0.528   6.863
 7763SOL    HW224189   1.883   0.395   6.918
 7764SOL     OW24190   3.345   3.290   4.675
 7764SOL    HW124191   3.432   3.265   4.633
 7764SOL    HW224192   3.337   3.245   4.764
 7765SOL     OW24193   6.124   4.608   5.186
 7765SOL    HW124194   6.107   4.567   5.276
 7765SOL    HW224195   6.171   4.542   5.128
 7766SOL     OW24196   6.898   4.108   6.935
 7766SOL    HW124197   6.927   4.153   6.850
 7766SOL    HW224198   6.858   4.175   6.997
 7767SOL     OW24199   5.082   6.380   2.518
 7767SOL    HW124200   5.138   6.300   2.495
 7767SOL    HW224201   4.986   6.353   2.521
 7768SOL     OW24202   4.223   4.666   2.708
 7768SOL    HW124203   4.284   4.602   2.754
 7768SOL    HW224204   4.234   4.659   2.609
 7769SOL     OW24205   3.992   1.732   3.691
 7769SOL    HW124206   3.894   1.721   3.674
 7769SOL    HW224207   4.032   1.643   3.716
 7770SOL     OW24208   1.720   4.050   4.220
 7770SOL    HW124209   1.627   4.083   4.207
 7770SOL    HW224210   1.736   4.031   4.317
 7771SOL     OW24211   3.694   1.918   5.268
 7771SOL    HW124212   3.679   1.959   5.178
 7771SOL    HW224213   3.749   1.836   5.258
 7772SOL     OW24214   4.584   6.952   2.617
 7772SOL    HW124215   4.490   6.977   2.593
 7772SOL    HW224216   4.583   6.873   2.678
 7773SOL     OW24217   2.471   5.792   5.313
 7773SOL    HW124218   2.461   5.852   5.392
 7773SOL    HW224219   2.448   5.842   5.230
 7774SOL     OW24220   5.256   1.951   4.510
 7774SOL    HW124221   5.322   1.877   4.505
 7774SOL    HW224222   5.270   2.014   4.433
 7775SOL     OW24223   4.445   5.778   0.958
 7775SOL    HW124224   4.523   5.811   1.012
 7775SOL    HW224225   4.371   5.751   1.020
 7776SOL     OW24226   0.304   5.661   6.358
 7776SOL    HW124227   0.215   5.623   6.385
 7776SOL    HW224228   0.299   5.761   6.361
 7777SOL     OW24229   5.964   5.848   3.974
 7777SOL    HW124230   5.974   5.756   4.009
 7777SOL    HW224231   5.969   5.846   3.874
 7778SOL     OW24232   5.618   4.486   0.380
 7778SOL    HW124233   5.568   4.468   0.464
 7778SOL    HW224234   5.618   4.404   0.322
 7779SOL     OW24235   2.722   1.999   1.491
 7779SOL    HW124236   2.694   1.925   1.552
 7779SOL    HW224237   2.652   2.070   1.490
 7780SOL     OW24238   0.950   5.077   5.291
 7780SOL    HW124239   0.898   5.001   5.254
 7780SOL    HW224240   1.040   5.045   5.321
 7781SOL     OW24241   2.566   4.658   1.206
 7781SOL    HW124242   2.559   4.573   1.154
 7781SOL    HW224243   2.658   4.695   1.198
 7782SOL     OW24244   4.912   4.971   4.548
 7782SOL    HW124245   4.847   5.028   4.598
 7782SOL    HW224246   4.981   5.028   4.504
 7783SOL     OW24247   0.781   6.462   5.180
 7783SOL    HW124248   0.780   6.453   5.081
 7783SOL    HW224249   0.836   6.542   5.205
 7784SOL     OW24250   3.807   2.785   1.697
 7784SOL    HW124251   3.903   2.759   1.710
 7784SOL    HW224252   3.803   2.875   1.653
 7785SOL     OW24253   2.053   6.183   4.660
 7785SOL    HW124254   2.035   6.110   4.726
 7785SOL    HW224255   2.001   6.167   4.577
 7786SOL     OW24256   3.584   6.738   0.914
 7786SOL    HW124257   3.569   6.653   0.964
 7786SOL    HW224258   3.668   6.781   0.946
 7787SOL     OW24259   2.167   2.928   6.557
 7787SOL    HW124260   2.212   2.994   6.617
 7787SOL    HW224261   2.068   2.938   6.565
 7788SOL     OW24262   2.100   4.999   1.329
 7788SOL    HW124263   2.114   5.080   1.385
 7788SOL    HW224264   2.098   4.918   1.387
 7789SOL     OW24265   2.722   0.028   6.489
 7789SOL    HW124266   2.721   0.126   6.506
 7789SOL    HW224267   2.631   7.019   6.506
 7790SOL     OW24268   5.324   5.474   3.174
 7790SOL    HW124269   5.374   5.435   3.096
 7790SOL    HW224270   5.272   5.554   3.143
 7791SOL     OW24271   2.368   5.357   2.237
 7791SOL    HW124272   2.308   5.322   2.166
 7791SOL    HW224273   2.320   5.425   2.292
 7792SOL     OW24274   2.444   5.684   4.487
 7792SOL    HW124275   2.494   5.597   4.490
 7792SOL    HW224276   2.478   5.745   4.558
 7793SOL     OW24277   4.147   1.165   0.706
 7793SOL    HW124278   4.120   1.260   0.720
 7793SOL    HW224279   4.172   1.151   0.610
 7794SOL     OW24280   6.020   4.079   2.450
 7794SOL    HW124281   6.119   4.090   2.443
 7794SOL    HW224282   5.979   4.165   2.481
 7795SOL     OW24283   1.882   4.376   5.068
 7795SOL    HW124284   1.977   4.402   5.086
 7795SOL    HW224285   1.861   4.292   5.119
 7796SOL     OW24286   3.305   2.876   4.701
 7796SOL    HW124287   3.297   2.787   4.747
 7796SOL    HW224288   3.265   2.870   4.610
 7797SOL     OW24289   1.216   6.819   1.684
 7797SOL    HW124290   1.127   6.775   1.675
 7797SOL    HW224291   1.287   6.750   1.689
 7798SOL     OW24292   1.409   3.481   3.696
 7798SOL    HW124293   1.381   3.554   3.759
 7798SOL    HW224294   1.508   3.486   3.682
 7799SOL     OW24295   1.645   5.687   2.544
 7799SOL    HW124296   1.560   5.687   2.491
 7799SOL    HW224297   1.721   5.716   2.486
 7800SOL     OW24298   1.326   5.652   2.447
 7800SOL    HW124299   1.320   5.727   2.381
 7800SOL    HW224300   1.239   5.643   2.494
 7801SOL     OW24301   2.180   1.814   1.204
 7801SOL    HW124302   2.265   1.841   1.248
 7801SOL    HW224303   2.157   1.880   1.132
 7802SOL     OW24304   6.016   2.682   1.530
 7802SOL    HW124305   5.952   2.608   1.511
 7802SOL    HW224306   6.100   2.644   1.569
 7803SOL     OW24307   4.393   2.529   6.065
 7803SOL    HW124308   4.463   2.553   5.998
 7803SOL    HW224309   4.371   2.431   6.057
 7804SOL     OW24310   4.512   2.441   5.269
 7804SOL    HW124311   4.546   2.484   5.353
 7804SOL    HW224312   4.587   2.432   5.204
 7805SOL     OW24313   5.480   3.013   1.513
 7805SOL    HW124314   5.563   2.989   1.461
 7805SOL    HW224315   5.400   2.980   1.463
 7806SOL     OW24316   6.077   2.015   6.435
 7806SOL    HW124317   6.084   1.917   6.451
 7806SOL    HW224318   6.036   2.059   6.515
 7807SOL     OW24319   1.419   4.331   6.118
 7807SOL    HW124320   1.459   4.407   6.067
 7807SOL    HW224321   1.346   4.290   6.063
 7808SOL     OW24322   6.122   2.980   4.350
 7808SOL    HW124323   6.121   3.064   4.404
 7808SOL    HW224324   6.201   2.924   4.378
 7809SOL     OW24325   4.299   5.395   4.846
 7809SOL    HW124326   4.214   5.392   4.898
 7809SOL    HW224327   4.278   5.402   4.748
 7810SOL     OW24328   4.015   0.155   4.951
 7810SOL    HW124329   3.954   0.207   4.891
 7810SOL    HW224330   3.960   0.098   5.012
 7811SOL     OW24331   1.342   5.550   2.100
 7811SOL    HW124332   1.301   5.635   2.065
 7811SOL    HW224333   1.274   5.501   2.154
 7812SOL     OW24334   0.492   2.476   4.030
 7812SOL    HW124335   0.570   2.418   4.051
 7812SOL    HW224336   0.512   2.570   4.057
 7813SOL     OW24337   4.390   1.943   0.351
 7813SOL    HW124338   4.378   1.858   0.402
 7813SOL    HW224339   4.314   2.005   0.371
 7814SOL     OW24340   0.151   3.274   3.084
 7814SOL    HW124341   0.221   3.247   3.150
 7814SOL    HW224342   0.063   3.284   3.131
 7815SOL     OW24343   6.229   1.788   4.376
 7815SOL    HW124344   6.274   1.828   4.455
 7815SOL    HW224345   6.271   1.699   4.355
 7816SOL     OW24346   1.373   2.382   6.450
 7816SOL    HW124347   1.360   2.291   6.488
 7816SOL    HW224348   1.374   2.449   6.524
 7817SOL     OW24349   4.970   4.088   4.416
 7817SOL    HW124350   4.882   4.112   4.457
 7817SOL    HW224351   5.033   4.057   4.487
 7818SOL     OW24352   5.315   0.296   2.271
 7818SOL    HW124353   5.393   0.307   2.333
 7818SOL    HW224354   5.230   0.309   2.321
 7819SOL     OW24355   6.867   4.204   3.966
 7819SOL    HW124356   6.863   4.149   4.050
 7819SOL    HW224357   6.875   4.142   3.888
 7820SOL     OW24358   1.458   1.450   5.250
 7820SOL    HW124359   1.479   1.528   5.309
 7820SOL    HW224360   1.396   1.479   5.177
 7821SOL     OW24361   5.589   5.686   0.013
 7821SOL    HW124362   5.530   5.700   0.093
 7821SOL    HW224363   5.673   5.739   0.025
 7822SOL     OW24364   0.897   1.088   0.255
 7822SOL    HW124365   0.811   1.037   0.255
 7822SOL    HW224366   0.925   1.107   0.350
 7823SOL     OW24367   3.025   3.716   6.284
 7823SOL    HW124368   2.932   3.717   6.248
 7823SOL    HW224369   3.087   3.676   6.216
 7824SOL     OW24370   5.388   1.134   3.910
 7824SOL    HW124371   5.426   1.099   3.824
 7824SOL    HW224372   5.407   1.069   3.984
 7825SOL     OW24373   1.093   3.304   0.955
 7825SOL    HW124374   1.143   3.357   0.887
 7825SOL    HW224375   1.128   3.327   1.047
 7826SOL     OW24376   6.079   1.736   6.805
 7826SOL    HW124377   6.175   1.764   6.794
 7826SOL    HW224378   6.030   1.806   6.857
 7827SOL     OW24379   2.878   4.666   0.931
 7827SOL    HW124380   2.796   4.724   0.922
 7827SOL    HW224381   2.959   4.724   0.934
 7828SOL     OW24382   0.890   5.282   0.121
 7828SOL    HW124383   0.805   5.235   0.147
 7828SOL    HW224384   0.968   5.223   0.141
 7829SOL     OW24385   2.316   3.205   6.979
 7829SOL    HW124386   2.276   3.243   0.033
 7829SOL    HW224387   2.408   3.242   6.966
 7830SOL     OW24388   4.039   3.725   5.984
 7830SOL    HW124389   3.986   3.764   5.909
 7830SOL    HW224390   3.983   3.658   6.032
 7831SOL     OW24391   1.665   5.423   0.842
 7831SOL    HW124392   1.581   5.387   0.801
 7831SOL    HW224393   1.690   5.508   0.796
 7832SOL     OW24394   3.843   1.180   4.197
 7832SOL    HW124395   3.816   1.254   4.136
 7832SOL    HW224396   3.874   1.218   4.285
 7833SOL     OW24397   0.224   1.509   6.673
 7833SOL    HW124398   0.152   1.458   6.627
 7833SOL    HW224399   0.191   1.544   6.761
 7834SOL     OW24400   0.297   0.749   3.602
 7834SOL    HW124401   0.359   0.818   3.641
 7834SOL    HW224402   0.203   0.773   3.625
 7835SOL     OW24403   2.409   2.296   5.266
 7835SOL    HW124404   2.472   2.355   5.216
 7835SOL    HW224405   2.376   2.224   5.205
 7836SOL     OW24406   3.026   2.757   5.346
 7836SOL    HW124407   2.980   2.770   5.433
 7836SOL    HW224408   3.112   2.809   5.346
 7837SOL     OW24409   6.991   5.955   1.220
 7837SOL    HW124410   0.061   5.964   1.215
 7837SOL    HW224411   6.966   5.858   1.214
 7838SOL     OW24412   4.588   6.606   0.766
 7838SOL    HW124413   4.533   6.688   0.783
 7838SOL    HW224414   4.551   6.530   0.820
 7839SOL     OW24415   6.266   4.426   5.031
 7839SOL    HW124416   6.217   4.376   4.960
 7839SOL    HW224417   6.342   4.477   4.990
 7840SOL     OW24418   5.166   3.233   4.594
 7840SOL    HW124419   5.150   3.167   4.521
 7840SOL    HW224420   5.089   3.295   4.600
 7841SOL     OW24421   4.544   1.669   6.701
 7841SOL    HW124422   4.547   1.608   6.780
 7841SOL    HW224423   4.488   1.628   6.629
 7842SOL     OW24424   1.507   1.675   2.884
 7842SOL    HW124425   1.500   1.769   2.849
 7842SOL    HW224426   1.448   1.615   2.830
 7843SOL     OW24427   5.192   4.875   2.144
 7843SOL    HW124428   5.281   4.842   2.176
 7843SOL    HW224429   5.197   4.897   2.047
 7844SOL     OW24430   4.247   6.446   3.316
 7844SOL    HW124431   4.204   6.533   3.293
 7844SOL    HW224432   4.217   6.416   3.406
 7845SOL     OW24433   5.877   1.484   4.385
 7845SOL    HW124434   5.836   1.437   4.307
 7845SOL    HW224435   5.958   1.535   4.355
 7846SOL     OW24436   0.951   1.236   2.297
 7846SOL    HW124437   0.863   1.234   2.344
 7846SOL    HW224438   1.024   1.223   2.364
 7847SOL     OW24439   6.564   1.532   2.492
 7847SOL    HW124440   6.479   1.545   2.543
 7847SOL    HW224441   6.642   1.554   2.550
 7848SOL     OW24442   2.621   2.689   0.750
 7848SOL    HW124443   2.589   2.724   0.838
 7848SOL    HW224444   2.606   2.590   0.746
 7849SOL     OW24445   5.253   3.749   3.083
 7849SOL    HW124446   5.316   3.718   3.154
 7849SOL    HW224447   5.253   3.683   3.008
 7850SOL     OW24448   1.000   1.989   4.290
 7850SOL    HW124449   0.972   2.041   4.209
 7850SOL    HW224450   1.090   1.949   4.273
 7851SOL     OW24451   6.096   0.711   1.417
 7851SOL    HW124452   6.136   0.705   1.508
 7851SOL    HW224453   6.009   0.661   1.417
 7852SOL     OW24454   2.746   0.944   5.775
 7852SOL    HW124455   2.711   1.002   5.848
 7852SOL    HW224456   2.747   0.996   5.689
 7853SOL     OW24457   4.583   1.539   1.664
 7853SOL    HW124458   4.643   1.611   1.699
 7853SOL    HW224459   4.639   1.460   1.635
 7854SOL     OW24460   3.080   3.295   0.293
 7854SOL    HW124461   3.099   3.223   0.360
 7854SOL    HW224462   3.154   3.298   0.226
 7855SOL     OW24463   3.212   5.597   5.593
 7855SOL    HW124464   3.224   5.686   5.551
 7855SOL    HW224465   3.252   5.597   5.684
 7856SOL     OW24466   5.583   5.053   5.200
 7856SOL    HW124467   5.528   4.999   5.264
 7856SOL    HW224468   5.577   5.013   5.109
 7857SOL     OW24469   5.979   2.896   5.627
 7857SOL    HW124470   6.042   2.963   5.666
 7857SOL    HW224471   6.009   2.874   5.534
 7858SOL     OW24472   5.343   4.740   3.507
 7858SOL    HW124473   5.294   4.826   3.496
 7858SOL    HW224474   5.300   4.670   3.450
 7859SOL     OW24475   5.851   3.074   6.102
 7859SOL    HW124476   5.938   3.100   6.144
 7859SOL    HW224477   5.826   2.982   6.131
 7860SOL     OW24478   4.292   0.361   2.809
 7860SOL    HW124479   4.345   0.292   2.859
 7860SOL    HW224480   4.267   0.435   2.872
 7861SOL     OW24481   4.035   5.212   1.725
 7861SOL    HW124482   3.973   5.287   1.750
 7861SOL    HW224483   4.109   5.248   1.669
 7862SOL     OW24484   2.975   4.266   1.677
 7862SOL    HW124485   2.904   4.195   1.679
 7862SOL    HW224486   2.935   4.353   1.705
 7863SOL     OW24487   6.999   5.764   3.878
 7863SOL    HW124488   6.936   5.704   3.830
 7863SOL    HW224489   0.029   5.711   3.939
 7864SOL     OW24490   0.406   6.529   5.386
 7864SOL    HW124491   0.468   6.456   5.412
 7864SOL    HW224492   0.404   6.537   5.286
 7865SOL     OW24493   5.662   0.196   4.321
 7865SOL    HW124494   5.730   0.141   4.272
 7865SOL    HW224495   5.611   0.252   4.256
 7866SOL     OW24496   2.135   2.287   6.335
 7866SOL    HW124497   2.161   2.376   6.374
 7866SOL    HW224498   2.049   2.256   6.376
 7867SOL     OW24499   5.320   6.936   2.523
 7867SOL    HW124500   5.359   6.971   2.437
 7867SOL    HW224501   5.341   6.839   2.531
 7868SOL     OW24502   5.911   6.743   2.343
 7868SOL    HW124503   5.951   6.796   2.418
 7868SOL    HW224504   5.877   6.656   2.379
 7869SOL     OW24505   5.528   3.307   6.761
 7869SOL    HW124506   5.490   3.366   6.832
 7869SOL    HW224507   5.462   3.298   6.687
 7870SOL     OW24508   4.466   5.418   4.201
 7870SOL    HW124509   4.566   5.409   4.204
 7870SOL    HW224510   4.437   5.490   4.264
 7871SOL     OW24511   5.263   3.159   2.860
 7871SOL    HW124512   5.267   3.206   2.948
 7871SOL    HW224513   5.355   3.127   2.834
 7872SOL     OW24514   2.411   4.405   2.668
 7872SOL    HW124515   2.476   4.481   2.672
 7872SOL    HW224516   2.377   4.384   2.760
 7873SOL     OW24517   6.092   0.634   5.651
 7873SOL    HW124518   6.052   0.722   5.626
 7873SOL    HW224519   6.077   0.617   5.749
 7874SOL     OW24520   4.810   1.619   0.867
 7874SOL    HW124521   4.805   1.555   0.790
 7874SOL    HW224522   4.891   1.676   0.858
 7875SOL     OW24523   5.052   2.333   6.442
 7875SOL    HW124524   5.083   2.399   6.511
 7875SOL    HW224525   5.089   2.358   6.353
 7876SOL     OW24526   0.193   6.850   5.683
 7876SOL    HW124527   0.147   6.929   5.641
 7876SOL    HW224528   0.236   6.878   5.769
 7877SOL     OW24529   0.326   2.920   2.796
 7877SOL    HW124530   0.237   2.875   2.787
 7877SOL    HW224531   0.394   2.852   2.823
 7878SOL     OW24532   5.053   5.053   3.785
 7878SOL    HW124533   5.034   4.970   3.838
 7878SOL    HW224534   5.087   5.124   3.847
 7879SOL     OW24535   4.262   5.604   3.491
 7879SOL    HW124536   4.361   5.613   3.500
 7879SOL    HW224537   4.237   5.508   3.482
 7880SOL     OW24538   2.157   5.424   1.831
 7880SOL    HW124539   2.165   5.485   1.910
 7880SOL    HW224540   2.147   5.479   1.748
 7881SOL     OW24541   5.825   4.171   5.066
 7881SOL    HW124542   5.751   4.128   5.118
 7881SOL    HW224543   5.874   4.235   5.124
 7882SOL     OW24544   1.137   3.498   2.896
 7882SOL    HW124545   1.083   3.517   2.978
 7882SOL    HW224546   1.082   3.444   2.832
 7883SOL     OW24547   1.489   7.000   0.824
 7883SOL    HW124548   1.452   6.934   0.889
 7883SOL    HW224549   1.581   6.972   0.797
 7884SOL     OW24550   1.946   4.064   4.052
 7884SOL    HW124551   2.017   4.003   4.086
 7884SOL    HW224552   1.867   4.061   4.113
 7885SOL     OW24553   6.069   6.121   1.369
 7885SOL    HW124554   6.108   6.113   1.460
 7885SOL    HW224555   5.978   6.080   1.368
 7886SOL     OW24556   3.882   5.450   0.894
 7886SOL    HW124557   3.854   5.418   0.985
 7886SOL    HW224558   3.861   5.380   0.826
 7887SOL     OW24559   3.353   2.578   5.400
 7887SOL    HW124560   3.322   2.531   5.318
 7887SOL    HW224561   3.338   2.677   5.390
 7888SOL     OW24562   6.719   7.013   4.882
 7888SOL    HW124563   6.720   6.974   4.790
 7888SOL    HW224564   6.645   0.051   4.889
 7889SOL     OW24565   0.999   4.805   0.008
 7889SOL    HW124566   0.940   4.864   0.062
 7889SOL    HW224567   0.948   4.767   6.960
 7890SOL     OW24568   0.559   2.630   3.326
 7890SOL    HW124569   0.528   2.694   3.396
 7890SOL    HW224570   0.579   2.541   3.368
 7891SOL     OW24571   2.143   4.217   4.705
 7891SOL    HW124572   2.171   4.123   4.727
 7891SOL    HW224573   2.103   4.219   4.614
 7892SOL     OW24574   1.885   1.823   4.483
 7892SOL    HW124575   1.802   1.845   4.535
 7892SOL    HW224576   1.869   1.842   4.386
 7893SOL     OW24577   6.184   6.413   1.701
 7893SOL    HW124578   6.197   6.398   1.798
 7893SOL    HW224579   6.196   6.327   1.651
 7894SOL     OW24580   3.289   0.486   0.773
 7894SOL    HW124581   3.275   0.455   0.867
 7894SOL    HW224582   3.385   0.477   0.748
 7895SOL     OW24583   4.946   0.717   5.179
 7895SOL    HW124584   4.973   0.623   5.198
 7895SOL    HW224585   4.939   0.730   5.080
 7896SOL     OW24586   4.227   2.649   1.049
 7896SOL    HW124587   4.152   2.708   1.019
 7896SOL    HW224588   4.251   2.586   0.975
 7897SOL     OW24589   3.276   2.546   1.012
 7897SOL    HW124590   3.326   2.598   1.081
 7897SOL    HW224591   3.246   2.607   0.939
 7898SOL     OW24592   3.854   0.018   3.625
 7898SOL    HW124593   3.786   0.064   3.567
 7898SOL    HW224594   3.864   0.068   3.711
 7899SOL     OW24595   6.015   0.243   1.055
 7899SOL    HW124596   6.056   0.298   0.982
 7899SOL    HW224597   5.934   0.289   1.090
 7900SOL     OW24598   1.023   5.308   1.740
 7900SOL    HW124599   0.958   5.363   1.688
 7900SOL    HW224600   0.973   5.254   1.808
 7901SOL     OW24601   3.993   1.178   6.044
 7901SOL    HW124602   4.074   1.237   6.039
 7901SOL    HW224603   3.919   1.226   6.091
 7902SOL     OW24604   6.194   6.352   1.983
 7902SOL    HW124605   6.204   6.345   2.082
 7902SOL    HW224606   6.133   6.278   1.951
 7903SOL     OW24607   4.321   1.711   3.473
 7903SOL    HW124608   4.239   1.654   3.469
 7903SOL    HW224609   4.400   1.655   3.496
 7904SOL     OW24610   5.552   6.381   2.392
 7904SOL    HW124611   5.523   6.472   2.363
 7904SOL    HW224612   5.576   6.326   2.312
 7905SOL     OW24613   5.768   2.184   0.456
 7905SOL    HW124614   5.766   2.221   0.362
 7905SOL    HW224615   5.858   2.201   0.496
 7906SOL     OW24616   0.810   5.048   0.629
 7906SOL    HW124617   0.727   5.053   0.685
 7906SOL    HW224618   0.793   4.988   0.550
 7907SOL     OW24619   5.531   2.167   3.357
 7907SOL    HW124620   5.621   2.134   3.387
 7907SOL    HW224621   5.513   2.257   3.396
 7908SOL     OW24622   1.785   0.944   5.635
 7908SOL    HW124623   1.747   0.886   5.707
 7908SOL    HW224624   1.736   1.031   5.633
 7909SOL     OW24625   4.676   4.345   4.182
 7909SOL    HW124626   4.775   4.363   4.185
 7909SOL    HW224627   4.627   4.425   4.215
 7910SOL     OW24628   2.583   3.255   6.893
 7910SOL    HW124629   2.608   3.212   6.980
 7910SOL    HW224630   2.657   3.240   6.827
 7911SOL     OW24631   0.749   4.362   0.349
 7911SOL    HW124632   0.824   4.418   0.313
 7911SOL    HW224633   0.743   4.373   0.448
 7912SOL     OW24634   6.284   4.773   0.654
 7912SOL    HW124635   6.221   4.789   0.730
 7912SOL    HW224636   6.262   4.835   0.578
 7913SOL     OW24637   0.912   4.443   1.517
 7913SOL    HW124638   0.897   4.511   1.446
 7913SOL    HW224639   0.965   4.483   1.592
 7914SOL     OW24640   0.426   5.014   0.242
 7914SOL    HW124641   0.359   5.023   0.167
 7914SOL    HW224642   0.393   5.063   0.322
 7915SOL     OW24643   4.648   2.299   1.886
 7915SOL    HW124644   4.609   2.379   1.931
 7915SOL    HW224645   4.606   2.216   1.922
 7916SOL     OW24646   0.173   6.356   5.365
 7916SOL    HW124647   0.090   6.385   5.414
 7916SOL    HW224648   0.251   6.410   5.397
 7917SOL     OW24649   3.364   2.917   5.012
 7917SOL    HW124650   3.313   3.002   5.022
 7917SOL    HW224651   3.307   2.840   5.041
 7918SOL     OW24652   0.230   0.766   4.752
 7918SOL    HW124653   0.285   0.703   4.808
 7918SOL    HW224654   0.157   0.715   4.707
 7919SOL     OW24655   1.107   4.352   3.127
 7919SOL    HW124656   1.082   4.313   3.039
 7919SOL    HW224657   1.092   4.451   3.125
 7920SOL     OW24658   0.150   0.229   0.232
 7920SOL    HW124659   0.222   0.250   0.298
 7920SOL    HW224660   0.190   0.220   0.141
 7921SOL     OW24661   5.337   6.286   1.729
 7921SOL    HW124662   5.271   6.352   1.691
 7921SOL    HW224663   5.314   6.267   1.824
 7922SOL     OW24664   6.736   6.615   1.027
 7922SOL    HW124665   6.798   6.605   0.949
 7922SOL    HW224666   6.686   6.701   1.019
 7923SOL     OW24667   4.312   0.682   6.802
 7923SOL    HW124668   4.255   0.622   6.747
 7923SOL    HW224669   4.339   0.762   6.748
 7924SOL     OW24670   5.436   0.192   2.581
 7924SOL    HW124671   5.353   0.167   2.531
 7924SOL    HW224672   5.511   0.205   2.517
 7925SOL     OW24673   1.171   0.378   0.116
 7925SOL    HW124674   1.230   0.374   0.035
 7925SOL    HW224675   1.124   0.466   0.118
 7926SOL     OW24676   4.390   1.852   6.328
 7926SOL    HW124677   4.364   1.784   6.398
 7926SOL    HW224678   4.471   1.902   6.358
 7927SOL     OW24679   4.267   6.123   3.107
 7927SOL    HW124680   4.355   6.131   3.060
 7927SOL    HW224681   4.283   6.101   3.204
 7928SOL     OW24682   1.410   1.632   4.592
 7928SOL    HW124683   1.424   1.610   4.688
 7928SOL    HW224684   1.442   1.726   4.575
 7929SOL     OW24685   4.547   4.248   5.447
 7929SOL    HW124686   4.617   4.244   5.376
 7929SOL    HW224687   4.587   4.284   5.532
 7930SOL     OW24688   4.300   5.657   4.923
 7930SOL    HW124689   4.374   5.725   4.925
 7930SOL    HW224690   4.330   5.576   4.874
 7931SOL     OW24691   2.957   2.985   0.060
 7931SOL    HW124692   3.022   3.003   0.134
 7931SOL    HW224693   2.965   2.890   0.031
 7932SOL     OW24694   1.300   6.553   6.723
 7932SOL    HW124695   1.237   6.503   6.664
 7932SOL    HW224696   1.379   6.495   6.743
 7933SOL     OW24697   0.276   6.344   7.014
 7933SOL    HW124698   0.308   6.277   6.947
 7933SOL    HW224699   0.237   6.423   6.967
 7934SOL     OW24700   1.696   4.957   6.305
 7934SOL    HW124701   1.612   4.953   6.359
 7934SOL    HW224702   1.741   4.868   6.308
 7935SOL     OW24703   5.979   6.603   1.343
 7935SOL    HW124704   5.930   6.684   1.376
 7935SOL    HW224705   5.925   6.521   1.362
 7936SOL     OW24706   3.547   5.908   1.792
 7936SOL    HW124707   3.565   5.893   1.695
 7936SOL    HW224708   3.510   6.000   1.806
 7937SOL     OW24709   6.518   5.783   3.820
 7937SOL    HW124710   6.498   5.879   3.802
 7937SOL    HW224711   6.595   5.776   3.883
 7938SOL     OW24712   6.638   6.111   4.069
 7938SOL    HW124713   6.616   6.199   4.111
 7938SOL    HW224714   6.596   6.105   3.979
 7939SOL     OW24715   1.795   2.495   4.762
 7939SOL    HW124716   1.823   2.591   4.771
 7939SOL    HW224717   1.775   2.475   4.666
 7940SOL     OW24718   1.334   3.987   1.818
 7940SOL    HW124719   1.387   3.905   1.840
 7940SOL    HW224720   1.295   4.025   1.902
 7941SOL     OW24721   6.275   0.329   1.385
 7941SOL    HW124722   6.366   0.339   1.425
 7941SOL    HW224723   6.268   0.239   1.340
 7942SOL     OW24724   6.753   5.128   2.482
 7942SOL    HW124725   6.789   5.208   2.530
 7942SOL    HW224726   6.795   5.045   2.519
 7943SOL     OW24727   0.030   3.641   6.102
 7943SOL    HW124728   0.107   3.609   6.156
 7943SOL    HW224729   6.973   3.606   6.140
 7944SOL     OW24730   1.018   2.527   0.945
 7944SOL    HW124731   0.959   2.455   0.909
 7944SOL    HW224732   1.069   2.568   0.869
 7945SOL     OW24733   6.283   5.203   1.305
 7945SOL    HW124734   6.262   5.145   1.384
 7945SOL    HW224735   6.204   5.205   1.244
 7946SOL     OW24736   3.763   0.518   6.057
 7946SOL    HW124737   3.762   0.528   6.156
 7946SOL    HW224738   3.846   0.559   6.019
 7947SOL     OW24739   3.770   2.053   6.055
 7947SOL    HW124740   3.748   1.956   6.065
 7947SOL    HW224741   3.854   2.074   6.106
 7948SOL     OW24742   1.392   6.499   1.239
 7948SOL    HW124743   1.461   6.460   1.178
 7948SOL    HW224744   1.427   6.500   1.332
 7949SOL     OW24745   4.789   4.427   5.397
 7949SOL    HW124746   4.703   4.430   5.346
 7949SOL    HW224747   4.829   4.336   5.388
 7950SOL     OW24748   4.860   5.228   3.706
 7950SOL    HW124749   4.832   5.278   3.788
 7950SOL    HW224750   4.936   5.166   3.729
 7951SOL     OW24751   1.868   4.238   2.060
 7951SOL    HW124752   1.836   4.332   2.068
 7951SOL    HW224753   1.884   4.216   1.964
 7952SOL     OW24754   6.908   3.634   6.520
 7952SOL    HW124755   6.966   3.599   6.446
 7952SOL    HW224756   6.851   3.559   6.555
 7953SOL     OW24757   3.194   2.162   3.328
 7953SOL    HW124758   3.152   2.198   3.412
 7953SOL    HW224759   3.292   2.151   3.342
 7954SOL     OW24760   3.485   4.492   5.990
 7954SOL    HW124761   3.442   4.411   5.950
 7954SOL    HW224762   3.416   4.547   6.037
 7955SOL     OW24763   2.688   0.982   6.838
 7955SOL    HW124764   2.767   1.033   6.872
 7955SOL    HW224765   2.642   1.034   6.766
 7956SOL     OW24766   4.450   6.621   2.157
 7956SOL    HW124767   4.436   6.720   2.148
 7956SOL    HW224768   4.536   6.604   2.206
 7957SOL     OW24769   1.064   0.708   1.367
 7957SOL    HW124770   1.083   0.767   1.288
 7957SOL    HW224771   1.135   0.638   1.374
 7958SOL     OW24772   3.852   4.871   5.162
 7958SOL    HW124773   3.914   4.830   5.229
 7958SOL    HW224774   3.789   4.934   5.208
 7959SOL     OW24775   4.738   5.848   0.374
 7959SOL    HW124776   4.782   5.798   0.449
 7959SOL    HW224777   4.752   5.800   0.288
 7960SOL     OW24778   2.162   1.745   6.019
 7960SOL    HW124779   2.251   1.707   6.043
 7960SOL    HW224780   2.132   1.808   6.090
 7961SOL     OW24781   6.925   1.485   0.826
 7961SOL    HW124782   6.861   1.553   0.791
 7961SOL    HW224783   6.885   1.439   0.906
 7962SOL     OW24784   1.577   0.241   6.075
 7962SOL    HW124785   1.674   0.241   6.050
 7962SOL    HW224786   1.546   0.336   6.087
 7963SOL     OW24787   6.453   6.630   4.001
 7963SOL    HW124788   6.527   6.581   3.954
 7963SOL    HW224789   6.381   6.565   4.026
 7964SOL     OW24790   6.743   4.384   2.675
 7964SOL    HW124791   6.742   4.417   2.769
 7964SOL    HW224792   6.652   4.353   2.649
 7965SOL     OW24793   4.118   2.762   6.027
 7965SOL    HW124794   4.106   2.715   5.939
 7965SOL    HW224795   4.202   2.731   6.071
 7966SOL     OW24796   2.236   3.152   5.702
 7966SOL    HW124797   2.138   3.138   5.719
 7966SOL    HW224798   2.266   3.091   5.629
 7967SOL     OW24799   3.825   6.693   2.514
 7967SOL    HW124800   3.870   6.769   2.467
 7967SOL    HW224801   3.747   6.661   2.459
 7968SOL     OW24802   1.543   2.737   3.720
 7968SOL    HW124803   1.540   2.835   3.738
 7968SOL    HW224804   1.505   2.688   3.799
 7969SOL     OW24805   4.351   5.941   0.399
 7969SOL    HW124806   4.413   5.896   0.463
 7969SOL    HW224807   4.352   6.040   0.416
 7970SOL     OW24808   6.845   2.976   2.565
 7970SOL    HW124809   6.843   3.036   2.484
 7970SOL    HW224810   6.914   3.009   2.629
 7971SOL     OW24811   3.136   2.176   0.660
 7971SOL    HW124812   3.084   2.124   0.728
 7971SOL    HW224813   3.073   2.213   0.592
 7972SOL     OW24814   2.402   2.884   7.009
 7972SOL    HW124815   2.483   2.847   6.962
 7972SOL    HW224816   2.384   2.976   6.976
 7973SOL     OW24817   4.464   4.782   4.538
 7973SOL    HW124818   4.498   4.690   4.520
 7973SOL    HW224819   4.448   4.793   4.636
 7974SOL     OW24820   5.825   0.470   5.317
 7974SOL    HW124821   5.894   0.417   5.267
 7974SOL    HW224822   5.831   0.566   5.291
 7975SOL     OW24823   5.940   1.173   1.741
 7975SOL    HW124824   5.904   1.199   1.830
 7975SOL    HW224825   5.887   1.218   1.669
 7976SOL     OW24826   0.542   0.419   6.663
 7976SOL    HW124827   0.450   0.429   6.700
 7976SOL    HW224828   0.608   0.410   6.737
 7977SOL     OW24829   4.668   5.914   2.864
 7977SOL    HW124830   4.660   5.878   2.957
 7977SOL    HW224831   4.653   5.840   2.798
 7978SOL     OW24832   5.706   3.250   6.452
 7978SOL    HW124833   5.639   3.303   6.503
 7978SOL    HW224834   5.659   3.184   6.393
 7979SOL     OW24835   4.295   6.343   5.363
 7979SOL    HW124836   4.360   6.419   5.362
 7979SOL    HW224837   4.206   6.377   5.392
 7980SOL     OW24838   3.118   5.619   0.080
 7980SOL    HW124839   3.190   5.674   0.037
 7980SOL    HW224840   3.028   5.651   0.048
 7981SOL     OW24841   0.370   5.100   1.860
 7981SOL    HW124842   0.469   5.087   1.854
 7981SOL    HW224843   0.325   5.059   1.781
 7982SOL     OW24844   1.616   1.327   6.625
 7982SOL    HW124845   1.547   1.380   6.674
 7982SOL    HW224846   1.596   1.230   6.633
 7983SOL     OW24847   6.102   1.962   2.106
 7983SOL    HW124848   6.067   1.872   2.079
 7983SOL    HW224849   6.099   1.969   2.206
 7984SOL     OW24850   1.058   1.188   1.032
 7984SOL    HW124851   1.016   1.135   1.106
 7984SOL    HW224852   0.994   1.257   1.000
 7985SOL     OW24853   3.232   0.731   4.605
 7985SOL    HW124854   3.275   0.815   4.638
 7985SOL    HW224855   3.292   0.687   4.538
 7986SOL     OW24856   3.454   0.838   6.687
 7986SOL    HW124857   3.436   0.814   6.591
 7986SOL    HW224858   3.372   0.822   6.741
 7987SOL     OW24859   2.197   2.268   0.046
 7987SOL    HW124860   2.245   2.222   0.121
 7987SOL    HW224861   2.128   2.329   0.083
 7988SOL     OW24862   0.236   1.683   3.638
 7988SOL    HW124863   0.225   1.643   3.729
 7988SOL    HW224864   0.180   1.633   3.572
 7989SOL     OW24865   2.868   2.600   6.533
 7989SOL    HW124866   2.941   2.568   6.593
 7989SOL    HW224867   2.801   2.526   6.520
 7990SOL     OW24868   0.597   4.252   4.595
 7990SOL    HW124869   0.537   4.279   4.520
 7990SOL    HW224870   0.667   4.189   4.562
 7991SOL     OW24871   5.162   6.517   3.518
 7991SOL    HW124872   5.249   6.535   3.473
 7991SOL    HW224873   5.118   6.604   3.541
 7992SOL     OW24874   0.963   6.949   0.625
 7992SOL    HW124875   1.035   6.885   0.652
 7992SOL    HW224876   0.990   0.013   0.653
 7993SOL     OW24877   0.673   6.991   0.644
 7993SOL    HW124878   0.773   6.984   0.640
 7993SOL    HW224879   0.634   6.956   0.559
 7994SOL     OW24880   4.039   6.982   3.312
 7994SOL    HW124881   4.087   7.009   3.395
 7994SOL    HW224882   4.100   6.991   3.233
 7995SOL     OW24883   5.458   5.932   3.935
 7995SOL    HW124884   5.486   6.027   3.926
 7995SOL    HW224885   5.511   5.875   3.871
 7996SOL     OW24886   2.948   6.793   5.266
 7996SOL    HW124887   2.942   6.703   5.311
 7996SOL    HW224888   2.940   6.865   5.335
 7997SOL     OW24889   0.184   1.731   1.314
 7997SOL    HW124890   0.115   1.694   1.253
 7997SOL    HW224891   0.142   1.760   1.400
 7998SOL     OW24892   2.979   6.778   0.250
 7998SOL    HW124893   2.996   6.700   0.311
 7998SOL    HW224894   3.044   6.775   0.175
 7999SOL     OW24895   0.875   0.382   6.063
 7999SOL    HW124896   0.792   0.432   6.039
 7999SOL    HW224897   0.915   0.342   5.981
 8000SOL     OW24898   4.654   0.220   0.264
 8000SOL    HW124899   4.664   0.307   0.313
 8000SOL    HW224900   4.720   0.154   0.299
 8001SOL     OW24901   4.238   6.501   1.370
 8001SOL    HW124902   4.273   6.473   1.460
 8001SOL    HW224903   4.195   6.422   1.325
 8002SOL     OW24904   1.541   1.055   5.828
 8002SOL    HW124905   1.490   1.072   5.913
 8002SOL    HW224906   1.562   1.143   5.784
 8003SOL     OW24907   3.121   5.081   2.275
 8003SOL    HW124908   3.033   5.113   2.310
 8003SOL    HW224909   3.154   5.005   2.332
 8004SOL     OW24910   2.142   3.327   2.493
 8004SOL    HW124911   2.174   3.273   2.416
 8004SOL    HW224912   2.090   3.269   2.556
 8005SOL     OW24913   2.794   0.780   2.161
 8005SOL    HW124914   2.851   0.838   2.219
 8005SOL    HW224915   2.763   0.832   2.082
 8006SOL     OW24916   2.290   6.369   5.915
 8006SOL    HW124917   2.218   6.330   5.972
 8006SOL    HW224918   2.253   6.393   5.825
 8007SOL     OW24919   6.362   0.575   4.516
 8007SOL    HW124920   6.460   0.564   4.504
 8007SOL    HW224921   6.341   0.672   4.530
 8008SOL     OW24922   4.355   5.617   6.368
 8008SOL    HW124923   4.399   5.590   6.454
 8008SOL    HW224924   4.257   5.631   6.384
 8009SOL     OW24925   5.921   0.823   2.205
 8009SOL    HW124926   5.908   0.727   2.183
 8009SOL    HW224927   6.014   0.838   2.239
 8010SOL     OW24928   1.285   1.853   5.787
 8010SOL    HW124929   1.376   1.883   5.759
 8010SOL    HW224930   1.268   1.883   5.881
 8011SOL     OW24931   2.932   2.491   0.791
 8011SOL    HW124932   2.885   2.504   0.879
 8011SOL    HW224933   2.921   2.397   0.761
 8012SOL     OW24934   1.848   3.856   0.666
 8012SOL    HW124935   1.758   3.899   0.672
 8012SOL    HW224936   1.919   3.923   0.689
 8013SOL     OW24937   1.424   5.165   3.147
 8013SOL    HW124938   1.352   5.203   3.206
 8013SOL    HW224939   1.504   5.225   3.149
 8014SOL     OW24940   1.336   6.021   5.207
 8014SOL    HW124941   1.387   6.085   5.264
 8014SOL    HW224942   1.329   5.933   5.254
 8015SOL     OW24943   3.446   0.743   6.385
 8015SOL    HW124944   3.434   0.667   6.322
 8015SOL    HW224945   3.524   0.798   6.356
 8016SOL     OW24946   4.778   0.524   5.916
 8016SOL    HW124947   4.799   0.439   5.868
 8016SOL    HW224948   4.737   0.589   5.852
 8017SOL     OW24949   5.849   0.442   0.440
 8017SOL    HW124950   5.894   0.353   0.435
 8017SOL    HW224951   5.845   0.483   0.349
 8018SOL     OW24952   3.351   1.797   6.439
 8018SOL    HW124953   3.350   1.895   6.421
 8018SOL    HW224954   3.325   1.748   6.356
 8019SOL     OW24955   2.166   4.471   0.051
 8019SOL    HW124956   2.069   4.479   0.074
 8019SOL    HW224957   2.208   4.562   0.050
 8020SOL     OW24958   5.713   0.878   0.823
 8020SOL    HW124959   5.802   0.835   0.840
 8020SOL    HW224960   5.645   0.808   0.804
 8021SOL     OW24961   1.519   2.736   1.538
 8021SOL    HW124962   1.470   2.711   1.454
 8021SOL    HW224963   1.492   2.828   1.566
 8022SOL     OW24964   5.459   6.879   2.888
 8022SOL    HW124965   5.487   6.937   2.811
 8022SOL    HW224966   5.437   6.787   2.855
 8023SOL     OW24967   5.566   5.212   2.549
 8023SOL    HW124968   5.532   5.297   2.589
 8023SOL    HW224969   5.545   5.135   2.610
 8024SOL     OW24970   1.482   4.538   5.944
 8024SOL    HW124971   1.566   4.591   5.953
 8024SOL    HW224972   1.496   4.464   5.878
 8025SOL     OW24973   2.072   6.269   6.844
 8025SOL    HW124974   2.035   6.299   6.932
 8025SOL    HW224975   2.117   6.180   6.855
 8026SOL     OW24976   0.231   4.369   6.892
 8026SOL    HW124977   0.280   4.300   6.945
 8026SOL    HW224978   0.236   4.347   6.795
 8027SOL     OW24979   4.788   0.624   4.690
 8027SOL    HW124980   4.792   0.525   4.700
 8027SOL    HW224981   4.752   0.647   4.599
 8028SOL     OW24982   3.623   5.718   5.866
 8028SOL    HW124983   3.653   5.625   5.883
 8028SOL    HW224984   3.685   5.763   5.802
 8029SOL     OW24985   4.784   3.166   1.009
 8029SOL    HW124986   4.685   3.168   0.996
 8029SOL    HW224987   4.812   3.075   1.040
 8030SOL     OW24988   4.062   4.779   0.590
 8030SOL    HW124989   4.049   4.773   0.689
 8030SOL    HW224990   4.079   4.688   0.553
 8031SOL     OW24991   6.388   6.532   2.610
 8031SOL    HW124992   6.384   6.502   2.515
 8031SOL    HW224993   6.475   6.502   2.650
 8032SOL     OW24994   6.261   4.391   1.469
 8032SOL    HW124995   6.209   4.309   1.447
 8032SOL    HW224996   6.246   4.415   1.565
 8033SOL     OW24997   5.340   1.839   5.865
 8033SOL    HW124998   5.330   1.808   5.770
 8033SOL    HW224999   5.398   1.776   5.916
 8034SOL     OW25000   5.000   0.126   4.093
 8034SOL    HW125001   5.078   0.147   4.152
 8034SOL    HW225002   5.010   0.171   4.005
 8035SOL     OW25003   4.996   1.725   4.454
 8035SOL    HW125004   4.914   1.701   4.403
 8035SOL    HW225005   4.985   1.815   4.496
 8036SOL     OW25006   6.814   4.033   3.742
 8036SOL    HW125007   6.729   3.986   3.721
 8036SOL    HW225008   6.890   3.984   3.699
 8037SOL     OW25009   1.603   3.139   0.505
 8037SOL    HW125010   1.563   3.227   0.529
 8037SOL    HW225011   1.625   3.088   0.588
 8038SOL     OW25012   4.463   6.890   2.228
 8038SOL    HW125013   4.446   6.961   2.159
 8038SOL    HW225014   4.560   6.891   2.252
 8039SOL     OW25015   1.155   1.667   4.905
 8039SOL    HW125016   1.159   1.610   4.823
 8039SOL    HW225017   1.060   1.684   4.930
 8040SOL     OW25018   1.226   5.406   7.007
 8040SOL    HW125019   1.276   5.339   0.032
 8040SOL    HW225020   1.162   5.359   6.946
 8041SOL     OW25021   2.551   1.422   2.683
 8041SOL    HW125022   2.483   1.495   2.694
 8041SOL    HW225023   2.506   1.333   2.685
 8042SOL     OW25024   3.193   2.984   4.115
 8042SOL    HW125025   3.174   2.982   4.017
 8042SOL    HW225026   3.190   3.079   4.148
 8043SOL     OW25027   3.454   6.515   1.338
 8043SOL    HW125028   3.362   6.475   1.336
 8043SOL    HW225029   3.455   6.592   1.401
 8044SOL     OW25030   4.009   1.930   1.404
 8044SOL    HW125031   4.093   1.974   1.436
 8044SOL    HW225032   3.966   1.986   1.333
 8045SOL     OW25033   5.435   2.124   3.107
 8045SOL    HW125034   5.348   2.076   3.093
 8045SOL    HW225035   5.444   2.149   3.203
 8046SOL     OW25036   0.476   5.350   1.479
 8046SOL    HW125037   0.528   5.370   1.561
 8046SOL    HW225038   0.388   5.397   1.482
 8047SOL     OW25039   4.240   5.983   4.709
 8047SOL    HW125040   4.229   6.038   4.627
 8047SOL    HW225041   4.169   5.912   4.713
 8048SOL     OW25042   5.422   1.432   5.778
 8048SOL    HW125043   5.499   1.478   5.735
 8048SOL    HW225044   5.372   1.379   5.710
 8049SOL     OW25045   0.707   0.258   0.471
 8049SOL    HW125046   0.803   0.272   0.494
 8049SOL    HW225047   0.656   0.233   0.553
 8050SOL     OW25048   1.678   3.508   3.626
 8050SOL    HW125049   1.727   3.538   3.544
 8050SOL    HW225050   1.719   3.550   3.707
 8051SOL     OW25051   4.544   5.680   3.561
 8051SOL    HW125052   4.533   5.778   3.578
 8051SOL    HW225053   4.545   5.632   3.648
 8052SOL     OW25054   3.982   1.189   1.165
 8052SOL    HW125055   4.077   1.162   1.176
 8052SOL    HW225056   3.923   1.109   1.170
 8053SOL     OW25057   2.906   3.484   3.831
 8053SOL    HW125058   2.991   3.531   3.855
 8053SOL    HW225059   2.855   3.540   3.766
 8054SOL     OW25060   6.050   5.666   4.526
 8054SOL    HW125061   6.146   5.694   4.526
 8054SOL    HW225062   6.014   5.669   4.433
 8055SOL     OW25063   0.409   0.336   5.079
 8055SOL    HW125064   0.391   0.271   5.154
 8055SOL    HW225065   0.496   0.382   5.095
 8056SOL     OW25066   2.268   1.155   3.153
 8056SOL    HW125067   2.367   1.160   3.138
 8056SOL    HW225068   2.234   1.245   3.180
 8057SOL     OW25069   2.958   2.207   2.618
 8057SOL    HW125070   2.942   2.248   2.528
 8057SOL    HW225071   2.888   2.240   2.682
 8058SOL     OW25072   3.625   0.103   3.012
 8058SOL    HW125073   3.560   0.027   3.003
 8058SOL    HW225074   3.718   0.067   3.010
 8059SOL     OW25075   3.161   1.864   5.167
 8059SOL    HW125076   3.258   1.842   5.170
 8059SOL    HW225077   3.107   1.783   5.191
 8060SOL     OW25078   6.220   2.117   5.431
 8060SOL    HW125079   6.202   2.114   5.333
 8060SOL    HW225080   6.135   2.110   5.481
 8061SOL     OW25081   0.019   0.634   2.984
 8061SOL    HW125082   0.047   0.641   3.080
 8061SOL    HW225083   6.972   0.698   2.966
 8062SOL     OW25084   3.909   5.118   4.177
 8062SOL    HW125085   3.950   5.200   4.138
 8062SOL    HW225086   3.952   5.037   4.138
 8063SOL     OW25087   1.957   2.208   2.063
 8063SOL    HW125088   2.021   2.252   2.126
 8063SOL    HW225089   1.936   2.116   2.095
 8064SOL     OW25090   6.568   3.360   1.887
 8064SOL    HW125091   6.591   3.430   1.819
 8064SOL    HW225092   6.629   3.282   1.876
 8065SOL     OW25093   2.802   5.486   3.742
 8065SOL    HW125094   2.710   5.464   3.774
 8065SOL    HW225095   2.819   5.584   3.753
 8066SOL     OW25096   1.118   1.653   5.389
 8066SOL    HW125097   1.078   1.651   5.481
 8066SOL    HW225098   1.067   1.591   5.329
 8067SOL     OW25099   4.829   2.652   2.314
 8067SOL    HW125100   4.827   2.747   2.347
 8067SOL    HW225101   4.924   2.624   2.303
 8068SOL     OW25102   6.982   4.057   1.530
 8068SOL    HW125103   6.901   4.022   1.577
 8068SOL    HW225104   6.967   4.056   1.431
 8069SOL     OW25105   3.079   5.996   1.348
 8069SOL    HW125106   3.011   5.944   1.399
 8069SOL    HW225107   3.106   6.077   1.401
 8070SOL     OW25108   4.229   3.631   0.569
 8070SOL    HW125109   4.224   3.652   0.471
 8070SOL    HW225110   4.322   3.604   0.593
 8071SOL     OW25111   3.482   6.431   4.792
 8071SOL    HW125112   3.523   6.509   4.744
 8071SOL    HW225113   3.555   6.372   4.828
 8072SOL     OW25114   4.010   1.770   0.752
 8072SOL    HW125115   4.077   1.796   0.822
 8072SOL    HW225116   4.005   1.841   0.682
 8073SOL     OW25117   3.048   5.230   4.914
 8073SOL    HW125118   2.982   5.265   4.847
 8073SOL    HW225119   3.012   5.147   4.956
 8074SOL     OW25120   3.131   2.925   0.273
 8074SOL    HW125121   3.203   2.951   0.338
 8074SOL    HW225122   3.059   2.876   0.321
 8075SOL     OW25123   0.196   0.451   0.790
 8075SOL    HW125124   0.217   0.540   0.750
 8075SOL    HW225125   0.130   0.462   0.864
 8076SOL     OW25126   6.146   1.248   5.413
 8076SOL    HW125127   6.173   1.241   5.317
 8076SOL    HW225128   6.145   1.344   5.440
 8077SOL     OW25129   3.411   6.242   2.569
 8077SOL    HW125130   3.463   6.328   2.571
 8077SOL    HW225131   3.429   6.191   2.653
 8078SOL     OW25132   0.169   1.840   0.577
 8078SOL    HW125133   0.265   1.813   0.570
 8078SOL    HW225134   0.146   1.858   0.673
 8079SOL     OW25135   5.622   1.969   3.597
 8079SOL    HW125136   5.697   1.925   3.646
 8079SOL    HW225137   5.562   1.900   3.557
 8080SOL     OW25138   1.025   2.429   1.393
 8080SOL    HW125139   1.063   2.424   1.301
 8080SOL    HW225140   1.098   2.420   1.460
 8081SOL     OW25141   6.287   5.722   5.844
 8081SOL    HW125142   6.349   5.735   5.767
 8081SOL    HW225143   6.289   5.803   5.903
 8082SOL     OW25144   4.692   0.108   2.847
 8082SOL    HW125145   4.772   0.162   2.821
 8082SOL    HW225146   4.688   0.025   2.791
 8083SOL     OW25147   4.971   2.750   3.265
 8083SOL    HW125148   4.894   2.813   3.262
 8083SOL    HW225149   5.009   2.739   3.173
 8084SOL     OW25150   3.846   6.581   0.368
 8084SOL    HW125151   3.768   6.537   0.323
 8084SOL    HW225152   3.813   6.648   0.434
 8085SOL     OW25153   6.844   6.297   2.299
 8085SOL    HW125154   6.935   6.278   2.263
 8085SOL    HW225155   6.806   6.215   2.340
 8086SOL     OW25156   5.746   0.285   2.930
 8086SOL    HW125157   5.772   0.382   2.931
 8086SOL    HW225158   5.647   0.277   2.930
 8087SOL     OW25159   2.595   1.012   0.085
 8087SOL    HW125160   2.620   1.027   7.018
 8087SOL    HW225161   2.611   0.916   0.109
 8088SOL     OW25162   5.586   1.927   1.594
 8088SOL    HW125163   5.646   1.941   1.673
 8088SOL    HW225164   5.493   1.910   1.625
 8089SOL     OW25165   5.736   2.633   0.580
 8089SOL    HW125166   5.707   2.658   0.487
 8089SOL    HW225167   5.835   2.635   0.586
 8090SOL     OW25168   4.408   2.276   6.785
 8090SOL    HW125169   4.332   2.291   6.721
 8090SOL    HW225170   4.394   2.332   6.867
 8091SOL     OW25171   2.161   3.568   5.092
 8091SOL    HW125172   2.232   3.546   5.159
 8091SOL    HW225173   2.197   3.635   5.026
 8092SOL     OW25174   5.013   1.717   4.951
 8092SOL    HW125175   5.051   1.795   5.000
 8092SOL    HW225176   4.929   1.687   4.996
 8093SOL     OW25177   3.841   5.431   2.484
 8093SOL    HW125178   3.871   5.478   2.567
 8093SOL    HW225179   3.912   5.441   2.414
 8094SOL     OW25180   0.972   3.555   4.451
 8094SOL    HW125181   1.048   3.619   4.458
 8094SOL    HW225182   0.913   3.581   4.374
 8095SOL     OW25183   0.451   4.608   4.741
 8095SOL    HW125184   0.434   4.532   4.803
 8095SOL    HW225185   0.437   4.695   4.790
 8096SOL     OW25186   2.448   6.690   3.221
 8096SOL    HW125187   2.357   6.689   3.263
 8096SOL    HW225188   2.516   6.658   3.287
 8097SOL     OW25189   3.980   0.230   4.237
 8097SOL    HW125190   3.886   0.227   4.201
 8097SOL    HW225191   4.042   0.259   4.165
 8098SOL     OW25192   1.576   6.748   3.179
 8098SOL    HW125193   1.642   6.674   3.165
 8098SOL    HW225194   1.496   6.713   3.228
 8099SOL     OW25195   3.811   6.865   4.851
 8099SOL    HW125196   3.807   6.888   4.948
 8099SOL    HW225197   3.796   6.947   4.796
 8100SOL     OW25198   6.531   1.147   0.958
 8100SOL    HW125199   6.615   1.114   0.914
 8100SOL    HW225200   6.515   1.097   1.042
 8101SOL     OW25201   1.934   6.330   2.402
 8101SOL    HW125202   1.986   6.411   2.429
 8101SOL    HW225203   1.995   6.264   2.358
 8102SOL     OW25204   1.225   4.362   4.153
 8102SOL    HW125205   1.159   4.370   4.227
 8102SOL    HW225206   1.178   4.368   4.065
 8103SOL     OW25207   2.938   6.917   1.135
 8103SOL    HW125208   2.840   6.936   1.135
 8103SOL    HW225209   2.954   6.824   1.102
 8104SOL     OW25210   3.289   0.639   6.171
 8104SOL    HW125211   3.250   0.624   6.261
 8104SOL    HW225212   3.224   0.688   6.113
 8105SOL     OW25213   0.919   3.017   3.205
 8105SOL    HW125214   0.943   3.074   3.283
 8105SOL    HW225215   0.827   2.980   3.217
 8106SOL     OW25216   2.292   6.105   2.948
 8106SOL    HW125217   2.202   6.116   2.904
 8106SOL    HW225218   2.353   6.056   2.886
 8107SOL     OW25219   0.611   5.032   4.537
 8107SOL    HW125220   0.612   5.086   4.621
 8107SOL    HW225221   0.680   4.960   4.544
 8108SOL     OW25222   6.254   2.807   5.818
 8108SOL    HW125223   6.232   2.743   5.892
 8108SOL    HW225224   6.231   2.900   5.846
 8109SOL     OW25225   0.833   3.702   4.867
 8109SOL    HW125226   0.842   3.614   4.821
 8109SOL    HW225227   0.917   3.755   4.856
 8110SOL     OW25228   3.017   5.970   1.091
 8110SOL    HW125229   3.054   5.877   1.090
 8110SOL    HW225230   3.031   6.010   1.182
 8111SOL     OW25231   5.269   0.654   4.768
 8111SOL    HW125232   5.366   0.650   4.790
 8111SOL    HW225233   5.229   0.736   4.808
 8112SOL     OW25234   1.984   2.379   4.039
 8112SOL    HW125235   2.043   2.431   4.100
 8112SOL    HW225236   1.977   2.426   3.951
 8113SOL     OW25237   1.995   3.210   0.633
 8113SOL    HW125238   1.962   3.133   0.688
 8113SOL    HW225239   1.982   3.295   0.683
 8114SOL     OW25240   1.323   3.842   3.020
 8114SOL    HW125241   1.260   3.797   2.956
 8114SOL    HW225242   1.322   3.794   3.107
 8115SOL     OW25243   3.840   0.424   0.267
 8115SOL    HW125244   3.781   0.352   0.233
 8115SOL    HW225245   3.797   0.470   0.344
 8116SOL     OW25246   4.607   5.393   6.060
 8116SOL    HW125247   4.629   5.296   6.050
 8116SOL    HW225248   4.619   5.419   6.156
 8117SOL     OW25249   1.702   0.263   3.451
 8117SOL    HW125250   1.685   0.167   3.426
 8117SOL    HW225251   1.717   0.317   3.368
 8118SOL     OW25252   5.609   4.582   5.619
 8118SOL    HW125253   5.604   4.656   5.552
 8118SOL    HW225254   5.613   4.495   5.571
 8119SOL     OW25255   4.916   5.324   6.404
 8119SOL    HW125256   4.947   5.300   6.312
 8119SOL    HW225257   4.880   5.243   6.449
 8120SOL     OW25258   2.884   5.284   0.363
 8120SOL    HW125259   2.976   5.249   0.346
 8120SOL    HW225260   2.823   5.257   0.288
 8121SOL     OW25261   0.267   5.306   1.967
 8121SOL    HW125262   0.307   5.230   1.916
 8121SOL    HW225263   0.172   5.319   1.939
 8122SOL     OW25264   1.041   5.052   2.876
 8122SOL    HW125265   1.041   5.085   2.970
 8122SOL    HW225266   1.069   5.126   2.815
 8123SOL     OW25267   6.615   0.712   6.296
 8123SOL    HW125268   6.606   0.786   6.229
 8123SOL    HW225269   6.700   0.723   6.346
 8124SOL     OW25270   5.647   6.750   1.060
 8124SOL    HW125271   5.659   6.654   1.082
 8124SOL    HW225272   5.683   6.807   1.134
 8125SOL     OW25273   1.426   1.551   3.588
 8125SOL    HW125274   1.411   1.461   3.629
 8125SOL    HW225275   1.464   1.540   3.496
 8126SOL     OW25276   4.905   4.714   2.784
 8126SOL    HW125277   4.997   4.676   2.795
 8126SOL    HW225278   4.907   4.785   2.714
 8127SOL     OW25279   2.579   4.509   6.649
 8127SOL    HW125280   2.677   4.504   6.668
 8127SOL    HW225281   2.540   4.417   6.645
 8128SOL     OW25282   2.440   1.265   1.792
 8128SOL    HW125283   2.409   1.354   1.827
 8128SOL    HW225284   2.523   1.237   1.841
 8129SOL     OW25285   4.414   0.847   6.611
 8129SOL    HW125286   4.432   0.896   6.525
 8129SOL    HW225287   4.498   0.802   6.641
 8130SOL     OW25288   0.083   3.417   6.374
 8130SOL    HW125289   7.019   3.397   6.344
 8130SOL    HW225290   0.127   3.333   6.404
 8131SOL     OW25291   3.309   1.974   0.554
 8131SOL    HW125292   3.390   2.013   0.510
 8131SOL    HW225293   3.241   2.045   0.567
 8132SOL     OW25294   6.178   6.900   6.064
 8132SOL    HW125295   6.176   6.802   6.046
 8132SOL    HW225296   6.272   6.933   6.061
 8133SOL     OW25297   3.228   4.872   1.371
 8133SOL    HW125298   3.134   4.887   1.403
 8133SOL    HW225299   3.291   4.926   1.428
 8134SOL     OW25300   6.540   2.716   5.475
 8134SOL    HW125301   6.624   2.675   5.438
 8134SOL    HW225302   6.557   2.748   5.568
 8135SOL     OW25303   2.810   6.248   1.756
 8135SOL    HW125304   2.731   6.198   1.793
 8135SOL    HW225305   2.891   6.230   1.811
 8136SOL     OW25306   4.394   5.283   2.996
 8136SOL    HW125307   4.337   5.202   2.980
 8136SOL    HW225308   4.469   5.284   2.930
 8137SOL     OW25309   3.420   1.734   5.422
 8137SOL    HW125310   3.412   1.781   5.334
 8137SOL    HW225311   3.329   1.707   5.454
 8138SOL     OW25312   5.987   1.493   6.871
 8138SOL    HW125313   6.063   1.430   6.861
 8138SOL    HW225314   6.010   1.582   6.830
 8139SOL     OW25315   0.046   1.397   2.788
 8139SOL    HW125316   6.986   1.351   2.777
 8139SOL    HW225317   0.064   1.453   2.707
 8140SOL     OW25318   4.789   0.448   1.003
 8140SOL    HW125319   4.883   0.437   0.970
 8140SOL    HW225320   4.787   0.516   1.077
 8141SOL     OW25321   5.109   6.622   4.962
 8141SOL    HW125322   5.123   6.574   5.048
 8141SOL    HW225323   5.121   6.721   4.976
 8142SOL     OW25324   1.325   5.138   6.727
 8142SOL    HW125325   1.231   5.153   6.757
 8142SOL    HW225326   1.376   5.224   6.733
 8143SOL     OW25327   6.688   4.205   0.978
 8143SOL    HW125328   6.788   4.212   0.985
 8143SOL    HW225329   6.659   4.115   1.009
 8144SOL     OW25330   6.652   6.868   6.406
 8144SOL    HW125331   6.692   6.960   6.408
 8144SOL    HW225332   6.710   6.804   6.455
 8145SOL     OW25333   5.606   5.628   1.590
 8145SOL    HW125334   5.625   5.630   1.689
 8145SOL    HW225335   5.514   5.665   1.574
 8146SOL     OW25336   4.896   0.957   4.645
 8146SOL    HW125337   4.943   0.936   4.559
 8146SOL    HW225338   4.839   0.879   4.671
 8147SOL     OW25339   6.106   1.763   1.715
 8147SOL    HW125340   6.078   1.853   1.680
 8147SOL    HW225341   6.151   1.712   1.642
 8148SOL     OW25342   4.925   4.121   0.594
 8148SOL    HW125343   4.865   4.121   0.514
 8148SOL    HW225344   5.009   4.072   0.572
 8149SOL     OW25345   3.388   6.399   2.332
 8149SOL    HW125346   3.327   6.475   2.356
 8149SOL    HW225347   3.400   6.339   2.411
 8150SOL     OW25348   2.065   4.146   1.171
 8150SOL    HW125349   2.013   4.161   1.255
 8150SOL    HW225350   2.068   4.049   1.150
 8151SOL     OW25351   5.566   3.382   1.961
 8151SOL    HW125352   5.513   3.301   1.936
 8151SOL    HW225353   5.620   3.413   1.882
 8152SOL     OW25354   6.660   2.334   2.451
 8152SOL    HW125355   6.577   2.373   2.492
 8152SOL    HW225356   6.717   2.408   2.414
 8153SOL     OW25357   1.719   0.104   3.859
 8153SOL    HW125358   1.745   0.066   3.948
 8153SOL    HW225359   1.619   0.101   3.850
 8154SOL     OW25360   3.442   5.205   1.988
 8154SOL    HW125361   3.456   5.183   1.891
 8154SOL    HW225362   3.434   5.119   2.040
 8155SOL     OW25363   1.642   3.707   2.174
 8155SOL    HW125364   1.597   3.743   2.092
 8155SOL    HW225365   1.575   3.700   2.248
 8156SOL     OW25366   5.533   6.956   0.882
 8156SOL    HW125367   5.471   7.007   0.942
 8156SOL    HW225368   5.565   6.874   0.929
 8157SOL     OW25369   6.633   5.426   6.365
 8157SOL    HW125370   6.668   5.416   6.458
 8157SOL    HW225371   6.631   5.523   6.340
 8158SOL     OW25372   4.917   5.043   0.470
 8158SOL    HW125373   4.851   5.023   0.542
 8158SOL    HW225374   4.894   4.990   0.388
 8159SOL     OW25375   2.737   5.878   2.879
 8159SOL    HW125376   2.682   5.832   2.809
 8159SOL    HW225377   2.723   5.977   2.873
 8160SOL     OW25378   5.021   0.653   3.543
 8160SOL    HW125379   5.080   0.613   3.473
 8160SOL    HW225380   4.940   0.596   3.556
 8161SOL     OW25381   5.834   2.124   6.321
 8161SOL    HW125382   5.919   2.080   6.350
 8161SOL    HW225383   5.785   2.156   6.401
 8162SOL     OW25384   5.622   6.693   6.494
 8162SOL    HW125385   5.630   6.620   6.426
 8162SOL    HW225386   5.708   6.699   6.546
 8163SOL     OW25387   2.587   3.966   5.337
 8163SOL    HW125388   2.681   3.975   5.303
 8163SOL    HW225389   2.523   3.996   5.267
 8164SOL     OW25390   5.410   2.625   0.519
 8164SOL    HW125391   5.434   2.664   0.608
 8164SOL    HW225392   5.460   2.539   0.505
 8165SOL     OW25393   0.711   3.251   6.684
 8165SOL    HW125394   0.790   3.274   6.741
 8165SOL    HW225395   0.687   3.155   6.698
 8166SOL     OW25396   1.553   0.316   2.744
 8166SOL    HW125397   1.614   0.381   2.700
 8166SOL    HW225398   1.474   0.299   2.685
 8167SOL     OW25399   6.416   0.061   4.593
 8167SOL    HW125400   6.433   0.146   4.644
 8167SOL    HW225401   6.359   0.081   4.514
 8168SOL     OW25402   1.771   1.780   3.417
 8168SOL    HW125403   1.752   1.774   3.318
 8168SOL    HW225404   1.785   1.688   3.453
 8169SOL     OW25405   4.981   2.178   0.828
 8169SOL    HW125406   5.072   2.190   0.789
 8169SOL    HW225407   4.913   2.178   0.755
 8170SOL     OW25408   1.346   4.759   2.536
 8170SOL    HW125409   1.329   4.772   2.634
 8170SOL    HW225410   1.314   4.668   2.509
 8171SOL     OW25411   1.255   2.029   6.290
 8171SOL    HW125412   1.247   2.128   6.295
 8171SOL    HW225413   1.252   2.000   6.194
 8172SOL     OW25414   0.911   2.142   2.124
 8172SOL    HW125415   0.853   2.221   2.104
 8172SOL    HW225416   0.856   2.059   2.122
 8173SOL     OW25417   5.134   1.055   2.147
 8173SOL    HW125418   5.061   1.085   2.084
 8173SOL    HW225419   5.168   0.966   2.117
 8174SOL     OW25420   6.227   3.090   1.182
 8174SOL    HW125421   6.140   3.053   1.215
 8174SOL    HW225422   6.252   3.046   1.096
 8175SOL     OW25423   6.768   2.315   5.762
 8175SOL    HW125424   6.736   2.230   5.803
 8175SOL    HW225425   6.689   2.372   5.737
 8176SOL     OW25426   2.692   4.961   1.676
 8176SOL    HW125427   2.737   5.030   1.732
 8176SOL    HW225428   2.609   5.000   1.636
 8177SOL     OW25429   3.395   6.333   3.806
 8177SOL    HW125430   3.312   6.294   3.847
 8177SOL    HW225431   3.385   6.433   3.801
 8178SOL     OW25432   2.898   5.817   6.682
 8178SOL    HW125433   2.843   5.886   6.635
 8178SOL    HW225434   2.989   5.853   6.700
 8179SOL     OW25435   5.000   2.200   5.934
 8179SOL    HW125436   4.959   2.119   5.894
 8179SOL    HW225437   4.981   2.203   6.033
 8180SOL     OW25438   6.580   0.485   4.777
 8180SOL    HW125439   6.649   0.418   4.806
 8180SOL    HW225440   6.621   0.548   4.711
 8181SOL     OW25441   1.844   1.165   0.691
 8181SOL    HW125442   1.886   1.255   0.679
 8181SOL    HW225443   1.893   1.115   0.762
 8182SOL     OW25444   4.350   3.288   5.881
 8182SOL    HW125445   4.308   3.376   5.862
 8182SOL    HW225446   4.399   3.292   5.968
 8183SOL     OW25447   0.000   2.327   4.732
 8183SOL    HW125448   7.014   2.416   4.775
 8183SOL    HW225449   6.999   2.255   4.794
 8184SOL     OW25450   5.651   1.301   6.137
 8184SOL    HW125451   5.601   1.249   6.207
 8184SOL    HW225452   5.680   1.388   6.175
 8185SOL     OW25453   2.559   6.409   0.429
 8185SOL    HW125454   2.559   6.390   0.527
 8185SOL    HW225455   2.576   6.507   0.415
 8186SOL     OW25456   3.758   5.875   5.407
 8186SOL    HW125457   3.850   5.909   5.389
 8186SOL    HW225458   3.696   5.907   5.335
 8187SOL     OW25459   1.513   2.594   5.398
 8187SOL    HW125460   1.454   2.547   5.332
 8187SOL    HW225461   1.584   2.644   5.349
 8188SOL     OW25462   5.497   2.912   2.925
 8188SOL    HW125463   5.518   2.815   2.938
 8188SOL    HW225464   5.557   2.966   2.984
 8189SOL     OW25465   4.660   4.788   2.835
 8189SOL    HW125466   4.597   4.721   2.795
 8189SOL    HW225467   4.753   4.751   2.834
 8190SOL     OW25468   4.172   5.125   3.858
 8190SOL    HW125469   4.217   5.194   3.915
 8190SOL    HW225470   4.241   5.076   3.804
 8191SOL     OW25471   3.721   6.630   2.255
 8191SOL    HW125472   3.636   6.631   2.202
 8191SOL    HW225473   3.745   6.536   2.276
 8192SOL     OW25474   3.792   5.249   0.744
 8192SOL    HW125475   3.738   5.190   0.804
 8192SOL    HW225476   3.882   5.207   0.729
 8193SOL     OW25477   6.853   6.369   4.401
 8193SOL    HW125478   6.901   6.323   4.326
 8193SOL    HW225479   6.816   6.456   4.368
 8194SOL     OW25480   5.886   2.726   0.946
 8194SOL    HW125481   5.880   2.759   1.040
 8194SOL    HW225482   5.845   2.635   0.939
 8195SOL     OW25483   1.581   6.823   1.861
 8195SOL    HW125484   1.506   6.867   1.910
 8195SOL    HW225485   1.612   6.883   1.787
 8196SOL     OW25486   3.843   6.559   5.903
 8196SOL    HW125487   3.767   6.553   5.837
 8196SOL    HW225488   3.886   6.649   5.895
 8197SOL     OW25489   4.336   1.599   6.461
 8197SOL    HW125490   4.373   1.541   6.389
 8197SOL    HW225491   4.244   1.567   6.486
 8198SOL     OW25492   3.809   6.611   3.290
 8198SOL    HW125493   3.797   6.697   3.242
 8198SOL    HW225494   3.835   6.539   3.225
 8199SOL     OW25495   5.653   2.789   6.474
 8199SOL    HW125496   5.686   2.877   6.440
 8199SOL    HW225497   5.571   2.763   6.424
 8200SOL     OW25498   4.799   3.754   1.564
 8200SOL    HW125499   4.842   3.681   1.511
 8200SOL    HW225500   4.774   3.830   1.504
 8201SOL     OW25501   5.761   0.476   3.972
 8201SOL    HW125502   5.793   0.562   4.014
 8201SOL    HW225503   5.833   0.407   3.978
 8202SOL     OW25504   0.153   5.942   4.728
 8202SOL    HW125505   0.178   5.976   4.818
 8202SOL    HW225506   0.218   5.871   4.700
 8203SOL     OW25507   4.442   2.298   0.257
 8203SOL    HW125508   4.399   2.257   0.338
 8203SOL    HW225509   4.521   2.243   0.230
 8204SOL     OW25510   3.065   5.591   6.757
 8204SOL    HW125511   3.057   5.687   6.729
 8204SOL    HW225512   3.120   5.541   6.690
 8205SOL     OW25513   0.463   4.666   1.031
 8205SOL    HW125514   0.513   4.726   1.093
 8205SOL    HW225515   0.377   4.710   1.005
 8206SOL     OW25516   4.809   2.580   6.172
 8206SOL    HW125517   4.730   2.519   6.177
 8206SOL    HW225518   4.837   2.606   6.264
 8207SOL     OW25519   3.479   3.990   5.568
 8207SOL    HW125520   3.441   4.080   5.587
 8207SOL    HW225521   3.575   3.999   5.542
 8208SOL     OW25522   1.670   7.003   1.674
 8208SOL    HW125523   1.718   6.946   1.607
 8208SOL    HW225524   1.676   0.071   1.646
 8209SOL     OW25525   0.763   1.442   5.691
 8209SOL    HW125526   0.853   1.422   5.730
 8209SOL    HW225527   0.714   1.356   5.676
 8210SOL     OW25528   2.823   0.928   0.854
 8210SOL    HW125529   2.897   0.867   0.883
 8210SOL    HW225530   2.856   1.023   0.855
 8211SOL     OW25531   4.095   3.644   2.823
 8211SOL    HW125532   4.101   3.588   2.740
 8211SOL    HW225533   4.142   3.597   2.898
 8212SOL     OW25534   3.320   1.689   0.984
 8212SOL    HW125535   3.248   1.735   1.037
 8212SOL    HW225536   3.320   1.592   1.006
 8213SOL     OW25537   5.608   5.057   2.283
 8213SOL    HW125538   5.701   5.030   2.259
 8213SOL    HW225539   5.606   5.091   2.377
 8214SOL     OW25540   0.766   5.441   4.182
 8214SOL    HW125541   0.847   5.497   4.165
 8214SOL    HW225542   0.703   5.447   4.104
 8215SOL     OW25543   2.944   6.026   6.496
 8215SOL    HW125544   3.039   6.058   6.505
 8215SOL    HW225545   2.933   5.978   6.408
 8216SOL     OW25546   5.200   6.175   3.319
 8216SOL    HW125547   5.123   6.238   3.313
 8216SOL    HW225548   5.194   6.123   3.405
 8217SOL     OW25549   2.153   3.825   2.225
 8217SOL    HW125550   2.061   3.806   2.258
 8217SOL    HW225551   2.165   3.786   2.134
 8218SOL     OW25552   1.506   6.570   5.033
 8218SOL    HW125553   1.515   6.483   4.984
 8218SOL    HW225554   1.591   6.622   5.023
 8219SOL     OW25555   3.817   2.960   1.139
 8219SOL    HW125556   3.772   3.049   1.130
 8219SOL    HW225557   3.757   2.888   1.104
 8220SOL     OW25558   3.174   3.893   4.750
 8220SOL    HW125559   3.260   3.865   4.706
 8220SOL    HW225560   3.098   3.842   4.709
 8221SOL     OW25561   6.335   5.442   3.140
 8221SOL    HW125562   6.259   5.506   3.143
 8221SOL    HW225563   6.301   5.349   3.156
 8222SOL     OW25564   4.925   1.884   1.427
 8222SOL    HW125565   4.863   1.870   1.504
 8222SOL    HW225566   4.880   1.853   1.343
 8223SOL     OW25567   0.978   4.422   5.160
 8223SOL    HW125568   1.021   4.451   5.074
 8223SOL    HW225569   0.997   4.489   5.231
 8224SOL     OW25570   5.436   2.459   1.955
 8224SOL    HW125571   5.489   2.528   1.904
 8224SOL    HW225572   5.352   2.438   1.904
 8225SOL     OW25573   3.800   1.241   1.571
 8225SOL    HW125574   3.749   1.299   1.635
 8225SOL    HW225575   3.808   1.149   1.608
 8226SOL     OW25576   3.250   0.135   0.202
 8226SOL    HW125577   3.162   0.094   0.176
 8226SOL    HW225578   3.311   0.063   0.235
 8227SOL     OW25579   0.083   1.053   2.793
 8227SOL    HW125580   7.021   1.017   2.770
 8227SOL    HW225581   0.080   1.153   2.792
 8228SOL     OW25582   0.815   1.666   6.140
 8228SOL    HW125583   0.865   1.580   6.153
 8228SOL    HW225584   0.727   1.647   6.096
 8229SOL     OW25585   3.609   3.905   1.279
 8229SOL    HW125586   3.621   3.936   1.184
 8229SOL    HW225587   3.577   3.981   1.335
 8230SOL     OW25588   3.978   0.135   5.500
 8230SOL    HW125589   3.990   0.158   5.403
 8230SOL    HW225590   4.044   0.065   5.526
 8231SOL     OW25591   3.013   2.567   1.469
 8231SOL    HW125592   2.976   2.587   1.559
 8231SOL    HW225593   3.010   2.469   1.452
 8232SOL     OW25594   5.773   1.486   2.400
 8232SOL    HW125595   5.713   1.415   2.365
 8232SOL    HW225596   5.860   1.484   2.350
 8233SOL     OW25597   1.535   7.006   6.582
 8233SOL    HW125598   1.540   6.984   6.484
 8233SOL    HW225599   1.463   6.951   6.625
 8234SOL     OW25600   3.070   3.846   6.980
 8234SOL    HW125601   3.083   3.772   6.913
 8234SOL    HW225602   2.977   3.842   7.017
 8235SOL     OW25603   0.266   3.531   6.531
 8235SOL    HW125604   0.206   3.498   6.459
 8235SOL    HW225605   0.351   3.479   6.530
 8236SOL     OW25606   6.590   4.792   6.727
 8236SOL    HW125607   6.634   4.807   6.816
 8236SOL    HW225608   6.651   4.822   6.654
 8237SOL     OW25609   5.036   6.447   6.135
 8237SOL    HW125610   4.941   6.430   6.108
 8237SOL    HW225611   5.038   6.509   6.214
 8238SOL     OW25612   0.429   5.564   0.010
 8238SOL    HW125613   0.357   5.581   6.971
 8238SOL    HW225614   0.507   5.521   6.994
 8239SOL     OW25615   1.065   0.636   5.193
 8239SOL    HW125616   0.998   0.698   5.152
 8239SOL    HW225617   1.151   0.685   5.208
 8240SOL     OW25618   3.081   3.960   2.973
 8240SOL    HW125619   3.075   4.007   2.884
 8240SOL    HW225620   3.160   3.994   3.023
 8241SOL     OW25621   2.719   4.770   5.820
 8241SOL    HW125622   2.671   4.857   5.831
 8241SOL    HW225623   2.808   4.776   5.865
 8242SOL     OW25624   0.530   3.630   5.164
 8242SOL    HW125625   0.581   3.677   5.092
 8242SOL    HW225626   0.480   3.553   5.124
 8243SOL     OW25627   0.003   3.405   1.241
 8243SOL    HW125628   0.020   3.454   1.156
 8243SOL    HW225629   0.031   3.462   1.318
 8244SOL     OW25630   0.603   0.117   3.779
 8244SOL    HW125631   0.671   0.185   3.806
 8244SOL    HW225632   0.576   0.132   3.684
 8245SOL     OW25633   3.459   2.109   2.669
 8245SOL    HW125634   3.499   2.151   2.588
 8245SOL    HW225635   3.517   2.127   2.748
 8246SOL     OW25636   0.268   4.102   6.485
 8246SOL    HW125637   0.201   4.143   6.546
 8246SOL    HW225638   0.295   4.167   6.415
 8247SOL     OW25639   1.899   6.259   3.216
 8247SOL    HW125640   1.956   6.336   3.187
 8247SOL    HW225641   1.903   6.250   3.315
 8248SOL     OW25642   0.730   4.688   4.926
 8248SOL    HW125643   0.654   4.656   4.982
 8248SOL    HW225644   0.791   4.611   4.907
 8249SOL     OW25645   2.053   1.580   5.817
 8249SOL    HW125646   2.077   1.644   5.890
 8249SOL    HW225647   2.117   1.590   5.741
 8250SOL     OW25648   2.533   2.188   1.483
 8250SOL    HW125649   2.590   2.266   1.510
 8250SOL    HW225650   2.481   2.212   1.401
 8251SOL     OW25651   5.472   1.728   4.480
 8251SOL    HW125652   5.562   1.746   4.440
 8251SOL    HW225653   5.410   1.692   4.410
 8252SOL     OW25654   4.210   2.125   6.637
 8252SOL    HW125655   4.271   2.046   6.643
 8252SOL    HW225656   4.245   2.189   6.569
 8253SOL     OW25657   3.600   6.114   6.141
 8253SOL    HW125658   3.550   6.091   6.058
 8253SOL    HW225659   3.549   6.182   6.193
 8254SOL     OW25660   4.657   4.893   5.610
 8254SOL    HW125661   4.743   4.936   5.583
 8254SOL    HW225662   4.675   4.825   5.681
 8255SOL     OW25663   1.291   6.828   5.581
 8255SOL    HW125664   1.300   6.911   5.635
 8255SOL    HW225665   1.280   6.851   5.485
 8256SOL     OW25666   0.086   6.198   2.831
 8256SOL    HW125667   0.054   6.290   2.853
 8256SOL    HW225668   0.159   6.203   2.763
 8257SOL     OW25669   5.499   3.740   3.635
 8257SOL    HW125670   5.465   3.778   3.721
 8257SOL    HW225671   5.465   3.794   3.558
 8258SOL     OW25672   4.698   2.690   2.059
 8258SOL    HW125673   4.736   2.774   2.020
 8258SOL    HW225674   4.740   2.671   2.147
 8259SOL     OW25675   3.522   2.235   5.440
 8259SOL    HW125676   3.458   2.285   5.499
 8259SOL    HW225677   3.480   2.221   5.351
 8260SOL     OW25678   2.131   6.699   1.858
 8260SOL    HW125679   2.153   6.632   1.787
 8260SOL    HW225680   2.189   6.684   1.938
 8261SOL     OW25681   5.079   6.489   3.126
 8261SOL    HW125682   5.018   6.511   3.049
 8261SOL    HW225683   5.044   6.409   3.174
 8262SOL     OW25684   1.110   5.059   0.537
 8262SOL    HW125685   1.021   5.058   0.582
 8262SOL    HW225686   1.115   5.137   0.474
 8263SOL     OW25687   0.231   3.163   6.411
 8263SOL    HW125688   0.159   3.154   6.479
 8263SOL    HW225689   0.300   3.092   6.424
 8264SOL     OW25690   0.847   6.505   1.430
 8264SOL    HW125691   0.764   6.561   1.429
 8264SOL    HW225692   0.870   6.477   1.337
 8265SOL     OW25693   5.521   0.231   1.962
 8265SOL    HW125694   5.496   0.207   1.869
 8265SOL    HW225695   5.529   0.330   1.970
 8266SOL     OW25696   2.583   0.918   4.028
 8266SOL    HW125697   2.514   0.974   3.981
 8266SOL    HW225698   2.629   0.859   3.962
 8267SOL     OW25699   1.104   4.241   1.857
 8267SOL    HW125700   1.015   4.257   1.900
 8267SOL    HW225701   1.091   4.191   1.771
 8268SOL     OW25702   3.175   5.778   6.409
 8268SOL    HW125703   3.231   5.858   6.432
 8268SOL    HW225704   3.084   5.808   6.381
 8269SOL     OW25705   4.676   2.730   3.032
 8269SOL    HW125706   4.716   2.761   2.947
 8269SOL    HW225707   4.675   2.805   3.098
 8270SOL     OW25708   2.804   5.747   5.127
 8270SOL    HW125709   2.777   5.651   5.133
 8270SOL    HW225710   2.901   5.753   5.107
 8271SOL     OW25711   6.542   6.737   3.301
 8271SOL    HW125712   6.520   6.667   3.234
 8271SOL    HW225713   6.537   6.827   3.258
 8272SOL     OW25714   6.614   1.132   2.675
 8272SOL    HW125715   6.585   1.092   2.762
 8272SOL    HW225716   6.667   1.065   2.623
 8273SOL     OW25717   3.172   0.826   0.114
 8273SOL    HW125718   3.178   0.852   0.210
 8273SOL    HW225719   3.077   0.825   0.085
 8274SOL     OW25720   4.387   5.293   5.268
 8274SOL    HW125721   4.315   5.355   5.237
 8274SOL    HW225722   4.473   5.344   5.276
 8275SOL     OW25723   5.640   0.543   3.720
 8275SOL    HW125724   5.695   0.614   3.677
 8275SOL    HW225725   5.685   0.512   3.804
 8276SOL     OW25726   6.847   2.289   5.379
 8276SOL    HW125727   6.921   2.350   5.408
 8276SOL    HW225728   6.868   2.196   5.410
 8277SOL     OW25729   1.358   6.071   6.359
 8277SOL    HW125730   1.424   5.997   6.348
 8277SOL    HW225731   1.321   6.096   6.269
 8278SOL     OW25732   3.089   1.743   6.843
 8278SOL    HW125733   3.050   1.726   6.934
 8278SOL    HW225734   3.188   1.747   6.850
 8279SOL     OW25735   6.607   6.335   5.089
 8279SOL    HW125736   6.513   6.366   5.090
 8279SOL    HW225737   6.618   6.265   5.019
 8280SOL     OW25738   3.841   2.593   0.781
 8280SOL    HW125739   3.886   2.635   0.702
 8280SOL    HW225740   3.767   2.533   0.750
 8281SOL     OW25741   2.400   4.351   1.826
 8281SOL    HW125742   2.386   4.346   1.925
 8281SOL    HW225743   2.449   4.270   1.796
 8282SOL     OW25744   3.558   3.896   0.313
 8282SOL    HW125745   3.501   3.840   0.373
 8282SOL    HW225746   3.589   3.841   0.236
 8283SOL     OW25747   1.660   4.601   4.226
 8283SOL    HW125748   1.689   4.696   4.219
 8283SOL    HW225749   1.561   4.596   4.232
 8284SOL     OW25750   1.590   4.131   2.055
 8284SOL    HW125751   1.687   4.156   2.045
 8284SOL    HW225752   1.549   4.185   2.128
 8285SOL     OW25753   4.301   3.604   5.557
 8285SOL    HW125754   4.229   3.672   5.540
 8285SOL    HW225755   4.389   3.639   5.526
 8286SOL     OW25756   5.468   1.792   5.004
 8286SOL    HW125757   5.485   1.779   4.906
 8286SOL    HW225758   5.415   1.876   5.018
 8287SOL     OW25759   0.985   5.173   4.402
 8287SOL    HW125760   1.033   5.252   4.365
 8287SOL    HW225761   0.940   5.123   4.328
 8288SOL     OW25762   2.014   2.383   2.711
 8288SOL    HW125763   1.929   2.432   2.727
 8288SOL    HW225764   2.009   2.334   2.624
 8289SOL     OW25765   6.401   0.244   6.456
 8289SOL    HW125766   6.439   0.160   6.418
 8289SOL    HW225767   6.315   0.223   6.503
 8290SOL     OW25768   4.936   1.976   1.023
 8290SOL    HW125769   4.917   2.047   0.955
 8290SOL    HW225770   5.032   1.981   1.050
 8291SOL     OW25771   5.585   5.978   6.586
 8291SOL    HW125772   5.594   5.908   6.515
 8291SOL    HW225773   5.502   5.961   6.639
 8292SOL     OW25774   2.399   5.334   6.814
 8292SOL    HW125775   2.419   5.368   6.722
 8292SOL    HW225776   2.483   5.335   6.868
 8293SOL     OW25777   1.832   4.978   1.629
 8293SOL    HW125778   1.775   4.996   1.549
 8293SOL    HW225779   1.887   5.059   1.649
 8294SOL     OW25780   6.584   3.668   4.874
 8294SOL    HW125781   6.553   3.576   4.851
 8294SOL    HW225782   6.547   3.734   4.809
 8295SOL     OW25783   4.977   3.396   3.042
 8295SOL    HW125784   4.945   3.456   2.969
 8295SOL    HW225785   4.965   3.300   3.014
 8296SOL     OW25786   3.065   5.949   0.137
 8296SOL    HW125787   3.155   5.983   0.109
 8296SOL    HW225788   3.075   5.895   0.221
 8297SOL     OW25789   6.390   3.368   2.579
 8297SOL    HW125790   6.395   3.285   2.524
 8297SOL    HW225791   6.482   3.403   2.594
 8298SOL     OW25792   0.043   0.709   0.863
 8298SOL    HW125793   0.052   0.623   0.913
 8298SOL    HW225794   0.094   0.780   0.912
 8299SOL     OW25795   0.503   3.272   2.108
 8299SOL    HW125796   0.499   3.176   2.079
 8299SOL    HW225797   0.438   3.287   2.182
 8300SOL     OW25798   0.107   0.028   4.269
 8300SOL    HW125799   0.130   0.109   4.323
 8300SOL    HW225800   0.020   0.043   4.221
 8301SOL     OW25801   4.711   0.832   6.782
 8301SOL    HW125802   4.808   0.820   6.762
 8301SOL    HW225803   4.671   0.744   6.807
 8302SOL     OW25804   5.092   6.746   5.467
 8302SOL    HW125805   4.994   6.741   5.450
 8302SOL    HW225806   5.110   6.822   5.530
 8303SOL     OW25807   6.564   0.349   3.286
 8303SOL    HW125808   6.495   0.285   3.252
 8303SOL    HW225809   6.549   0.366   3.383
 8304SOL     OW25810   5.493   4.811   1.623
 8304SOL    HW125811   5.417   4.874   1.606
 8304SOL    HW225812   5.535   4.834   1.711
 8305SOL     OW25813   4.352   4.954   4.092
 8305SOL    HW125814   4.284   5.026   4.095
 8305SOL    HW225815   4.344   4.897   4.174
 8306SOL     OW25816   6.462   1.137   3.600
 8306SOL    HW125817   6.557   1.121   3.573
 8306SOL    HW225818   6.427   1.219   3.553
 8307SOL     OW25819   3.403   5.341   1.407
 8307SOL    HW125820   3.358   5.252   1.413
 8307SOL    HW225821   3.396   5.388   1.495
 8308SOL     OW25822   2.455   5.511   0.092
 8308SOL    HW125823   2.422   5.606   0.088
 8308SOL    HW225824   2.448   5.470   0.001
 8309SOL     OW25825   6.045   5.423   3.223
 8309SOL    HW125826   6.022   5.327   3.207
 8309SOL    HW225827   6.053   5.470   3.135
 8310SOL     OW25828   1.705   5.080   1.096
 8310SOL    HW125829   1.768   5.158   1.090
 8310SOL    HW225830   1.646   5.078   1.015
 8311SOL     OW25831   5.909   0.648   4.142
 8311SOL    HW125832   5.995   0.625   4.098
 8311SOL    HW225833   5.917   0.735   4.190
 8312SOL     OW25834   5.536   1.160   6.365
 8312SOL    HW125835   5.540   1.143   6.464
 8312SOL    HW225836   5.491   1.083   6.320
 8313SOL     OW25837   5.882   0.497   6.246
 8313SOL    HW125838   5.808   0.559   6.219
 8313SOL    HW225839   5.860   0.456   6.334
 8314SOL     OW25840   6.368   6.909   6.384
 8314SOL    HW125841   6.353   6.940   6.290
 8314SOL    HW225842   6.466   6.896   6.400
 8315SOL     OW25843   3.901   2.995   2.768
 8315SOL    HW125844   3.923   3.004   2.865
 8315SOL    HW225845   3.812   2.950   2.758
 8316SOL     OW25846   1.665   3.309   1.354
 8316SOL    HW125847   1.597   3.319   1.427
 8316SOL    HW225848   1.720   3.227   1.371
 8317SOL     OW25849   1.327   2.190   2.923
 8317SOL    HW125850   1.251   2.129   2.902
 8317SOL    HW225851   1.401   2.176   2.857
 8318SOL     OW25852   4.086   1.479   6.282
 8318SOL    HW125853   4.090   1.468   6.381
 8318SOL    HW225854   4.131   1.565   6.256
 8319SOL     OW25855   1.332   0.595   0.496
 8319SOL    HW125856   1.399   0.656   0.453
 8319SOL    HW225857   1.319   0.514   0.439
 8320SOL     OW25858   3.174   4.068   3.376
 8320SOL    HW125859   3.082   4.107   3.382
 8320SOL    HW225860   3.234   4.113   3.441
 8321SOL     OW25861   0.022   6.924   0.054
 8321SOL    HW125862   6.990   6.974   7.022
 8321SOL    HW225863   7.013   6.922   0.147
 8322SOL     OW25864   6.567   1.480   1.057
 8322SOL    HW125865   6.527   1.521   1.139
 8322SOL    HW225866   6.509   1.406   1.025
 8323SOL     OW25867   3.803   4.825   1.430
 8323SOL    HW125868   3.777   4.739   1.473
 8323SOL    HW225869   3.777   4.901   1.491
 8324SOL     OW25870   5.253   0.735   0.637
 8324SOL    HW125871   5.182   0.686   0.586
 8324SOL    HW225872   5.227   0.832   0.645
 8325SOL     OW25873   0.836   3.765   5.401
 8325SOL    HW125874   0.860   3.835   5.333
 8325SOL    HW225875   0.768   3.703   5.362
 8326SOL     OW25876   4.229   3.872   6.252
 8326SOL    HW125877   4.136   3.896   6.281
 8326SOL    HW225878   4.225   3.821   6.166
 8327SOL     OW25879   0.898   0.798   5.756
 8327SOL    HW125880   0.836   0.864   5.797
 8327SOL    HW225881   0.946   0.748   5.828
 8328SOL     OW25882   2.755   6.471   6.518
 8328SOL    HW125883   2.709   6.384   6.532
 8328SOL    HW225884   2.820   6.463   6.443
 8329SOL     OW25885   0.738   1.995   4.933
 8329SOL    HW125886   0.709   1.964   4.843
 8329SOL    HW225887   0.710   2.091   4.946
 8330SOL     OW25888   3.426   1.412   6.975
 8330SOL    HW125889   3.368   1.341   7.016
 8330SOL    HW225890   3.410   1.499   7.022
 8331SOL     OW25891   3.505   0.787   0.304
 8331SOL    HW125892   3.432   0.719   0.293
 8331SOL    HW225893   3.479   0.871   0.257
 8332SOL     OW25894   5.811   5.407   2.035
 8332SOL    HW125895   5.812   5.481   1.967
 8332SOL    HW225896   5.716   5.380   2.053
 8333SOL     OW25897   1.248   4.769   6.536
 8333SOL    HW125898   1.236   4.687   6.591
 8333SOL    HW225899   1.178   4.836   6.559
 8334SOL     OW25900   3.348   1.866   5.734
 8334SOL    HW125901   3.401   1.867   5.819
 8334SOL    HW225902   3.407   1.837   5.659
 8335SOL     OW25903   4.424   1.494   0.176
 8335SOL    HW125904   4.516   1.530   0.184
 8335SOL    HW225905   4.427   1.402   0.136
 8336SOL     OW25906   0.577   3.742   3.091
 8336SOL    HW125907   0.605   3.718   2.998
 8336SOL    HW225908   0.524   3.827   3.089
 8337SOL     OW25909   0.482   6.693   4.022
 8337SOL    HW125910   0.446   6.781   3.995
 8337SOL    HW225911   0.530   6.650   3.945
 8338SOL     OW25912   3.857   5.532   1.400
 8338SOL    HW125913   3.944   5.576   1.424
 8338SOL    HW225914   3.788   5.603   1.382
 8339SOL     OW25915   0.082   1.109   2.161
 8339SOL    HW125916   0.168   1.087   2.116
 8339SOL    HW225917   0.009   1.052   2.124
 8340SOL     OW25918   4.728   3.654   1.055
 8340SOL    HW125919   4.767   3.718   1.121
 8340SOL    HW225920   4.630   3.672   1.044
 8341SOL     OW25921   3.567   0.118   6.821
 8341SOL    HW125922   3.502   0.141   6.749
 8341SOL    HW225923   3.624   0.041   6.791
 8342SOL     OW25924   4.297   6.513   0.343
 8342SOL    HW125925   4.215   6.456   0.343
 8342SOL    HW225926   4.275   6.603   0.306
 8343SOL     OW25927   6.879   5.297   3.426
 8343SOL    HW125928   6.829   5.211   3.439
 8343SOL    HW225929   6.814   5.373   3.424
 8344SOL     OW25930   6.523   5.401   4.571
 8344SOL    HW125931   6.441   5.412   4.514
 8344SOL    HW225932   6.528   5.306   4.603
 8345SOL     OW25933   3.835   2.204   3.009
 8345SOL    HW125934   3.824   2.295   2.969
 8345SOL    HW225935   3.754   2.149   2.991
 8346SOL     OW25936   4.191   4.579   0.191
 8346SOL    HW125937   4.270   4.518   0.183
 8346SOL    HW225938   4.135   4.571   0.108
 8347SOL     OW25939   3.073   6.336   5.746
 8347SOL    HW125940   3.083   6.248   5.699
 8347SOL    HW225941   3.132   6.404   5.703
 8348SOL     OW25942   2.011   1.009   1.674
 8348SOL    HW125943   2.041   1.099   1.644
 8348SOL    HW225944   2.016   1.003   1.774
 8349SOL     OW25945   0.692   6.690   2.173
 8349SOL    HW125946   0.769   6.631   2.149
 8349SOL    HW225947   0.690   6.704   2.272
 8350SOL     OW25948   3.005   6.764   6.295
 8350SOL    HW125949   2.956   6.774   6.381
 8350SOL    HW225950   3.030   6.854   6.260
 8351SOL     OW25951   5.180   5.296   4.876
 8351SOL    HW125952   5.164   5.239   4.956
 8351SOL    HW225953   5.278   5.299   4.855
 8352SOL     OW25954   1.609   0.024   3.310
 8352SOL    HW125955   1.533   0.056   3.252
 8352SOL    HW225956   1.583   6.968   3.355
 8353SOL     OW25957   0.760   3.648   0.633
 8353SOL    HW125958   0.847   3.619   0.673
 8353SOL    HW225959   0.726   3.729   0.680
 8354SOL     OW25960   3.082   6.908   4.464
 8354SOL    HW125961   3.043   6.980   4.522
 8354SOL    HW225962   3.160   6.945   4.414
 8355SOL     OW25963   1.952   1.075   4.563
 8355SOL    HW125964   1.973   1.115   4.652
 8355SOL    HW225965   2.007   1.120   4.493
 8356SOL     OW25966   1.464   6.219   1.554
 8356SOL    HW125967   1.502   6.304   1.519
 8356SOL    HW225968   1.389   6.189   1.495
 8357SOL     OW25969   3.810   6.955   5.700
 8357SOL    HW125970   3.859   6.993   5.778
 8357SOL    HW225971   3.872   6.950   5.621
 8358SOL     OW25972   1.113   3.369   4.302
 8358SOL    HW125973   1.108   3.271   4.317
 8358SOL    HW225974   1.054   3.416   4.367
 8359SOL     OW25975   3.119   1.465   4.876
 8359SOL    HW125976   3.140   1.426   4.787
 8359SOL    HW225977   3.046   1.533   4.866
 8360SOL     OW25978   4.397   0.062   0.453
 8360SOL    HW125979   4.449   0.128   0.508
 8360SOL    HW225980   4.396   0.092   0.358
 8361SOL     OW25981   3.530   0.786   0.829
 8361SOL    HW125982   3.615   0.745   0.796
 8361SOL    HW225983   3.552   0.867   0.884
 8362SOL     OW25984   5.271   2.151   0.782
 8362SOL    HW125985   5.242   2.118   0.872
 8362SOL    HW225986   5.344   2.218   0.792
 8363SOL     OW25987   5.003   2.511   0.162
 8363SOL    HW125988   4.994   2.610   0.172
 8363SOL    HW225989   5.100   2.488   0.150
 8364SOL     OW25990   6.880   2.077   4.362
 8364SOL    HW125991   6.905   2.081   4.459
 8364SOL    HW225992   6.879   1.982   4.332
 8365SOL     OW25993   1.913   2.256   2.478
 8365SOL    HW125994   1.975   2.283   2.404
 8365SOL    HW225995   1.844   2.327   2.491
 8366SOL     OW25996   2.881   5.043   0.850
 8366SOL    HW125997   2.897   5.139   0.874
 8366SOL    HW225998   2.910   5.027   0.755
 8367SOL     OW25999   3.636   5.742   4.880
 8367SOL    HW126000   3.631   5.835   4.917
 8367SOL    HW226001   3.569   5.684   4.926
 8368SOL     OW26002   1.040   6.058   7.012
 8368SOL    HW126003   1.119   6.012   0.023
 8368SOL    HW226004   0.966   6.061   0.051
 8369SOL     OW26005   0.876   0.352   6.761
 8369SOL    HW126006   0.943   0.427   6.759
 8369SOL    HW226007   0.860   0.320   6.668
 8370SOL     OW26008   2.129   1.174   6.121
 8370SOL    HW126009   2.080   1.240   6.064
 8370SOL    HW226010   2.106   1.081   6.091
 8371SOL     OW26011   2.446   4.241   0.626
 8371SOL    HW126012   2.478   4.301   0.553
 8371SOL    HW226013   2.450   4.146   0.596
 8372SOL     OW26014   1.536   6.090   2.014
 8372SOL    HW126015   1.603   6.016   2.019
 8372SOL    HW226016   1.471   6.072   1.940
 8373SOL     OW26017   1.884   6.635   4.423
 8373SOL    HW126018   1.874   6.546   4.468
 8373SOL    HW226019   1.971   6.637   4.372
 8374SOL     OW26020   0.154   6.900   4.906
 8374SOL    HW126021   0.188   6.994   4.908
 8374SOL    HW226022   0.117   6.880   4.816
 8375SOL     OW26023   3.997   6.748   5.528
 8375SOL    HW126024   4.041   6.667   5.489
 8375SOL    HW226025   3.995   6.739   5.628
 8376SOL     OW26026   1.396   0.936   4.011
 8376SOL    HW126027   1.409   0.837   4.000
 8376SOL    HW226028   1.362   0.955   4.103
 8377SOL     OW26029   5.665   6.453   0.236
 8377SOL    HW126030   5.676   6.362   0.196
 8377SOL    HW226031   5.714   6.520   0.180
 8378SOL     OW26032   3.629   4.904   3.247
 8378SOL    HW126033   3.630   4.976   3.317
 8378SOL    HW226034   3.542   4.854   3.253
 8379SOL     OW26035   4.978   2.913   1.953
 8379SOL    HW126036   5.007   2.949   1.864
 8379SOL    HW226037   4.889   2.951   1.976
 8380SOL     OW26038   0.378   0.298   0.679
 8380SOL    HW126039   0.319   0.363   0.726
 8380SOL    HW226040   0.382   0.321   0.581
 8381SOL     OW26041   0.208   1.900   3.964
 8381SOL    HW126042   0.244   1.992   3.948
 8381SOL    HW226043   0.163   1.867   3.881
 8382SOL     OW26044   2.105   6.277   1.706
 8382SOL    HW126045   2.135   6.372   1.710
 8382SOL    HW226046   2.033   6.261   1.774
 8383SOL     OW26047   3.115   6.996   5.930
 8383SOL    HW126048   3.183   6.969   5.861
 8383SOL    HW226049   3.039   6.930   5.929
 8384SOL     OW26050   5.925   1.518   1.680
 8384SOL    HW126051   5.997   1.449   1.671
 8384SOL    HW226052   5.967   1.607   1.703
 8385SOL     OW26053   4.681   2.268   6.729
 8385SOL    HW126054   4.723   2.257   6.819
 8385SOL    HW226055   4.584   2.289   6.739
 8386SOL     OW26056   1.678   6.074   1.710
 8386SOL    HW126057   1.597   6.130   1.693
 8386SOL    HW226058   1.660   6.011   1.786
 8387SOL     OW26059   1.253   1.623   1.347
 8387SOL    HW126060   1.218   1.639   1.440
 8387SOL    HW226061   1.340   1.574   1.353
 8388SOL     OW26062   2.240   6.530   0.361
 8388SOL    HW126063   2.180   6.469   0.412
 8388SOL    HW226064   2.334   6.498   0.370
 8389SOL     OW26065   0.021   2.946   4.279
 8389SOL    HW126066   6.990   3.020   4.310
 8389SOL    HW226067   0.015   2.937   4.180
 8390SOL     OW26068   3.730   6.759   0.538
 8390SOL    HW126069   3.794   6.750   0.614
 8390SOL    HW226070   3.668   6.681   0.537
 8391SOL     OW26071   4.947   5.195   1.105
 8391SOL    HW126072   4.961   5.269   1.171
 8391SOL    HW226073   4.925   5.110   1.154
 8392SOL     OW26074   6.716   5.576   5.352
 8392SOL    HW126075   6.662   5.493   5.340
 8392SOL    HW226076   6.704   5.636   5.273
 8393SOL     OW26077   0.297   6.936   3.551
 8393SOL    HW126078   0.225   6.978   3.495
 8393SOL    HW226079   0.380   6.991   3.545
 8394SOL     OW26080   0.461   3.602   1.812
 8394SOL    HW126081   0.455   3.612   1.713
 8394SOL    HW226082   0.374   3.566   1.847
 8395SOL     OW26083   1.861   6.023   4.207
 8395SOL    HW126084   1.773   5.986   4.177
 8395SOL    HW226085   1.905   5.957   4.268
 8396SOL     OW26086   4.568   4.726   2.403
 8396SOL    HW126087   4.494   4.754   2.463
 8396SOL    HW226088   4.563   4.627   2.389
 8397SOL     OW26089   2.525   1.210   3.108
 8397SOL    HW126090   2.611   1.236   3.151
 8397SOL    HW226091   2.490   1.285   3.052
 8398SOL     OW26092   4.098   2.744   6.430
 8398SOL    HW126093   4.194   2.769   6.422
 8398SOL    HW226094   4.046   2.786   6.356
 8399SOL     OW26095   6.319   0.350   0.477
 8399SOL    HW126096   6.335   0.353   0.378
 8399SOL    HW226097   6.347   0.261   0.512
 8400SOL     OW26098   1.446   0.426   4.125
 8400SOL    HW126099   1.477   0.372   4.047
 8400SOL    HW226100   1.411   0.366   4.196
 8401SOL     OW26101   2.998   1.723   6.218
 8401SOL    HW126102   2.979   1.817   6.189
 8401SOL    HW226103   2.994   1.663   6.138
 8402SOL     OW26104   3.760   2.156   5.809
 8402SOL    HW126105   3.746   2.134   5.906
 8402SOL    HW226106   3.846   2.116   5.779
 8403SOL     OW26107   0.846   1.919   3.449
 8403SOL    HW126108   0.929   1.885   3.405
 8403SOL    HW226109   0.838   1.876   3.540
 8404SOL     OW26110   4.403   6.258   6.114
 8404SOL    HW126111   4.468   6.241   6.187
 8404SOL    HW226112   4.429   6.341   6.064
 8405SOL     OW26113   2.419   0.644   5.901
 8405SOL    HW126114   2.517   0.624   5.906
 8405SOL    HW226115   2.396   0.715   5.968
 8406SOL     OW26116   5.213   6.748   0.745
 8406SOL    HW126117   5.169   6.671   0.698
 8406SOL    HW226118   5.273   6.796   0.681
 8407SOL     OW26119   4.261   6.401   4.187
 8407SOL    HW126120   4.339   6.347   4.218
 8407SOL    HW226121   4.247   6.478   4.249
 8408SOL     OW26122   5.094   3.049   2.157
 8408SOL    HW126123   5.068   3.012   2.069
 8408SOL    HW226124   5.174   3.001   2.192
 8409SOL     OW26125   6.149   3.205   3.856
 8409SOL    HW126126   6.225   3.244   3.909
 8409SOL    HW226127   6.065   3.209   3.911
 8410SOL     OW26128   5.257   0.034   1.876
 8410SOL    HW126129   5.200   7.028   1.950
 8410SOL    HW226130   5.207   0.104   1.825
 8411SOL     OW26131   0.639   5.321   6.919
 8411SOL    HW126132   0.643   5.353   6.825
 8411SOL    HW226133   0.721   5.353   6.968
 8412SOL     OW26134   3.733   2.062   1.800
 8412SOL    HW126135   3.771   1.984   1.850
 8412SOL    HW226136   3.707   2.134   1.864
 8413SOL     OW26137   4.142   5.929   0.223
 8413SOL    HW126138   4.238   5.936   0.249
 8413SOL    HW226139   4.121   5.834   0.200
 8414SOL     OW26140   4.173   5.445   3.090
 8414SOL    HW126141   4.219   5.518   3.140
 8414SOL    HW226142   4.241   5.380   3.056
 8415SOL     OW26143   6.724   5.514   3.424
 8415SOL    HW126144   6.777   5.585   3.377
 8415SOL    HW226145   6.641   5.555   3.463
 8416SOL     OW26146   5.557   3.667   2.674
 8416SOL    HW126147   5.522   3.589   2.622
 8416SOL    HW226148   5.613   3.635   2.750
 8417SOL     OW26149   1.367   5.217   5.839
 8417SOL    HW126150   1.361   5.256   5.931
 8417SOL    HW226151   1.461   5.187   5.821
 8418SOL     OW26152   5.579   5.312   1.218
 8418SOL    HW126153   5.602   5.395   1.270
 8418SOL    HW226154   5.543   5.243   1.280
 8419SOL     OW26155   5.013   1.154   2.537
 8419SOL    HW126156   5.027   1.233   2.598
 8419SOL    HW226157   4.961   1.184   2.457
 8420SOL     OW26158   4.340   6.841   0.535
 8420SOL    HW126159   4.318   6.938   0.524
 8420SOL    HW226160   4.410   6.816   0.468
 8421SOL     OW26161   3.059   5.849   0.380
 8421SOL    HW126162   3.123   5.857   0.457
 8421SOL    HW226163   3.007   5.765   0.388
 8422SOL     OW26164   4.342   0.862   0.972
 8422SOL    HW126165   4.394   0.888   1.053
 8422SOL    HW226166   4.318   0.765   0.977
 8423SOL     OW26167   4.026   4.771   5.789
 8423SOL    HW126168   3.999   4.867   5.794
 8423SOL    HW226169   4.027   4.732   5.881
 8424SOL     OW26170   2.247   2.626   2.761
 8424SOL    HW126171   2.167   2.677   2.791
 8424SOL    HW226172   2.224   2.573   2.679
 8425SOL     OW26173   5.715   5.735   0.399
 8425SOL    HW126174   5.639   5.719   0.336
 8425SOL    HW226175   5.801   5.733   0.348
 8426SOL     OW26176   3.148   3.630   3.829
 8426SOL    HW126177   3.088   3.663   3.756
 8426SOL    HW226178   3.209   3.703   3.858
 8427SOL     OW26179   2.951   3.651   5.041
 8427SOL    HW126180   2.975   3.558   5.015
 8427SOL    HW226181   3.026   3.713   5.017
 8428SOL     OW26182   0.264   4.334   1.774
 8428SOL    HW126183   0.329   4.353   1.848
 8428SOL    HW226184   0.171   4.343   1.808
 8429SOL     OW26185   2.310   4.412   3.730
 8429SOL    HW126186   2.255   4.495   3.720
 8429SOL    HW226187   2.404   4.437   3.754
 8430SOL     OW26188   3.445   5.293   4.605
 8430SOL    HW126189   3.349   5.287   4.576
 8430SOL    HW226190   3.495   5.352   4.542
 8431SOL     OW26191   2.931   5.287   0.642
 8431SOL    HW126192   2.918   5.271   0.544
 8431SOL    HW226193   2.854   5.340   0.677
 8432SOL     OW26194   5.726   6.952   5.952
 8432SOL    HW126195   5.635   6.947   5.912
 8432SOL    HW226196   5.791   6.901   5.895
 8433SOL     OW26197   5.829   1.695   0.531
 8433SOL    HW126198   5.882   1.690   0.615
 8433SOL    HW226199   5.825   1.604   0.488
 8434SOL     OW26200   3.826   7.015   5.099
 8434SOL    HW126201   3.727   7.025   5.097
 8434SOL    HW226202   3.855   6.994   5.193
 8435SOL     OW26203   5.680   0.843   1.225
 8435SOL    HW126204   5.672   0.933   1.181
 8435SOL    HW226205   5.663   0.852   1.323
 8436SOL     OW26206   3.308   0.146   4.164
 8436SOL    HW126207   3.385   0.132   4.101
 8436SOL    HW226208   3.339   0.197   4.244
 8437SOL     OW26209   2.078   0.071   3.814
 8437SOL    HW126210   2.035   0.136   3.751
 8437SOL    HW226211   2.088   0.114   3.904
 8438SOL     OW26212   2.370   4.748   2.078
 8438SOL    HW126213   2.420   4.830   2.104
 8438SOL    HW226214   2.434   4.676   2.053
 8439SOL     OW26215   6.325   5.319   2.463
 8439SOL    HW126216   6.401   5.379   2.438
 8439SOL    HW226217   6.321   5.242   2.399
 8440SOL     OW26218   1.067   1.823   3.338
 8440SOL    HW126219   1.110   1.787   3.421
 8440SOL    HW226220   1.090   1.763   3.261
 8441SOL     OW26221   6.171   0.029   0.170
 8441SOL    HW126222   6.268   0.019   0.147
 8441SOL    HW226223   6.155   0.121   0.206
 8442SOL     OW26224   3.225   2.279   5.503
 8442SOL    HW126225   3.207   2.187   5.471
 8442SOL    HW226226   3.247   2.338   5.425
 8443SOL     OW26227   1.528   5.624   3.818
 8443SOL    HW126228   1.501   5.599   3.725
 8443SOL    HW226229   1.453   5.602   3.881
 8444SOL     OW26230   3.414   5.936   3.763
 8444SOL    HW126231   3.355   5.972   3.691
 8444SOL    HW226232   3.510   5.944   3.736
 8445SOL     OW26233   3.581   5.876   0.956
 8445SOL    HW126234   3.658   5.890   0.894
 8445SOL    HW226235   3.558   5.778   0.959
 8446SOL     OW26236   4.821   5.054   6.476
 8446SOL    HW126237   4.734   5.025   6.435
 8446SOL    HW226238   4.811   5.059   6.575
 8447SOL     OW26239   5.047   2.358   2.322
 8447SOL    HW126240   5.072   2.318   2.410
 8447SOL    HW226241   5.076   2.454   2.320
 8448SOL     OW26242   4.979   5.809   3.963
 8448SOL    HW126243   4.974   5.897   4.012
 8448SOL    HW226244   5.073   5.792   3.936
 8449SOL     OW26245   6.710   2.617   4.221
 8449SOL    HW126246   6.767   2.537   4.240
 8449SOL    HW226247   6.648   2.596   4.145
 8450SOL     OW26248   1.017   5.734   1.588
 8450SOL    HW126249   0.986   5.768   1.500
 8450SOL    HW226250   0.939   5.716   1.647
 8451SOL     OW26251   4.515   2.620   0.386
 8451SOL    HW126252   4.582   2.553   0.355
 8451SOL    HW226253   4.514   2.621   0.486
 8452SOL     OW26254   6.395   0.870   3.196
 8452SOL    HW126255   6.386   0.969   3.202
 8452SOL    HW226256   6.466   0.839   3.259
 8453SOL     OW26257   0.085   4.459   6.176
 8453SOL    HW126258   0.170   4.498   6.139
 8453SOL    HW226259   0.070   4.369   6.136
 8454SOL     OW26260   6.967   6.770   0.922
 8454SOL    HW126261   6.922   6.682   0.907
 8454SOL    HW226262   0.009   6.783   0.852
 8455SOL     OW26263   5.750   2.364   1.846
 8455SOL    HW126264   5.706   2.436   1.791
 8455SOL    HW226265   5.696   2.280   1.840
 8456SOL     OW26266   5.082   6.021   3.116
 8456SOL    HW126267   5.073   6.054   3.210
 8456SOL    HW226268   5.079   6.099   3.053
 8457SOL     OW26269   6.822   6.749   4.531
 8457SOL    HW126270   6.769   6.678   4.577
 8457SOL    HW226271   6.859   6.714   4.445
 8458SOL     OW26272   2.607   1.585   6.128
 8458SOL    HW126273   2.591   1.488   6.144
 8458SOL    HW226274   2.667   1.621   6.200
 8459SOL     OW26275   3.109   6.385   2.012
 8459SOL    HW126276   3.130   6.461   1.950
 8459SOL    HW226277   3.010   6.377   2.022
 8460SOL     OW26278   4.538   3.448   5.608
 8460SOL    HW126279   4.578   3.437   5.517
 8460SOL    HW226280   4.441   3.468   5.599
 8461SOL     OW26281   0.164   4.072   3.441
 8461SOL    HW126282   0.143   4.130   3.520
 8461SOL    HW226283   0.179   4.129   3.360
 8462SOL     OW26284   3.590   2.238   7.009
 8462SOL    HW126285   3.580   2.249   0.079
 8462SOL    HW226286   3.502   2.252   6.964
 8463SOL     OW26287   6.379   6.920   0.410
 8463SOL    HW126288   6.309   6.992   0.415
 8463SOL    HW226289   6.339   6.838   0.369
 8464SOL     OW26290   5.381   3.831   5.750
 8464SOL    HW126291   5.311   3.784   5.804
 8464SOL    HW226292   5.402   3.919   5.792
 8465SOL     OW26293   1.618   2.772   1.184
 8465SOL    HW126294   1.674   2.752   1.104
 8465SOL    HW226295   1.669   2.749   1.267
 8466SOL     OW26296   0.838   6.726   5.269
 8466SOL    HW126297   0.812   6.823   5.272
 8466SOL    HW226298   0.833   6.688   5.362
 8467SOL     OW26299   4.378   0.230   1.446
 8467SOL    HW126300   4.416   0.239   1.538
 8467SOL    HW226301   4.281   0.206   1.452
 8468SOL     OW26302   4.434   2.396   7.018
 8468SOL    HW126303   4.533   2.390   7.010
 8468SOL    HW226304   4.407   2.372   0.083
 8469SOL     OW26305   3.901   1.486   5.544
 8469SOL    HW126306   3.907   1.445   5.635
 8469SOL    HW226307   3.841   1.566   5.548
 8470SOL     OW26308   1.206   4.689   0.119
 8470SOL    HW126309   1.127   4.702   0.059
 8470SOL    HW226310   1.245   4.778   0.144
 8471SOL     OW26311   3.912   0.529   4.203
 8471SOL    HW126312   3.939   0.436   4.227
 8471SOL    HW226313   3.915   0.539   4.103
 8472SOL     OW26314   6.676   0.622   5.253
 8472SOL    HW126315   6.672   0.522   5.250
 8472SOL    HW226316   6.749   0.655   5.193
 8473SOL     OW26317   6.568   6.171   0.990
 8473SOL    HW126318   6.576   6.087   0.936
 8473SOL    HW226319   6.652   6.185   1.043
 8474SOL     OW26320   3.450   3.175   2.572
 8474SOL    HW126321   3.548   3.195   2.570
 8474SOL    HW226322   3.408   3.209   2.488
 8475SOL     OW26323   0.029   2.001   3.538
 8475SOL    HW126324   0.008   1.970   3.445
 8475SOL    HW226325   0.086   2.083   3.533
 8476SOL     OW26326   6.566   1.928   1.087
 8476SOL    HW126327   6.578   1.879   1.174
 8476SOL    HW226328   6.601   2.022   1.097
 8477SOL     OW26329   4.851   0.076   2.163
 8477SOL    HW126330   4.944   0.063   2.128
 8477SOL    HW226331   4.840   0.170   2.195
 8478SOL     OW26332   1.575   0.279   6.406
 8478SOL    HW126333   1.499   0.258   6.346
 8478SOL    HW226334   1.652   0.219   6.385
 8479SOL     OW26335   0.219   2.509   1.125
 8479SOL    HW126336   0.211   2.508   1.026
 8479SOL    HW226337   0.228   2.415   1.159
 8480SOL     OW26338   4.761   2.792   6.640
 8480SOL    HW126339   4.668   2.798   6.674
 8480SOL    HW226340   4.796   2.699   6.653
 8481SOL     OW26341   4.471   2.525   4.885
 8481SOL    HW126342   4.410   2.453   4.851
 8481SOL    HW226343   4.417   2.594   4.932
 8482SOL     OW26344   4.496   5.794   2.630
 8482SOL    HW126345   4.561   5.772   2.558
 8482SOL    HW226346   4.408   5.751   2.610
 8483SOL     OW26347   4.001   6.529   1.911
 8483SOL    HW126348   4.099   6.535   1.889
 8483SOL    HW226349   3.990   6.529   2.011
 8484SOL     OW26350   7.014   6.335   3.123
 8484SOL    HW126351   0.026   6.392   3.052
 8484SOL    HW226352   6.993   6.391   3.203
 8485SOL     OW26353   3.266   2.474   0.141
 8485SOL    HW126354   3.361   2.454   0.165
 8485SOL    HW226355   3.262   2.545   0.072
 8486SOL     OW26356   2.351   1.651   2.460
 8486SOL    HW126357   2.305   1.598   2.389
 8486SOL    HW226358   2.351   1.748   2.435
 8487SOL     OW26359   5.914   1.108   5.482
 8487SOL    HW126360   6.010   1.135   5.480
 8487SOL    HW226361   5.878   1.106   5.388
 8488SOL     OW26362   4.892   5.924   0.766
 8488SOL    HW126363   4.907   5.826   0.753
 8488SOL    HW226364   4.924   5.951   0.857
 8489SOL     OW26365   6.065   2.026   1.633
 8489SOL    HW126366   6.064   2.035   1.533
 8489SOL    HW226367   6.009   2.099   1.673
 8490SOL     OW26368   4.399   6.945   4.068
 8490SOL    HW126369   4.468   6.982   4.005
 8490SOL    HW226370   4.310   6.985   4.046
 8491SOL     OW26371   2.833   5.711   1.449
 8491SOL    HW126372   2.841   5.616   1.418
 8491SOL    HW226373   2.737   5.738   1.451
 8492SOL     OW26374   5.172   3.950   5.281
 8492SOL    HW126375   5.147   3.873   5.339
 8492SOL    HW226376   5.198   3.917   5.190
 8493SOL     OW26377   2.567   2.808   6.409
 8493SOL    HW126378   2.517   2.767   6.333
 8493SOL    HW226379   2.571   2.907   6.396
 8494SOL     OW26380   4.054   5.716   1.486
 8494SOL    HW126381   3.978   5.708   1.550
 8494SOL    HW226382   4.122   5.780   1.522
 8495SOL     OW26383   6.328   5.078   2.326
 8495SOL    HW126384   6.279   5.036   2.403
 8495SOL    HW226385   6.340   5.010   2.253
 8496SOL     OW26386   1.292   2.007   2.472
 8496SOL    HW126387   1.296   2.107   2.477
 8496SOL    HW226388   1.273   1.980   2.378
 8497SOL     OW26389   6.908   0.564   3.690
 8497SOL    HW126390   6.885   0.652   3.649
 8497SOL    HW226391   7.000   0.537   3.662
 8498SOL     OW26392   6.085   6.213   3.490
 8498SOL    HW126393   6.155   6.284   3.497
 8498SOL    HW226394   6.127   6.127   3.461
 8499SOL     OW26395   2.011   4.359   6.738
 8499SOL    HW126396   1.947   4.432   6.759
 8499SOL    HW226397   2.096   4.373   6.790
 8500SOL     OW26398   1.289   6.617   5.763
 8500SOL    HW126399   1.249   6.680   5.696
 8500SOL    HW226400   1.375   6.580   5.727
 8501SOL     OW26401   0.170   2.321   6.998
 8501SOL    HW126402   0.100   2.348   0.035
 8501SOL    HW226403   0.198   2.400   6.944
 8502SOL     OW26404   0.705   3.655   1.486
 8502SOL    HW126405   0.728   3.562   1.458
 8502SOL    HW226406   0.778   3.692   1.544
 8503SOL     OW26407   0.635   6.288   4.103
 8503SOL    HW126408   0.719   6.337   4.079
 8503SOL    HW226409   0.659   6.201   4.146
 8504SOL     OW26410   2.240   4.825   2.618
 8504SOL    HW126411   2.187   4.909   2.607
 8504SOL    HW226412   2.191   4.749   2.575
 8505SOL     OW26413   5.395   3.151   3.482
 8505SOL    HW126414   5.451   3.080   3.523
 8505SOL    HW226415   5.339   3.194   3.553
 8506SOL     OW26416   0.955   0.789   6.772
 8506SOL    HW126417   1.007   0.868   6.806
 8506SOL    HW226418   0.999   0.705   6.803
 8507SOL     OW26419   3.654   0.661   4.833
 8507SOL    HW126420   3.726   0.692   4.895
 8507SOL    HW226421   3.565   0.693   4.866
 8508SOL     OW26422   5.016   1.574   4.693
 8508SOL    HW126423   5.008   1.628   4.609
 8508SOL    HW226424   5.027   1.635   4.771
 8509SOL     OW26425   4.374   1.241   4.247
 8509SOL    HW126426   4.327   1.246   4.159
 8509SOL    HW226427   4.444   1.170   4.244
 8510SOL     OW26428   5.734   4.190   2.724
 8510SOL    HW126429   5.647   4.236   2.704
 8510SOL    HW226430   5.720   4.091   2.726
 8511SOL     OW26431   5.983   4.370   2.200
 8511SOL    HW126432   6.050   4.428   2.245
 8511SOL    HW226433   5.944   4.305   2.266
 8512SOL     OW26434   2.971   1.939   1.583
 8512SOL    HW126435   2.884   1.969   1.542
 8512SOL    HW226436   3.021   1.883   1.517
 8513SOL     OW26437   6.382   5.195   0.881
 8513SOL    HW126438   6.425   5.163   0.797
 8513SOL    HW226439   6.323   5.122   0.918
 8514SOL     OW26440   2.468   2.495   4.398
 8514SOL    HW126441   2.374   2.492   4.366
 8514SOL    HW226442   2.478   2.568   4.465
 8515SOL     OW26443   4.615   2.214   0.981
 8515SOL    HW126444   4.534   2.213   0.922
 8515SOL    HW226445   4.617   2.132   1.038
 8516SOL     OW26446   5.979   2.207   2.059
 8516SOL    HW126447   6.013   2.114   2.071
 8516SOL    HW226448   5.879   2.206   2.057
 8517SOL     OW26449   0.813   2.711   6.592
 8517SOL    HW126450   0.737   2.668   6.642
 8517SOL    HW226451   0.846   2.648   6.522
 8518SOL     OW26452   4.376   4.670   6.891
 8518SOL    HW126453   4.313   4.720   6.950
 8518SOL    HW226454   4.359   4.693   6.795
 8519SOL     OW26455   1.742   5.028   1.940
 8519SOL    HW126456   1.674   4.984   1.882
 8519SOL    HW226457   1.723   5.126   1.944
 8520SOL     OW26458   3.114   2.219   0.339
 8520SOL    HW126459   3.171   2.257   0.266
 8520SOL    HW226460   3.048   2.288   0.368
 8521SOL     OW26461   1.678   4.743   5.983
 8521SOL    HW126462   1.708   4.795   5.904
 8521SOL    HW226463   1.751   4.738   6.050
 8522SOL     OW26464   1.242   5.780   1.760
 8522SOL    HW126465   1.305   5.702   1.763
 8522SOL    HW226466   1.165   5.758   1.701
 8523SOL     OW26467   3.384   6.731   6.691
 8523SOL    HW126468   3.306   6.789   6.670
 8523SOL    HW226469   3.409   6.742   6.787
 8524SOL     OW26470   0.784   2.201   4.644
 8524SOL    HW126471   0.708   2.230   4.587
 8524SOL    HW226472   0.752   2.190   4.739
 8525SOL     OW26473   6.244   4.182   3.265
 8525SOL    HW126474   6.302   4.159   3.186
 8525SOL    HW226475   6.254   4.112   3.335
 8526SOL     OW26476   3.841   5.084   6.827
 8526SOL    HW126477   3.913   5.144   6.863
 8526SOL    HW226478   3.775   5.063   6.900
 8527SOL     OW26479   3.004   0.675   5.666
 8527SOL    HW126480   3.037   0.642   5.577
 8527SOL    HW226481   2.904   0.679   5.665
 8528SOL     OW26482   4.803   2.835   6.038
 8528SOL    HW126483   4.769   2.828   5.945
 8528SOL    HW226484   4.778   2.753   6.090
 8529SOL     OW26485   0.401   7.014   0.989
 8529SOL    HW126486   0.429   0.069   1.037
 8529SOL    HW226487   0.315   6.982   1.029
 8530SOL     OW26488   2.520   3.652   5.359
 8530SOL    HW126489   2.619   3.660   5.343
 8530SOL    HW226490   2.479   3.743   5.356
 8531SOL     OW26491   6.894   4.611   1.909
 8531SOL    HW126492   6.882   4.657   1.997
 8531SOL    HW226493   6.989   4.622   1.879
 8532SOL     OW26494   4.138   4.800   4.686
 8532SOL    HW126495   4.047   4.820   4.722
 8532SOL    HW226496   4.138   4.807   4.586
 8533SOL     OW26497   2.084   0.206   5.946
 8533SOL    HW126498   2.141   0.287   5.960
 8533SOL    HW226499   2.138   0.132   5.906
 8534SOL     OW26500   6.472   3.286   4.609
 8534SOL    HW126501   6.467   3.314   4.705
 8534SOL    HW226502   6.405   3.337   4.556
 8535SOL     OW26503   0.294   2.042   4.888
 8535SOL    HW126504   0.323   2.026   4.793
 8535SOL    HW226505   0.291   1.955   4.937
 8536SOL     OW26506   5.683   2.494   4.847
 8536SOL    HW126507   5.586   2.471   4.841
 8536SOL    HW226508   5.734   2.436   4.783
 8537SOL     OW26509   5.475   1.473   2.699
 8537SOL    HW126510   5.491   1.518   2.611
 8537SOL    HW226511   5.496   1.376   2.691
 8538SOL     OW26512   0.936   1.149   5.968
 8538SOL    HW126513   1.010   1.117   6.027
 8538SOL    HW226514   0.971   1.220   5.907
 8539SOL     OW26515   6.152   1.226   2.041
 8539SOL    HW126516   6.206   1.279   1.975
 8539SOL    HW226517   6.058   1.220   2.008
 8540SOL     OW26518   4.701   1.483   0.130
 8540SOL    HW126519   4.738   1.394   0.105
 8540SOL    HW226520   4.769   1.533   0.184
 8541SOL     OW26521   2.925   2.260   4.281
 8541SOL    HW126522   2.945   2.295   4.372
 8541SOL    HW226523   2.840   2.303   4.247
 8542SOL     OW26524   2.431   4.303   6.329
 8542SOL    HW126525   2.388   4.367   6.394
 8542SOL    HW226526   2.522   4.279   6.361
 8543SOL     OW26527   3.076   1.339   0.209
 8543SOL    HW126528   3.065   1.369   0.303
 8543SOL    HW226529   3.009   1.385   0.151
 8544SOL     OW26530   5.490   3.009   4.562
 8544SOL    HW126531   5.545   3.013   4.478
 8544SOL    HW226532   5.466   3.102   4.590
 8545SOL     OW26533   4.894   6.908   4.075
 8545SOL    HW126534   4.827   6.892   4.148
 8545SOL    HW226535   4.913   7.006   4.069
 8546SOL     OW26536   0.676   0.287   2.723
 8546SOL    HW126537   0.591   0.260   2.678
 8546SOL    HW226538   0.747   0.301   2.654
 8547SOL     OW26539   0.937   6.933   6.554
 8547SOL    HW126540   0.953   7.022   6.511
 8547SOL    HW226541   0.914   6.945   6.650
 8548SOL     OW26542   6.897   2.775   6.018
 8548SOL    HW126543   6.938   2.822   5.940
 8548SOL    HW226544   6.965   2.715   6.060
 8549SOL     OW26545   0.901   2.732   4.644
 8549SOL    HW126546   0.912   2.829   4.623
 8549SOL    HW226547   0.806   2.704   4.628
 8550SOL     OW26548   1.172   5.243   0.339
 8550SOL    HW126549   1.263   5.211   0.364
 8550SOL    HW226550   1.158   5.232   0.241
 8551SOL     OW26551   2.626   2.702   6.921
 8551SOL    HW126552   2.657   2.674   7.012
 8551SOL    HW226553   2.570   2.629   6.881
 8552SOL     OW26554   2.054   0.327   3.052
 8552SOL    HW126555   2.113   0.400   3.085
 8552SOL    HW226556   2.016   0.277   3.129
 8553SOL     OW26557   4.299   4.667   6.594
 8553SOL    HW126558   4.227   4.609   6.556
 8553SOL    HW226559   4.282   4.762   6.569
 8554SOL     OW26560   0.298   4.894   0.696
 8554SOL    HW126561   0.360   4.953   0.645
 8554SOL    HW226562   0.287   4.929   0.789
 8555SOL     OW26563   3.116   0.926   3.367
 8555SOL    HW126564   3.119   0.908   3.268
 8555SOL    HW226565   3.170   0.857   3.415
 8556SOL     OW26566   2.237   6.594   5.301
 8556SOL    HW126567   2.141   6.567   5.307
 8556SOL    HW226568   2.273   6.568   5.211
 8557SOL     OW26569   6.610   6.526   2.811
 8557SOL    HW126570   6.670   6.462   2.858
 8557SOL    HW226571   6.665   6.594   2.763
 8558SOL     OW26572   2.391   5.351   2.599
 8558SOL    HW126573   2.309   5.306   2.635
 8558SOL    HW226574   2.468   5.332   2.660
 8559SOL     OW26575   1.778   6.954   2.667
 8559SOL    HW126576   1.810   6.861   2.651
 8559SOL    HW226577   1.836   6.998   2.735
 8560SOL     OW26578   0.948   6.167   1.772
 8560SOL    HW126579   1.016   6.143   1.702
 8560SOL    HW226580   0.897   6.086   1.799
 8561SOL     OW26581   3.543   0.359   2.984
 8561SOL    HW126582   3.584   0.269   2.996
 8561SOL    HW226583   3.507   0.367   2.891
 8562SOL     OW26584   4.390   6.451   6.396
 8562SOL    HW126585   4.395   6.521   6.467
 8562SOL    HW226586   4.309   6.394   6.412
 8563SOL     OW26587   0.664   5.049   1.294
 8563SOL    HW126588   0.761   5.070   1.296
 8563SOL    HW226589   0.614   5.124   1.248
 8564SOL     OW26590   3.169   0.460   5.103
 8564SOL    HW126591   3.112   0.418   5.033
 8564SOL    HW226592   3.263   0.425   5.096
 8565SOL     OW26593   3.608   5.108   0.916
 8565SOL    HW126594   3.518   5.072   0.890
 8565SOL    HW226595   3.652   5.046   0.981
 8566SOL     OW26596   0.517   6.441   1.653
 8566SOL    HW126597   0.462   6.402   1.579
 8566SOL    HW226598   0.513   6.541   1.649
 8567SOL     OW26599   6.798   1.576   2.626
 8567SOL    HW126600   6.883   1.617   2.595
 8567SOL    HW226601   6.815   1.482   2.657
 8568SOL     OW26602   5.470   1.363   6.889
 8568SOL    HW126603   5.465   1.292   6.958
 8568SOL    HW226604   5.564   1.368   6.853
 8569SOL     OW26605   4.744   1.556   5.650
 8569SOL    HW126606   4.736   1.552   5.550
 8569SOL    HW226607   4.743   1.464   5.688
 8570SOL     OW26608   1.724   1.230   4.653
 8570SOL    HW126609   1.822   1.217   4.664
 8570SOL    HW226610   1.706   1.324   4.622
 8571SOL     OW26611   0.150   6.109   5.793
 8571SOL    HW126612   0.173   6.030   5.737
 8571SOL    HW226613   0.233   6.146   5.835
 8572SOL     OW26614   2.641   4.304   6.004
 8572SOL    HW126615   2.569   4.355   6.051
 8572SOL    HW226616   2.600   4.248   5.932
 8573SOL     OW26617   3.219   6.198   6.251
 8573SOL    HW126618   3.255   6.259   6.181
 8573SOL    HW226619   3.284   6.124   6.268
 8574SOL     OW26620   6.851   0.046   6.488
 8574SOL    HW126621   6.794   0.064   6.567
 8574SOL    HW226622   6.941   0.015   6.518
 8575SOL     OW26623   2.240   2.071   3.218
 8575SOL    HW126624   2.243   1.980   3.177
 8575SOL    HW226625   2.167   2.075   3.286
 8576SOL     OW26626   1.329   4.300   5.006
 8576SOL    HW126627   1.346   4.391   5.043
 8576SOL    HW226628   1.369   4.231   5.067
 8577SOL     OW26629   1.907   6.657   5.321
 8577SOL    HW126630   1.818   6.639   5.362
 8577SOL    HW226631   1.904   6.632   5.224
 8578SOL     OW26632   6.314   6.149   4.795
 8578SOL    HW126633   6.338   6.065   4.747
 8578SOL    HW226634   6.218   6.146   4.822
 8579SOL     OW26635   1.739   0.077   1.967
 8579SOL    HW126636   1.704   7.013   1.949
 8579SOL    HW226637   1.797   0.075   2.048
 8580SOL     OW26638   1.908   6.244   1.147
 8580SOL    HW126639   1.969   6.266   1.072
 8580SOL    HW226640   1.860   6.159   1.128
 8581SOL     OW26641   3.184   3.733   1.621
 8581SOL    HW126642   3.184   3.640   1.657
 8581SOL    HW226643   3.198   3.731   1.522
 8582SOL     OW26644   4.700   4.287   4.815
 8582SOL    HW126645   4.615   4.339   4.807
 8582SOL    HW226646   4.764   4.337   4.873
 8583SOL     OW26647   4.804   0.418   4.303
 8583SOL    HW126648   4.845   0.451   4.218
 8583SOL    HW226649   4.760   0.330   4.287
 8584SOL     OW26650   0.600   5.894   6.469
 8584SOL    HW126651   0.506   5.928   6.471
 8584SOL    HW226652   0.660   5.958   6.519
 8585SOL     OW26653   6.503   1.019   6.932
 8585SOL    HW126654   6.431   1.023   7.000
 8585SOL    HW226655   6.581   1.075   6.962
 8586SOL     OW26656   3.222   6.733   2.088
 8586SOL    HW126657   3.151   6.788   2.132
 8586SOL    HW226658   3.293   6.711   2.154
 8587SOL     OW26659   0.837   0.407   4.569
 8587SOL    HW126660   0.803   0.314   4.577
 8587SOL    HW226661   0.792   0.453   4.492
 8588SOL     OW26662   4.117   0.924   0.444
 8588SOL    HW126663   4.123   1.024   0.447
 8588SOL    HW226664   4.029   0.895   0.483
 8589SOL     OW26665   5.484   2.906   5.733
 8589SOL    HW126666   5.391   2.938   5.746
 8589SOL    HW226667   5.492   2.812   5.768
 8590SOL     OW26668   0.162   0.195   2.769
 8590SOL    HW126669   0.228   0.121   2.770
 8590SOL    HW226670   0.193   0.269   2.829
 8591SOL     OW26671   0.269   4.295   0.569
 8591SOL    HW126672   0.185   4.243   0.556
 8591SOL    HW226673   0.345   4.233   0.587
 8592SOL     OW26674   5.759   2.230   6.568
 8592SOL    HW126675   5.678   2.203   6.620
 8592SOL    HW226676   5.767   2.330   6.569
 8593SOL     OW26677   2.674   1.085   0.364
 8593SOL    HW126678   2.636   1.081   0.272
 8593SOL    HW226679   2.667   0.995   0.407
 8594SOL     OW26680   4.693   2.774   5.014
 8594SOL    HW126681   4.725   2.680   5.030
 8594SOL    HW226682   4.615   2.793   5.074
 8595SOL     OW26683   0.675   0.591   3.698
 8595SOL    HW126684   0.663   0.614   3.602
 8595SOL    HW226685   0.641   0.666   3.755
 8596SOL     OW26686   1.195   4.344   2.857
 8596SOL    HW126687   1.289   4.337   2.823
 8596SOL    HW226688   1.186   4.424   2.915
 8597SOL     OW26689   4.604   2.096   1.312
 8597SOL    HW126690   4.607   2.055   1.404
 8597SOL    HW226691   4.550   2.037   1.252
 8598SOL     OW26692   6.152   0.322   0.215
 8598SOL    HW126693   6.110   0.406   0.252
 8598SOL    HW226694   6.181   0.339   0.121
 8599SOL     OW26695   1.525   2.613   4.771
 8599SOL    HW126696   1.521   2.569   4.681
 8599SOL    HW226697   1.584   2.561   4.831
 8600SOL     OW26698   5.537   4.487   6.654
 8600SOL    HW126699   5.486   4.423   6.597
 8600SOL    HW226700   5.474   4.540   6.710
 8601SOL     OW26701   1.184   1.317   4.381
 8601SOL    HW126702   1.163   1.412   4.360
 8601SOL    HW226703   1.105   1.260   4.360
 8602SOL     OW26704   3.030   6.051   2.314
 8602SOL    HW126705   2.986   5.973   2.359
 8602SOL    HW226706   3.064   6.115   2.384
 8603SOL     OW26707   5.235   6.054   1.107
 8603SOL    HW126708   5.295   6.086   1.180
 8603SOL    HW226709   5.142   6.089   1.122
 8604SOL     OW26710   0.689   2.503   4.915
 8604SOL    HW126711   0.605   2.533   4.868
 8604SOL    HW226712   0.725   2.579   4.969
 8605SOL     OW26713   2.748   5.347   4.020
 8605SOL    HW126714   2.737   5.256   4.059
 8605SOL    HW226715   2.845   5.363   4.001
 8606SOL     OW26716   1.752   3.494   6.398
 8606SOL    HW126717   1.839   3.489   6.446
 8606SOL    HW226718   1.689   3.425   6.435
 8607SOL     OW26719   3.305   5.031   6.390
 8607SOL    HW126720   3.351   5.022   6.302
 8607SOL    HW226721   3.370   5.064   6.458
 8608SOL     OW26722   2.733   4.854   2.493
 8608SOL    HW126723   2.748   4.791   2.416
 8608SOL    HW226724   2.636   4.878   2.497
 8609SOL     OW26725   4.955   0.738   2.658
 8609SOL    HW126726   5.046   0.777   2.672
 8609SOL    HW226727   4.915   0.777   2.575
 8610SOL     OW26728   0.806   2.222   2.905
 8610SOL    HW126729   0.865   2.186   2.833
 8610SOL    HW226730   0.862   2.266   2.975
 8611SOL     OW26731   3.259   2.104   4.907
 8611SOL    HW126732   3.233   2.127   4.813
 8611SOL    HW226733   3.210   2.164   4.971
 8612SOL     OW26734   2.642   3.227   0.457
 8612SOL    HW126735   2.615   3.297   0.523
 8612SOL    HW226736   2.562   3.173   0.430
 8613SOL     OW26737   2.763   1.565   1.582
 8613SOL    HW126738   2.745   1.660   1.606
 8613SOL    HW226739   2.860   1.553   1.561
 8614SOL     OW26740   1.053   3.004   3.809
 8614SOL    HW126741   0.964   2.974   3.776
 8614SOL    HW226742   1.125   2.948   3.767
 8615SOL     OW26743   4.653   1.997   5.053
 8615SOL    HW126744   4.698   2.059   5.118
 8615SOL    HW226745   4.718   1.973   4.981
 8616SOL     OW26746   3.096   4.553   1.693
 8616SOL    HW126747   3.002   4.576   1.720
 8616SOL    HW226748   3.159   4.618   1.735
 8617SOL     OW26749   6.283   1.138   5.640
 8617SOL    HW126750   6.268   1.196   5.560
 8617SOL    HW226751   6.367   1.167   5.686
 8618SOL     OW26752   6.242   5.009   0.983
 8618SOL    HW126753   6.172   4.962   0.930
 8618SOL    HW226754   6.304   4.941   1.024
 8619SOL     OW26755   4.116   4.989   1.997
 8619SOL    HW126756   4.033   4.962   2.046
 8619SOL    HW226757   4.195   4.975   2.056
 8620SOL     OW26758   1.700   6.833   3.507
 8620SOL    HW126759   1.780   6.893   3.507
 8620SOL    HW226760   1.654   6.838   3.596
 8621SOL     OW26761   5.803   1.661   2.635
 8621SOL    HW126762   5.744   1.734   2.669
 8621SOL    HW226763   5.757   1.614   2.560
 8622SOL     OW26764   5.232   3.293   1.145
 8622SOL    HW126765   5.257   3.285   1.242
 8622SOL    HW226766   5.162   3.226   1.123
 8623SOL     OW26767   1.071   3.887   4.833
 8623SOL    HW126768   1.123   3.837   4.764
 8623SOL    HW226769   1.119   3.972   4.856
 8624SOL     OW26770   1.883   3.696   4.543
 8624SOL    HW126771   1.966   3.708   4.598
 8624SOL    HW226772   1.857   3.599   4.543
 8625SOL     OW26773   4.361   0.946   6.107
 8625SOL    HW126774   4.408   1.035   6.110
 8625SOL    HW226775   4.308   0.940   6.022
 8626SOL     OW26776   3.345   2.778   6.637
 8626SOL    HW126777   3.293   2.692   6.643
 8626SOL    HW226778   3.370   2.808   6.729
 8627SOL     OW26779   0.827   1.424   2.864
 8627SOL    HW126780   0.755   1.451   2.929
 8627SOL    HW226781   0.916   1.428   2.910
 8628SOL     OW26782   6.583   6.576   0.529
 8628SOL    HW126783   6.484   6.569   0.543
 8628SOL    HW226784   6.601   6.627   0.444
 8629SOL     OW26785   2.222   5.917   4.957
 8629SOL    HW126786   2.207   5.833   5.008
 8629SOL    HW226787   2.290   5.902   4.886
 8630SOL     OW26788   5.596   4.299   4.254
 8630SOL    HW126789   5.658   4.224   4.276
 8630SOL    HW226790   5.610   4.374   4.319
 8631SOL     OW26791   0.307   5.529   6.776
 8631SOL    HW126792   0.212   5.501   6.763
 8631SOL    HW226793   0.340   5.575   6.693
 8632SOL     OW26794   4.080   5.161   4.946
 8632SOL    HW126795   4.013   5.178   5.018
 8632SOL    HW226796   4.165   5.127   4.986
 8633SOL     OW26797   5.385   2.116   5.842
 8633SOL    HW126798   5.306   2.155   5.794
 8633SOL    HW226799   5.368   2.020   5.863
 8634SOL     OW26800   4.920   3.912   0.073
 8634SOL    HW126801   4.993   3.878   0.133
 8634SOL    HW226802   4.936   3.879   7.008
 8635SOL     OW26803   5.035   3.310   6.420
 8635SOL    HW126804   4.990   3.240   6.475
 8635SOL    HW226805   5.058   3.272   6.330
 8636SOL     OW26806   5.963   6.012   0.705
 8636SOL    HW126807   5.967   6.062   0.791
 8636SOL    HW226808   6.021   6.057   0.637
 8637SOL     OW26809   2.938   0.835   0.002
 8637SOL    HW126810   2.893   0.911   0.048
 8637SOL    HW226811   2.869   0.773   6.994
 8638SOL     OW26812   3.601   2.045   5.051
 8638SOL    HW126813   3.543   1.991   4.989
 8638SOL    HW226814   3.552   2.127   5.080
 8639SOL     OW26815   5.267   2.651   0.273
 8639SOL    HW126816   5.280   2.572   0.214
 8639SOL    HW226817   5.313   2.636   0.361
 8640SOL     OW26818   4.225   3.915   7.021
 8640SOL    HW126819   4.134   3.950   0.012
 8640SOL    HW226820   4.288   3.944   0.064
 8641SOL     OW26821   4.380   4.600   3.899
 8641SOL    HW126822   4.469   4.565   3.927
 8641SOL    HW226823   4.388   4.643   3.809
 8642SOL     OW26824   0.941   6.097   4.031
 8642SOL    HW126825   0.990   6.184   4.025
 8642SOL    HW226826   1.003   6.021   4.012
 8643SOL     OW26827   2.722   0.700   6.173
 8643SOL    HW126828   2.640   0.645   6.158
 8643SOL    HW226829   2.780   0.655   6.241
 8644SOL     OW26830   5.306   2.288   5.198
 8644SOL    HW126831   5.234   2.308   5.264
 8644SOL    HW226832   5.390   2.261   5.246
 8645SOL     OW26833   4.271   4.543   1.058
 8645SOL    HW126834   4.185   4.526   1.106
 8645SOL    HW226835   4.279   4.478   0.982
 8646SOL     OW26836   0.452   2.034   0.303
 8646SOL    HW126837   0.458   1.966   0.376
 8646SOL    HW226838   0.367   2.020   0.252
 8647SOL     OW26839   2.475   4.913   6.662
 8647SOL    HW126840   2.469   4.829   6.715
 8647SOL    HW226841   2.570   4.930   6.637
 8648SOL     OW26842   6.630   0.185   2.765
 8648SOL    HW126843   6.674   0.170   2.853
 8648SOL    HW226844   6.531   0.173   2.774
 8649SOL     OW26845   5.258   5.658   6.571
 8649SOL    HW126846   5.192   5.733   6.576
 8649SOL    HW226847   5.216   5.580   6.524
 8650SOL     OW26848   2.298   5.174   4.154
 8650SOL    HW126849   2.316   5.077   4.171
 8650SOL    HW226850   2.298   5.191   4.056
 8651SOL     OW26851   4.715   1.224   0.563
 8651SOL    HW126852   4.708   1.127   0.586
 8651SOL    HW226853   4.629   1.254   0.520
 8652SOL     OW26854   1.761   5.011   3.472
 8652SOL    HW126855   1.856   5.031   3.495
 8652SOL    HW226856   1.752   5.005   3.372
 8653SOL     OW26857   6.591   0.919   6.096
 8653SOL    HW126858   6.497   0.912   6.063
 8653SOL    HW226859   6.594   0.969   6.182
 8654SOL     OW26860   0.450   4.844   2.413
 8654SOL    HW126861   0.419   4.802   2.498
 8654SOL    HW226862   0.547   4.867   2.421
 8655SOL     OW26863   5.994   0.415   3.642
 8655SOL    HW126864   5.946   0.337   3.602
 8655SOL    HW226865   6.058   0.382   3.712
 8656SOL     OW26866   6.549   0.079   1.764
 8656SOL    HW126867   6.459   0.105   1.729
 8656SOL    HW226868   6.538   0.010   1.836
 8657SOL     OW26869   4.678   5.442   6.986
 8657SOL    HW126870   4.628   5.466   0.040
 8657SOL    HW226871   4.672   5.344   6.970
 8658SOL     OW26872   6.288   6.705   0.274
 8658SOL    HW126873   6.212   6.660   0.321
 8658SOL    HW226874   6.267   6.713   0.177
 8659SOL     OW26875   4.550   2.119   2.287
 8659SOL    HW126876   4.471   2.162   2.331
 8659SOL    HW226877   4.632   2.172   2.307
 8660SOL     OW26878   6.885   3.287   1.664
 8660SOL    HW126879   6.846   3.370   1.625
 8660SOL    HW226880   6.985   3.292   1.661
 8661SOL     OW26881   6.975   3.821   1.123
 8661SOL    HW126882   7.011   3.777   1.041
 8661SOL    HW226883   6.879   3.797   1.135
 8662SOL     OW26884   4.203   5.711   1.256
 8662SOL    HW126885   4.131   5.719   1.325
 8662SOL    HW226886   4.197   5.788   1.193
 8663SOL     OW26887   2.851   5.435   2.237
 8663SOL    HW126888   2.893   5.516   2.195
 8663SOL    HW226889   2.786   5.464   2.307
 8664SOL     OW26890   1.487   6.342   1.047
 8664SOL    HW126891   1.516   6.250   1.076
 8664SOL    HW226892   1.438   6.335   0.960
 8665SOL     OW26893   5.761   5.784   5.428
 8665SOL    HW126894   5.765   5.876   5.468
 8665SOL    HW226895   5.739   5.791   5.331
 8666SOL     OW26896   5.470   0.997   3.700
 8666SOL    HW126897   5.486   0.961   3.608
 8666SOL    HW226898   5.493   0.927   3.768
 8667SOL     OW26899   3.592   1.923   3.672
 8667SOL    HW126900   3.634   1.854   3.732
 8667SOL    HW226901   3.492   1.913   3.676
 8668SOL     OW26902   5.290   3.341   3.694
 8668SOL    HW126903   5.370   3.377   3.648
 8668SOL    HW226904   5.215   3.406   3.687
 8669SOL     OW26905   1.104   6.374   6.593
 8669SOL    HW126906   1.186   6.342   6.546
 8669SOL    HW226907   1.048   6.428   6.530
 8670SOL     OW26908   4.392   5.088   6.014
 8670SOL    HW126909   4.362   5.061   6.106
 8670SOL    HW226910   4.315   5.079   5.951
 8671SOL     OW26911   5.072   1.601   3.319
 8671SOL    HW126912   5.150   1.542   3.298
 8671SOL    HW226913   5.030   1.632   3.234
 8672SOL     OW26914   1.181   4.825   3.945
 8672SOL    HW126915   1.271   4.783   3.938
 8672SOL    HW226916   1.147   4.816   4.039
 8673SOL     OW26917   5.263   2.402   6.623
 8673SOL    HW126918   5.314   2.368   6.544
 8673SOL    HW226919   5.327   2.447   6.686
 8674SOL     OW26920   4.888   6.067   2.766
 8674SOL    HW126921   4.887   6.135   2.840
 8674SOL    HW226922   4.821   5.996   2.786
 8675SOL     OW26923   4.270   1.955   4.952
 8675SOL    HW126924   4.170   1.955   4.943
 8675SOL    HW226925   4.297   1.886   5.020
 8676SOL     OW26926   5.441   6.750   3.384
 8676SOL    HW126927   5.423   6.652   3.375
 8676SOL    HW226928   5.359   6.801   3.357
 8677SOL     OW26929   2.145   5.294   6.472
 8677SOL    HW126930   2.216   5.357   6.439
 8677SOL    HW226931   2.187   5.210   6.504
 8678SOL     OW26932   0.149   0.314   1.380
 8678SOL    HW126933   0.216   0.316   1.306
 8678SOL    HW226934   0.060   0.344   1.345
 8679SOL     OW26935   0.863   1.410   3.477
 8679SOL    HW126936   0.925   1.332   3.485
 8679SOL    HW226937   0.908   1.492   3.513
 8680SOL     OW26938   6.581   3.188   6.933
 8680SOL    HW126939   6.594   3.231   7.022
 8680SOL    HW226940   6.662   3.133   6.910
 8681SOL     OW26941   4.848   5.671   1.441
 8681SOL    HW126942   4.864   5.759   1.396
 8681SOL    HW226943   4.932   5.618   1.440
 8682SOL     OW26944   5.567   6.996   2.662
 8682SOL    HW126945   5.506   0.040   2.632
 8682SOL    HW226946   5.661   0.003   2.668
 8683SOL     OW26947   1.860   2.284   4.949
 8683SOL    HW126948   1.823   2.363   4.900
 8683SOL    HW226949   1.934   2.314   5.010
 8684SOL     OW26950   6.264   2.742   5.084
 8684SOL    HW126951   6.209   2.673   5.038
 8684SOL    HW226952   6.316   2.699   5.158
 8685SOL     OW26953   6.710   2.176   6.368
 8685SOL    HW126954   6.785   2.169   6.434
 8685SOL    HW226955   6.625   2.147   6.411
 8686SOL     OW26956   0.167   0.906   3.050
 8686SOL    HW126957   0.159   0.935   2.955
 8686SOL    HW226958   0.085   0.935   3.101
 8687SOL     OW26959   4.702   5.371   2.179
 8687SOL    HW126960   4.644   5.392   2.258
 8687SOL    HW226961   4.789   5.421   2.188
 8688SOL     OW26962   0.651   5.234   6.152
 8688SOL    HW126963   0.706   5.281   6.083
 8688SOL    HW226964   0.673   5.270   6.243
 8689SOL     OW26965   3.643   3.166   1.126
 8689SOL    HW126966   3.565   3.150   1.064
 8689SOL    HW226967   3.682   3.256   1.107
 8690SOL     OW26968   1.508   4.018   3.854
 8690SOL    HW126969   1.585   4.077   3.879
 8690SOL    HW226970   1.468   4.051   3.768
 8691SOL     OW26971   3.798   2.322   6.373
 8691SOL    HW126972   3.734   2.385   6.417
 8691SOL    HW226973   3.888   2.365   6.365
 8692SOL     OW26974   2.895   1.420   4.437
 8692SOL    HW126975   2.871   1.508   4.480
 8692SOL    HW226976   2.822   1.392   4.375
 8693SOL     OW26977   5.518   0.056   0.292
 8693SOL    HW126978   5.589   7.014   0.297
 8693SOL    HW226979   5.505   0.083   0.197
 8694SOL     OW26980   5.231   1.118   4.584
 8694SOL    HW126981   5.187   1.029   4.596
 8694SOL    HW226982   5.259   1.153   4.674
 8695SOL     OW26983   4.839   3.115   5.694
 8695SOL    HW126984   4.743   3.117   5.668
 8695SOL    HW226985   4.863   3.024   5.728
 8696SOL     OW26986   2.301   5.143   5.199
 8696SOL    HW126987   2.204   5.127   5.216
 8696SOL    HW226988   2.354   5.067   5.236
 8697SOL     OW26989   0.634   3.812   6.262
 8697SOL    HW126990   0.548   3.778   6.300
 8697SOL    HW226991   0.696   3.735   6.247
 8698SOL     OW26992   5.093   6.030   5.012
 8698SOL    HW126993   5.107   6.107   4.950
 8698SOL    HW226994   5.180   6.001   5.051
 8699SOL     OW26995   1.296   3.464   4.823
 8699SOL    HW126996   1.266   3.454   4.918
 8699SOL    HW226997   1.352   3.385   4.798
 8700SOL     OW26998   1.097   0.170   4.964
 8700SOL    HW126999   1.062   0.261   4.988
 8700SOL    HW227000   1.186   0.180   4.920
 8701SOL     OW27001   1.301   1.356   6.740
 8701SOL    HW127002   1.247   1.331   6.820
 8701SOL    HW227003   1.363   1.431   6.764
 8702SOL     OW27004   5.550   4.922   1.883
 8702SOL    HW127005   5.465   4.967   1.911
 8702SOL    HW227006   5.566   4.842   1.941
 8703SOL     OW27007   3.136   5.139   6.959
 8703SOL    HW127008   3.067   5.197   6.916
 8703SOL    HW227009   3.097   5.048   6.976
 8704SOL     OW27010   0.782   3.990   3.504
 8704SOL    HW127011   0.849   4.062   3.487
 8704SOL    HW227012   0.690   4.025   3.486
 8705SOL     OW27013   4.953   1.337   6.390
 8705SOL    HW127014   4.987   1.244   6.385
 8705SOL    HW227015   4.960   1.380   6.300
 8706SOL     OW27016   4.884   2.070   6.583
 8706SOL    HW127017   4.868   1.979   6.622
 8706SOL    HW227018   4.800   2.124   6.589
 8707SOL     OW27019   0.515   1.700   5.562
 8707SOL    HW127020   0.425   1.657   5.564
 8707SOL    HW227021   0.582   1.637   5.523
 8708SOL     OW27022   3.905   1.302   3.277
 8708SOL    HW127023   3.944   1.212   3.258
 8708SOL    HW227024   3.809   1.304   3.247
 8709SOL     OW27025   6.596   6.785   0.316
 8709SOL    HW127026   6.532   6.854   0.350
 8709SOL    HW227027   6.558   6.740   0.235
 8710SOL     OW27028   1.669   2.996   3.407
 8710SOL    HW127029   1.708   3.045   3.329
 8710SOL    HW227030   1.682   3.050   3.490
 8711SOL     OW27031   1.705   6.505   2.485
 8711SOL    HW127032   1.616   6.544   2.507
 8711SOL    HW227033   1.704   6.471   2.390
 8712SOL     OW27034   3.768   1.662   4.438
 8712SOL    HW127035   3.831   1.663   4.360
 8712SOL    HW227036   3.770   1.572   4.481
 8713SOL     OW27037   6.597   3.121   2.809
 8713SOL    HW127038   6.594   3.213   2.771
 8713SOL    HW227039   6.515   3.071   2.782
 8714SOL     OW27040   0.926   6.809   5.843
 8714SOL    HW127041   0.930   6.710   5.834
 8714SOL    HW227042   0.849   6.845   5.791
 8715SOL     OW27043   4.060   0.708   0.751
 8715SOL    HW127044   4.137   0.675   0.697
 8715SOL    HW227045   4.087   0.792   0.799
 8716SOL     OW27046   6.742   0.373   0.929
 8716SOL    HW127047   6.780   0.281   0.929
 8716SOL    HW227048   6.750   0.413   0.837
 8717SOL     OW27049   2.865   4.171   5.341
 8717SOL    HW127050   2.930   4.151   5.415
 8717SOL    HW227051   2.850   4.089   5.286
 8718SOL     OW27052   1.345   2.972   5.435
 8718SOL    HW127053   1.373   2.915   5.357
 8718SOL    HW227054   1.421   3.031   5.462
 8719SOL     OW27055   4.116   6.920   0.163
 8719SOL    HW127056   4.189   6.964   0.111
 8719SOL    HW227057   4.093   6.977   0.242
 8720SOL     OW27058   0.552   6.167   6.284
 8720SOL    HW127059   0.480   6.180   6.216
 8720SOL    HW227060   0.613   6.094   6.256
 8721SOL     OW27061   6.238   2.674   1.830
 8721SOL    HW127062   6.154   2.727   1.843
 8721SOL    HW227063   6.313   2.720   1.878
 8722SOL     OW27064   3.615   1.440   1.425
 8722SOL    HW127065   3.597   1.517   1.365
 8722SOL    HW227066   3.688   1.383   1.386
 8723SOL     OW27067   4.764   6.713   1.977
 8723SOL    HW127068   4.712   6.776   1.920
 8723SOL    HW227069   4.726   6.621   1.967
 8724SOL     OW27070   5.622   6.992   4.489
 8724SOL    HW127071   5.570   0.043   4.458
 8724SOL    HW227072   5.682   6.961   4.415
 8725SOL     OW27073   2.065   5.651   5.545
 8725SOL    HW127074   2.161   5.653   5.573
 8725SOL    HW227075   2.023   5.740   5.563
 8726SOL     OW27076   0.119   0.656   3.249
 8726SOL    HW127077   0.099   0.744   3.292
 8726SOL    HW227078   0.216   0.651   3.227
 8727SOL     OW27079   5.431   0.513   2.663
 8727SOL    HW127080   5.427   0.498   2.762
 8727SOL    HW227081   5.375   0.444   2.617
 8728SOL     OW27082   6.362   0.641   2.304
 8728SOL    HW127083   6.457   0.671   2.301
 8728SOL    HW227084   6.346   0.588   2.387
 8729SOL     OW27085   3.409   5.204   5.840
 8729SOL    HW127086   3.384   5.113   5.873
 8729SOL    HW227087   3.366   5.222   5.752
 8730SOL     OW27088   5.459   4.228   2.641
 8730SOL    HW127089   5.474   4.160   2.570
 8730SOL    HW227090   5.404   4.188   2.714
 8731SOL     OW27091   0.903   3.082   2.683
 8731SOL    HW127092   0.972   3.018   2.649
 8731SOL    HW227093   0.919   3.099   2.781
 8732SOL     OW27094   5.988   5.011   1.599
 8732SOL    HW127095   6.082   4.994   1.631
 8732SOL    HW227096   5.934   5.051   1.672
 8733SOL     OW27097   1.642   5.973   1.264
 8733SOL    HW127098   1.697   6.002   1.342
 8733SOL    HW227099   1.581   5.899   1.292
 8734SOL     OW27100   0.737   3.441   2.832
 8734SOL    HW127101   0.731   3.541   2.833
 8734SOL    HW227102   0.801   3.413   2.760
 8735SOL     OW27103   0.963   2.984   6.963
 8735SOL    HW127104   0.921   3.074   6.978
 8735SOL    HW227105   1.056   2.984   7.001
 8736SOL     OW27106   0.123   5.222   1.389
 8736SOL    HW127107   0.100   5.161   1.313
 8736SOL    HW227108   0.064   5.200   1.468
 8737SOL     OW27109   1.866   6.626   0.404
 8737SOL    HW127110   1.804   6.690   0.359
 8737SOL    HW227111   1.817   6.541   0.425
 8738SOL     OW27112   2.780   5.796   3.812
 8738SOL    HW127113   2.742   5.836   3.729
 8738SOL    HW227114   2.720   5.816   3.889
 8739SOL     OW27115   5.140   5.710   6.187
 8739SOL    HW127116   5.086   5.679   6.265
 8739SOL    HW227117   5.233   5.674   6.193
 8740SOL     OW27118   3.880   1.394   4.588
 8740SOL    HW127119   3.824   1.327   4.637
 8740SOL    HW227120   3.922   1.457   4.653
 8741SOL     OW27121   2.159   1.192   2.377
 8741SOL    HW127122   2.146   1.278   2.326
 8741SOL    HW227123   2.242   1.198   2.431
 8742SOL     OW27124   4.880   6.920   1.625
 8742SOL    HW127125   4.959   6.874   1.665
 8742SOL    HW227126   4.888   6.920   1.526
 8743SOL     OW27127   1.345   6.931   1.966
 8743SOL    HW127128   1.335   6.942   2.064
 8743SOL    HW227129   1.277   6.866   1.932
 8744SOL     OW27130   3.992   2.892   0.262
 8744SOL    HW127131   3.990   2.820   0.331
 8744SOL    HW227132   4.078   2.887   0.210
 8745SOL     OW27133   6.335   1.643   6.183
 8745SOL    HW127134   6.347   1.568   6.247
 8745SOL    HW227135   6.403   1.714   6.202
 8746SOL     OW27136   4.537   5.488   4.553
 8746SOL    HW127137   4.502   5.554   4.619
 8746SOL    HW227138   4.474   5.482   4.476
 8747SOL     OW27139   6.679   1.776   3.295
 8747SOL    HW127140   6.669   1.869   3.261
 8747SOL    HW227141   6.721   1.719   3.224
 8748SOL     OW27142   0.290   1.417   4.254
 8748SOL    HW127143   0.321   1.347   4.189
 8748SOL    HW227144   0.367   1.445   4.312
 8749SOL     OW27145   2.495   0.173   5.173
 8749SOL    HW127146   2.408   0.137   5.207
 8749SOL    HW227147   2.516   0.259   5.220
 8750SOL     OW27148   3.227   4.171   5.374
 8750SOL    HW127149   3.269   4.172   5.465
 8750SOL    HW227150   3.162   4.247   5.367
 8751SOL     OW27151   5.926   1.715   2.091
 8751SOL    HW127152   5.961   1.638   2.145
 8751SOL    HW227153   5.830   1.730   2.113
 8752SOL     OW27154   3.322   3.074   6.216
 8752SOL    HW127155   3.420   3.062   6.200
 8752SOL    HW227156   3.308   3.117   6.305
 8753SOL     OW27157   3.074   1.589   6.444
 8753SOL    HW127158   3.067   1.651   6.365
 8753SOL    HW227159   3.167   1.551   6.448
 8754SOL     OW27160   1.299   3.872   5.565
 8754SOL    HW127161   1.375   3.908   5.512
 8754SOL    HW227162   1.302   3.772   5.565
 8755SOL     OW27163   2.273   1.023   1.393
 8755SOL    HW127164   2.221   0.956   1.340
 8755SOL    HW227165   2.331   1.077   1.331
 8756SOL     OW27166   1.774   2.886   3.983
 8756SOL    HW127167   1.750   2.906   3.888
 8756SOL    HW227168   1.856   2.938   4.008
 8757SOL     OW27169   4.034   5.666   6.705
 8757SOL    HW127170   3.973   5.743   6.686
 8757SOL    HW227171   4.041   5.653   6.804
 8758SOL     OW27172   5.259   6.177   2.513
 8758SOL    HW127173   5.234   6.105   2.577
 8758SOL    HW227174   5.338   6.227   2.549
 8759SOL     OW27175   4.734   3.095   6.922
 8759SOL    HW127176   4.829   3.109   6.952
 8759SOL    HW227177   4.701   3.007   6.956
 8760SOL     OW27178   2.917   1.026   5.248
 8760SOL    HW127179   2.958   0.953   5.301
 8760SOL    HW227180   2.988   1.089   5.216
 8761SOL     OW27181   6.447   2.498   1.448
 8761SOL    HW127182   6.540   2.461   1.450
 8761SOL    HW227183   6.393   2.458   1.521
 8762SOL     OW27184   1.041   4.689   3.762
 8762SOL    HW127185   1.087   4.746   3.830
 8762SOL    HW227186   0.953   4.729   3.737
 8763SOL     OW27187   6.455   7.008   6.132
 8763SOL    HW127188   6.462   0.032   6.048
 8763SOL    HW227189   6.546   6.990   6.169
 8764SOL     OW27190   4.736   0.254   5.696
 8764SOL    HW127191   4.804   0.324   5.676
 8764SOL    HW227192   4.687   0.231   5.612
 8765SOL     OW27193   4.796   0.148   3.799
 8765SOL    HW127194   4.797   0.127   3.701
 8765SOL    HW227195   4.824   0.243   3.814
 8766SOL     OW27196   4.588   4.476   5.151
 8766SOL    HW127197   4.490   4.464   5.169
 8766SOL    HW227198   4.602   4.565   5.108
 8767SOL     OW27199   5.661   5.856   1.984
 8767SOL    HW127200   5.719   5.839   2.064
 8767SOL    HW227201   5.710   5.915   1.919
 8768SOL     OW27202   1.352   2.376   0.581
 8768SOL    HW127203   1.327   2.364   0.485
 8768SOL    HW227204   1.433   2.322   0.601
 8769SOL     OW27205   6.834   0.759   3.283
 8769SOL    HW127206   6.862   0.666   3.307
 8769SOL    HW227207   6.873   0.784   3.195
 8770SOL     OW27208   4.565   4.631   1.893
 8770SOL    HW127209   4.604   4.543   1.920
 8770SOL    HW227210   4.540   4.683   1.974
 8771SOL     OW27211   1.457   2.019   6.832
 8771SOL    HW127212   1.394   2.094   6.852
 8771SOL    HW227213   1.416   1.958   6.764
 8772SOL     OW27214   4.578   0.601   6.400
 8772SOL    HW127215   4.553   0.552   6.483
 8772SOL    HW227216   4.670   0.641   6.411
 8773SOL     OW27217   5.596   2.717   3.866
 8773SOL    HW127218   5.661   2.685   3.935
 8773SOL    HW227219   5.598   2.656   3.787
 8774SOL     OW27220   1.559   0.703   0.319
 8774SOL    HW127221   1.613   0.727   0.238
 8774SOL    HW227222   1.486   0.770   0.331
 8775SOL     OW27223   5.425   1.101   5.768
 8775SOL    HW127224   5.361   1.152   5.711
 8775SOL    HW227225   5.519   1.120   5.737
 8776SOL     OW27226   4.507   3.338   0.487
 8776SOL    HW127227   4.484   3.420   0.540
 8776SOL    HW227228   4.597   3.351   0.444
 8777SOL     OW27229   5.858   4.235   3.596
 8777SOL    HW127230   5.861   4.136   3.601
 8777SOL    HW227231   5.836   4.273   3.685
 8778SOL     OW27232   5.630   3.257   6.049
 8778SOL    HW127233   5.622   3.244   5.951
 8778SOL    HW227234   5.710   3.207   6.083
 8779SOL     OW27235   2.559   5.160   2.407
 8779SOL    HW127236   2.487   5.228   2.391
 8779SOL    HW227237   2.537   5.109   2.490
 8780SOL     OW27238   0.349   0.025   2.984
 8780SOL    HW127239   0.443   0.043   2.955
 8780SOL    HW227240   0.345   6.964   3.029
 8781SOL     OW27241   5.138   1.008   4.196
 8781SOL    HW127242   5.076   1.034   4.122
 8781SOL    HW227243   5.186   1.089   4.230
 8782SOL     OW27244   6.559   0.294   2.531
 8782SOL    HW127245   6.638   0.326   2.478
 8782SOL    HW227246   6.591   0.255   2.617
 8783SOL     OW27247   6.650   4.208   3.537
 8783SOL    HW127248   6.563   4.253   3.516
 8783SOL    HW227249   6.683   4.238   3.626
 8784SOL     OW27250   6.955   6.235   5.710
 8784SOL    HW127251   0.016   6.192   5.724
 8784SOL    HW227252   6.960   6.297   5.632
 8785SOL     OW27253   5.681   5.115   0.515
 8785SOL    HW127254   5.755   5.154   0.570
 8785SOL    HW227255   5.633   5.189   0.467
 8786SOL     OW27256   2.304   1.337   0.354
 8786SOL    HW127257   2.246   1.266   0.393
 8786SOL    HW227258   2.344   1.305   0.268
 8787SOL     OW27259   2.952   1.258   2.095
 8787SOL    HW127260   2.920   1.330   2.156
 8787SOL    HW227261   2.937   1.285   2.000
 8788SOL     OW27262   7.000   0.517   5.618
 8788SOL    HW127263   0.037   0.539   5.545
 8788SOL    HW227264   6.907   0.522   5.581
 8789SOL     OW27265   6.157   5.567   5.048
 8789SOL    HW127266   6.074   5.518   5.076
 8789SOL    HW227267   6.223   5.567   5.124
 8790SOL     OW27268   6.545   0.445   6.531
 8790SOL    HW127269   6.534   0.540   6.504
 8790SOL    HW227270   6.467   0.392   6.497
 8791SOL     OW27271   5.881   6.541   5.070
 8791SOL    HW127272   5.827   6.622   5.093
 8791SOL    HW227273   5.865   6.518   4.974
 8792SOL     OW27274   3.127   5.239   3.021
 8792SOL    HW127275   3.196   5.275   2.958
 8792SOL    HW227276   3.048   5.207   2.970
 8793SOL     OW27277   0.805   4.457   2.500
 8793SOL    HW127278   0.742   4.391   2.542
 8793SOL    HW227279   0.896   4.445   2.539
 8794SOL     OW27280   5.141   0.331   2.637
 8794SOL    HW127281   5.167   0.243   2.678
 8794SOL    HW227282   5.088   0.384   2.703
 8795SOL     OW27283   1.012   4.075   5.658
 8795SOL    HW127284   0.917   4.045   5.658
 8795SOL    HW227285   1.055   4.050   5.745
 8796SOL     OW27286   4.970   2.192   4.071
 8796SOL    HW127287   4.936   2.215   3.980
 8796SOL    HW227288   5.002   2.275   4.116
 8797SOL     OW27289   0.066   0.346   6.979
 8797SOL    HW127290   0.081   0.378   6.885
 8797SOL    HW227291   0.130   0.272   6.999
 8798SOL     OW27292   4.750   6.035   6.232
 8798SOL    HW127293   4.718   6.129   6.219
 8798SOL    HW227294   4.843   6.026   6.195
 8799SOL     OW27295   2.971   4.812   3.720
 8799SOL    HW127296   2.930   4.904   3.714
 8799SOL    HW227297   3.063   4.819   3.758
 8800SOL     OW27298   5.915   4.394   6.498
 8800SOL    HW127299   5.872   4.380   6.408
 8800SOL    HW227300   5.950   4.488   6.504
 8801SOL     OW27301   0.060   1.205   4.323
 8801SOL    HW127302   7.020   1.224   4.393
 8801SOL    HW227303   0.145   1.252   4.347
 8802SOL     OW27304   2.196   6.534   6.270
 8802SOL    HW127305   2.170   6.579   6.355
 8802SOL    HW227306   2.258   6.593   6.218
 8803SOL     OW27307   6.971   6.935   0.316
 8803SOL    HW127308   6.944   6.945   0.412
 8803SOL    HW227309   7.011   6.845   0.303
 8804SOL     OW27310   2.511   6.530   1.574
 8804SOL    HW127311   2.545   6.443   1.539
 8804SOL    HW227312   2.570   6.605   1.543
 8805SOL     OW27313   3.659   6.463   3.501
 8805SOL    HW127314   3.581   6.523   3.484
 8805SOL    HW227315   3.738   6.495   3.449
 8806SOL     OW27316   3.151   4.750   0.997
 8806SOL    HW127317   3.158   4.656   1.030
 8806SOL    HW227318   3.237   4.798   1.013
 8807SOL     OW27319   4.956   1.282   0.410
 8807SOL    HW127320   4.880   1.246   0.464
 8807SOL    HW227321   5.035   1.296   0.470
 8808SOL     OW27322   6.255   2.785   6.425
 8808SOL    HW127323   6.248   2.825   6.333
 8808SOL    HW227324   6.172   2.804   6.476
 8809SOL     OW27325   3.720   5.148   3.594
 8809SOL    HW127326   3.728   5.207   3.514
 8809SOL    HW227327   3.807   5.146   3.644
 8810SOL     OW27328   6.146   0.776   5.006
 8810SOL    HW127329   6.209   0.734   4.941
 8810SOL    HW227330   6.074   0.712   5.029
 8811SOL     OW27331   3.516   1.363   2.850
 8811SOL    HW127332   3.486   1.268   2.842
 8811SOL    HW227333   3.485   1.401   2.938
 8812SOL     OW27334   1.799   0.678   0.642
 8812SOL    HW127335   1.789   0.748   0.572
 8812SOL    HW227336   1.755   0.594   0.611
 8813SOL     OW27337   2.066   5.791   3.077
 8813SOL    HW127338   2.092   5.863   3.141
 8813SOL    HW227339   1.967   5.782   3.074
 8814SOL     OW27340   6.438   0.373   0.845
 8814SOL    HW127341   6.454   0.466   0.810
 8814SOL    HW227342   6.484   0.362   0.932
 8815SOL     OW27343   5.465   6.920   1.318
 8815SOL    HW127344   5.544   6.915   1.379
 8815SOL    HW227345   5.490   6.971   1.236
 8816SOL     OW27346   0.756   6.023   0.550
 8816SOL    HW127347   0.846   6.056   0.521
 8816SOL    HW227348   0.698   6.008   0.470
 8817SOL     OW27349   0.270   4.591   4.241
 8817SOL    HW127350   0.246   4.686   4.257
 8817SOL    HW227351   0.369   4.583   4.227
 8818SOL     OW27352   0.913   4.868   4.393
 8818SOL    HW127353   0.862   4.816   4.461
 8818SOL    HW227354   0.920   4.964   4.423
 8819SOL     OW27355   5.211   5.148   5.503
 8819SOL    HW127356   5.187   5.239   5.469
 8819SOL    HW227357   5.272   5.156   5.582
 8820SOL     OW27358   2.534   0.848   5.412
 8820SOL    HW127359   2.473   0.855   5.334
 8820SOL    HW227360   2.556   0.940   5.445
 8821SOL     OW27361   2.102   5.675   0.908
 8821SOL    HW127362   2.146   5.664   0.819
 8821SOL    HW227363   2.161   5.729   0.968
 8822SOL     OW27364   0.990   0.632   4.675
 8822SOL    HW127365   1.049   0.673   4.605
 8822SOL    HW227366   0.932   0.562   4.633
 8823SOL     OW27367   2.309   0.966   2.547
 8823SOL    HW127368   2.366   1.038   2.506
 8823SOL    HW227369   2.255   0.922   2.475
 8824SOL     OW27370   1.435   1.224   0.295
 8824SOL    HW127371   1.418   1.183   0.206
 8824SOL    HW227372   1.354   1.276   0.323
 8825SOL     OW27373   1.816   0.699   1.871
 8825SOL    HW127374   1.887   0.744   1.923
 8825SOL    HW227375   1.743   0.764   1.850
 8826SOL     OW27376   0.859   3.957   0.042
 8826SOL    HW127377   0.956   3.964   0.022
 8826SOL    HW227378   0.836   4.014   0.121
 8827SOL     OW27379   4.039   0.672   3.209
 8827SOL    HW127380   4.025   0.687   3.307
 8827SOL    HW227381   3.967   0.719   3.159
 8828SOL     OW27382   4.067   5.579   6.421
 8828SOL    HW127383   4.015   5.638   6.483
 8828SOL    HW227384   4.004   5.524   6.366
 8829SOL     OW27385   5.194   2.082   1.058
 8829SOL    HW127386   5.194   2.163   1.117
 8829SOL    HW227387   5.271   2.023   1.082
 8830SOL     OW27388   1.755   1.753   2.536
 8830SOL    HW127389   1.790   1.826   2.594
 8830SOL    HW227390   1.659   1.737   2.556
 8831SOL     OW27391   4.933   2.501   3.373
 8831SOL    HW127392   4.940   2.598   3.352
 8831SOL    HW227393   4.965   2.484   3.466
 8832SOL     OW27394   6.917   6.462   3.356
 8832SOL    HW127395   6.983   6.532   3.381
 8832SOL    HW227396   6.827   6.487   3.390
 8833SOL     OW27397   2.733   5.264   6.681
 8833SOL    HW127398   2.669   5.304   6.615
 8833SOL    HW227399   2.682   5.225   6.758
 8834SOL     OW27400   5.893   4.044   4.686
 8834SOL    HW127401   5.892   4.010   4.592
 8834SOL    HW227402   5.945   3.981   4.744
 8835SOL     OW27403   5.081   0.973   6.034
 8835SOL    HW127404   5.085   1.045   5.964
 8835SOL    HW227405   5.006   0.910   6.012
 8836SOL     OW27406   5.010   2.248   0.243
 8836SOL    HW127407   4.968   2.315   0.183
 8836SOL    HW227408   4.941   2.211   0.305
 8837SOL     OW27409   0.447   0.090   2.575
 8837SOL    HW127410   0.532   0.080   2.524
 8837SOL    HW227411   0.444   0.022   2.648
 8838SOL     OW27412   2.385   4.782   3.873
 8838SOL    HW127413   2.461   4.774   3.936
 8838SOL    HW227414   2.299   4.774   3.923
 8839SOL     OW27415   4.373   5.647   1.505
 8839SOL    HW127416   4.328   5.737   1.510
 8839SOL    HW227417   4.472   5.660   1.502
 8840SOL     OW27418   0.422   0.965   3.222
 8840SOL    HW127419   0.488   0.892   3.240
 8840SOL    HW227420   0.343   0.927   3.173
 8841SOL     OW27421   0.549   0.998   4.808
 8841SOL    HW127422   0.529   0.992   4.905
 8841SOL    HW227423   0.642   1.033   4.795
 8842SOL     OW27424   3.220   3.233   3.214
 8842SOL    HW127425   3.241   3.324   3.178
 8842SOL    HW227426   3.170   3.181   3.144
 8843SOL     OW27427   1.473   3.255   4.790
 8843SOL    HW127428   1.436   3.162   4.784
 8843SOL    HW227429   1.556   3.253   4.845
 8844SOL     OW27430   0.829   1.829   5.227
 8844SOL    HW127431   0.731   1.813   5.230
 8844SOL    HW227432   0.867   1.826   5.320
 8845SOL     OW27433   2.910   3.600   1.213
 8845SOL    HW127434   2.877   3.630   1.123
 8845SOL    HW227435   2.851   3.528   1.248
 8846SOL     OW27436   4.026   4.854   4.425
 8846SOL    HW127437   4.049   4.941   4.381
 8846SOL    HW227438   3.948   4.867   4.487
 8847SOL     OW27439   2.234   1.383   2.809
 8847SOL    HW127440   2.137   1.372   2.832
 8847SOL    HW227441   2.281   1.295   2.817
 8848SOL     OW27442   2.379   2.189   2.304
 8848SOL    HW127443   2.464   2.155   2.265
 8848SOL    HW227444   2.395   2.279   2.345
 8849SOL     OW27445   3.617   5.562   3.555
 8849SOL    HW127446   3.707   5.590   3.590
 8849SOL    HW227447   3.592   5.473   3.593
 8850SOL     OW27448   2.248   1.092   6.488
 8850SOL    HW127449   2.258   1.125   6.582
 8850SOL    HW227450   2.291   1.157   6.426
 8851SOL     OW27451   0.882   5.153   2.086
 8851SOL    HW127452   0.836   5.067   2.107
 8851SOL    HW227453   0.949   5.173   2.156
 8852SOL     OW27454   4.817   3.929   5.942
 8852SOL    HW127455   4.723   3.946   5.910
 8852SOL    HW227456   4.829   3.832   5.960
 8853SOL     OW27457   3.260   0.934   6.375
 8853SOL    HW127458   3.319   0.853   6.378
 8853SOL    HW227459   3.209   0.935   6.289
 8854SOL     OW27460   3.118   1.536   6.041
 8854SOL    HW127461   3.094   1.575   5.952
 8854SOL    HW227462   3.174   1.454   6.028
 8855SOL     OW27463   0.136   5.938   0.561
 8855SOL    HW127464   0.138   6.038   0.563
 8855SOL    HW227465   0.083   5.908   0.481
 8856SOL     OW27466   6.832   0.401   6.396
 8856SOL    HW127467   6.748   0.437   6.436
 8856SOL    HW227468   6.811   0.324   6.336
 8857SOL     OW27469   0.094   1.298   4.028
 8857SOL    HW127470   0.066   1.385   3.987
 8857SOL    HW227471   0.053   1.289   4.119
 8858SOL     OW27472   1.072   2.390   5.397
 8858SOL    HW127473   1.004   2.336   5.446
 8858SOL    HW227474   1.155   2.337   5.385
 8859SOL     OW27475   6.611   0.716   4.236
 8859SOL    HW127476   6.625   0.691   4.332
 8859SOL    HW227477   6.671   0.792   4.213
 8860SOL     OW27478   0.702   3.221   2.529
 8860SOL    HW127479   0.798   3.201   2.507
 8860SOL    HW227480   0.674   3.167   2.608
 8861SOL     OW27481   3.856   1.852   6.320
 8861SOL    HW127482   3.869   1.944   6.358
 8861SOL    HW227483   3.919   1.788   6.365
 8862SOL     OW27484   5.900   0.656   3.689
 8862SOL    HW127485   5.940   0.565   3.692
 8862SOL    HW227486   5.892   0.685   3.593
 8863SOL     OW27487   1.937   5.219   4.226
 8863SOL    HW127488   2.010   5.218   4.294
 8863SOL    HW227489   1.961   5.282   4.152
 8864SOL     OW27490   3.108   3.417   5.786
 8864SOL    HW127491   3.013   3.443   5.772
 8864SOL    HW227492   3.149   3.393   5.697
 8865SOL     OW27493   2.919   1.210   6.231
 8865SOL    HW127494   2.901   1.246   6.139
 8865SOL    HW227495   2.940   1.286   6.292
 8866SOL     OW27496   5.208   6.921   3.371
 8866SOL    HW127497   5.150   6.981   3.427
 8866SOL    HW227498   5.167   6.910   3.281
 8867SOL     OW27499   5.190   3.321   2.175
 8867SOL    HW127500   5.216   3.236   2.128
 8867SOL    HW227501   5.120   3.301   2.243
 8868SOL     OW27502   6.699   2.577   0.417
 8868SOL    HW127503   6.709   2.520   0.498
 8868SOL    HW227504   6.783   2.574   0.363
 8869SOL     OW27505   4.527   6.185   4.707
 8869SOL    HW127506   4.466   6.187   4.786
 8869SOL    HW227507   4.486   6.235   4.631
 8870SOL     OW27508   4.076   0.481   6.562
 8870SOL    HW127509   4.135   0.558   6.537
 8870SOL    HW227510   3.980   0.508   6.553
 8871SOL     OW27511   1.996   0.425   3.855
 8871SOL    HW127512   1.943   0.376   3.786
 8871SOL    HW227513   1.934   0.485   3.907
 8872SOL     OW27514   1.572   4.580   4.731
 8872SOL    HW127515   1.659   4.533   4.741
 8872SOL    HW227516   1.580   4.652   4.662
 8873SOL     OW27517   0.562   5.951   2.029
 8873SOL    HW127518   0.590   5.871   2.083
 8873SOL    HW227519   0.644   6.000   1.998
 8874SOL     OW27520   2.510   5.739   2.286
 8874SOL    HW127521   2.422   5.692   2.274
 8874SOL    HW227522   2.583   5.672   2.295
 8875SOL     OW27523   6.822   3.476   4.983
 8875SOL    HW127524   6.798   3.383   4.955
 8875SOL    HW227525   6.774   3.542   4.925
 8876SOL     OW27526   2.189   6.805   4.494
 8876SOL    HW127527   2.178   6.741   4.419
 8876SOL    HW227528   2.156   6.895   4.466
 8877SOL     OW27529   2.965   0.702   3.976
 8877SOL    HW127530   2.998   0.789   3.939
 8877SOL    HW227531   2.923   0.718   4.065
 8878SOL     OW27532   6.592   5.203   6.781
 8878SOL    HW127533   6.542   5.151   6.712
 8878SOL    HW227534   6.639   5.140   6.843
 8879SOL     OW27535   5.021   4.219   1.850
 8879SOL    HW127536   5.039   4.310   1.888
 8879SOL    HW227537   4.923   4.198   1.858
 8880SOL     OW27538   5.368   5.922   4.786
 8880SOL    HW127539   5.367   5.922   4.686
 8880SOL    HW227540   5.331   5.835   4.819
 8881SOL     OW27541   6.415   6.965   3.805
 8881SOL    HW127542   6.374   0.025   3.785
 8881SOL    HW227543   6.378   6.896   3.742
 8882SOL     OW27544   5.633   2.082   1.112
 8882SOL    HW127545   5.596   2.164   1.156
 8882SOL    HW227546   5.600   2.076   1.018
 8883SOL     OW27547   1.842   6.468   6.412
 8883SOL    HW127548   1.859   6.553   6.361
 8883SOL    HW227549   1.762   6.422   6.374
 8884SOL     OW27550   6.156   4.454   6.300
 8884SOL    HW127551   6.149   4.487   6.206
 8884SOL    HW227552   6.216   4.374   6.303
 8885SOL     OW27553   0.093   3.244   0.763
 8885SOL    HW127554   7.025   3.229   0.785
 8885SOL    HW227555   0.119   3.186   0.686
 8886SOL     OW27556   3.201   6.485   4.799
 8886SOL    HW127557   3.300   6.493   4.790
 8886SOL    HW227558   3.159   6.575   4.786
 8887SOL     OW27559   3.206   1.594   1.280
 8887SOL    HW127560   3.164   1.522   1.225
 8887SOL    HW227561   3.304   1.598   1.260
 8888SOL     OW27562   1.742   1.679   6.792
 8888SOL    HW127563   1.830   1.666   6.837
 8888SOL    HW227564   1.697   1.760   6.829
 8889SOL     OW27565   6.160   0.401   6.134
 8889SOL    HW127566   6.102   0.322   6.152
 8889SOL    HW227567   6.241   0.397   6.193
 8890SOL     OW27568   6.660   5.575   4.002
 8890SOL    HW127569   6.757   5.556   4.018
 8890SOL    HW227570   6.612   5.581   4.089
 8891SOL     OW27571   5.186   3.832   6.225
 8891SOL    HW127572   5.172   3.882   6.140
 8891SOL    HW227573   5.167   3.735   6.210
 8892SOL     OW27574   3.723   5.634   3.217
 8892SOL    HW127575   3.697   5.702   3.148
 8892SOL    HW227576   3.689   5.663   3.307
 8893SOL     OW27577   0.772   5.823   3.642
 8893SOL    HW127578   0.795   5.808   3.546
 8893SOL    HW227579   0.772   5.736   3.690
 8894SOL     OW27580   4.484   3.055   6.282
 8894SOL    HW127581   4.447   3.147   6.268
 8894SOL    HW227582   4.584   3.059   6.280
 8895SOL     OW27583   6.424   2.426   2.544
 8895SOL    HW127584   6.401   2.450   2.638
 8895SOL    HW227585   6.348   2.375   2.504
 8896SOL     OW27586   2.258   3.776   5.665
 8896SOL    HW127587   2.275   3.687   5.708
 8896SOL    HW227588   2.167   3.776   5.624
 8897SOL     OW27589   1.824   2.674   3.234
 8897SOL    HW127590   1.842   2.605   3.165
 8897SOL    HW227591   1.784   2.631   3.315
 8898SOL     OW27592   5.354   3.662   3.330
 8898SOL    HW127593   5.344   3.665   3.430
 8898SOL    HW227594   5.450   3.645   3.306
 8899SOL     OW27595   1.911   5.424   0.712
 8899SOL    HW127596   1.826   5.385   0.747
 8899SOL    HW227597   1.891   5.508   0.661
 8900SOL     OW27598   6.203   3.442   2.760
 8900SOL    HW127599   6.257   3.441   2.844
 8900SOL    HW227600   6.264   3.445   2.680
 8901SOL     OW27601   1.985   0.606   4.524
 8901SOL    HW127602   2.021   0.622   4.616
 8901SOL    HW227603   1.940   0.689   4.491
 8902SOL     OW27604   2.043   0.410   0.284
 8902SOL    HW127605   2.007   0.335   0.340
 8902SOL    HW227606   2.119   0.377   0.229
 8903SOL     OW27607   1.359   1.798   5.016
 8903SOL    HW127608   1.420   1.719   5.020
 8903SOL    HW227609   1.278   1.775   4.961
 8904SOL     OW27610   5.922   6.086   4.107
 8904SOL    HW127611   5.935   6.001   4.056
 8904SOL    HW227612   5.892   6.065   4.200
 8905SOL     OW27613   1.435   4.733   3.960
 8905SOL    HW127614   1.505   4.794   3.997
 8905SOL    HW227615   1.399   4.675   4.033
 8906SOL     OW27616   0.233   6.337   0.468
 8906SOL    HW127617   0.172   6.289   0.532
 8906SOL    HW227618   0.275   6.270   0.407
 8907SOL     OW27619   2.634   2.470   4.998
 8907SOL    HW127620   2.552   2.522   4.973
 8907SOL    HW227621   2.655   2.486   5.095
 8908SOL     OW27622   1.064   3.735   6.596
 8908SOL    HW127623   0.985   3.677   6.575
 8908SOL    HW227624   1.093   3.717   6.690
 8909SOL     OW27625   2.892   0.877   6.015
 8909SOL    HW127626   2.818   0.826   6.058
 8909SOL    HW227627   2.864   0.905   5.923
 8910SOL     OW27628   0.348   2.700   6.002
 8910SOL    HW127629   0.391   2.749   5.925
 8910SOL    HW227630   0.281   2.635   5.966
 8911SOL     OW27631   4.066   2.005   4.687
 8911SOL    HW127632   3.995   2.031   4.752
 8911SOL    HW227633   4.039   2.030   4.594
 8912SOL     OW27634   3.555   2.999   0.216
 8912SOL    HW127635   3.642   2.996   0.167
 8912SOL    HW227636   3.565   3.054   0.299
 8913SOL     OW27637   5.024   5.086   6.025
 8913SOL    HW127638   4.995   5.125   5.937
 8913SOL    HW227639   5.047   5.160   6.088
 8914SOL     OW27640   4.615   0.062   4.753
 8914SOL    HW127641   4.693   0.050   4.815
 8914SOL    HW227642   4.585   0.158   4.756
 8915SOL     OW27643   0.552   2.943   3.805
 8915SOL    HW127644   0.466   2.894   3.789
 8915SOL    HW227645   0.532   3.036   3.837
 8916SOL     OW27646   0.153   3.946   0.952
 8916SOL    HW127647   0.170   4.011   1.027
 8916SOL    HW227648   0.192   3.857   0.976
 8917SOL     OW27649   6.877   3.637   0.213
 8917SOL    HW127650   6.831   3.548   0.209
 8917SOL    HW227651   6.970   3.628   0.180
 8918SOL     OW27652   6.451   4.122   1.505
 8918SOL    HW127653   6.437   4.116   1.407
 8918SOL    HW227654   6.390   4.057   1.552
 8919SOL     OW27655   3.839   4.543   0.296
 8919SOL    HW127656   3.836   4.627   0.242
 8919SOL    HW227657   3.746   4.517   0.324
 8920SOL     OW27658   0.698   0.398   6.969
 8920SOL    HW127659   0.756   0.432   0.015
 8920SOL    HW227660   0.755   0.377   6.890
 8921SOL     OW27661   1.787   2.048   2.339
 8921SOL    HW127662   1.842   2.120   2.380
 8921SOL    HW227663   1.705   2.033   2.394
 8922SOL     OW27664   3.643   5.257   1.298
 8922SOL    HW127665   3.591   5.176   1.267
 8922SOL    HW227666   3.585   5.312   1.358
 8923SOL     OW27667   1.748   3.486   6.117
 8923SOL    HW127668   1.765   3.459   6.211
 8923SOL    HW227669   1.770   3.583   6.105
 8924SOL     OW27670   3.899   5.335   5.749
 8924SOL    HW127671   3.814   5.322   5.698
 8924SOL    HW227672   3.951   5.411   5.711
 8925SOL     OW27673   1.074   1.412   2.582
 8925SOL    HW127674   1.067   1.509   2.604
 8925SOL    HW227675   0.982   1.372   2.578
 8926SOL     OW27676   6.527   3.710   5.656
 8926SOL    HW127677   6.475   3.633   5.621
 8926SOL    HW227678   6.471   3.762   5.720
 8927SOL     OW27679   0.884   1.374   4.824
 8927SOL    HW127680   0.933   1.427   4.755
 8927SOL    HW227681   0.940   1.295   4.851
 8928SOL     OW27682   0.060   0.428   6.299
 8928SOL    HW127683   0.116   0.385   6.370
 8928SOL    HW227684   6.992   0.417   6.322
 8929SOL     OW27685   6.362   2.859   4.407
 8929SOL    HW127686   6.443   2.850   4.465
 8929SOL    HW227687   6.339   2.769   4.370
 8930SOL     OW27688   1.344   3.960   4.321
 8930SOL    HW127689   1.301   3.904   4.251
 8930SOL    HW227690   1.353   4.054   4.287
 8931SOL     OW27691   3.117   2.687   0.799
 8931SOL    HW127692   3.054   2.609   0.794
 8931SOL    HW227693   3.066   2.772   0.789
 8932SOL     OW27694   5.912   0.681   0.878
 8932SOL    HW127695   6.008   0.654   0.875
 8932SOL    HW227696   5.855   0.600   0.883
 8933SOL     OW27697   1.753   2.979   6.042
 8933SOL    HW127698   1.845   2.996   6.078
 8933SOL    HW227699   1.686   3.019   6.105
 8934SOL     OW27700   3.611   5.072   4.563
 8934SOL    HW127701   3.583   5.140   4.631
 8934SOL    HW227702   3.601   5.110   4.471
 8935SOL     OW27703   6.373   4.287   1.224
 8935SOL    HW127704   6.341   4.317   1.314
 8935SOL    HW227705   6.317   4.212   1.191
 8936SOL     OW27706   1.252   3.500   2.083
 8936SOL    HW127707   1.200   3.584   2.070
 8936SOL    HW227708   1.218   3.453   2.165
 8937SOL     OW27709   0.221   6.633   4.950
 8937SOL    HW127710   0.203   6.731   4.951
 8937SOL    HW227711   0.297   6.613   5.013
 8938SOL     OW27712   0.496   1.829   0.501
 8938SOL    HW127713   0.587   1.813   0.464
 8938SOL    HW227714   0.477   1.763   0.574
 8939SOL     OW27715   5.706   4.979   4.361
 8939SOL    HW127716   5.766   4.968   4.281
 8939SOL    HW227717   5.743   5.050   4.420
 8940SOL     OW27718   5.435   0.618   1.398
 8940SOL    HW127719   5.449   0.716   1.389
 8940SOL    HW227720   5.337   0.600   1.411
 8941SOL     OW27721   6.224   2.601   3.819
 8941SOL    HW127722   6.271   2.538   3.881
 8941SOL    HW227723   6.142   2.557   3.782
 8942SOL     OW27724   6.823   5.778   5.875
 8942SOL    HW127725   6.780   5.716   5.810
 8942SOL    HW227726   6.842   5.730   5.960
 8943SOL     OW27727   3.697   5.378   0.232
 8943SOL    HW127728   3.653   5.316   0.167
 8943SOL    HW227729   3.793   5.390   0.207
 8944SOL     OW27730   4.951   6.092   4.062
 8944SOL    HW127731   4.858   6.061   4.085
 8944SOL    HW227732   4.979   6.163   4.127
 8945SOL     OW27733   0.745   1.286   4.100
 8945SOL    HW127734   0.654   1.244   4.108
 8945SOL    HW227735   0.790   1.253   4.017
 8946SOL     OW27736   3.297   0.603   3.727
 8946SOL    HW127737   3.389   0.573   3.704
 8946SOL    HW227738   3.300   0.663   3.807
 8947SOL     OW27739   2.515   3.467   5.589
 8947SOL    HW127740   2.520   3.538   5.519
 8947SOL    HW227741   2.531   3.378   5.546
 8948SOL     OW27742   6.166   5.867   3.466
 8948SOL    HW127743   6.147   5.901   3.558
 8948SOL    HW227744   6.135   5.772   3.458
 8949SOL     OW27745   3.938   6.623   0.703
 8949SOL    HW127746   4.028   6.612   0.660
 8949SOL    HW227747   3.948   6.633   0.802
 8950SOL     OW27748   3.525   3.322   0.655
 8950SOL    HW127749   3.605   3.372   0.619
 8950SOL    HW227750   3.471   3.384   0.713
 8951SOL     OW27751   1.844   0.826   4.481
 8951SOL    HW127752   1.879   0.912   4.517
 8951SOL    HW227753   1.812   0.839   4.387
 8952SOL     OW27754   0.846   5.080   3.884
 8952SOL    HW127755   0.936   5.108   3.851
 8952SOL    HW227756   0.832   5.114   3.977
 8953SOL     OW27757   1.151   4.650   0.654
 8953SOL    HW127758   1.219   4.658   0.727
 8953SOL    HW227759   1.197   4.638   0.566
 8954SOL     OW27760   6.674   6.982   4.616
 8954SOL    HW127761   6.692   6.897   4.566
 8954SOL    HW227762   6.586   7.019   4.587
 8955SOL     OW27763   0.013   4.927   3.173
 8955SOL    HW127764   6.975   4.909   3.245
 8955SOL    HW227765   0.012   5.025   3.150
 8956SOL     OW27766   1.832   1.777   5.750
 8956SOL    HW127767   1.905   1.724   5.707
 8956SOL    HW227768   1.820   1.864   5.702
 8957SOL     OW27769   1.831   4.489   1.262
 8957SOL    HW127770   1.905   4.520   1.202
 8957SOL    HW227771   1.870   4.454   1.348
 8958SOL     OW27772   0.591   2.291   5.309
 8958SOL    HW127773   0.511   2.346   5.329
 8958SOL    HW227774   0.666   2.350   5.280
 8959SOL     OW27775   1.513   4.327   2.255
 8959SOL    HW127776   1.478   4.376   2.175
 8959SOL    HW227777   1.589   4.379   2.294
 8960SOL     OW27778   4.914   5.563   3.670
 8960SOL    HW127779   4.915   5.482   3.611
 8960SOL    HW227780   4.976   5.548   3.748
 8961SOL     OW27781   3.407   1.312   3.345
 8961SOL    HW127782   3.385   1.223   3.385
 8961SOL    HW227783   3.416   1.380   3.418
 8962SOL     OW27784   5.954   5.548   2.597
 8962SOL    HW127785   5.995   5.480   2.537
 8962SOL    HW227786   5.978   5.640   2.565
 8963SOL     OW27787   3.814   0.344   4.630
 8963SOL    HW127788   3.771   0.308   4.547
 8963SOL    HW227789   3.746   0.393   4.684
 8964SOL     OW27790   5.796   2.879   3.345
 8964SOL    HW127791   5.702   2.904   3.322
 8964SOL    HW227792   5.815   2.787   3.311
 8965SOL     OW27793   2.635   5.356   6.942
 8965SOL    HW127794   2.699   5.426   6.912
 8965SOL    HW227795   2.663   5.320   0.002
 8966SOL     OW27796   6.717   3.911   0.170
 8966SOL    HW127797   6.806   3.939   0.206
 8966SOL    HW227798   6.729   3.834   0.107
 8967SOL     OW27799   3.782   0.362   1.668
 8967SOL    HW127800   3.698   0.357   1.614
 8967SOL    HW227801   3.766   0.420   1.748
 8968SOL     OW27802   4.229   5.635   2.594
 8968SOL    HW127803   4.210   5.639   2.693
 8968SOL    HW227804   4.152   5.674   2.544
 8969SOL     OW27805   6.700   0.412   3.780
 8969SOL    HW127806   6.627   0.409   3.712
 8969SOL    HW227807   6.773   0.472   3.748
 8970SOL     OW27808   2.546   2.927   6.693
 8970SOL    HW127809   2.587   2.858   6.754
 8970SOL    HW227810   2.517   2.883   6.608
 8971SOL     OW27811   5.984   5.169   1.336
 8971SOL    HW127812   5.925   5.122   1.270
 8971SOL    HW227813   5.958   5.141   1.429
 8972SOL     OW27814   4.605   4.101   0.799
 8972SOL    HW127815   4.650   4.169   0.741
 8972SOL    HW227816   4.507   4.101   0.781
 8973SOL     OW27817   0.246   3.586   3.330
 8973SOL    HW127818   0.293   3.662   3.374
 8973SOL    HW227819   0.154   3.615   3.302
 8974SOL     OW27820   1.622   3.802   4.137
 8974SOL    HW127821   1.660   3.893   4.153
 8974SOL    HW227822   1.525   3.810   4.112
 8975SOL     OW27823   0.596   6.272   0.565
 8975SOL    HW127824   0.519   6.231   0.516
 8975SOL    HW227825   0.660   6.201   0.593
 8976SOL     OW27826   0.037   5.158   0.492
 8976SOL    HW127827   0.027   5.199   0.402
 8976SOL    HW227828   7.013   5.073   0.496
 8977SOL     OW27829   6.774   3.097   6.648
 8977SOL    HW127830   6.760   3.030   6.721
 8977SOL    HW227831   6.727   3.066   6.565
 8978SOL     OW27832   5.349   6.845   4.454
 8978SOL    HW127833   5.333   6.823   4.357
 8978SOL    HW227834   5.447   6.843   4.472
 8979SOL     OW27835   1.005   4.859   5.550
 8979SOL    HW127836   0.948   4.887   5.628
 8979SOL    HW227837   1.095   4.902   5.557
 8980SOL     OW27838   4.781   2.816   5.417
 8980SOL    HW127839   4.842   2.890   5.388
 8980SOL    HW227840   4.690   2.831   5.381
 8981SOL     OW27841   4.808   2.284   4.982
 8981SOL    HW127842   4.894   2.304   4.934
 8981SOL    HW227843   4.827   2.224   5.060
 8982SOL     OW27844   1.571   1.732   1.447
 8982SOL    HW127845   1.552   1.825   1.416
 8982SOL    HW227846   1.625   1.736   1.532
 8983SOL     OW27847   0.483   5.376   0.439
 8983SOL    HW127848   0.495   5.391   0.537
 8983SOL    HW227849   0.570   5.394   0.392
 8984SOL     OW27850   6.097   5.989   3.707
 8984SOL    HW127851   6.160   6.031   3.772
 8984SOL    HW227852   6.018   6.050   3.693
 8985SOL     OW27853   2.317   1.703   0.611
 8985SOL    HW127854   2.274   1.628   0.662
 8985SOL    HW227855   2.328   1.782   0.671
 8986SOL     OW27856   4.065   4.814   2.311
 8986SOL    HW127857   3.983   4.788   2.262
 8986SOL    HW227858   4.125   4.867   2.251
 8987SOL     OW27859   3.943   0.258   1.080
 8987SOL    HW127860   3.886   0.335   1.110
 8987SOL    HW227861   3.886   0.193   1.030
 8988SOL     OW27862   1.514   4.482   0.287
 8988SOL    HW127863   1.533   4.468   0.190
 8988SOL    HW227864   1.584   4.542   0.326
 8989SOL     OW27865   4.897   4.031   2.064
 8989SOL    HW127866   4.873   3.934   2.057
 8989SOL    HW227867   4.956   4.057   1.988
 8990SOL     OW27868   2.419   6.009   2.741
 8990SOL    HW127869   2.516   6.000   2.717
 8990SOL    HW227870   2.367   6.031   2.659
 8991SOL     OW27871   1.837   1.470   6.606
 8991SOL    HW127872   1.760   1.406   6.601
 8991SOL    HW227873   1.813   1.546   6.666
 8992SOL     OW27874   6.878   2.561   6.618
 8992SOL    HW127875   6.798   2.568   6.557
 8992SOL    HW227876   6.954   2.521   6.567
 8993SOL     OW27877   4.753   2.823   2.774
 8993SOL    HW127878   4.754   2.897   2.707
 8993SOL    HW227879   4.815   2.751   2.745
 8994SOL     OW27880   1.010   5.434   4.667
 8994SOL    HW127881   1.017   5.486   4.581
 8994SOL    HW227882   0.934   5.370   4.661
 8995SOL     OW27883   1.173   2.881   6.363
 8995SOL    HW127884   1.144   2.867   6.268
 8995SOL    HW227885   1.202   2.793   6.402
 8996SOL     OW27886   6.415   5.154   1.926
 8996SOL    HW127887   6.483   5.174   1.997
 8996SOL    HW227888   6.450   5.081   1.867
 8997SOL     OW27889   3.848   1.354   6.225
 8997SOL    HW127890   3.767   1.411   6.230
 8997SOL    HW227891   3.929   1.409   6.248
 8998SOL     OW27892   0.293   3.153   4.614
 8998SOL    HW127893   0.366   3.207   4.572
 8998SOL    HW227894   0.327   3.110   4.697
 8999SOL     OW27895   4.998   0.360   0.337
 8999SOL    HW127896   4.969   0.278   0.385
 8999SOL    HW227897   5.087   0.344   0.293
 9000SOL     OW27898   2.269   3.961   6.148
 9000SOL    HW127899   2.265   3.951   6.048
 9000SOL    HW227900   2.249   4.055   6.173
 9001SOL     OW27901   1.125   5.350   2.850
 9001SOL    HW127902   1.026   5.355   2.862
 9001SOL    HW227903   1.168   5.426   2.898
 9002SOL     OW27904   6.696   5.266   4.869
 9002SOL    HW127905   6.703   5.185   4.927
 9002SOL    HW227906   6.642   5.336   4.915
 9003SOL     OW27907   5.187   2.528   1.285
 9003SOL    HW127908   5.161   2.450   1.228
 9003SOL    HW227909   5.226   2.600   1.229
 9004SOL     OW27910   4.881   6.505   1.775
 9004SOL    HW127911   4.827   6.444   1.834
 9004SOL    HW227912   4.927   6.573   1.832
 9005SOL     OW27913   5.322   2.019   5.060
 9005SOL    HW127914   5.337   2.116   5.082
 9005SOL    HW227915   5.224   1.999   5.065
 9006SOL     OW27916   2.435   6.276   0.183
 9006SOL    HW127917   2.337   6.255   0.189
 9006SOL    HW227918   2.465   6.321   0.267
 9007SOL     OW27919   3.737   6.358   4.017
 9007SOL    HW127920   3.788   6.344   3.932
 9007SOL    HW227921   3.700   6.271   4.048
 9008SOL     OW27922   6.428   5.254   2.834
 9008SOL    HW127923   6.477   5.333   2.870
 9008SOL    HW227924   6.477   5.219   2.754
 9009SOL     OW27925   2.560   6.968   0.394
 9009SOL    HW127926   2.623   6.891   0.405
 9009SOL    HW227927   2.466   6.936   0.399
 9010SOL     OW27928   0.961   0.003   5.119
 9010SOL    HW127929   1.011   0.064   5.058
 9010SOL    HW227930   1.009   6.944   5.126
 9011SOL     OW27931   4.296   1.974   1.540
 9011SOL    HW127932   4.254   1.916   1.609
 9011SOL    HW227933   4.252   2.063   1.540
 9012SOL     OW27934   3.607   4.043   1.041
 9012SOL    HW127935   3.684   4.097   1.009
 9012SOL    HW227936   3.542   4.029   0.965
 9013SOL     OW27937   7.027   6.202   4.205
 9013SOL    HW127938   7.025   6.115   4.155
 9013SOL    HW227939   0.079   6.205   4.264
 9014SOL     OW27940   1.093   0.660   0.163
 9014SOL    HW127941   1.060   0.749   0.193
 9014SOL    HW227942   1.193   0.657   0.172
 9015SOL     OW27943   5.800   1.631   1.317
 9015SOL    HW127944   5.886   1.681   1.325
 9015SOL    HW227945   5.724   1.696   1.317
 9016SOL     OW27946   0.372   6.493   6.642
 9016SOL    HW127947   0.302   6.424   6.657
 9016SOL    HW227948   0.462   6.452   6.655
 9017SOL     OW27949   4.507   2.510   1.964
 9017SOL    HW127950   4.586   2.565   1.992
 9017SOL    HW227951   4.470   2.461   2.043
 9018SOL     OW27952   4.248   1.456   5.370
 9018SOL    HW127953   4.151   1.471   5.386
 9018SOL    HW227954   4.295   1.447   5.458
 9019SOL     OW27955   0.724   0.730   0.940
 9019SOL    HW127956   0.688   0.792   0.870
 9019SOL    HW227957   0.648   0.696   0.996
 9020SOL     OW27958   1.368   3.906   1.576
 9020SOL    HW127959   1.463   3.920   1.547
 9020SOL    HW227960   1.354   3.947   1.665
 9021SOL     OW27961   6.645   0.151   3.906
 9021SOL    HW127962   6.712   0.221   3.881
 9021SOL    HW227963   6.690   0.062   3.910
 9022SOL     OW27964   2.787   1.489   0.925
 9022SOL    HW127965   2.689   1.509   0.931
 9022SOL    HW227966   2.819   1.506   0.832
 9023SOL     OW27967   3.316   2.923   2.680
 9023SOL    HW127968   3.337   3.019   2.666
 9023SOL    HW227969   3.347   2.870   2.600
 9024SOL     OW27970   0.475   5.497   5.290
 9024SOL    HW127971   0.469   5.399   5.306
 9024SOL    HW227972   0.388   5.531   5.255
 9025SOL     OW27973   0.003   6.150   0.188
 9025SOL    HW127974   0.085   6.131   0.134
 9025SOL    HW227975   0.004   6.094   0.271
 9026SOL     OW27976   3.881   3.086   1.902
 9026SOL    HW127977   3.954   3.154   1.898
 9026SOL    HW227978   3.902   3.011   1.839
 9027SOL     OW27979   1.416   1.901   3.722
 9027SOL    HW127980   1.403   1.990   3.678
 9027SOL    HW227981   1.506   1.865   3.697
 9028SOL     OW27982   2.466   3.595   6.895
 9028SOL    HW127983   2.429   3.650   6.820
 9028SOL    HW227984   2.564   3.613   6.904
 9029SOL     OW27985   3.310   5.453   5.158
 9029SOL    HW127986   3.338   5.361   5.185
 9029SOL    HW227987   3.215   5.452   5.127
 9030SOL     OW27988   2.301   0.855   3.381
 9030SOL    HW127989   2.241   0.793   3.432
 9030SOL    HW227990   2.267   0.863   3.287
 9031SOL     OW27991   4.997   5.697   4.894
 9031SOL    HW127992   4.992   5.598   4.908
 9031SOL    HW227993   4.937   5.742   4.960
 9032SOL     OW27994   2.856   2.800   0.636
 9032SOL    HW127995   2.903   2.851   0.708
 9032SOL    HW227996   2.769   2.766   0.671
 9033SOL     OW27997   2.134   4.630   3.718
 9033SOL    HW127998   2.051   4.575   3.705
 9033SOL    HW227999   2.142   4.697   3.645
 9034SOL     OW28000   3.131   0.749   5.095
 9034SOL    HW128001   3.104   0.654   5.113
 9034SOL    HW228002   3.228   0.759   5.116
 9035SOL     OW28003   0.984   5.362   5.754
 9035SOL    HW128004   1.048   5.412   5.696
 9035SOL    HW228005   1.032   5.288   5.801
 9036SOL     OW28006   1.564   0.826   5.394
 9036SOL    HW128007   1.604   0.738   5.421
 9036SOL    HW228008   1.636   0.894   5.385
 9037SOL     OW28009   1.212   3.602   5.526
 9037SOL    HW128010   1.193   3.605   5.428
 9037SOL    HW228011   1.257   3.515   5.548
 9038SOL     OW28012   4.782   6.956   6.134
 9038SOL    HW128013   4.805   6.976   6.229
 9038SOL    HW228014   4.784   0.011   6.080
 9039SOL     OW28015   2.761   4.687   4.487
 9039SOL    HW128016   2.715   4.765   4.444
 9039SOL    HW228017   2.698   4.609   4.492
 9040SOL     OW28018   2.738   1.751   2.426
 9040SOL    HW128019   2.667   1.788   2.485
 9040SOL    HW228020   2.828   1.764   2.468
 9041SOL     OW28021   0.752   2.327   2.000
 9041SOL    HW128022   0.720   2.373   1.918
 9041SOL    HW228023   0.733   2.384   2.080
 9042SOL     OW28024   3.219   0.002   3.779
 9042SOL    HW128025   3.235   7.016   3.681
 9042SOL    HW228026   3.130   0.047   3.791
 9043SOL     OW28027   2.517   1.338   6.259
 9043SOL    HW128028   2.431   1.346   6.310
 9043SOL    HW228029   2.564   1.254   6.287
 9044SOL     OW28030   5.625   1.460   1.717
 9044SOL    HW128031   5.718   1.495   1.720
 9044SOL    HW228032   5.575   1.506   1.643
 9045SOL     OW28033   3.316   1.794   2.340
 9045SOL    HW128034   3.394   1.833   2.389
 9045SOL    HW228035   3.284   1.859   2.271
 9046SOL     OW28036   3.532   3.865   4.665
 9046SOL    HW128037   3.624   3.827   4.679
 9046SOL    HW228038   3.533   3.962   4.688
 9047SOL     OW28039   1.000   2.947   5.324
 9047SOL    HW128040   1.067   2.874   5.306
 9047SOL    HW228041   1.047   3.025   5.365
 9048SOL     OW28042   6.260   2.631   6.057
 9048SOL    HW128043   6.186   2.565   6.074
 9048SOL    HW228044   6.261   2.699   6.130
 9049SOL     OW28045   4.056   0.242   6.396
 9049SOL    HW128046   4.108   0.271   6.316
 9049SOL    HW228047   4.028   0.323   6.448
 9050SOL     OW28048   0.270   4.504   5.799
 9050SOL    HW128049   0.253   4.428   5.736
 9050SOL    HW228050   0.326   4.573   5.753
 9051SOL     OW28051   4.060   6.204   0.821
 9051SOL    HW128052   3.992   6.252   0.765
 9051SOL    HW228053   4.033   6.108   0.830
 9052SOL     OW28054   1.936   2.135   2.930
 9052SOL    HW128055   1.886   2.143   3.017
 9052SOL    HW228056   2.029   2.168   2.942
 9053SOL     OW28057   1.518   1.240   2.849
 9053SOL    HW128058   1.584   1.227   2.775
 9053SOL    HW228059   1.426   1.251   2.812
 9054SOL     OW28060   1.481   0.163   1.951
 9054SOL    HW128061   1.572   0.121   1.956
 9054SOL    HW228062   1.415   0.096   1.916
 9055SOL     OW28063   6.579   3.637   3.681
 9055SOL    HW128064   6.610   3.612   3.589
 9055SOL    HW228065   6.582   3.736   3.691
 9056SOL     OW28066   6.179   0.370   1.715
 9056SOL    HW128067   6.111   0.350   1.645
 9056SOL    HW228068   6.225   0.286   1.742
 9057SOL     OW28069   5.639   5.048   5.613
 9057SOL    HW128070   5.643   4.971   5.549
 9057SOL    HW228071   5.703   5.033   5.688
 9058SOL     OW28072   2.094   1.960   3.671
 9058SOL    HW128073   2.168   1.907   3.631
 9058SOL    HW228074   2.071   1.923   3.761
 9059SOL     OW28075   1.294   1.186   4.621
 9059SOL    HW128076   1.288   1.286   4.625
 9059SOL    HW228077   1.290   1.156   4.526
 9060SOL     OW28078   6.862   2.511   2.362
 9060SOL    HW128079   6.940   2.556   2.317
 9060SOL    HW228080   6.837   2.561   2.444
 9061SOL     OW28081   3.188   5.769   2.373
 9061SOL    HW128082   3.270   5.816   2.404
 9061SOL    HW228083   3.174   5.787   2.275
 9062SOL     OW28084   1.559   5.580   2.277
 9062SOL    HW128085   1.513   5.547   2.359
 9062SOL    HW228086   1.493   5.590   2.203
 9063SOL     OW28087   2.172   6.577   2.688
 9063SOL    HW128088   2.145   6.665   2.649
 9063SOL    HW228089   2.227   6.527   2.621
 9064SOL     OW28090   6.113   3.905   5.603
 9064SOL    HW128091   6.112   3.984   5.541
 9064SOL    HW228092   6.123   3.821   5.550
 9065SOL     OW28093   3.190   6.152   6.529
 9065SOL    HW128094   3.197   6.192   6.438
 9065SOL    HW228095   3.144   6.216   6.590
 9066SOL     OW28096   5.952   0.581   0.239
 9066SOL    HW128097   5.935   0.631   0.154
 9066SOL    HW228098   6.036   0.615   0.281
 9067SOL     OW28099   6.398   0.223   4.282
 9067SOL    HW128100   6.315   0.271   4.310
 9067SOL    HW228101   6.432   0.262   4.196
 9068SOL     OW28102   3.027   0.592   5.332
 9068SOL    HW128103   2.951   0.542   5.293
 9068SOL    HW228104   3.113   0.560   5.293
 9069SOL     OW28105   2.868   2.171   1.777
 9069SOL    HW128106   2.858   2.089   1.834
 9069SOL    HW228107   2.919   2.241   1.827
 9070SOL     OW28108   0.950   3.271   5.630
 9070SOL    HW128109   0.978   3.361   5.663
 9070SOL    HW228110   1.008   3.243   5.554
 9071SOL     OW28111   5.387   0.091   0.551
 9071SOL    HW128112   5.436   0.104   0.464
 9071SOL    HW228113   5.424   0.011   0.598
 9072SOL     OW28114   6.061   0.939   1.942
 9072SOL    HW128115   5.995   0.991   1.997
 9072SOL    HW228116   6.151   0.942   1.987
 9073SOL     OW28117   3.287   6.423   0.650
 9073SOL    HW128118   3.329   6.501   0.696
 9073SOL    HW228119   3.189   6.422   0.669
 9074SOL     OW28120   2.015   0.832   2.042
 9074SOL    HW128121   2.094   0.794   1.992
 9074SOL    HW228122   2.008   0.787   2.131
 9075SOL     OW28123   0.914   0.755   2.068
 9075SOL    HW128124   0.877   0.846   2.086
 9075SOL    HW228125   0.845   0.700   2.020
 9076SOL     OW28126   5.805   1.781   4.698
 9076SOL    HW128127   5.831   1.852   4.764
 9076SOL    HW228128   5.831   1.692   4.734
 9077SOL     OW28129   5.545   0.355   6.676
 9077SOL    HW128130   5.531   0.350   6.775
 9077SOL    HW228131   5.634   0.315   6.653
 9078SOL     OW28132   4.407   3.709   6.641
 9078SOL    HW128133   4.501   3.742   6.633
 9078SOL    HW228134   4.409   3.611   6.660
 9079SOL     OW28135   2.603   6.238   3.966
 9079SOL    HW128136   2.689   6.289   3.968
 9079SOL    HW228137   2.546   6.271   3.891
 9080SOL     OW28138   5.493   2.049   0.446
 9080SOL    HW128139   5.449   1.977   0.500
 9080SOL    HW228140   5.582   2.071   0.485
 9081SOL     OW28141   4.433   6.458   2.758
 9081SOL    HW128142   4.357   6.522   2.773
 9081SOL    HW228143   4.450   6.449   2.660
 9082SOL     OW28144   2.963   6.603   5.479
 9082SOL    HW128145   3.008   6.618   5.566
 9082SOL    HW228146   2.866   6.626   5.488
 9083SOL     OW28147   3.893   4.429   5.884
 9083SOL    HW128148   3.967   4.419   5.950
 9083SOL    HW228149   3.912   4.375   5.803
 9084SOL     OW28150   3.244   3.354   5.538
 9084SOL    HW128151   3.291   3.434   5.502
 9084SOL    HW228152   3.309   3.295   5.586
 9085SOL     OW28153   1.780   4.502   0.874
 9085SOL    HW128154   1.763   4.585   0.927
 9085SOL    HW228155   1.770   4.422   0.934
 9086SOL     OW28156   0.607   4.617   0.481
 9086SOL    HW128157   0.634   4.618   0.578
 9086SOL    HW228158   0.687   4.595   0.425
 9087SOL     OW28159   4.400   2.346   2.150
 9087SOL    HW128160   4.365   2.318   2.239
 9087SOL    HW228161   4.337   2.316   2.078
 9088SOL     OW28162   5.974   6.178   0.920
 9088SOL    HW128163   5.917   6.246   0.875
 9088SOL    HW228164   6.065   6.216   0.937
 9089SOL     OW28165   5.037   6.247   4.842
 9089SOL    HW128166   4.985   6.233   4.757
 9089SOL    HW228167   5.068   6.342   4.846
 9090SOL     OW28168   6.757   6.395   3.608
 9090SOL    HW128169   6.741   6.478   3.555
 9090SOL    HW228170   6.855   6.386   3.627
 9091SOL     OW28171   3.186   3.615   0.853
 9091SOL    HW128172   3.095   3.579   0.834
 9091SOL    HW228173   3.186   3.715   0.841
 9092SOL     OW28174   0.299   2.183   1.152
 9092SOL    HW128175   0.222   2.167   1.091
 9092SOL    HW228176   0.383   2.188   1.098
 9093SOL     OW28177   1.359   6.309   6.511
 9093SOL    HW128178   1.450   6.330   6.548
 9093SOL    HW228179   1.367   6.237   6.442
 9094SOL     OW28180   6.042   5.510   2.968
 9094SOL    HW128181   6.007   5.438   2.907
 9094SOL    HW228182   5.977   5.586   2.971
 9095SOL     OW28183   4.518   3.950   6.389
 9095SOL    HW128184   4.429   3.910   6.367
 9095SOL    HW228185   4.588   3.906   6.333
 9096SOL     OW28186   5.568   3.888   2.082
 9096SOL    HW128187   5.523   3.853   2.000
 9096SOL    HW228188   5.594   3.812   2.142
 9097SOL     OW28189   0.967   1.995   6.772
 9097SOL    HW128190   0.975   1.896   6.785
 9097SOL    HW228191   0.965   2.040   6.861
 9098SOL     OW28192   3.612   2.109   6.294
 9098SOL    HW128193   3.645   2.190   6.342
 9098SOL    HW228194   3.653   2.106   6.203
 9099SOL     OW28195   2.791   2.688   6.239
 9099SOL    HW128196   2.858   2.618   6.213
 9099SOL    HW228197   2.760   2.671   6.332
 9100SOL     OW28198   0.405   3.933   3.973
 9100SOL    HW128199   0.448   3.945   4.062
 9100SOL    HW228200   0.467   3.965   3.901
 9101SOL     OW28201   2.173   2.215   3.004
 9101SOL    HW128202   2.195   2.185   3.097
 9101SOL    HW228203   2.160   2.314   3.003
 9102SOL     OW28204   2.586   0.104   1.409
 9102SOL    HW128205   2.557   0.033   1.473
 9102SOL    HW228206   2.686   0.107   1.407
 9103SOL     OW28207   6.411   3.278   6.641
 9103SOL    HW128208   6.405   3.373   6.671
 9103SOL    HW228209   6.356   3.220   6.701
 9104SOL     OW28210   6.749   6.268   1.991
 9104SOL    HW128211   6.653   6.241   1.979
 9104SOL    HW228212   6.764   6.297   2.086
 9105SOL     OW28213   1.480   1.544   6.819
 9105SOL    HW128214   1.409   1.614   6.809
 9105SOL    HW228215   1.551   1.577   6.881
 9106SOL     OW28216   7.012   3.250   0.036
 9106SOL    HW128217   0.074   3.289   0.050
 9106SOL    HW228218   7.019   3.150   0.027
 9107SOL     OW28219   3.499   1.136   6.275
 9107SOL    HW128220   3.446   1.178   6.349
 9107SOL    HW228221   3.520   1.205   6.206
 9108SOL     OW28222   4.893   4.101   5.704
 9108SOL    HW128223   4.981   4.053   5.709
 9108SOL    HW228224   4.831   4.064   5.774
 9109SOL     OW28225   6.595   2.269   2.875
 9109SOL    HW128226   6.599   2.369   2.866
 9109SOL    HW228227   6.500   2.239   2.871
 9110SOL     OW28228   2.060   4.364   3.987
 9110SOL    HW128229   2.078   4.271   4.018
 9110SOL    HW228230   2.067   4.368   3.887
 9111SOL     OW28231   4.871   1.917   0.589
 9111SOL    HW128232   4.924   1.894   0.508
 9111SOL    HW228233   4.922   1.894   0.672
 9112SOL     OW28234   0.623   5.174   3.717
 9112SOL    HW128235   0.690   5.134   3.779
 9112SOL    HW228236   0.532   5.136   3.736
 9113SOL     OW28237   4.839   1.216   2.859
 9113SOL    HW128238   4.851   1.116   2.859
 9113SOL    HW228239   4.927   1.260   2.840
 9114SOL     OW28240   0.358   4.451   2.026
 9114SOL    HW128241   0.456   4.466   2.040
 9114SOL    HW228242   0.319   4.405   2.106
 9115SOL     OW28243   0.483   5.904   4.442
 9115SOL    HW128244   0.445   5.883   4.352
 9115SOL    HW228245   0.430   5.856   4.513
 9116SOL     OW28246   6.671   1.085   1.932
 9116SOL    HW128247   6.684   1.177   1.895
 9116SOL    HW228248   6.618   1.030   1.866
 9117SOL     OW28249   5.706   2.384   0.682
 9117SOL    HW128250   5.791   2.364   0.633
 9117SOL    HW228251   5.680   2.479   0.666
 9118SOL     OW28252   6.620   3.625   0.001
 9118SOL    HW128253   6.662   3.692   6.969
 9118SOL    HW228254   6.680   3.545   0.009
 9119SOL     OW28255   4.659   0.189   2.531
 9119SOL    HW128256   4.632   0.096   2.554
 9119SOL    HW228257   4.687   0.237   2.615
 9120SOL     OW28258   6.357   1.756   5.889
 9120SOL    HW128259   6.358   1.855   5.873
 9120SOL    HW228260   6.323   1.738   5.981
 9121SOL     OW28261   4.414   1.099   4.765
 9121SOL    HW128262   4.384   1.012   4.805
 9121SOL    HW228263   4.474   1.080   4.687
 9122SOL     OW28264   2.265   4.071   2.254
 9122SOL    HW128265   2.268   3.977   2.220
 9122SOL    HW228266   2.356   4.096   2.289
 9123SOL     OW28267   2.773   0.637   3.300
 9123SOL    HW128268   2.699   0.703   3.309
 9123SOL    HW228269   2.858   0.677   3.334
 9124SOL     OW28270   5.472   6.624   0.206
 9124SOL    HW128271   5.537   6.549   0.222
 9124SOL    HW228272   5.379   6.588   0.200
 9125SOL     OW28273   5.045   4.395   0.461
 9125SOL    HW128274   4.988   4.314   0.446
 9125SOL    HW228275   4.990   4.467   0.502
 9126SOL     OW28276   6.059   3.362   1.260
 9126SOL    HW128277   6.141   3.331   1.308
 9126SOL    HW228278   6.086   3.424   1.186
 9127SOL     OW28279   6.970   1.570   6.284
 9127SOL    HW128280   6.941   1.657   6.325
 9127SOL    HW228281   6.955   1.573   6.185
 9128SOL     OW28282   6.184   2.384   5.267
 9128SOL    HW128283   6.219   2.469   5.308
 9128SOL    HW228284   6.221   2.374   5.174
 9129SOL     OW28285   0.326   2.352   0.443
 9129SOL    HW128286   0.271   2.269   0.431
 9129SOL    HW228287   0.408   2.347   0.386
 9130SOL     OW28288   0.498   3.286   6.085
 9130SOL    HW128289   0.559   3.282   6.006
 9130SOL    HW228290   0.405   3.262   6.056
 9131SOL     OW28291   5.702   2.817   5.570
 9131SOL    HW128292   5.799   2.839   5.578
 9131SOL    HW228293   5.651   2.866   5.641
 9132SOL     OW28294   0.403   5.737   4.181
 9132SOL    HW128295   0.375   5.646   4.152
 9132SOL    HW228296   0.328   5.801   4.165
 9133SOL     OW28297   3.891   6.779   1.896
 9133SOL    HW128298   3.891   6.679   1.909
 9133SOL    HW228299   3.932   6.800   1.807
 9134SOL     OW28300   3.668   5.949   1.230
 9134SOL    HW128301   3.599   5.993   1.288
 9134SOL    HW228302   3.629   5.928   1.141
 9135SOL     OW28303   6.296   6.697   1.600
 9135SOL    HW128304   6.343   6.678   1.686
 9135SOL    HW228305   6.342   6.648   1.526
 9136SOL     OW28306   5.140   6.084   0.013
 9136SOL    HW128307   5.104   6.139   6.966
 9136SOL    HW228308   5.065   6.055   0.072
 9137SOL     OW28309   5.162   1.524   0.865
 9137SOL    HW128310   5.117   1.458   0.926
 9137SOL    HW228311   5.258   1.533   0.891
 9138SOL     OW28312   0.258   5.922   6.447
 9138SOL    HW128313   0.253   5.995   6.378
 9138SOL    HW228314   0.208   5.950   6.529
 9139SOL     OW28315   1.825   1.795   2.917
 9139SOL    HW128316   1.919   1.785   2.951
 9139SOL    HW228317   1.823   1.861   2.842
 9140SOL     OW28318   6.928   3.379   2.489
 9140SOL    HW128319   6.848   3.323   2.467
 9140SOL    HW228320   6.992   3.326   2.544
 9141SOL     OW28321   5.412   0.083   1.038
 9141SOL    HW128322   5.316   0.056   1.031
 9141SOL    HW228323   5.419   0.183   1.046
 9142SOL     OW28324   0.534   2.865   0.800
 9142SOL    HW128325   0.589   2.887   0.880
 9142SOL    HW228326   0.447   2.915   0.804
 9143SOL     OW28327   6.691   3.106   0.480
 9143SOL    HW128328   6.679   3.066   0.389
 9143SOL    HW228329   6.602   3.134   0.515
 9144SOL     OW28330   2.649   5.157   4.881
 9144SOL    HW128331   2.578   5.176   4.948
 9144SOL    HW228332   2.646   5.061   4.855
 9145SOL     OW28333   0.371   5.288   6.933
 9145SOL    HW128334   0.468   5.267   6.920
 9145SOL    HW228335   0.348   5.372   6.884
 9146SOL     OW28336   5.472   3.149   3.887
 9146SOL    HW128337   5.447   3.245   3.877
 9146SOL    HW228338   5.479   3.106   3.797
 9147SOL     OW28339   5.925   6.474   5.561
 9147SOL    HW128340   5.921   6.555   5.504
 9147SOL    HW228341   5.996   6.412   5.527
 9148SOL     OW28342   4.931   6.178   1.546
 9148SOL    HW128343   4.939   6.112   1.621
 9148SOL    HW228344   4.960   6.268   1.578
 9149SOL     OW28345   5.717   3.908   2.713
 9149SOL    HW128346   5.664   3.838   2.664
 9149SOL    HW228347   5.814   3.898   2.690
 9150SOL     OW28348   3.197   5.207   0.757
 9150SOL    HW128349   3.111   5.233   0.715
 9150SOL    HW228350   3.201   5.240   0.851
 9151SOL     OW28351   1.724   4.453   3.554
 9151SOL    HW128352   1.781   4.528   3.521
 9151SOL    HW228353   1.660   4.488   3.623
 9152SOL     OW28354   2.220   3.964   4.455
 9152SOL    HW128355   2.211   3.978   4.554
 9152SOL    HW228356   2.242   3.868   4.437
 9153SOL     OW28357   0.202   2.858   6.896
 9153SOL    HW128358   0.249   2.929   6.843
 9153SOL    HW228359   0.146   2.901   6.967
 9154SOL     OW28360   5.561   4.802   6.046
 9154SOL    HW128361   5.617   4.749   5.983
 9154SOL    HW228362   5.617   4.873   6.090
 9155SOL     OW28363   1.636   3.890   2.633
 9155SOL    HW128364   1.589   3.803   2.616
 9155SOL    HW228365   1.592   3.938   2.709
 9156SOL     OW28366   0.900   2.279   0.940
 9156SOL    HW128367   0.993   2.241   0.930
 9156SOL    HW228368   0.852   2.230   1.012
 9157SOL     OW28369   2.194   4.185   6.262
 9157SOL    HW128370   2.283   4.230   6.269
 9157SOL    HW228371   2.133   4.221   6.332
 9158SOL     OW28372   6.173   3.191   4.562
 9158SOL    HW128373   6.204   3.275   4.519
 9158SOL    HW228374   6.073   3.186   4.556
 9159SOL     OW28375   1.670   0.769   2.318
 9159SOL    HW128376   1.620   0.682   2.307
 9159SOL    HW228377   1.634   0.818   2.398
 9160SOL     OW28378   0.147   6.717   6.419
 9160SOL    HW128379   0.103   6.680   6.501
 9160SOL    HW228380   0.243   6.690   6.418
 9161SOL     OW28381   5.079   5.233   4.050
 9161SOL    HW128382   5.166   5.246   4.097
 9161SOL    HW228383   5.004   5.244   4.116
 9162SOL     OW28384   4.172   0.653   3.633
 9162SOL    HW128385   4.177   0.652   3.733
 9162SOL    HW228386   4.225   0.577   3.596
 9163SOL     OW28387   0.254   2.245   4.359
 9163SOL    HW128388   0.319   2.319   4.373
 9163SOL    HW228389   0.197   2.265   4.279
 9164SOL     OW28390   1.658   0.753   0.058
 9164SOL    HW128391   1.737   0.703   0.093
 9164SOL    HW228392   1.614   0.699   7.016
 9165SOL     OW28393   6.022   1.559   5.801
 9165SOL    HW128394   5.945   1.619   5.821
 9165SOL    HW228395   6.087   1.608   5.742
 9166SOL     OW28396   3.859   6.404   1.220
 9166SOL    HW128397   3.846   6.324   1.279
 9166SOL    HW228398   3.864   6.486   1.276
 9167SOL     OW28399   2.063   2.302   6.061
 9167SOL    HW128400   2.106   2.297   6.151
 9167SOL    HW228401   2.055   2.398   6.033
 9168SOL     OW28402   6.270   6.316   6.131
 9168SOL    HW128403   6.294   6.302   6.035
 9168SOL    HW228404   6.218   6.237   6.164
 9169SOL     OW28405   6.711   6.663   6.890
 9169SOL    HW128406   6.697   6.745   6.834
 9169SOL    HW228407   6.759   6.688   6.974
 9170SOL     OW28408   1.651   0.394   6.759
 9170SOL    HW128409   1.710   0.432   6.687
 9170SOL    HW228410   1.695   0.315   6.800
 9171SOL     OW28411   3.207   5.864   0.638
 9171SOL    HW128412   3.264   5.789   0.671
 9171SOL    HW228413   3.234   5.949   0.684
 9172SOL     OW28414   4.878   1.145   3.725
 9172SOL    HW128415   4.824   1.099   3.654
 9172SOL    HW228416   4.956   1.088   3.750
 9173SOL     OW28417   5.960   4.839   5.779
 9173SOL    HW128418   5.979   4.795   5.691
 9173SOL    HW228419   6.046   4.859   5.825
 9174SOL     OW28420   6.774   5.336   0.496
 9174SOL    HW128421   6.807   5.243   0.477
 9174SOL    HW228422   6.813   5.399   0.429
 9175SOL     OW28423   1.779   5.854   6.416
 9175SOL    HW128424   1.823   5.914   6.349
 9175SOL    HW228425   1.758   5.905   6.499
 9176SOL     OW28426   2.378   0.931   2.163
 9176SOL    HW128427   2.432   0.848   2.150
 9176SOL    HW228428   2.289   0.906   2.203
 9177SOL     OW28429   0.863   3.900   4.119
 9177SOL    HW128430   0.838   3.914   4.024
 9177SOL    HW228431   0.948   3.846   4.124
 9178SOL     OW28432   2.172   4.682   6.538
 9178SOL    HW128433   2.172   4.681   6.638
 9178SOL    HW228434   2.111   4.754   6.506
 9179SOL     OW28435   2.227   5.552   4.094
 9179SOL    HW128436   2.218   5.652   4.084
 9179SOL    HW228437   2.226   5.528   4.191
 9180SOL     OW28438   6.303   2.319   3.410
 9180SOL    HW128439   6.381   2.261   3.385
 9180SOL    HW228440   6.336   2.400   3.458
 9181SOL     OW28441   6.297   2.426   4.504
 9181SOL    HW128442   6.311   2.511   4.555
 9181SOL    HW228443   6.383   2.398   4.462
 9182SOL     OW28444   2.744   6.922   2.841
 9182SOL    HW128445   2.819   6.951   2.900
 9182SOL    HW228446   2.693   6.848   2.886
 9183SOL     OW28447   4.551   4.931   6.784
 9183SOL    HW128448   4.527   4.929   6.687
 9183SOL    HW228449   4.611   4.854   6.805
 9184SOL     OW28450   4.226   2.757   1.425
 9184SOL    HW128451   4.229   2.662   1.391
 9184SOL    HW228452   4.160   2.809   1.372
 9185SOL     OW28453   6.505   6.624   4.907
 9185SOL    HW128454   6.467   6.712   4.879
 9185SOL    HW228455   6.603   6.633   4.923
 9186SOL     OW28456   5.688   0.117   4.734
 9186SOL    HW128457   5.750   0.116   4.813
 9186SOL    HW228458   5.705   0.035   4.678
 9187SOL     OW28459   3.864   1.629   0.008
 9187SOL    HW128460   3.956   1.593   0.025
 9187SOL    HW228461   3.815   1.567   6.976
 9188SOL     OW28462   2.171   0.189   1.541
 9188SOL    HW128463   2.212   0.110   1.495
 9188SOL    HW228464   2.085   0.213   1.497
 9189SOL     OW28465   3.530   5.817   2.305
 9189SOL    HW128466   3.484   5.729   2.297
 9189SOL    HW228467   3.480   5.876   2.368
 9190SOL     OW28468   0.760   3.002   5.182
 9190SOL    HW128469   0.857   2.985   5.201
 9190SOL    HW228470   0.706   2.923   5.211
 9191SOL     OW28471   5.941   1.031   6.862
 9191SOL    HW128472   6.036   1.018   6.890
 9191SOL    HW228473   5.927   0.988   6.773
 9192SOL     OW28474   6.862   2.453   6.247
 9192SOL    HW128475   6.801   2.401   6.187
 9192SOL    HW228476   6.815   2.473   6.333
 9193SOL     OW28477   3.569   3.219   4.551
 9193SOL    HW128478   3.561   3.177   4.460
 9193SOL    HW228479   3.647   3.283   4.551
 9194SOL     OW28480   3.249   0.625   2.889
 9194SOL    HW128481   3.169   0.565   2.878
 9194SOL    HW228482   3.288   0.613   2.980
 9195SOL     OW28483   1.502   3.237   2.759
 9195SOL    HW128484   1.509   3.204   2.853
 9195SOL    HW228485   1.474   3.333   2.760
 9196SOL     OW28486   5.712   6.284   3.955
 9196SOL    HW128487   5.792   6.225   3.959
 9196SOL    HW228488   5.675   6.297   4.047
 9197SOL     OW28489   3.071   4.785   0.696
 9197SOL    HW128490   3.040   4.874   0.662
 9197SOL    HW228491   3.109   4.796   0.788
 9198SOL     OW28492   6.530   4.387   6.685
 9198SOL    HW128493   6.487   4.302   6.717
 9198SOL    HW228494   6.503   4.463   6.744
 9199SOL     OW28495   0.070   3.024   5.465
 9199SOL    HW128496   0.049   3.107   5.516
 9199SOL    HW228497   0.100   2.952   5.527
 9200SOL     OW28498   2.770   5.866   5.836
 9200SOL    HW128499   2.816   5.785   5.800
 9200SOL    HW228500   2.776   5.866   5.936
 9201SOL     OW28501   0.015   3.208   6.598
 9201SOL    HW128502   6.944   3.203   6.611
 9201SOL    HW228503   0.047   3.299   6.622
 9202SOL     OW28504   1.087   5.358   4.222
 9202SOL    HW128505   1.150   5.284   4.197
 9202SOL    HW228506   1.071   5.417   4.143
 9203SOL     OW28507   6.277   2.867   6.180
 9203SOL    HW128508   6.206   2.938   6.173
 9203SOL    HW228509   6.364   2.905   6.149
 9204SOL     OW28510   4.894   3.641   4.480
 9204SOL    HW128511   4.827   3.569   4.499
 9204SOL    HW228512   4.906   3.697   4.561
 9205SOL     OW28513   5.037   5.530   2.811
 9205SOL    HW128514   5.079   5.465   2.874
 9205SOL    HW228515   4.964   5.580   2.857
 9206SOL     OW28516   3.174   6.389   3.575
 9206SOL    HW128517   3.155   6.444   3.494
 9206SOL    HW228518   3.249   6.431   3.627
 9207SOL     OW28519   4.242   4.812   0.061
 9207SOL    HW128520   4.255   4.883   0.130
 9207SOL    HW228521   4.236   4.722   0.106
 9208SOL     OW28522   5.694   4.096   2.439
 9208SOL    HW128523   5.735   4.121   2.526
 9208SOL    HW228524   5.630   4.020   2.453
 9209SOL     OW28525   4.741   0.846   1.487
 9209SOL    HW128526   4.813   0.887   1.543
 9209SOL    HW228527   4.658   0.901   1.494
 9210SOL     OW28528   1.360   1.369   1.045
 9210SOL    HW128529   1.351   1.280   1.000
 9210SOL    HW228530   1.438   1.366   1.107
 9211SOL     OW28531   5.907   2.779   6.408
 9211SOL    HW128532   5.926   2.870   6.444
 9211SOL    HW228533   5.814   2.753   6.431
 9212SOL     OW28534   4.949   4.352   4.285
 9212SOL    HW128535   5.035   4.400   4.269
 9212SOL    HW228536   4.968   4.260   4.318
 9213SOL     OW28537   5.119   5.122   4.436
 9213SOL    HW128538   5.175   5.176   4.372
 9213SOL    HW228539   5.178   5.068   4.495
 9214SOL     OW28540   0.244   3.122   5.125
 9214SOL    HW128541   0.331   3.162   5.155
 9214SOL    HW228542   0.174   3.138   5.195
 9215SOL     OW28543   1.707   4.297   2.721
 9215SOL    HW128544   1.620   4.346   2.718
 9215SOL    HW228545   1.702   4.223   2.788
 9216SOL     OW28546   2.552   6.575   3.662
 9216SOL    HW128547   2.546   6.674   3.653
 9216SOL    HW228548   2.647   6.546   3.655
 9217SOL     OW28549   6.472   2.853   6.726
 9217SOL    HW128550   6.488   2.787   6.652
 9217SOL    HW228551   6.553   2.857   6.784
 9218SOL     OW28552   3.983   1.107   0.225
 9218SOL    HW128553   3.958   1.175   0.156
 9218SOL    HW228554   4.028   1.153   0.302
 9219SOL     OW28555   4.671   4.086   6.580
 9219SOL    HW128556   4.603   4.062   6.511
 9219SOL    HW228557   4.625   4.121   6.662
 9220SOL     OW28558   0.926   6.500   2.085
 9220SOL    HW128559   0.925   6.488   2.184
 9220SOL    HW228560   0.874   6.426   2.042
 9221SOL     OW28561   2.464   0.210   3.908
 9221SOL    HW128562   2.543   0.151   3.926
 9221SOL    HW228563   2.418   0.180   3.824
 9222SOL     OW28564   2.446   5.513   5.327
 9222SOL    HW128565   2.456   5.612   5.342
 9222SOL    HW228566   2.350   5.493   5.307
 9223SOL     OW28567   1.176   2.612   4.529
 9223SOL    HW128568   1.258   2.665   4.509
 9223SOL    HW228569   1.100   2.673   4.550
 9224SOL     OW28570   1.482   5.103   3.525
 9224SOL    HW128571   1.577   5.098   3.497
 9224SOL    HW228572   1.425   5.050   3.462
 9225SOL     OW28573   3.232   5.808   5.812
 9225SOL    HW128574   3.323   5.769   5.798
 9225SOL    HW228575   3.176   5.744   5.864
 9226SOL     OW28576   0.612   6.688   1.526
 9226SOL    HW128577   0.654   6.767   1.481
 9226SOL    HW228578   0.659   6.671   1.613
 9227SOL     OW28579   2.200   5.885   1.058
 9227SOL    HW128580   2.144   5.932   1.126
 9227SOL    HW228581   2.220   5.948   0.983
 9228SOL     OW28582   2.699   1.636   0.020
 9228SOL    HW128583   2.618   1.642   0.079
 9228SOL    HW228584   2.675   1.669   6.957
 9229SOL     OW28585   1.019   4.597   5.374
 9229SOL    HW128586   0.993   4.682   5.420
 9229SOL    HW228587   1.049   4.530   5.442
 9230SOL     OW28588   5.136   2.853   3.866
 9230SOL    HW128589   5.124   2.941   3.821
 9230SOL    HW228590   5.061   2.792   3.841
 9231SOL     OW28591   1.133   3.155   5.446
 9231SOL    HW128592   1.112   3.215   5.368
 9231SOL    HW228593   1.216   3.103   5.426
 9232SOL     OW28594   2.982   5.294   6.763
 9232SOL    HW128595   2.888   5.294   6.729
 9232SOL    HW228596   3.018   5.388   6.761
 9233SOL     OW28597   6.543   6.454   0.933
 9233SOL    HW128598   6.545   6.354   0.939
 9233SOL    HW228599   6.632   6.490   0.960
 9234SOL     OW28600   2.937   5.772   0.697
 9234SOL    HW128601   3.019   5.828   0.682
 9234SOL    HW228602   2.950   5.715   0.778
 9235SOL     OW28603   2.113   2.343   3.587
 9235SOL    HW128604   2.123   2.375   3.492
 9235SOL    HW228605   2.183   2.387   3.644
 9236SOL     OW28606   1.831   4.168   6.739
 9236SOL    HW128607   1.902   4.238   6.746
 9236SOL    HW228608   1.747   4.210   6.705
 9237SOL     OW28609   0.820   5.904   2.838
 9237SOL    HW128610   0.803   5.999   2.810
 9237SOL    HW228611   0.776   5.886   2.925
 9238SOL     OW28612   2.615   3.085   6.400
 9238SOL    HW128613   2.643   3.113   6.491
 9238SOL    HW228614   2.693   3.047   6.351
 9239SOL     OW28615   0.315   3.789   5.757
 9239SOL    HW128616   0.312   3.725   5.833
 9239SOL    HW228617   0.332   3.739   5.672
 9240SOL     OW28618   4.851   2.977   2.292
 9240SOL    HW128619   4.944   2.966   2.257
 9240SOL    HW228620   4.789   2.996   2.216
 9241SOL     OW28621   7.000   5.156   0.210
 9241SOL    HW128622   6.979   5.059   0.219
 9241SOL    HW228623   6.917   5.206   0.184
 9242SOL     OW28624   1.229   3.882   0.944
 9242SOL    HW128625   1.132   3.890   0.968
 9242SOL    HW228626   1.282   3.952   0.991
 9243SOL     OW28627   6.959   0.079   1.240
 9243SOL    HW128628   7.006   7.026   1.206
 9243SOL    HW228629   6.959   0.149   1.169
 9244SOL     OW28630   3.290   5.916   6.138
 9244SOL    HW128631   3.350   5.948   6.211
 9244SOL    HW228632   3.251   5.827   6.164
 9245SOL     OW28633   0.818   5.161   4.160
 9245SOL    HW128634   0.720   5.145   4.148
 9245SOL    HW228635   0.835   5.259   4.166
 9246SOL     OW28636   6.308   6.994   3.051
 9246SOL    HW128637   6.354   6.972   2.965
 9246SOL    HW228638   6.255   6.916   3.083
 9247SOL     OW28639   2.319   5.829   3.386
 9247SOL    HW128640   2.243   5.791   3.439
 9247SOL    HW228641   2.284   5.868   3.301
 9248SOL     OW28642   2.932   1.955   4.260
 9248SOL    HW128643   2.972   2.043   4.285
 9248SOL    HW228644   2.832   1.961   4.268
 9249SOL     OW28645   3.764   4.911   1.011
 9249SOL    HW128646   3.798   4.969   1.084
 9249SOL    HW228647   3.744   4.820   1.048
 9250SOL     OW28648   5.375   3.454   4.775
 9250SOL    HW128649   5.280   3.458   4.745
 9250SOL    HW228650   5.385   3.504   4.861
 9251SOL     OW28651   4.104   1.865   2.933
 9251SOL    HW128652   4.109   1.868   2.833
 9251SOL    HW228653   4.190   1.832   2.970
 9252SOL     OW28654   5.556   0.607   4.832
 9252SOL    HW128655   5.513   0.540   4.771
 9252SOL    HW228656   5.655   0.592   4.833
 9253SOL     OW28657   5.333   5.477   5.757
 9253SOL    HW128658   5.251   5.504   5.706
 9253SOL    HW228659   5.354   5.381   5.739
 9254SOL     OW28660   5.141   5.337   2.965
 9254SOL    HW128661   5.240   5.350   2.970
 9254SOL    HW228662   5.121   5.244   2.935
 9255SOL     OW28663   4.874   3.662   0.372
 9255SOL    HW128664   4.885   3.748   0.321
 9255SOL    HW228665   4.962   3.636   0.412
 9256SOL     OW28666   3.477   0.224   2.418
 9256SOL    HW128667   3.518   0.314   2.434
 9256SOL    HW228668   3.408   0.230   2.346
 9257SOL     OW28669   0.020   4.525   3.454
 9257SOL    HW128670   6.997   4.441   3.472
 9257SOL    HW228671   6.985   4.599   3.433
 9258SOL     OW28672   3.895   3.573   2.407
 9258SOL    HW128673   3.831   3.505   2.370
 9258SOL    HW228674   3.878   3.661   2.363
 9259SOL     OW28675   0.710   1.943   0.825
 9259SOL    HW128676   0.803   1.935   0.863
 9259SOL    HW228677   0.689   2.040   0.811
 9260SOL     OW28678   6.142   2.079   5.155
 9260SOL    HW128679   6.115   1.984   5.145
 9260SOL    HW228680   6.155   2.121   5.065
 9261SOL     OW28681   3.393   1.491   0.588
 9261SOL    HW128682   3.436   1.460   0.673
 9261SOL    HW228683   3.416   1.587   0.572
 9262SOL     OW28684   6.674   5.676   5.095
 9262SOL    HW128685   6.749   5.612   5.107
 9262SOL    HW228686   6.630   5.660   5.006
 9263SOL     OW28687   4.421   0.465   1.970
 9263SOL    HW128688   4.328   0.429   1.964
 9263SOL    HW228689   4.471   0.415   2.041
 9264SOL     OW28690   4.997   4.762   0.378
 9264SOL    HW128691   4.968   4.702   0.453
 9264SOL    HW228692   4.993   4.712   0.292
 9265SOL     OW28693   3.492   2.569   6.821
 9265SOL    HW128694   3.556   2.638   6.789
 9265SOL    HW228695   3.498   2.488   6.763
 9266SOL     OW28696   1.005   5.875   0.741
 9266SOL    HW128697   1.068   5.829   0.679
 9266SOL    HW228698   0.997   5.823   0.826
 9267SOL     OW28699   0.643   1.835   4.697
 9267SOL    HW128700   0.558   1.878   4.670
 9267SOL    HW228701   0.656   1.750   4.645
 9268SOL     OW28702   1.071   6.214   2.750
 9268SOL    HW128703   0.975   6.185   2.747
 9268SOL    HW228704   1.130   6.134   2.756
 9269SOL     OW28705   4.314   1.204   6.631
 9269SOL    HW128706   4.339   1.150   6.551
 9269SOL    HW228707   4.228   1.252   6.613
 9270SOL     OW28708   4.788   6.462   6.052
 9270SOL    HW128709   4.769   6.427   5.960
 9270SOL    HW228710   4.738   6.548   6.065
 9271SOL     OW28711   6.064   0.354   0.720
 9271SOL    HW128712   6.146   0.318   0.676
 9271SOL    HW228713   6.058   0.453   0.705
 9272SOL     OW28714   0.860   5.706   5.416
 9272SOL    HW128715   0.793   5.701   5.342
 9272SOL    HW228716   0.812   5.706   5.504
 9273SOL     OW28717   5.992   6.307   2.732
 9273SOL    HW128718   5.940   6.266   2.807
 9273SOL    HW228719   5.974   6.406   2.729
 9274SOL     OW28720   6.660   1.474   0.642
 9274SOL    HW128721   6.710   1.393   0.610
 9274SOL    HW228722   6.589   1.445   0.706
 9275SOL     OW28723   6.236   1.368   6.999
 9275SOL    HW128724   6.208   1.319   0.053
 9275SOL    HW228725   6.240   1.305   6.922
 9276SOL     OW28726   1.623   3.940   1.495
 9276SOL    HW128727   1.642   3.997   1.575
 9276SOL    HW228728   1.655   3.847   1.512
 9277SOL     OW28729   4.337   4.583   0.676
 9277SOL    HW128730   4.317   4.516   0.747
 9277SOL    HW228731   4.261   4.587   0.611
 9278SOL     OW28732   1.831   0.271   5.942
 9278SOL    HW128733   1.928   0.252   5.958
 9278SOL    HW228734   1.810   0.259   5.845
 9279SOL     OW28735   3.000   0.625   1.603
 9279SOL    HW128736   3.062   0.704   1.609
 9279SOL    HW228737   3.044   0.554   1.548
 9280SOL     OW28738   2.188   1.890   2.143
 9280SOL    HW128739   2.196   1.791   2.129
 9280SOL    HW228740   2.092   1.915   2.157
 9281SOL     OW28741   2.885   4.069   6.770
 9281SOL    HW128742   2.819   3.994   6.776
 9281SOL    HW228743   2.856   4.143   6.830
 9282SOL     OW28744   5.437   0.467   3.458
 9282SOL    HW128745   5.371   0.493   3.528
 9282SOL    HW228746   5.514   0.531   3.459
 9283SOL     OW28747   4.876   0.679   3.971
 9283SOL    HW128748   4.806   0.735   3.927
 9283SOL    HW228749   4.967   0.712   3.946
 9284SOL     OW28750   2.953   3.166   5.314
 9284SOL    HW128751   2.972   3.183   5.411
 9284SOL    HW228752   2.876   3.103   5.306
 9285SOL     OW28753   5.258   2.895   0.935
 9285SOL    HW128754   5.337   2.906   0.875
 9285SOL    HW228755   5.211   2.984   0.945
 9286SOL     OW28756   5.462   5.814   0.604
 9286SOL    HW128757   5.456   5.905   0.646
 9286SOL    HW228758   5.543   5.808   0.547
 9287SOL     OW28759   3.471   5.157   6.579
 9287SOL    HW128760   3.571   5.153   6.577
 9287SOL    HW228761   3.440   5.178   6.672
 9288SOL     OW28762   4.406   1.163   2.920
 9288SOL    HW128763   4.404   1.151   3.019
 9288SOL    HW228764   4.325   1.215   2.891
 9289SOL     OW28765   4.389   0.511   1.477
 9289SOL    HW128766   4.380   0.413   1.464
 9289SOL    HW228767   4.402   0.531   1.574
 9290SOL     OW28768   5.423   0.431   3.179
 9290SOL    HW128769   5.439   0.438   3.277
 9290SOL    HW228770   5.503   0.468   3.130
 9291SOL     OW28771   1.259   4.915   5.752
 9291SOL    HW128772   1.251   4.883   5.846
 9291SOL    HW228773   1.259   5.015   5.750
 9292SOL     OW28774   2.006   2.561   6.006
 9292SOL    HW128775   1.985   2.601   6.096
 9292SOL    HW228776   2.091   2.599   5.972
 9293SOL     OW28777   5.971   3.012   6.553
 9293SOL    HW128778   5.980   3.109   6.530
 9293SOL    HW228779   5.984   3.001   6.652
 9294SOL     OW28780   5.051   0.313   6.015
 9294SOL    HW128781   5.107   0.236   5.983
 9294SOL    HW228782   5.088   0.399   5.980
 9295SOL     OW28783   5.438   0.835   5.173
 9295SOL    HW128784   5.369   0.907   5.166
 9295SOL    HW228785   5.510   0.852   5.106
 9296SOL     OW28786   1.226   5.563   6.469
 9296SOL    HW128787   1.190   5.566   6.562
 9296SOL    HW228788   1.317   5.605   6.467
 9297SOL     OW28789   1.225   6.709   3.220
 9297SOL    HW128790   1.211   6.722   3.121
 9297SOL    HW228791   1.247   6.797   3.262
 9298SOL     OW28792   1.205   6.264   6.889
 9298SOL    HW128793   1.142   6.203   6.938
 9298SOL    HW228794   1.163   6.295   6.804
 9299SOL     OW28795   0.387   1.803   4.481
 9299SOL    HW128796   0.345   1.819   4.391
 9299SOL    HW228797   0.476   1.760   4.468
 9300SOL     OW28798   0.764   4.571   5.602
 9300SOL    HW128799   0.830   4.626   5.653
 9300SOL    HW228800   0.671   4.602   5.623
 9301SOL     OW28801   5.539   5.292   5.076
 9301SOL    HW128802   5.562   5.199   5.103
 9301SOL    HW228803   5.459   5.323   5.128
 9302SOL     OW28804   2.171   3.060   4.080
 9302SOL    HW128805   2.188   3.082   4.175
 9302SOL    HW228806   2.186   2.962   4.065
 9303SOL     OW28807   2.985   3.760   0.419
 9303SOL    HW128808   2.948   3.836   0.472
 9303SOL    HW228809   2.974   3.675   0.471
 9304SOL     OW28810   4.033   4.514   1.617
 9304SOL    HW128811   4.017   4.417   1.636
 9304SOL    HW228812   4.119   4.524   1.566
 9305SOL     OW28813   3.789   1.528   1.023
 9305SOL    HW128814   3.734   1.603   0.987
 9305SOL    HW228815   3.784   1.529   1.123
 9306SOL     OW28816   1.185   3.975   5.199
 9306SOL    HW128817   1.155   3.895   5.251
 9306SOL    HW228818   1.271   3.955   5.152
 9307SOL     OW28819   0.825   4.008   0.929
 9307SOL    HW128820   0.902   4.062   0.893
 9307SOL    HW228821   0.854   3.913   0.940
 9308SOL     OW28822   1.541   3.845   0.639
 9308SOL    HW128823   1.509   3.928   0.592
 9308SOL    HW228824   1.557   3.773   0.572
 9309SOL     OW28825   3.583   5.427   6.232
 9309SOL    HW128826   3.592   5.335   6.193
 9309SOL    HW228827   3.566   5.493   6.160
 9310SOL     OW28828   5.606   5.931   5.698
 9310SOL    HW128829   5.660   6.008   5.732
 9310SOL    HW228830   5.548   5.961   5.622
 9311SOL     OW28831   4.894   4.940   1.196
 9311SOL    HW128832   4.806   4.914   1.237
 9311SOL    HW228833   4.957   4.862   1.200
 9312SOL     OW28834   1.429   3.611   1.691
 9312SOL    HW128835   1.353   3.661   1.649
 9312SOL    HW228836   1.452   3.652   1.779
 9313SOL     OW28837   6.964   0.376   1.617
 9313SOL    HW128838   6.904   0.306   1.657
 9313SOL    HW228839   7.006   0.340   1.534
 9314SOL     OW28840   6.407   4.217   0.031
 9314SOL    HW128841   6.426   4.229   6.963
 9314SOL    HW228842   6.333   4.278   0.059
 9315SOL     OW28843   0.079   0.117   5.620
 9315SOL    HW128844   7.023   0.169   5.626
 9315SOL    HW228845   0.157   0.178   5.637
 9316SOL     OW28846   5.585   6.580   5.932
 9316SOL    HW128847   5.507   6.517   5.924
 9316SOL    HW228848   5.661   6.546   5.877
 9317SOL     OW28849   4.412   5.795   3.810
 9317SOL    HW128850   4.490   5.750   3.855
 9317SOL    HW228851   4.426   5.894   3.811
 9318SOL     OW28852   6.246   0.968   6.375
 9318SOL    HW128853   6.331   0.991   6.328
 9318SOL    HW228854   6.186   0.917   6.313
 9319SOL     OW28855   2.207   3.359   0.823
 9319SOL    HW128856   2.204   3.419   0.903
 9319SOL    HW228857   2.143   3.283   0.836
 9320SOL     OW28858   3.816   0.743   5.036
 9320SOL    HW128859   3.858   0.829   5.063
 9320SOL    HW228860   3.887   0.676   5.017
 9321SOL     OW28861   1.138   0.184   5.249
 9321SOL    HW128862   1.208   0.147   5.187
 9321SOL    HW228863   1.051   0.138   5.233
 9322SOL     OW28864   7.023   4.036   6.332
 9322SOL    HW128865   0.081   4.076   6.360
 9322SOL    HW228866   6.963   4.027   6.411
 9323SOL     OW28867   1.156   1.062   5.044
 9323SOL    HW128868   1.080   1.105   5.092
 9323SOL    HW228869   1.133   0.968   5.021
 9324SOL     OW28870   1.351   4.502   2.090
 9324SOL    HW128871   1.415   4.578   2.080
 9324SOL    HW228872   1.351   4.447   2.007
 9325SOL     OW28873   6.200   0.293   6.954
 9325SOL    HW128874   6.227   0.293   6.858
 9325SOL    HW228875   6.101   0.304   6.961
 9326SOL     OW28876   2.831   4.507   0.304
 9326SOL    HW128877   2.850   4.442   0.230
 9326SOL    HW228878   2.917   4.535   0.346
 9327SOL     OW28879   4.813   0.305   2.320
 9327SOL    HW128880   4.776   0.243   2.389
 9327SOL    HW228881   4.910   0.319   2.337
 9328SOL     OW28882   2.059   1.101   4.279
 9328SOL    HW128883   1.962   1.079   4.268
 9328SOL    HW228884   2.115   1.031   4.235
 9329SOL     OW28885   5.805   3.900   1.263
 9329SOL    HW128886   5.759   3.922   1.177
 9329SOL    HW228887   5.829   3.803   1.265
 9330SOL     OW28888   6.864   0.297   5.392
 9330SOL    HW128889   6.806   0.377   5.412
 9330SOL    HW228890   6.807   0.222   5.359
 9331SOL     OW28891   2.748   0.932   6.487
 9331SOL    HW128892   2.735   1.000   6.415
 9331SOL    HW228893   2.659   0.909   6.527
 9332SOL     OW28894   3.305   4.581   0.295
 9332SOL    HW128895   3.395   4.582   0.253
 9332SOL    HW228896   3.280   4.674   0.323
 9333SOL     OW28897   3.881   5.227   6.354
 9333SOL    HW128898   3.837   5.316   6.340
 9333SOL    HW228899   3.980   5.236   6.343
 9334SOL     OW28900   5.029   6.813   4.517
 9334SOL    HW128901   4.973   6.882   4.563
 9334SOL    HW228902   5.041   6.838   4.421
 9335SOL     OW28903   1.344   1.623   6.291
 9335SOL    HW128904   1.304   1.531   6.301
 9335SOL    HW228905   1.289   1.689   6.343
 9336SOL     OW28906   4.053   0.450   4.543
 9336SOL    HW128907   3.972   0.399   4.570
 9336SOL    HW228908   4.131   0.388   4.532
 9337SOL     OW28909   4.589   0.773   5.034
 9337SOL    HW128910   4.605   0.822   5.120
 9337SOL    HW228911   4.514   0.818   4.984
 9338SOL     OW28912   6.245   0.083   1.270
 9338SOL    HW128913   6.165   0.094   1.212
 9338SOL    HW228914   6.313   0.027   1.223
 9339SOL     OW28915   5.976   7.007   6.934
 9339SOL    HW128916   6.043   7.019   6.861
 9339SOL    HW228917   6.020   7.023   7.023
 9340SOL     OW28918   4.206   4.943   3.480
 9340SOL    HW128919   4.164   4.923   3.569
 9340SOL    HW228920   4.135   4.948   3.410
 9341SOL     OW28921   5.615   5.056   1.324
 9341SOL    HW128922   5.631   4.963   1.356
 9341SOL    HW228923   5.672   5.073   1.243
 9342SOL     OW28924   3.189   6.938   4.149
 9342SOL    HW128925   3.219   0.003   4.129
 9342SOL    HW228926   3.092   6.939   4.171
 9343SOL     OW28927   4.786   4.280   2.175
 9343SOL    HW128928   4.837   4.194   2.180
 9343SOL    HW228929   4.712   4.271   2.108
 9344SOL     OW28930   5.443   6.563   1.538
 9344SOL    HW128931   5.443   6.545   1.440
 9344SOL    HW228932   5.506   6.638   1.558
 9345SOL     OW28933   6.650   5.233   1.140
 9345SOL    HW128934   6.606   5.257   1.054
 9345SOL    HW228935   6.678   5.137   1.137
 9346SOL     OW28936   4.938   1.144   1.972
 9346SOL    HW128937   4.859   1.111   2.024
 9346SOL    HW228938   4.910   1.161   1.877
 9347SOL     OW28939   3.314   4.368   0.505
 9347SOL    HW128940   3.297   4.427   0.426
 9347SOL    HW228941   3.410   4.344   0.509
 9348SOL     OW28942   2.955   5.833   2.464
 9348SOL    HW128943   2.944   5.844   2.563
 9348SOL    HW228944   3.048   5.803   2.443
 9349SOL     OW28945   6.004   5.048   1.995
 9349SOL    HW128946   6.019   5.142   2.025
 9349SOL    HW228947   5.922   5.043   1.938
 9350SOL     OW28948   6.458   2.173   5.161
 9350SOL    HW128949   6.368   2.151   5.199
 9350SOL    HW228950   6.525   2.178   5.235
 9351SOL     OW28951   3.485   6.637   5.870
 9351SOL    HW128952   3.484   6.552   5.819
 9351SOL    HW228953   3.481   6.618   5.968
 9352SOL     OW28954   3.335   1.632   6.197
 9352SOL    HW128955   3.270   1.601   6.127
 9352SOL    HW228956   3.318   1.582   6.282
 9353SOL     OW28957   0.612   4.617   0.779
 9353SOL    HW128958   0.583   4.543   0.840
 9353SOL    HW228959   0.597   4.705   0.825
 9354SOL     OW28960   0.334   2.052   6.089
 9354SOL    HW128961   0.265   2.014   6.027
 9354SOL    HW228962   0.355   1.986   6.161
 9355SOL     OW28963   0.597   1.413   4.304
 9355SOL    HW128964   0.654   1.389   4.225
 9355SOL    HW228965   0.612   1.345   4.377
 9356SOL     OW28966   4.635   6.011   2.219
 9356SOL    HW128967   4.631   6.040   2.124
 9356SOL    HW228968   4.730   5.996   2.246
 9357SOL     OW28969   2.396   3.404   6.697
 9357SOL    HW128970   2.445   3.413   6.784
 9357SOL    HW228971   2.297   3.404   6.713
 9358SOL     OW28972   6.599   3.391   2.748
 9358SOL    HW128973   6.629   3.391   2.844
 9358SOL    HW228974   6.639   3.470   2.701
 9359SOL     OW28975   0.782   3.571   5.602
 9359SOL    HW128976   0.866   3.545   5.651
 9359SOL    HW228977   0.796   3.659   5.557
 9360SOL     OW28978   1.513   5.390   6.803
 9360SOL    HW128979   1.537   5.402   6.707
 9360SOL    HW228980   1.576   5.443   6.861
 9361SOL     OW28981   1.179   6.190   2.362
 9361SOL    HW128982   1.224   6.114   2.409
 9361SOL    HW228983   1.084   6.197   2.394
 9362SOL     OW28984   2.127   3.488   3.098
 9362SOL    HW128985   2.143   3.431   3.018
 9362SOL    HW228986   2.140   3.584   3.074
 9363SOL     OW28987   3.803   6.862   2.156
 9363SOL    HW128988   3.831   6.837   2.063
 9363SOL    HW228989   3.778   6.780   2.207
 9364SOL     OW28990   4.302   3.272   6.409
 9364SOL    HW128991   4.252   3.191   6.442
 9364SOL    HW228992   4.397   3.267   6.440
 9365SOL     OW28993   2.443   1.981   4.843
 9365SOL    HW128994   2.538   1.950   4.853
 9365SOL    HW228995   2.382   1.902   4.842
 9366SOL     OW28996   3.337   6.366   6.068
 9366SOL    HW128997   3.410   6.371   6.000
 9366SOL    HW228998   3.334   6.451   6.121
 9367SOL     OW28999   0.207   6.373   2.596
 9367SOL    HW129000   0.226   6.471   2.599
 9367SOL    HW229001   0.108   6.359   2.607
 9368SOL     OW29002   2.969   1.251   2.852
 9368SOL    HW129003   2.888   1.309   2.867
 9368SOL    HW229004   2.987   1.245   2.754
 9369SOL     OW29005   6.342   6.467   5.048
 9369SOL    HW129006   6.419   6.510   5.001
 9369SOL    HW229007   6.260   6.523   5.037
 9370SOL     OW29008   5.003   0.604   3.102
 9370SOL    HW129009   5.018   0.591   3.004
 9370SOL    HW229010   4.906   0.618   3.119
 9371SOL     OW29011   2.708   5.227   0.168
 9371SOL    HW129012   2.714   5.133   0.135
 9371SOL    HW229013   2.620   5.242   0.213
 9372SOL     OW29014   5.806   6.499   2.421
 9372SOL    HW129015   5.799   6.509   2.521
 9372SOL    HW229016   5.717   6.473   2.384
 9373SOL     OW29017   4.944   2.209   3.016
 9373SOL    HW129018   4.901   2.281   3.070
 9373SOL    HW229019   5.023   2.246   2.967
 9374SOL     OW29020   0.490   3.716   0.356
 9374SOL    HW129021   0.507   3.635   0.413
 9374SOL    HW229022   0.479   3.687   0.261
 9375SOL     OW29023   0.532   1.205   2.335
 9375SOL    HW129024   0.446   1.174   2.375
 9375SOL    HW229025   0.608   1.185   2.397
 9376SOL     OW29026   2.722   4.214   1.360
 9376SOL    HW129027   2.642   4.204   1.419
 9376SOL    HW229028   2.698   4.191   1.266
 9377SOL     OW29029   2.212   5.465   4.411
 9377SOL    HW129030   2.187   5.370   4.432
 9377SOL    HW229031   2.308   5.480   4.431
 9378SOL     OW29032   1.742   1.255   4.132
 9378SOL    HW129033   1.815   1.319   4.111
 9378SOL    HW229034   1.683   1.244   4.052
 9379SOL     OW29035   4.269   6.421   5.738
 9379SOL    HW129036   4.196   6.361   5.770
 9379SOL    HW229037   4.315   6.378   5.660
 9380SOL     OW29038   5.117   5.509   4.646
 9380SOL    HW129039   5.138   5.417   4.678
 9380SOL    HW229040   5.021   5.514   4.619
 9381SOL     OW29041   3.437   2.537   6.058
 9381SOL    HW129042   3.444   2.447   6.015
 9381SOL    HW229043   3.438   2.527   6.157
 9382SOL     OW29044   3.813   0.860   3.619
 9382SOL    HW129045   3.834   0.885   3.713
 9382SOL    HW229046   3.737   0.915   3.585
 9383SOL     OW29047   0.455   5.409   4.607
 9383SOL    HW129048   0.426   5.391   4.701
 9383SOL    HW229049   0.389   5.470   4.562
 9384SOL     OW29050   4.071   0.449   2.217
 9384SOL    HW129051   4.030   0.388   2.284
 9384SOL    HW229052   4.163   0.475   2.246
 9385SOL     OW29053   4.537   1.136   3.493
 9385SOL    HW129054   4.575   1.205   3.432
 9385SOL    HW229055   4.469   1.178   3.553
 9386SOL     OW29056   1.803   6.152   5.278
 9386SOL    HW129057   1.863   6.102   5.217
 9386SOL    HW229058   1.740   6.208   5.223
 9387SOL     OW29059   2.899   1.716   6.623
 9387SOL    HW129060   2.949   1.683   6.543
 9387SOL    HW229061   2.960   1.715   6.702
 9388SOL     OW29062   3.159   5.962   2.687
 9388SOL    HW129063   3.082   5.918   2.733
 9388SOL    HW229064   3.238   5.963   2.748
 9389SOL     OW29065   2.215   6.840   3.473
 9389SOL    HW129066   2.255   6.932   3.480
 9389SOL    HW229067   2.176   6.814   3.561
 9390SOL     OW29068   5.007   4.787   5.982
 9390SOL    HW129069   5.037   4.880   6.000
 9390SOL    HW229070   5.023   4.765   5.886
 9391SOL     OW29071   2.353   1.709   5.294
 9391SOL    HW129072   2.410   1.628   5.312
 9391SOL    HW229073   2.350   1.767   5.376
 9392SOL     OW29074   5.953   6.046   5.062
 9392SOL    HW129075   5.854   6.033   5.056
 9392SOL    HW229076   5.972   6.138   5.098
 9393SOL     OW29077   3.110   6.306   6.777
 9393SOL    HW129078   3.083   6.284   6.871
 9393SOL    HW229079   3.086   6.401   6.756
 9394SOL     OW29080   6.739   0.841   1.519
 9394SOL    HW129081   6.837   0.849   1.536
 9394SOL    HW229082   6.724   0.806   1.427
 9395SOL     OW29083   2.724   1.756   1.125
 9395SOL    HW129084   2.746   1.762   1.027
 9395SOL    HW229085   2.774   1.680   1.165
 9396SOL     OW29086   2.301   4.166   4.049
 9396SOL    HW129087   2.269   4.071   4.054
 9396SOL    HW229088   2.302   4.205   4.141
 9397SOL     OW29089   4.963   0.230   6.270
 9397SOL    HW129090   4.914   0.145   6.289
 9397SOL    HW229091   4.980   0.237   6.172
 9398SOL     OW29092   6.996   1.416   4.845
 9398SOL    HW129093   7.022   1.510   4.864
 9398SOL    HW229094   0.006   1.388   4.757
 9399SOL     OW29095   0.853   2.576   5.783
 9399SOL    HW129096   0.828   2.669   5.808
 9399SOL    HW229097   0.902   2.577   5.695
 9400SOL     OW29098   4.700   0.665   1.683
 9400SOL    HW129099   4.754   0.710   1.754
 9400SOL    HW229100   4.694   0.725   1.603
 9401SOL     OW29101   6.500   0.788   3.758
 9401SOL    HW129102   6.575   0.788   3.691
 9401SOL    HW229103   6.536   0.807   3.849
 9402SOL     OW29104   1.435   5.013   2.727
 9402SOL    HW129105   1.458   4.980   2.819
 9402SOL    HW229106   1.402   5.107   2.732
 9403SOL     OW29107   6.826   0.964   2.805
 9403SOL    HW129108   6.737   0.920   2.805
 9403SOL    HW229109   6.822   1.049   2.859
 9404SOL     OW29110   0.997   3.368   0.487
 9404SOL    HW129111   1.085   3.333   0.457
 9404SOL    HW229112   0.947   3.297   0.536
 9405SOL     OW29113   2.541   4.521   3.791
 9405SOL    HW129114   2.549   4.552   3.696
 9405SOL    HW229115   2.597   4.579   3.849
 9406SOL     OW29116   6.712   2.574   6.001
 9406SOL    HW129117   6.782   2.637   6.035
 9406SOL    HW229118   6.645   2.625   5.947
 9407SOL     OW29119   3.169   5.024   3.560
 9407SOL    HW129120   3.209   5.097   3.614
 9407SOL    HW229121   3.154   4.944   3.618
 9408SOL     OW29122   6.523   2.969   6.159
 9408SOL    HW129123   6.536   2.962   6.060
 9408SOL    HW229124   6.612   2.957   6.205
 9409SOL     OW29125   5.938   5.778   0.228
 9409SOL    HW129126   5.900   5.865   0.197
 9409SOL    HW229127   6.035   5.790   0.250
 9410SOL     OW29128   2.521   0.494   1.806
 9410SOL    HW129129   2.512   0.580   1.856
 9410SOL    HW229130   2.435   0.443   1.812
 9411SOL     OW29131   3.354   3.301   2.342
 9411SOL    HW129132   3.358   3.372   2.272
 9411SOL    HW229133   3.259   3.272   2.355
 9412SOL     OW29134   0.726   1.115   2.937
 9412SOL    HW129135   0.720   1.034   2.879
 9412SOL    HW229136   0.637   1.131   2.980
 9413SOL     OW29137   4.101   5.815   3.610
 9413SOL    HW129138   4.132   5.768   3.692
 9413SOL    HW229139   4.141   5.773   3.529
 9414SOL     OW29140   2.846   1.012   2.927
 9414SOL    HW129141   2.796   0.974   2.849
 9414SOL    HW229142   2.905   1.086   2.896
 9415SOL     OW29143   2.557   7.025   2.311
 9415SOL    HW129144   2.488   7.028   2.239
 9415SOL    HW229145   2.607   6.938   2.306
 9416SOL     OW29146   6.926   2.152   0.332
 9416SOL    HW129147   7.013   2.144   0.382
 9416SOL    HW229148   6.881   2.063   0.330
 9417SOL     OW29149   4.471   0.437   0.521
 9417SOL    HW129150   4.472   0.386   0.607
 9417SOL    HW229151   4.563   0.466   0.497
 9418SOL     OW29152   3.278   0.431   1.061
 9418SOL    HW129153   3.311   0.492   1.133
 9418SOL    HW229154   3.258   0.341   1.100
 9419SOL     OW29155   2.932   4.590   5.599
 9419SOL    HW129156   2.918   4.503   5.647
 9419SOL    HW229157   2.877   4.661   5.641
 9420SOL     OW29158   5.656   4.268   5.756
 9420SOL    HW129159   5.743   4.308   5.787
 9420SOL    HW229160   5.665   4.169   5.752
 9421SOL     OW29161   2.522   6.141   4.237
 9421SOL    HW129162   2.565   6.191   4.162
 9421SOL    HW229163   2.588   6.079   4.278
 9422SOL     OW29164   2.955   5.414   2.735
 9422SOL    HW129165   2.936   5.469   2.816
 9422SOL    HW229166   2.929   5.319   2.752
 9423SOL     OW29167   2.832   6.476   3.711
 9423SOL    HW129168   2.861   6.384   3.683
 9423SOL    HW229169   2.853   6.489   3.808
 9424SOL     OW29170   5.098   2.509   5.020
 9424SOL    HW129171   5.069   2.586   4.963
 9424SOL    HW229172   5.121   2.542   5.112
 9425SOL     OW29173   5.710   3.933   1.016
 9425SOL    HW129174   5.635   3.997   1.031
 9425SOL    HW229175   5.766   3.965   0.940
 9426SOL     OW29176   3.742   1.775   6.101
 9426SOL    HW129177   3.782   1.795   6.190
 9426SOL    HW229178   3.814   1.749   6.037
 9427SOL     OW29179   2.429   5.207   3.111
 9427SOL    HW129180   2.361   5.277   3.131
 9427SOL    HW229181   2.448   5.154   3.194
 9428SOL     OW29182   6.995   1.156   1.357
 9428SOL    HW129183   0.048   1.204   1.326
 9428SOL    HW229184   7.008   1.123   1.450
 9429SOL     OW29185   2.194   3.987   2.938
 9429SOL    HW129186   2.253   4.055   2.982
 9429SOL    HW229187   2.193   4.002   2.839
 9430SOL     OW29188   0.256   3.675   4.212
 9430SOL    HW129189   0.205   3.755   4.243
 9430SOL    HW229190   0.331   3.656   4.276
 9431SOL     OW29191   6.385   3.862   0.902
 9431SOL    HW129192   6.468   3.908   0.932
 9431SOL    HW229193   6.387   3.766   0.931
 9432SOL     OW29194   5.465   0.063   3.469
 9432SOL    HW129195   5.502   0.110   3.549
 9432SOL    HW229196   5.444   6.997   3.493
 9433SOL     OW29197   3.058   5.941   3.057
 9433SOL    HW129198   3.048   5.893   2.970
 9433SOL    HW229199   3.143   5.994   3.056
 9434SOL     OW29200   5.217   5.738   2.499
 9434SOL    HW129201   5.251   5.742   2.405
 9434SOL    HW229202   5.261   5.662   2.547
 9435SOL     OW29203   0.582   2.717   4.103
 9435SOL    HW129204   0.632   2.672   4.178
 9435SOL    HW229205   0.646   2.767   4.045
 9436SOL     OW29206   1.757   2.739   1.416
 9436SOL    HW129207   1.667   2.733   1.460
 9436SOL    HW229208   1.828   2.738   1.487
 9437SOL     OW29209   1.206   5.591   2.987
 9437SOL    HW129210   1.293   5.639   2.978
 9437SOL    HW229211   1.136   5.636   2.932
 9438SOL     OW29212   0.753   6.915   1.395
 9438SOL    HW129213   0.814   6.879   1.465
 9438SOL    HW229214   0.781   6.881   1.305
 9439SOL     OW29215   0.108   3.079   0.525
 9439SOL    HW129216   0.186   3.070   0.463
 9439SOL    HW229217   0.060   2.992   0.529
 9440SOL     OW29218   3.920   4.911   3.380
 9440SOL    HW129219   3.869   4.881   3.299
 9440SOL    HW229220   3.862   4.901   3.461
 9441SOL     OW29221   5.920   4.340   5.802
 9441SOL    HW129222   5.920   4.390   5.889
 9441SOL    HW229223   6.006   4.289   5.794
 9442SOL     OW29224   4.411   3.433   1.087
 9442SOL    HW129225   4.323   3.393   1.112
 9442SOL    HW229226   4.477   3.417   1.161
 9443SOL     OW29227   2.670   5.218   1.030
 9443SOL    HW129228   2.642   5.217   0.934
 9443SOL    HW229229   2.736   5.291   1.044
 9444SOL     OW29230   1.186   3.321   1.201
 9444SOL    HW129231   1.281   3.311   1.174
 9444SOL    HW229232   1.178   3.392   1.271
 9445SOL     OW29233   5.999   2.976   2.873
 9445SOL    HW129234   6.040   2.888   2.847
 9445SOL    HW229235   6.037   3.049   2.816
 9446SOL     OW29236   6.224   5.778   4.230
 9446SOL    HW129237   6.145   5.838   4.237
 9446SOL    HW229238   6.227   5.738   4.138
 9447SOL     OW29239   5.737   4.873   3.339
 9447SOL    HW129240   5.759   4.913   3.250
 9447SOL    HW229241   5.773   4.931   3.412
 9448SOL     OW29242   6.989   0.201   6.731
 9448SOL    HW129243   7.028   0.128   6.675
 9448SOL    HW229244   6.963   0.164   6.820
 9449SOL     OW29245   5.939   0.310   6.948
 9449SOL    HW129246   5.894   0.382   6.894
 9449SOL    HW229247   5.901   0.221   6.924
 9450SOL     OW29248   1.843   5.682   4.220
 9450SOL    HW129249   1.889   5.660   4.306
 9450SOL    HW229250   1.907   5.728   4.158
 9451SOL     OW29251   4.473   0.279   5.833
 9451SOL    HW129252   4.467   0.373   5.801
 9451SOL    HW229253   4.555   0.236   5.796
 9452SOL     OW29254   1.721   3.977   0.206
 9452SOL    HW129255   1.789   3.972   0.132
 9452SOL    HW229256   1.677   3.888   0.217
 9453SOL     OW29257   2.494   4.609   2.974
 9453SOL    HW129258   2.409   4.662   2.973
 9453SOL    HW229259   2.482   4.527   3.029
 9454SOL     OW29260   3.458   3.754   6.543
 9454SOL    HW129261   3.512   3.823   6.496
 9454SOL    HW229262   3.420   3.690   6.476
 9455SOL     OW29263   2.387   1.783   3.903
 9455SOL    HW129264   2.348   1.810   3.991
 9455SOL    HW229265   2.480   1.820   3.895
 9456SOL     OW29266   0.075   3.544   1.022
 9456SOL    HW129267   0.155   3.493   0.992
 9456SOL    HW229268   0.001   3.534   0.955
 9457SOL     OW29269   1.213   3.751   4.537
 9457SOL    HW129270   1.253   3.721   4.624
 9457SOL    HW229271   1.282   3.801   4.484
 9458SOL     OW29272   0.951   3.327   6.842
 9458SOL    HW129273   0.985   3.367   6.927
 9458SOL    HW229274   1.026   3.323   6.776
 9459SOL     OW29275   5.851   4.348   3.851
 9459SOL    HW129276   5.922   4.329   3.919
 9459SOL    HW229277   5.857   4.443   3.821
 9460SOL     OW29278   1.308   3.596   3.931
 9460SOL    HW129279   1.350   3.685   3.951
 9460SOL    HW229280   1.309   3.540   4.014
 9461SOL     OW29281   0.128   1.836   1.568
 9461SOL    HW129282   0.116   1.786   1.653
 9461SOL    HW229283   0.209   1.895   1.575
 9462SOL     OW29284   2.018   3.251   3.214
 9462SOL    HW129285   1.919   3.266   3.213
 9462SOL    HW229286   2.065   3.335   3.188
 9463SOL     OW29287   6.544   0.328   1.469
 9463SOL    HW129288   6.539   0.367   1.561
 9463SOL    HW229289   6.639   0.307   1.446
 9464SOL     OW29290   6.168   0.606   0.923
 9464SOL    HW129291   6.248   0.658   0.895
 9464SOL    HW229292   6.184   0.566   1.014
 9465SOL     OW29293   0.621   4.505   2.052
 9465SOL    HW129294   0.655   4.484   1.960
 9465SOL    HW229295   0.681   4.462   2.120
 9466SOL     OW29296   3.758   4.529   5.451
 9466SOL    HW129297   3.793   4.482   5.370
 9466SOL    HW229298   3.834   4.555   5.510
 9467SOL     OW29299   1.512   2.503   1.696
 9467SOL    HW129300   1.454   2.538   1.770
 9467SOL    HW229301   1.519   2.571   1.624
 9468SOL     OW29302   5.911   3.588   6.644
 9468SOL    HW129303   5.826   3.562   6.598
 9468SOL    HW229304   5.937   3.681   6.616
 9469SOL     OW29305   6.242   5.371   1.882
 9469SOL    HW129306   6.173   5.366   1.954
 9469SOL    HW229307   6.310   5.299   1.897
 9470SOL     OW29308   5.091   3.453   6.013
 9470SOL    HW129309   5.014   3.395   5.986
 9470SOL    HW229310   5.172   3.426   5.961
 9471SOL     OW29311   6.860   2.114   4.076
 9471SOL    HW129312   6.916   2.188   4.038
 9471SOL    HW229313   6.865   2.116   4.176
 9472SOL     OW29314   6.415   3.205   5.048
 9472SOL    HW129315   6.421   3.107   5.027
 9472SOL    HW229316   6.351   3.218   5.124
 9473SOL     OW29317   2.867   4.844   6.883
 9473SOL    HW129318   2.832   4.754   6.910
 9473SOL    HW229319   2.839   4.863   6.789
 9474SOL     OW29320   6.842   3.441   6.949
 9474SOL    HW129321   6.890   3.360   6.983
 9474SOL    HW229322   6.805   3.422   6.859
 9475SOL     OW29323   3.739   3.129   6.835
 9475SOL    HW129324   3.808   3.096   6.898
 9475SOL    HW229325   3.776   3.205   6.781
 9476SOL     OW29326   4.095   3.628   4.599
 9476SOL    HW129327   4.045   3.541   4.599
 9476SOL    HW229328   4.172   3.621   4.535
 9477SOL     OW29329   0.806   2.665   0.721
 9477SOL    HW129330   0.877   2.599   0.746
 9477SOL    HW229331   0.787   2.659   0.623
 9478SOL     OW29332   4.949   2.978   0.636
 9478SOL    HW129333   4.967   2.891   0.589
 9478SOL    HW229334   4.917   2.960   0.729
 9479SOL     OW29335   4.307   6.330   0.031
 9479SOL    HW129336   4.223   6.279   0.010
 9479SOL    HW229337   4.285   6.428   0.037
 9480SOL     OW29338   5.836   4.784   0.932
 9480SOL    HW129339   5.768   4.843   0.976
 9480SOL    HW229340   5.806   4.760   0.840
 9481SOL     OW29341   5.145   3.040   2.553
 9481SOL    HW129342   5.062   3.096   2.551
 9481SOL    HW229343   5.222   3.096   2.583
 9482SOL     OW29344   0.469   1.172   3.022
 9482SOL    HW129345   0.450   1.171   3.120
 9482SOL    HW229346   0.429   1.253   2.980
 9483SOL     OW29347   2.072   0.999   1.038
 9483SOL    HW129348   1.975   0.983   1.059
 9483SOL    HW229349   2.087   0.989   0.940
 9484SOL     OW29350   4.550   0.235   4.093
 9484SOL    HW129351   4.608   0.220   4.174
 9484SOL    HW229352   4.566   0.162   4.027
 9485SOL     OW29353   0.599   1.042   0.249
 9485SOL    HW129354   0.538   0.963   0.238
 9485SOL    HW229355   0.563   1.120   0.198
 9486SOL     OW29356   3.941   6.644   0.967
 9486SOL    HW129357   3.884   6.718   1.004
 9486SOL    HW229358   4.033   6.650   1.007
 9487SOL     OW29359   3.591   3.799   4.268
 9487SOL    HW129360   3.513   3.761   4.318
 9487SOL    HW229361   3.601   3.896   4.290
 9488SOL     OW29362   2.999   6.693   1.008
 9488SOL    HW129363   3.009   6.594   0.994
 9488SOL    HW229364   3.041   6.742   0.931
 9489SOL     OW29365   4.619   4.404   0.919
 9489SOL    HW129366   4.662   4.337   0.980
 9489SOL    HW229367   4.643   4.497   0.949
 9490SOL     OW29368   5.915   4.991   2.268
 9490SOL    HW129369   5.937   5.026   2.177
 9490SOL    HW229370   5.956   4.900   2.280
 9491SOL     OW29371   5.750   4.634   4.074
 9491SOL    HW129372   5.660   4.641   4.118
 9491SOL    HW229373   5.738   4.614   3.977
 9492SOL     OW29374   3.614   2.944   4.630
 9492SOL    HW129375   3.578   3.037   4.624
 9492SOL    HW229376   3.558   2.891   4.695
 9493SOL     OW29377   3.107   5.677   4.349
 9493SOL    HW129378   3.098   5.770   4.313
 9493SOL    HW229379   3.193   5.637   4.317
 9494SOL     OW29380   4.972   2.772   2.581
 9494SOL    HW129381   4.913   2.847   2.551
 9494SOL    HW229382   5.057   2.809   2.620
 9495SOL     OW29383   6.429   1.405   3.500
 9495SOL    HW129384   6.469   1.484   3.546
 9495SOL    HW229385   6.331   1.401   3.520
 9496SOL     OW29386   5.877   3.584   1.282
 9496SOL    HW129387   5.951   3.598   1.216
 9496SOL    HW229388   5.880   3.490   1.316
 9497SOL     OW29389   5.864   6.788   5.766
 9497SOL    HW129390   5.782   6.735   5.743
 9497SOL    HW229391   5.945   6.731   5.752
 9498SOL     OW29392   4.671   6.796   4.572
 9498SOL    HW129393   4.661   6.797   4.671
 9498SOL    HW229394   4.678   6.890   4.538
 9499SOL     OW29395   2.074   4.500   6.308
 9499SOL    HW129396   2.049   4.420   6.363
 9499SOL    HW229397   2.088   4.579   6.368
 9500SOL     OW29398   5.047   0.085   1.034
 9500SOL    HW129399   5.100   0.016   0.984
 9500SOL    HW229400   4.953   0.053   1.044
 9501SOL     OW29401   2.710   1.138   4.908
 9501SOL    HW129402   2.715   1.227   4.952
 9501SOL    HW229403   2.742   1.146   4.813
 9502SOL     OW29404   5.411   3.001   4.977
 9502SOL    HW129405   5.400   2.910   5.016
 9502SOL    HW229406   5.327   3.027   4.928
 9503SOL     OW29407   0.846   1.817   1.538
 9503SOL    HW129408   0.841   1.749   1.612
 9503SOL    HW229409   0.927   1.874   1.552
 9504SOL     OW29410   0.562   2.296   0.322
 9504SOL    HW129411   0.539   2.202   0.297
 9504SOL    HW229412   0.658   2.300   0.350
 9505SOL     OW29413   4.833   4.630   4.143
 9505SOL    HW129414   4.811   4.678   4.228
 9505SOL    HW229415   4.928   4.597   4.147
 9506SOL     OW29416   1.029   2.283   6.386
 9506SOL    HW129417   1.045   2.330   6.300
 9506SOL    HW229418   0.978   2.198   6.369
 9507SOL     OW29419   0.724   1.662   3.282
 9507SOL    HW129420   0.796   1.729   3.262
 9507SOL    HW229421   0.732   1.631   3.377
 9508SOL     OW29422   6.191   1.970   1.330
 9508SOL    HW129423   6.263   1.999   1.392
 9508SOL    HW229424   6.224   1.975   1.236
 9509SOL     OW29425   0.898   0.840   4.073
 9509SOL    HW129426   0.806   0.877   4.078
 9509SOL    HW229427   0.936   0.856   3.982
 9510SOL     OW29428   1.281   3.849   3.676
 9510SOL    HW129429   1.367   3.808   3.706
 9510SOL    HW229430   1.208   3.820   3.738
 9511SOL     OW29431   1.643   0.485   0.910
 9511SOL    HW129432   1.666   0.426   0.833
 9511SOL    HW229433   1.712   0.557   0.918
 9512SOL     OW29434   5.977   1.326   1.314
 9512SOL    HW129435   5.974   1.426   1.304
 9512SOL    HW229436   5.900   1.296   1.371
 9513SOL     OW29437   2.161   3.750   6.317
 9513SOL    HW129438   2.104   3.695   6.256
 9513SOL    HW229439   2.199   3.827   6.266
 9514SOL     OW29440   1.967   5.279   5.888
 9514SOL    HW129441   1.964   5.374   5.859
 9514SOL    HW229442   1.935   5.220   5.814
 9515SOL     OW29443   1.879   5.817   0.830
 9515SOL    HW129444   1.944   5.750   0.867
 9515SOL    HW229445   1.922   5.869   0.757
 9516SOL     OW29446   5.960   4.791   6.129
 9516SOL    HW129447   5.986   4.880   6.091
 9516SOL    HW229448   6.038   4.728   6.123
 9517SOL     OW29449   1.832   4.894   1.242
 9517SOL    HW129450   1.787   4.970   1.195
 9517SOL    HW229451   1.931   4.904   1.234
 9518SOL     OW29452   2.007   1.980   0.291
 9518SOL    HW129453   2.058   1.913   0.344
 9518SOL    HW229454   2.009   1.955   0.194
 9519SOL     OW29455   3.882   3.507   5.223
 9519SOL    HW129456   3.796   3.532   5.177
 9519SOL    HW229457   3.959   3.522   5.161
 9520SOL     OW29458   1.479   2.161   3.593
 9520SOL    HW129459   1.577   2.176   3.580
 9520SOL    HW229460   1.430   2.247   3.584
 9521SOL     OW29461   4.640   5.775   1.602
 9521SOL    HW129462   4.718   5.736   1.552
 9521SOL    HW229463   4.628   5.726   1.688
 9522SOL     OW29464   2.792   5.695   1.107
 9522SOL    HW129465   2.884   5.693   1.067
 9522SOL    HW229466   2.794   5.748   1.192
 9523SOL     OW29467   2.534   4.599   4.817
 9523SOL    HW129468   2.470   4.564   4.885
 9523SOL    HW229469   2.623   4.617   4.860
 9524SOL     OW29470   3.276   3.009   1.581
 9524SOL    HW129471   3.324   2.935   1.629
 9524SOL    HW229472   3.190   3.029   1.628
 9525SOL     OW29473   2.573   3.238   5.469
 9525SOL    HW129474   2.632   3.218   5.547
 9525SOL    HW229475   2.614   3.202   5.386
 9526SOL     OW29476   5.344   5.326   1.523
 9526SOL    HW129477   5.441   5.307   1.539
 9526SOL    HW229478   5.328   5.425   1.533
 9527SOL     OW29479   1.178   0.194   3.214
 9527SOL    HW129480   1.264   0.244   3.221
 9527SOL    HW229481   1.102   0.259   3.213
 9528SOL     OW29482   0.166   1.586   0.306
 9528SOL    HW129483   0.211   1.568   0.393
 9528SOL    HW229484   0.080   1.535   0.302
 9529SOL     OW29485   6.340   3.239   5.617
 9529SOL    HW129486   6.428   3.208   5.580
 9529SOL    HW229487   6.327   3.336   5.595
 9530SOL     OW29488   1.868   3.748   2.341
 9530SOL    HW129489   1.868   3.707   2.432
 9530SOL    HW229490   1.799   3.703   2.284
 9531SOL     OW29491   4.614   5.291   2.844
 9531SOL    HW129492   4.624   5.338   2.756
 9531SOL    HW229493   4.683   5.220   2.852
 9532SOL     OW29494   6.788   6.741   2.349
 9532SOL    HW129495   6.711   6.802   2.369
 9532SOL    HW229496   6.867   6.796   2.319
 9533SOL     OW29497   6.851   0.112   5.976
 9533SOL    HW129498   6.868   0.189   5.915
 9533SOL    HW229499   6.913   0.037   5.953
 9534SOL     OW29500   6.854   3.644   5.191
 9534SOL    HW129501   6.766   3.689   5.206
 9534SOL    HW229502   6.849   3.587   5.109
 9535SOL     OW29503   2.384   1.240   5.997
 9535SOL    HW129504   2.461   1.286   6.042
 9535SOL    HW229505   2.300   1.258   6.048
 9536SOL     OW29506   2.627   4.323   5.359
 9536SOL    HW129507   2.697   4.260   5.326
 9536SOL    HW229508   2.668   4.389   5.422
 9537SOL     OW29509   2.889   6.328   2.564
 9537SOL    HW129510   2.968   6.276   2.531
 9537SOL    HW229511   2.920   6.415   2.601
 9538SOL     OW29512   6.119   2.162   3.524
 9538SOL    HW129513   6.191   2.232   3.520
 9538SOL    HW229514   6.046   2.186   3.460
 9539SOL     OW29515   2.891   3.928   5.230
 9539SOL    HW129516   2.949   3.892   5.156
 9539SOL    HW229517   2.906   3.874   5.313
 9540SOL     OW29518   6.034   4.245   4.412
 9540SOL    HW129519   5.940   4.261   4.380
 9540SOL    HW229520   6.061   4.320   4.472
 9541SOL     OW29521   3.473   1.063   5.621
 9541SOL    HW129522   3.518   0.978   5.595
 9541SOL    HW229523   3.466   1.123   5.542
 9542SOL     OW29524   5.473   4.082   4.641
 9542SOL    HW129525   5.556   4.083   4.696
 9542SOL    HW229526   5.463   3.993   4.596
 9543SOL     OW29527   3.516   1.163   5.085
 9543SOL    HW129528   3.594   1.226   5.081
 9543SOL    HW229529   3.548   1.069   5.077
 9544SOL     OW29530   0.469   1.060   3.660
 9544SOL    HW129531   0.397   1.096   3.720
 9544SOL    HW229532   0.459   1.099   3.568
 9545SOL     OW29533   6.212   5.387   3.786
 9545SOL    HW129534   6.259   5.302   3.813
 9545SOL    HW229535   6.225   5.402   3.688
 9546SOL     OW29536   2.952   2.536   5.633
 9546SOL    HW129537   2.976   2.543   5.536
 9546SOL    HW229538   2.852   2.542   5.643
 9547SOL     OW29539   2.489   6.560   4.388
 9547SOL    HW129540   2.396   6.544   4.355
 9547SOL    HW229541   2.492   6.543   4.486
 9548SOL     OW29542   5.752   6.152   5.746
 9548SOL    HW129543   5.743   6.195   5.836
 9548SOL    HW229544   5.712   6.211   5.676
 9549SOL     OW29545   2.961   3.179   1.281
 9549SOL    HW129546   3.027   3.253   1.292
 9549SOL    HW229547   2.954   3.126   1.365
 9550SOL     OW29548   0.266   1.486   0.958
 9550SOL    HW129549   0.268   1.480   0.858
 9550SOL    HW229550   0.230   1.402   0.997
 9551SOL     OW29551   6.252   1.421   4.131
 9551SOL    HW129552   6.352   1.421   4.136
 9551SOL    HW229553   6.218   1.514   4.148
 9552SOL     OW29554   1.191   6.458   2.575
 9552SOL    HW129555   1.149   6.406   2.649
 9552SOL    HW229556   1.119   6.504   2.522
 9553SOL     OW29557   6.248   3.975   7.015
 9553SOL    HW129558   6.264   3.904   0.055
 9553SOL    HW229559   6.305   4.055   0.007
 9554SOL     OW29560   2.547   0.761   1.535
 9554SOL    HW129561   2.589   0.733   1.448
 9554SOL    HW229562   2.454   0.725   1.540
 9555SOL     OW29563   1.376   0.931   2.776
 9555SOL    HW129564   1.324   1.007   2.816
 9555SOL    HW229565   1.320   0.849   2.778
 9556SOL     OW29566   1.997   2.207   1.086
 9556SOL    HW129567   1.908   2.252   1.081
 9556SOL    HW229568   1.991   2.114   1.049
 9557SOL     OW29569   0.191   0.383   2.997
 9557SOL    HW129570   0.270   0.400   3.056
 9557SOL    HW229571   0.150   0.471   2.971
 9558SOL     OW29572   6.825   6.113   4.596
 9558SOL    HW129573   6.853   6.084   4.687
 9558SOL    HW229574   6.869   6.201   4.574
 9559SOL     OW29575   0.568   3.982   1.106
 9559SOL    HW129576   0.638   3.959   1.174
 9559SOL    HW229577   0.558   4.081   1.101
 9560SOL     OW29578   1.146   1.697   3.091
 9560SOL    HW129579   1.084   1.621   3.112
 9560SOL    HW229580   1.138   1.721   2.994
 9561SOL     OW29581   1.063   6.390   0.352
 9561SOL    HW129582   1.128   6.366   0.280
 9561SOL    HW229583   1.017   6.475   0.328
 9562SOL     OW29584   3.501   0.277   5.546
 9562SOL    HW129585   3.461   0.360   5.584
 9562SOL    HW229586   3.557   0.231   5.615
 9563SOL     OW29587   6.383   0.133   0.683
 9563SOL    HW129588   6.364   0.038   0.705
 9563SOL    HW229589   6.353   0.192   0.758
 9564SOL     OW29590   3.001   0.325   6.826
 9564SOL    HW129591   2.915   0.306   6.873
 9564SOL    HW229592   3.072   0.348   6.893
 9565SOL     OW29593   4.167   6.187   5.021
 9565SOL    HW129594   4.145   6.284   5.022
 9565SOL    HW229595   4.230   6.166   5.096
 9566SOL     OW29596   2.454   4.672   6.826
 9566SOL    HW129597   2.366   4.654   6.869
 9566SOL    HW229598   2.483   4.591   6.774
 9567SOL     OW29599   5.954   4.285   0.105
 9567SOL    HW129600   5.931   4.208   0.046
 9567SOL    HW229601   5.912   4.368   0.068
 9568SOL     OW29602   4.401   2.939   6.676
 9568SOL    HW129603   4.478   2.986   6.634
 9568SOL    HW229604   4.354   3.001   6.739
 9569SOL     OW29605   6.983   0.511   2.742
 9569SOL    HW129606   7.010   0.539   2.834
 9569SOL    HW229607   6.949   0.417   2.743
 9570SOL     OW29608   0.725   2.739   2.319
 9570SOL    HW129609   0.640   2.755   2.269
 9570SOL    HW229610   0.732   2.804   2.394
 9571SOL     OW29611   2.079   3.806   7.008
 9571SOL    HW129612   2.068   3.786   6.911
 9571SOL    HW229613   2.166   3.770   0.012
 9572SOL     OW29614   1.936   5.717   1.175
 9572SOL    HW129615   1.973   5.764   1.255
 9572SOL    HW229616   1.988   5.743   1.093
 9573SOL     OW29617   0.899   1.334   6.949
 9573SOL    HW129618   0.887   1.411   7.012
 9573SOL    HW229619   0.981   1.282   6.976
 9574SOL     OW29620   3.683   2.935   4.032
 9574SOL    HW129621   3.608   2.887   4.078
 9574SOL    HW229622   3.758   2.949   4.097
 9575SOL     OW29623   6.033   1.653   1.077
 9575SOL    HW129624   6.078   1.740   1.094
 9575SOL    HW229625   5.936   1.668   1.055
 9576SOL     OW29626   2.978   0.776   2.716
 9576SOL    HW129627   3.015   0.769   2.809
 9576SOL    HW229628   2.880   0.792   2.721
 9577SOL     OW29629   1.030   0.666   4.222
 9577SOL    HW129630   1.126   0.642   4.210
 9577SOL    HW229631   0.995   0.707   4.138
 9578SOL     OW29632   0.035   4.174   3.649
 9578SOL    HW129633   0.051   4.255   3.705
 9578SOL    HW229634   0.066   4.092   3.697
 9579SOL     OW29635   2.188   5.820   2.559
 9579SOL    HW129636   2.139   5.792   2.641
 9579SOL    HW229637   2.266   5.760   2.543
 9580SOL     OW29638   4.448   3.106   0.626
 9580SOL    HW129639   4.463   3.198   0.589
 9580SOL    HW229640   4.522   3.083   0.689
 9581SOL     OW29641   1.414   5.371   6.041
 9581SOL    HW129642   1.510   5.373   6.066
 9581SOL    HW229643   1.359   5.405   6.118
 9582SOL     OW29644   4.513   4.470   4.770
 9582SOL    HW129645   4.484   4.474   4.674
 9582SOL    HW229646   4.441   4.505   4.829
 9583SOL     OW29647   3.130   4.088   0.914
 9583SOL    HW129648   3.097   4.120   1.003
 9583SOL    HW229649   3.132   4.165   0.850
 9584SOL     OW29650   6.786   6.515   0.253
 9584SOL    HW129651   6.739   6.471   0.330
 9584SOL    HW229652   6.719   6.556   0.192
 9585SOL     OW29653   6.170   0.350   3.342
 9585SOL    HW129654   6.129   0.393   3.262
 9585SOL    HW229655   6.180   0.418   3.415
 9586SOL     OW29656   5.649   4.152   2.189
 9586SOL    HW129657   5.670   4.134   2.285
 9586SOL    HW229658   5.613   4.068   2.147
 9587SOL     OW29659   6.083   0.541   2.455
 9587SOL    HW129660   6.026   0.473   2.409
 9587SOL    HW229661   6.164   0.496   2.493
 9588SOL     OW29662   0.654   1.799   2.315
 9588SOL    HW129663   0.559   1.804   2.346
 9588SOL    HW229664   0.679   1.704   2.297
 9589SOL     OW29665   2.653   5.505   6.317
 9589SOL    HW129666   2.717   5.503   6.240
 9589SOL    HW229667   2.704   5.508   6.403
 9590SOL     OW29668   6.944   4.732   2.161
 9590SOL    HW129669   6.889   4.731   2.245
 9590SOL    HW229670   0.001   4.683   2.176
 9591SOL     OW29671   2.751   5.793   0.489
 9591SOL    HW129672   2.738   5.890   0.468
 9591SOL    HW229673   2.815   5.784   0.566
 9592SOL     OW29674   3.759   4.627   1.603
 9592SOL    HW129675   3.853   4.637   1.636
 9592SOL    HW229676   3.696   4.633   1.680
 9593SOL     OW29677   6.453   1.282   5.033
 9593SOL    HW129678   6.407   1.357   4.986
 9593SOL    HW229679   6.386   1.212   5.058
 9594SOL     OW29680   1.240   5.792   3.529
 9594SOL    HW129681   1.171   5.804   3.458
 9594SOL    HW229682   1.203   5.737   3.603
 9595SOL     OW29683   1.956   4.531   4.523
 9595SOL    HW129684   2.052   4.532   4.496
 9595SOL    HW229685   1.900   4.506   4.444
 9596SOL     OW29686   6.976   5.856   0.365
 9596SOL    HW129687   6.927   5.874   0.280
 9596SOL    HW229688   6.944   5.769   0.404
 9597SOL     OW29689   0.163   4.505   0.736
 9597SOL    HW129690   0.135   4.591   0.695
 9597SOL    HW229691   0.217   4.452   0.671
 9598SOL     OW29692   0.437   3.941   4.949
 9598SOL    HW129693   0.373   3.986   5.011
 9598SOL    HW229694   0.386   3.878   4.890
 9599SOL     OW29695   3.098   0.849   5.369
 9599SOL    HW129696   3.197   0.863   5.372
 9599SOL    HW229697   3.078   0.751   5.367
 9600SOL     OW29698   1.783   0.023   6.691
 9600SOL    HW129699   1.701   7.027   6.640
 9600SOL    HW229700   1.864   0.001   6.636
 9601SOL     OW29701   6.210   4.364   0.158
 9601SOL    HW129702   6.115   4.335   0.145
 9601SOL    HW229703   6.247   4.323   0.241
 9602SOL     OW29704   6.110   5.147   6.556
 9602SOL    HW129705   6.119   5.049   6.543
 9602SOL    HW229706   6.158   5.195   6.482
 9603SOL     OW29707   3.321   0.219   4.940
 9603SOL    HW129708   3.250   0.219   5.010
 9603SOL    HW229709   3.408   0.191   4.981
 9604SOL     OW29710   5.121   0.091   0.616
 9604SOL    HW129711   5.088   0.014   0.561
 9604SOL    HW229712   5.219   0.102   0.602
 9605SOL     OW29713   0.544   5.201   5.377
 9605SOL    HW129714   0.627   5.185   5.431
 9605SOL    HW229715   0.511   5.115   5.339
 9606SOL     OW29716   1.309   6.298   5.139
 9606SOL    HW129717   1.263   6.349   5.066
 9606SOL    HW229718   1.288   6.201   5.130
 9607SOL     OW29719   1.049   2.233   2.414
 9607SOL    HW129720   1.012   2.180   2.338
 9607SOL    HW229721   1.148   2.246   2.401
 9608SOL     OW29722   6.555   6.222   2.486
 9608SOL    HW129723   6.539   6.205   2.389
 9608SOL    HW229724   6.615   6.302   2.496
 9609SOL     OW29725   1.387   3.656   5.250
 9609SOL    HW129726   1.360   3.736   5.198
 9609SOL    HW229727   1.409   3.683   5.344
 9610SOL     OW29728   1.518   3.990   4.517
 9610SOL    HW129729   1.453   3.991   4.593
 9610SOL    HW229730   1.469   3.975   4.432
 9611SOL     OW29731   0.127   6.451   0.729
 9611SOL    HW129732   0.137   6.388   0.806
 9611SOL    HW229733   0.186   6.530   0.743
 9612SOL     OW29734   6.189   3.294   1.800
 9612SOL    HW129735   6.147   3.377   1.838
 9612SOL    HW229736   6.120   3.243   1.750
 9613SOL     OW29737   4.224   6.068   3.581
 9613SOL    HW129738   4.222   5.969   3.596
 9613SOL    HW229739   4.171   6.114   3.652
 9614SOL     OW29740   3.947   3.222   1.321
 9614SOL    HW129741   3.992   3.243   1.234
 9614SOL    HW229742   3.890   3.299   1.348
 9615SOL     OW29743   1.090   6.836   2.440
 9615SOL    HW129744   1.144   6.839   2.356
 9615SOL    HW229745   1.025   6.912   2.442
 9616SOL     OW29746   4.171   4.070   0.535
 9616SOL    HW129747   4.147   4.136   0.464
 9616SOL    HW229748   4.144   3.978   0.504
 9617SOL     OW29749   0.796   3.646   4.234
 9617SOL    HW129750   0.807   3.743   4.209
 9617SOL    HW229751   0.841   3.589   4.166
 9618SOL     OW29752   4.690   6.708   6.013
 9618SOL    HW129753   4.671   6.719   5.915
 9618SOL    HW229754   4.710   6.797   6.053
 9619SOL     OW29755   1.390   0.438   0.691
 9619SOL    HW129756   1.366   0.508   0.623
 9619SOL    HW229757   1.490   0.429   0.696
 9620SOL     OW29758   5.407   1.681   6.844
 9620SOL    HW129759   5.425   1.586   6.870
 9620SOL    HW229760   5.481   1.714   6.785
 9621SOL     OW29761   1.652   1.169   2.622
 9621SOL    HW129762   1.739   1.166   2.573
 9621SOL    HW229763   1.592   1.097   2.590
 9622SOL     OW29764   5.780   1.345   6.443
 9622SOL    HW129765   5.740   1.368   6.532
 9622SOL    HW229766   5.769   1.247   6.426
 9623SOL     OW29767   4.455   5.401   5.640
 9623SOL    HW129768   4.365   5.392   5.683
 9623SOL    HW229769   4.505   5.315   5.648
 9624SOL     OW29770   5.286   4.633   4.485
 9624SOL    HW129771   5.283   4.534   4.494
 9624SOL    HW229772   5.378   4.661   4.457
 9625SOL     OW29773   5.353   4.349   0.115
 9625SOL    HW129774   5.418   4.372   0.042
 9625SOL    HW229775   5.352   4.421   0.183
 9626SOL     OW29776   2.459   5.995   5.521
 9626SOL    HW129777   2.494   5.974   5.612
 9626SOL    HW229778   2.478   6.091   5.500
 9627SOL     OW29779   6.943   3.851   4.977
 9627SOL    HW129780   6.923   3.783   5.047
 9627SOL    HW229781   0.006   3.835   4.940
 9628SOL     OW29782   6.142   4.094   0.815
 9628SOL    HW129783   6.228   4.128   0.776
 9628SOL    HW229784   6.137   4.120   0.911
 9629SOL     OW29785   6.795   5.844   2.887
 9629SOL    HW129786   6.805   5.940   2.914
 9629SOL    HW229787   6.758   5.792   2.964
 9630SOL     OW29788   6.174   6.172   5.671
 9630SOL    HW129789   6.194   6.164   5.573
 9630SOL    HW229790   6.258   6.163   5.723
 9631SOL     OW29791   4.524   2.255   0.663
 9631SOL    HW129792   4.584   2.175   0.675
 9631SOL    HW229793   4.580   2.337   0.657
 9632SOL     OW29794   2.463   5.122   1.994
 9632SOL    HW129795   2.499   5.043   1.944
 9632SOL    HW229796   2.532   5.196   1.993
 9633SOL     OW29797   3.829   4.414   0.586
 9633SOL    HW129798   3.869   4.336   0.634
 9633SOL    HW229799   3.899   4.456   0.528
 9634SOL     OW29800   0.716   5.430   3.363
 9634SOL    HW129801   0.722   5.359   3.293
 9634SOL    HW229802   0.689   5.516   3.321
 9635SOL     OW29803   1.853   4.224   5.497
 9635SOL    HW129804   1.953   4.225   5.487
 9635SOL    HW229805   1.819   4.317   5.497
 9636SOL     OW29806   4.198   2.025   5.952
 9636SOL    HW129807   4.192   1.950   6.019
 9636SOL    HW229808   4.286   2.020   5.905
 9637SOL     OW29809   3.915   2.597   1.339
 9637SOL    HW129810   3.931   2.544   1.422
 9637SOL    HW229811   3.947   2.546   1.260
 9638SOL     OW29812   6.834   3.207   6.047
 9638SOL    HW129813   6.927   3.171   6.045
 9638SOL    HW229814   6.776   3.146   6.102
 9639SOL     OW29815   4.194   2.234   1.947
 9639SOL    HW129816   4.194   2.309   1.881
 9639SOL    HW229817   4.101   2.218   1.980
 9640SOL     OW29818   3.267   0.667   2.629
 9640SOL    HW129819   3.256   0.652   2.727
 9640SOL    HW229820   3.177   0.673   2.586
 9641SOL     OW29821   5.866   5.781   1.744
 9641SOL    HW129822   5.962   5.762   1.761
 9641SOL    HW229823   5.811   5.700   1.766
 9642SOL     OW29824   1.300   6.340   4.720
 9642SOL    HW129825   1.393   6.369   4.744
 9642SOL    HW229826   1.272   6.384   4.635
 9643SOL     OW29827   5.040   3.982   3.624
 9643SOL    HW129828   5.049   3.908   3.556
 9643SOL    HW229829   5.113   3.974   3.692
 9644SOL     OW29830   1.294   5.986   5.529
 9644SOL    HW129831   1.257   5.952   5.616
 9644SOL    HW229832   1.292   5.914   5.461
 9645SOL     OW29833   2.931   4.773   4.126
 9645SOL    HW129834   3.022   4.813   4.138
 9645SOL    HW229835   2.936   4.674   4.142
 9646SOL     OW29836   2.644   4.882   2.006
 9646SOL    HW129837   2.623   4.795   1.962
 9646SOL    HW229838   2.742   4.901   1.997
 9647SOL     OW29839   0.074   6.681   3.367
 9647SOL    HW129840   0.031   6.761   3.409
 9647SOL    HW229841   0.163   6.664   3.412
 9648SOL     OW29842   4.246   2.622   7.010
 9648SOL    HW129843   4.341   2.596   7.026
 9648SOL    HW229844   4.185   2.553   0.022
 9649SOL     OW29845   2.125   4.199   0.095
 9649SOL    HW129846   2.154   4.285   0.052
 9649SOL    HW229847   2.027   4.203   0.114
 9650SOL     OW29848   5.140   4.549   2.818
 9650SOL    HW129849   5.147   4.502   2.730
 9650SOL    HW229850   5.079   4.498   2.878
 9651SOL     OW29851   5.529   1.623   1.139
 9651SOL    HW129852   5.505   1.687   1.212
 9651SOL    HW229853   5.558   1.536   1.179
 9652SOL     OW29854   0.651   4.926   1.537
 9652SOL    HW129855   0.606   4.837   1.526
 9652SOL    HW229856   0.633   4.982   1.456
 9653SOL     OW29857   4.504   5.046   4.447
 9653SOL    HW129858   4.482   4.955   4.480
 9653SOL    HW229859   4.426   5.107   4.461
 9654SOL     OW29860   2.905   3.533   2.902
 9654SOL    HW129861   2.890   3.591   2.982
 9654SOL    HW229862   2.872   3.440   2.921
 9655SOL     OW29863   0.149   2.107   0.437
 9655SOL    HW129864   0.139   2.048   0.518
 9655SOL    HW229865   0.181   2.053   0.360
 9656SOL     OW29866   4.349   2.958   0.983
 9656SOL    HW129867   4.421   2.908   1.031
 9656SOL    HW229868   4.259   2.928   1.016
 9657SOL     OW29869   5.541   3.185   2.777
 9657SOL    HW129870   5.634   3.160   2.753
 9657SOL    HW229871   5.530   3.185   2.877
 9658SOL     OW29872   5.557   1.292   2.387
 9658SOL    HW129873   5.515   1.259   2.472
 9658SOL    HW229874   5.576   1.215   2.327
 9659SOL     OW29875   0.713   3.478   0.115
 9659SOL    HW129876   0.686   3.409   0.182
 9659SOL    HW229877   0.633   3.533   0.090
 9660SOL     OW29878   0.762   6.972   3.095
 9660SOL    HW129879   0.860   6.964   3.077
 9660SOL    HW229880   0.746   0.008   3.169
 9661SOL     OW29881   3.425   6.640   1.621
 9661SOL    HW129882   3.387   6.549   1.639
 9661SOL    HW229883   3.373   6.708   1.672
 9662SOL     OW29884   4.486   3.340   6.122
 9662SOL    HW129885   4.585   3.344   6.125
 9662SOL    HW229886   4.448   3.421   6.168
 9663SOL     OW29887   0.461   5.903   2.871
 9663SOL    HW129888   0.367   5.894   2.905
 9663SOL    HW229889   0.460   5.943   2.779
 9664SOL     OW29890   5.855   5.283   3.910
 9664SOL    HW129891   5.807   5.365   3.878
 9664SOL    HW229892   5.908   5.244   3.835
 9665SOL     OW29893   6.242   6.662   6.338
 9665SOL    HW129894   6.265   6.742   6.393
 9665SOL    HW229895   6.319   6.597   6.339
 9666SOL     OW29896   6.182   3.834   2.055
 9666SOL    HW129897   6.222   3.745   2.034
 9666SOL    HW229898   6.223   3.904   1.996
 9667SOL     OW29899   3.965   3.934   0.060
 9667SOL    HW129900   3.934   3.973   0.147
 9667SOL    HW229901   3.912   3.852   0.039
 9668SOL     OW29902   0.497   0.391   6.342
 9668SOL    HW129903   0.460   0.398   6.434
 9668SOL    HW229904   0.448   0.454   6.282
 9669SOL     OW29905   2.169   6.947   2.052
 9669SOL    HW129906   2.125   6.928   1.964
 9669SOL    HW229907   2.111   6.913   2.126
 9670SOL     OW29908   0.014   4.985   6.067
 9670SOL    HW129909   0.074   5.061   6.044
 9670SOL    HW229910   6.965   5.019   6.121
 9671SOL     OW29911   6.918   4.405   0.765
 9671SOL    HW129912   6.878   4.320   0.732
 9671SOL    HW229913   7.017   4.404   0.748
 9672SOL     OW29914   2.205   5.237   3.494
 9672SOL    HW129915   2.215   5.328   3.536
 9672SOL    HW229916   2.288   5.215   3.444
 9673SOL     OW29917   3.897   3.950   1.265
 9673SOL    HW129918   3.931   3.959   1.171
 9673SOL    HW229919   3.797   3.962   1.265
 9674SOL     OW29920   3.615   6.884   3.358
 9674SOL    HW129921   3.688   6.882   3.290
 9674SOL    HW229922   3.596   6.978   3.386
 9675SOL     OW29923   5.639   2.557   6.256
 9675SOL    HW129924   5.540   2.571   6.250
 9675SOL    HW229925   5.666   2.483   6.195
 9676SOL     OW29926   1.040   3.009   5.725
 9676SOL    HW129927   0.992   3.096   5.714
 9676SOL    HW229928   1.119   3.022   5.784
 9677SOL     OW29929   6.195   5.220   4.974
 9677SOL    HW129930   6.102   5.233   4.940
 9677SOL    HW229931   6.254   5.190   4.899
 9678SOL     OW29932   2.951   3.794   3.762
 9678SOL    HW129933   2.985   3.851   3.686
 9678SOL    HW229934   2.904   3.852   3.828
 9679SOL     OW29935   3.003   0.142   3.205
 9679SOL    HW129936   2.935   0.212   3.226
 9679SOL    HW229937   3.040   0.157   3.113
 9680SOL     OW29938   3.901   0.410   3.732
 9680SOL    HW129939   3.929   0.457   3.816
 9680SOL    HW229940   3.835   0.466   3.683
 9681SOL     OW29941   2.576   2.156   0.852
 9681SOL    HW129942   2.574   2.061   0.822
 9681SOL    HW229943   2.550   2.161   0.949
 9682SOL     OW29944   4.865   4.230   3.703
 9682SOL    HW129945   4.805   4.309   3.714
 9682SOL    HW229946   4.858   4.171   3.783
 9683SOL     OW29947   3.193   6.798   1.682
 9683SOL    HW129948   3.146   6.799   1.594
 9683SOL    HW229949   3.159   6.872   1.739
 9684SOL     OW29950   0.955   3.504   5.808
 9684SOL    HW129951   0.922   3.590   5.848
 9684SOL    HW229952   0.974   3.438   5.881
 9685SOL     OW29953   4.817   4.236   1.032
 9685SOL    HW129954   4.784   4.151   0.990
 9685SOL    HW229955   4.907   4.258   0.994
 9686SOL     OW29956   0.775   3.609   6.169
 9686SOL    HW129957   0.869   3.639   6.156
 9686SOL    HW229958   0.726   3.613   6.081
 9687SOL     OW29959   1.199   0.608   3.793
 9687SOL    HW129960   1.146   0.550   3.854
 9687SOL    HW229961   1.153   0.696   3.782
 9688SOL     OW29962   1.132   2.842   1.304
 9688SOL    HW129963   1.165   2.920   1.251
 9688SOL    HW229964   1.209   2.796   1.347
 9689SOL     OW29965   0.863   4.616   6.408
 9689SOL    HW129966   0.763   4.613   6.420
 9689SOL    HW229967   0.888   4.556   6.332
 9690SOL     OW29968   6.156   6.055   6.564
 9690SOL    HW129969   6.100   5.994   6.621
 9690SOL    HW229970   6.144   6.149   6.594
 9691SOL     OW29971   3.304   4.512   0.872
 9691SOL    HW129972   3.244   4.505   0.952
 9691SOL    HW229973   3.270   4.453   0.799
 9692SOL     OW29974   4.012   6.290   1.667
 9692SOL    HW129975   3.968   6.216   1.717
 9692SOL    HW229976   3.950   6.369   1.664
 9693SOL     OW29977   5.996   3.940   2.682
 9693SOL    HW129978   6.066   3.868   2.688
 9693SOL    HW229979   6.008   3.990   2.596
 9694SOL     OW29980   3.145   1.271   1.569
 9694SOL    HW129981   3.160   1.234   1.477
 9694SOL    HW229982   3.220   1.331   1.594
 9695SOL     OW29983   0.050   2.521   3.197
 9695SOL    HW129984   0.127   2.553   3.253
 9695SOL    HW229985   0.054   2.422   3.187
 9696SOL     OW29986   5.500   2.558   1.336
 9696SOL    HW129987   5.447   2.631   1.380
 9696SOL    HW229988   5.469   2.547   1.242
 9697SOL     OW29989   0.216   5.090   0.045
 9697SOL    HW129990   0.262   5.172   0.012
 9697SOL    HW229991   0.120   5.111   0.066
 9698SOL     OW29992   5.707   2.325   6.117
 9698SOL    HW129993   5.772   2.257   6.149
 9698SOL    HW229994   5.614   2.298   6.142
 9699SOL     OW29995   6.214   6.333   6.618
 9699SOL    HW129996   6.154   6.350   6.697
 9699SOL    HW229997   6.161   6.341   6.534
 9700SOL     OW29998   5.343   5.938   5.113
 9700SOL    HW129999   5.372   5.854   5.159
 9700SOL    HW230000   5.422   5.983   5.072
 9701SOL     OW30001   4.386   5.046   5.491
 9701SOL    HW130002   4.366   5.136   5.453
 9701SOL    HW230003   4.389   4.978   5.418
 9702SOL     OW30004   4.100   1.781   6.743
 9702SOL    HW130005   4.191   1.748   6.766
 9702SOL    HW230006   4.075   1.856   6.804
 9703SOL     OW30007   4.934   3.802   3.985
 9703SOL    HW130008   4.893   3.810   4.076
 9703SOL    HW230009   5.006   3.871   3.975
 9704SOL     OW30010   3.459   6.935   1.518
 9704SOL    HW130011   3.405   6.873   1.575
 9704SOL    HW230012   3.449   6.909   1.422
 9705SOL     OW30013   5.804   3.999   6.168
 9705SOL    HW130014   5.720   4.005   6.114
 9705SOL    HW230015   5.821   3.903   6.193
 9706SOL     OW30016   1.960   3.012   0.789
 9706SOL    HW130017   1.872   3.054   0.809
 9706SOL    HW230018   1.965   2.922   0.832
 9707SOL     OW30019   6.167   4.495   2.373
 9707SOL    HW130020   6.165   4.480   2.472
 9707SOL    HW230021   6.256   4.466   2.337
 9708SOL     OW30022   1.235   1.759   3.574
 9708SOL    HW130023   1.307   1.815   3.615
 9708SOL    HW230024   1.257   1.662   3.586
 9709SOL     OW30025   5.165   6.378   2.790
 9709SOL    HW130026   5.177   6.281   2.811
 9709SOL    HW230027   5.148   6.389   2.692
 9710SOL     OW30028   6.760   1.822   1.817
 9710SOL    HW130029   6.783   1.848   1.723
 9710SOL    HW230030   6.792   1.729   1.834
 9711SOL     OW30031   3.332   5.288   5.584
 9711SOL    HW130032   3.358   5.300   5.488
 9711SOL    HW230033   3.244   5.242   5.590
 9712SOL     OW30034   5.425   3.719   6.482
 9712SOL    HW130035   5.455   3.687   6.572
 9712SOL    HW230036   5.383   3.810   6.491
 9713SOL     OW30037   1.837   3.937   3.275
 9713SOL    HW130038   1.762   3.880   3.309
 9713SOL    HW230039   1.800   4.008   3.216
 9714SOL     OW30040   4.284   6.327   6.778
 9714SOL    HW130041   4.322   6.247   6.730
 9714SOL    HW230042   4.319   6.329   6.871
 9715SOL     OW30043   5.771   4.064   0.421
 9715SOL    HW130044   5.766   3.976   0.374
 9715SOL    HW230045   5.865   4.083   0.447
 9716SOL     OW30046   3.501   4.494   6.594
 9716SOL    HW130047   3.506   4.459   6.501
 9716SOL    HW230048   3.432   4.443   6.645
 9717SOL     OW30049   5.044   6.915   6.030
 9717SOL    HW130050   4.954   6.929   6.070
 9717SOL    HW230051   5.095   6.848   6.085
 9718SOL     OW30052   5.524   3.203   0.381
 9718SOL    HW130053   5.454   3.132   0.372
 9718SOL    HW230054   5.515   3.246   0.471
 9719SOL     OW30055   6.389   0.403   5.851
 9719SOL    HW130056   6.391   0.396   5.951
 9719SOL    HW230057   6.333   0.329   5.814
 9720SOL     OW30058   0.785   4.890   2.163
 9720SOL    HW130059   0.826   4.807   2.202
 9720SOL    HW230060   0.713   4.863   2.097
 9721SOL     OW30061   0.462   1.835   0.880
 9721SOL    HW130062   0.539   1.899   0.871
 9721SOL    HW230063   0.426   1.838   0.973
 9722SOL     OW30064   4.483   1.342   4.476
 9722SOL    HW130065   4.435   1.303   4.398
 9722SOL    HW230066   4.416   1.385   4.538
 9723SOL     OW30067   3.237   6.682   3.236
 9723SOL    HW130068   3.220   6.779   3.216
 9723SOL    HW230069   3.333   6.661   3.217
 9724SOL     OW30070   1.483   4.925   6.683
 9724SOL    HW130071   1.415   4.993   6.711
 9724SOL    HW230072   1.501   4.935   6.585
 9725SOL     OW30073   5.080   5.972   5.866
 9725SOL    HW130074   5.041   6.041   5.805
 9725SOL    HW230075   5.179   5.986   5.873
 9726SOL     OW30076   4.775   1.794   4.158
 9726SOL    HW130077   4.766   1.883   4.203
 9726SOL    HW230078   4.751   1.722   4.223
 9727SOL     OW30079   1.343   2.304   0.299
 9727SOL    HW130080   1.407   2.240   0.256
 9727SOL    HW230081   1.310   2.369   0.231
 9728SOL     OW30082   0.764   0.082   5.806
 9728SOL    HW130083   0.757   0.031   5.720
 9728SOL    HW230084   0.809   0.169   5.790
 9729SOL     OW30085   1.498   4.462   3.282
 9729SOL    HW130086   1.437   4.518   3.340
 9729SOL    HW230087   1.443   4.401   3.225
 9730SOL     OW30088   1.865   4.311   3.142
 9730SOL    HW130089   1.857   4.272   3.234
 9730SOL    HW230090   1.826   4.403   3.141
 9731SOL     OW30091   5.394   4.837   1.056
 9731SOL    HW130092   5.467   4.776   1.025
 9731SOL    HW230093   5.342   4.791   1.129
 9732SOL     OW30094   0.268   5.318   2.482
 9732SOL    HW130095   0.259   5.373   2.399
 9732SOL    HW230096   0.281   5.222   2.457
 9733SOL     OW30097   5.167   5.058   0.319
 9733SOL    HW130098   5.092   5.069   0.383
 9733SOL    HW230099   5.132   5.055   0.226
 9734SOL     OW30100   6.440   1.681   0.542
 9734SOL    HW130101   6.468   1.719   0.453
 9734SOL    HW230102   6.510   1.617   0.574
 9735SOL     OW30103   2.128   3.646   3.377
 9735SOL    HW130104   2.125   3.743   3.352
 9735SOL    HW230105   2.154   3.592   3.297
 9736SOL     OW30106   6.085   1.536   6.098
 9736SOL    HW130107   6.052   1.565   6.008
 9736SOL    HW230108   6.175   1.576   6.114
 9737SOL     OW30109   5.244   2.680   3.186
 9737SOL    HW130110   5.192   2.708   3.106
 9737SOL    HW230111   5.237   2.581   3.198
 9738SOL     OW30112   2.351   6.783   0.189
 9738SOL    HW130113   2.402   6.761   0.106
 9738SOL    HW230114   2.321   6.878   0.186
 9739SOL     OW30115   5.416   5.626   1.100
 9739SOL    HW130116   5.506   5.651   1.065
 9739SOL    HW230117   5.397   5.530   1.080
 9740SOL     OW30118   0.072   1.063   3.532
 9740SOL    HW130119   0.160   1.110   3.523
 9740SOL    HW230120   0.023   1.067   3.445
 9741SOL     OW30121   3.689   2.105   2.485
 9741SOL    HW130122   3.637   2.102   2.399
 9741SOL    HW230123   3.774   2.157   2.471
 9742SOL     OW30124   4.690   1.624   0.488
 9742SOL    HW130125   4.755   1.661   0.421
 9742SOL    HW230126   4.740   1.582   0.564
 9743SOL     OW30127   6.752   3.161   4.276
 9743SOL    HW130128   6.723   3.077   4.230
 9743SOL    HW230129   6.691   3.236   4.250
 9744SOL     OW30130   1.534   6.812   2.173
 9744SOL    HW130131   1.544   6.910   2.189
 9744SOL    HW230132   1.582   6.787   2.089
 9745SOL     OW30133   5.341   2.420   6.346
 9745SOL    HW130134   5.355   2.502   6.290
 9745SOL    HW230135   5.384   2.342   6.301
 9746SOL     OW30136   6.488   0.483   5.591
 9746SOL    HW130137   6.477   0.481   5.690
 9746SOL    HW230138   6.398   0.480   5.547
 9747SOL     OW30139   2.947   1.843   1.830
 9747SOL    HW130140   2.976   1.892   1.748
 9747SOL    HW230141   2.947   1.906   1.908
 9748SOL     OW30142   0.072   0.028   3.412
 9748SOL    HW130143   0.113   0.076   3.334
 9748SOL    HW230144   0.008   0.088   3.458
 9749SOL     OW30145   2.129   0.034   4.392
 9749SOL    HW130146   2.055   0.020   4.327
 9749SOL    HW230147   2.117   0.122   4.437
 9750SOL     OW30148   6.035   3.775   3.826
 9750SOL    HW130149   6.015   3.758   3.729
 9750SOL    HW230150   6.003   3.866   3.851
 9751SOL     OW30151   2.393   0.669   0.525
 9751SOL    HW130152   2.349   0.659   0.436
 9751SOL    HW230153   2.492   0.661   0.515
 9752SOL     OW30154   4.063   2.161   5.007
 9752SOL    HW130155   4.063   2.261   5.008
 9752SOL    HW230156   3.974   2.128   4.976
 9753SOL     OW30157   0.114   5.362   6.258
 9753SOL    HW130158   0.086   5.436   6.198
 9753SOL    HW230159   0.211   5.343   6.245
 9754SOL     OW30160   1.846   0.802   0.360
 9754SOL    HW130161   1.839   0.707   0.329
 9754SOL    HW230162   1.761   0.850   0.342
 9755SOL     OW30163   3.844   3.633   4.311
 9755SOL    HW130164   3.943   3.631   4.324
 9755SOL    HW230165   3.806   3.715   4.354
 9756SOL     OW30166   5.612   2.834   6.741
 9756SOL    HW130167   5.578   2.924   6.768
 9756SOL    HW230168   5.638   2.835   6.644
 9757SOL     OW30169   5.932   4.480   4.214
 9757SOL    HW130170   5.864   4.538   4.168
 9757SOL    HW230171   5.912   4.384   4.194
 9758SOL     OW30172   3.139   0.178   6.126
 9758SOL    HW130173   3.189   0.258   6.093
 9758SOL    HW230174   3.145   0.104   6.059
 9759SOL     OW30175   1.349   0.645   0.099
 9759SOL    HW130176   1.381   0.636   0.005
 9759SOL    HW230177   1.409   0.594   0.160
 9760SOL     OW30178   5.239   3.000   5.840
 9760SOL    HW130179   5.244   2.913   5.888
 9760SOL    HW230180   5.148   3.011   5.800
 9761SOL     OW30181   0.499   1.454   2.512
 9761SOL    HW130182   0.438   1.508   2.569
 9761SOL    HW230183   0.463   1.361   2.503
 9762SOL     OW30184   3.040   1.902   4.922
 9762SOL    HW130185   3.104   1.897   4.999
 9762SOL    HW230186   3.035   1.997   4.889
 9763SOL     OW30187   4.658   1.845   2.512
 9763SOL    HW130188   4.667   1.772   2.445
 9763SOL    HW230189   4.593   1.818   2.583
 9764SOL     OW30190   0.088   2.954   3.320
 9764SOL    HW130191   0.123   3.047   3.331
 9764SOL    HW230192   7.017   2.955   3.329
 9765SOL     OW30193   6.736   6.648   3.448
 9765SOL    HW130194   6.659   6.676   3.390
 9765SOL    HW230195   6.785   6.729   3.479
 9766SOL     OW30196   2.886   0.311   2.323
 9766SOL    HW130197   2.827   0.284   2.247
 9766SOL    HW230198   2.896   0.411   2.323
 9767SOL     OW30199   3.850   1.172   5.301
 9767SOL    HW130200   3.778   1.212   5.357
 9767SOL    HW230201   3.906   1.111   5.357
 9768SOL     OW30202   5.625   1.023   1.811
 9768SOL    HW130203   5.528   1.008   1.828
 9768SOL    HW230204   5.673   0.936   1.809
 9769SOL     OW30205   4.083   1.025   4.190
 9769SOL    HW130206   3.998   1.077   4.196
 9769SOL    HW230207   4.146   1.071   4.127
 9770SOL     OW30208   4.183   1.581   6.017
 9770SOL    HW130209   4.201   1.484   6.031
 9770SOL    HW230210   4.266   1.634   6.034
 9771SOL     OW30211   2.843   6.458   0.611
 9771SOL    HW130212   2.901   6.408   0.676
 9771SOL    HW230213   2.760   6.489   0.658
 9772SOL     OW30214   1.802   6.039   1.485
 9772SOL    HW130215   1.896   6.049   1.518
 9772SOL    HW230216   1.738   6.064   1.557
 9773SOL     OW30217   5.094   5.479   3.881
 9773SOL    HW130218   5.193   5.475   3.894
 9773SOL    HW230219   5.049   5.429   3.954
 9774SOL     OW30220   0.009   5.369   1.882
 9774SOL    HW130221   6.975   5.300   1.918
 9774SOL    HW230222   6.987   5.453   1.862
 9775SOL     OW30223   2.972   0.797   3.033
 9775SOL    HW130224   2.903   0.736   3.071
 9775SOL    HW230225   2.928   0.882   3.002
 9776SOL     OW30226   1.149   4.622   4.976
 9776SOL    HW130227   1.204   4.625   5.059
 9776SOL    HW230228   1.205   4.652   4.898
 9777SOL     OW30229   6.259   5.969   0.042
 9777SOL    HW130230   6.216   5.922   6.993
 9777SOL    HW230231   6.263   6.067   0.024
 9778SOL     OW30232   0.429   0.949   4.315
 9778SOL    HW130233   0.415   0.939   4.414
 9778SOL    HW230234   0.428   0.859   4.272
 9779SOL     OW30235   1.153   1.614   4.282
 9779SOL    HW130236   1.216   1.685   4.315
 9779SOL    HW230237   1.062   1.653   4.273
 9780SOL     OW30238   2.289   2.758   0.794
 9780SOL    HW130239   2.372   2.813   0.796
 9780SOL    HW230240   2.225   2.791   0.864
 9781SOL     OW30241   2.250   3.043   4.358
 9781SOL    HW130242   2.290   2.952   4.364
 9781SOL    HW230243   2.181   3.055   4.430
 9782SOL     OW30244   0.267   0.622   1.287
 9782SOL    HW130245   0.269   0.553   1.215
 9782SOL    HW230246   0.181   0.673   1.282
 9783SOL     OW30247   3.984   2.074   3.182
 9783SOL    HW130248   3.942   2.131   3.111
 9783SOL    HW230249   4.023   1.992   3.139
 9784SOL     OW30250   2.947   1.729   5.602
 9784SOL    HW130251   2.930   1.828   5.602
 9784SOL    HW230252   2.859   1.681   5.602
 9785SOL     OW30253   1.280   2.642   6.474
 9785SOL    HW130254   1.346   2.625   6.547
 9785SOL    HW230255   1.245   2.554   6.440
 9786SOL     OW30256   2.443   3.939   0.186
 9786SOL    HW130257   2.403   4.023   0.151
 9786SOL    HW230258   2.422   3.863   0.123
 9787SOL     OW30259   3.560   3.760   2.417
 9787SOL    HW130260   3.555   3.848   2.465
 9787SOL    HW230261   3.589   3.689   2.481
 9788SOL     OW30262   1.007   0.584   3.587
 9788SOL    HW130263   1.086   0.610   3.642
 9788SOL    HW230264   0.988   0.486   3.600
 9789SOL     OW30265   1.978   5.942   0.619
 9789SOL    HW130266   1.892   5.911   0.580
 9789SOL    HW230267   2.046   5.954   0.546
 9790SOL     OW30268   6.743   4.548   6.293
 9790SOL    HW130269   6.799   4.562   6.211
 9790SOL    HW230270   6.701   4.634   6.320
 9791SOL     OW30271   0.109   0.893   1.055
 9791SOL    HW130272   0.132   0.984   1.090
 9791SOL    HW230273   0.050   0.846   1.120
 9792SOL     OW30274   4.172   4.551   0.453
 9792SOL    HW130275   4.146   4.455   0.454
 9792SOL    HW230276   4.178   4.582   0.358
 9793SOL     OW30277   4.464   6.645   3.028
 9793SOL    HW130278   4.512   6.665   3.114
 9793SOL    HW230279   4.388   6.582   3.046
 9794SOL     OW30280   0.373   4.197   0.027
 9794SOL    HW130281   0.433   4.139   7.001
 9794SOL    HW230282   0.425   4.235   0.104
 9795SOL     OW30283   2.107   1.951   4.596
 9795SOL    HW130284   2.165   1.896   4.656
 9795SOL    HW230285   2.026   1.898   4.571
 9796SOL     OW30286   3.425   2.851   2.441
 9796SOL    HW130287   3.477   2.772   2.408
 9796SOL    HW230288   3.368   2.886   2.368
 9797SOL     OW30289   1.916   5.696   0.036
 9797SOL    HW130290   1.938   5.718   6.969
 9797SOL    HW230291   1.995   5.651   0.079
 9798SOL     OW30292   2.690   0.229   2.156
 9798SOL    HW130293   2.674   0.130   2.153
 9798SOL    HW230294   2.674   0.268   2.066
 9799SOL     OW30295   2.863   3.377   5.128
 9799SOL    HW130296   2.924   3.313   5.175
 9799SOL    HW230297   2.827   3.334   5.045
 9800SOL     OW30298   4.047   5.383   4.797
 9800SOL    HW130299   3.978   5.450   4.826
 9800SOL    HW230300   4.035   5.299   4.849
 9801SOL     OW30301   4.380   4.334   0.205
 9801SOL    HW130302   4.474   4.358   0.229
 9801SOL    HW230303   4.371   4.333   0.105
 9802SOL     OW30304   0.168   4.060   1.691
 9802SOL    HW130305   0.104   4.064   1.615
 9802SOL    HW230306   0.207   4.151   1.707
 9803SOL     OW30307   1.454   2.578   6.664
 9803SOL    HW130308   1.427   2.664   6.708
 9803SOL    HW230309   1.485   2.513   6.733
 9804SOL     OW30310   1.448   5.733   2.992
 9804SOL    HW130311   1.513   5.729   3.069
 9804SOL    HW230312   1.488   5.687   2.913
 9805SOL     OW30313   1.477   6.521   4.433
 9805SOL    HW130314   1.454   6.550   4.340
 9805SOL    HW230315   1.449   6.592   4.497
 9806SOL     OW30316   1.108   1.089   6.486
 9806SOL    HW130317   1.189   1.101   6.543
 9806SOL    HW230318   1.033   1.145   6.521
 9807SOL     OW30319   3.069   4.589   0.089
 9807SOL    HW130320   3.159   4.579   0.131
 9807SOL    HW230321   3.023   4.500   0.087
 9808SOL     OW30322   3.831   0.369   5.528
 9808SOL    HW130323   3.875   0.280   5.536
 9808SOL    HW230324   3.819   0.409   5.619
 9809SOL     OW30325   1.601   3.039   6.261
 9809SOL    HW130326   1.599   2.974   6.337
 9809SOL    HW230327   1.533   3.110   6.277
 9810SOL     OW30328   1.944   2.748   3.650
 9810SOL    HW130329   2.022   2.798   3.688
 9810SOL    HW230330   1.919   2.786   3.561
 9811SOL     OW30331   5.411   4.326   3.117
 9811SOL    HW130332   5.317   4.306   3.144
 9811SOL    HW230333   5.467   4.245   3.128
 9812SOL     OW30334   3.715   2.641   6.008
 9812SOL    HW130335   3.769   2.610   5.930
 9812SOL    HW230336   3.627   2.594   6.010
 9813SOL     OW30337   5.664   1.534   0.736
 9813SOL    HW130338   5.728   1.464   0.768
 9813SOL    HW230339   5.669   1.541   0.636
 9814SOL     OW30340   7.027   0.223   0.581
 9814SOL    HW130341   0.097   0.216   0.594
 9814SOL    HW230342   7.007   0.243   0.485
 9815SOL     OW30343   5.633   4.266   3.980
 9815SOL    HW130344   5.630   4.301   4.074
 9815SOL    HW230345   5.721   4.289   3.939
 9816SOL     OW30346   0.713   1.302   6.387
 9816SOL    HW130347   0.667   1.261   6.308
 9816SOL    HW230348   0.730   1.231   6.455
 9817SOL     OW30349   2.869   0.107   3.441
 9817SOL    HW130350   2.929   0.169   3.492
 9817SOL    HW230351   2.902   0.098   3.347
 9818SOL     OW30352   1.346   0.422   4.403
 9818SOL    HW130353   1.343   0.493   4.474
 9818SOL    HW230354   1.272   0.356   4.419
 9819SOL     OW30355   4.892   3.203   3.923
 9819SOL    HW130356   4.871   3.300   3.913
 9819SOL    HW230357   4.989   3.188   3.903
 9820SOL     OW30358   4.089   3.289   6.741
 9820SOL    HW130359   4.137   3.205   6.765
 9820SOL    HW230360   4.105   3.358   6.812
 9821SOL     OW30361   5.189   0.662   6.636
 9821SOL    HW130362   5.235   0.739   6.591
 9821SOL    HW230363   5.256   0.592   6.659
 9822SOL     OW30364   2.787   6.140   3.505
 9822SOL    HW130365   2.872   6.168   3.461
 9822SOL    HW230366   2.787   6.041   3.517
 9823SOL     OW30367   2.610   1.196   6.661
 9823SOL    HW130368   2.573   1.167   6.573
 9823SOL    HW230369   2.706   1.223   6.650
 9824SOL     OW30370   1.913   4.938   4.438
 9824SOL    HW130371   1.945   5.024   4.398
 9824SOL    HW230372   1.987   4.897   4.491
 9825SOL     OW30373   5.275   5.640   4.864
 9825SOL    HW130374   5.302   5.552   4.823
 9825SOL    HW230375   5.180   5.660   4.839
 9826SOL     OW30376   4.539   5.081   5.764
 9826SOL    HW130377   4.581   5.015   5.702
 9826SOL    HW230378   4.514   5.034   5.849
 9827SOL     OW30379   2.151   3.694   3.652
 9827SOL    HW130380   2.152   3.691   3.552
 9827SOL    HW230381   2.137   3.789   3.682
 9828SOL     OW30382   2.273   2.553   5.638
 9828SOL    HW130383   2.303   2.636   5.686
 9828SOL    HW230384   2.191   2.573   5.585
 9829SOL     OW30385   4.002   5.445   6.081
 9829SOL    HW130386   4.076   5.482   6.026
 9829SOL    HW230387   3.921   5.501   6.071
 9830SOL     OW30388   5.361   2.158   2.431
 9830SOL    HW130389   5.264   2.148   2.452
 9830SOL    HW230390   5.373   2.170   2.333
 9831SOL     OW30391   1.987   5.217   1.760
 9831SOL    HW130392   1.905   5.262   1.725
 9831SOL    HW230393   2.049   5.286   1.798
 9832SOL     OW30394   4.980   6.100   2.311
 9832SOL    HW130395   5.004   6.171   2.246
 9832SOL    HW230396   5.038   6.020   2.297
 9833SOL     OW30397   2.931   3.740   4.688
 9833SOL    HW130398   2.894   3.678   4.618
 9833SOL    HW230399   2.865   3.747   4.763
 9834SOL     OW30400   2.362   4.249   5.285
 9834SOL    HW130401   2.451   4.291   5.305
 9834SOL    HW230402   2.373   4.181   5.213
 9835SOL     OW30403   4.083   3.286   4.952
 9835SOL    HW130404   4.152   3.300   4.881
 9835SOL    HW230405   3.994   3.315   4.917
 9836SOL     OW30406   6.620   3.964   3.402
 9836SOL    HW130407   6.599   4.041   3.463
 9836SOL    HW230408   6.707   3.923   3.430
 9837SOL     OW30409   3.771   0.297   2.478
 9837SOL    HW130410   3.696   0.233   2.462
 9837SOL    HW230411   3.763   0.337   2.569
 9838SOL     OW30412   1.655   6.761   0.281
 9838SOL    HW130413   1.614   6.852   0.276
 9838SOL    HW230414   1.584   6.692   0.290
 9839SOL     OW30415   5.061   0.038   3.645
 9839SOL    HW130416   5.083   0.114   3.706
 9839SOL    HW230417   5.019   0.073   3.562
 9840SOL     OW30418   5.578   2.050   0.847
 9840SOL    HW130419   5.657   2.016   0.795
 9840SOL    HW230420   5.498   1.995   0.823
 9841SOL     OW30421   1.522   4.675   4.469
 9841SOL    HW130422   1.599   4.719   4.422
 9841SOL    HW230423   1.450   4.743   4.484
 9842SOL     OW30424   3.218   3.493   1.705
 9842SOL    HW130425   3.127   3.494   1.747
 9842SOL    HW230426   3.284   3.454   1.770
 9843SOL     OW30427   6.530   0.472   1.713
 9843SOL    HW130428   6.608   0.519   1.754
 9843SOL    HW230429   6.484   0.417   1.783
 9844SOL     OW30430   6.403   0.845   2.561
 9844SOL    HW130431   6.306   0.867   2.556
 9844SOL    HW230432   6.449   0.879   2.479
 9845SOL     OW30433   2.313   2.771   3.283
 9845SOL    HW130434   2.393   2.711   3.273
 9845SOL    HW230435   2.320   2.823   3.368
 9846SOL     OW30436   3.669   2.958   1.979
 9846SOL    HW130437   3.683   2.914   2.068
 9846SOL    HW230438   3.755   2.998   1.948
 9847SOL     OW30439   3.412   2.866   3.560
 9847SOL    HW130440   3.493   2.879   3.617
 9847SOL    HW230441   3.339   2.824   3.614
 9848SOL     OW30442   4.449   3.136   5.328
 9848SOL    HW130443   4.454   3.177   5.419
 9848SOL    HW230444   4.378   3.183   5.275
 9849SOL     OW30445   0.645   6.826   6.478
 9849SOL    HW130446   0.713   6.843   6.406
 9849SOL    HW230447   0.683   6.849   6.567
 9850SOL     OW30448   6.245   6.905   4.323
 9850SOL    HW130449   6.225   6.821   4.373
 9850SOL    HW230450   6.342   6.929   4.335
 9851SOL     OW30451   6.864   0.619   4.676
 9851SOL    HW130452   6.946   0.567   4.702
 9851SOL    HW230453   6.852   0.696   4.739
 9852SOL     OW30454   3.281   1.457   3.879
 9852SOL    HW130455   3.280   1.499   3.969
 9852SOL    HW230456   3.189   1.428   3.854
 9853SOL     OW30457   5.087   4.202   4.740
 9853SOL    HW130458   4.999   4.166   4.772
 9853SOL    HW230459   5.143   4.228   4.818
 9854SOL     OW30460   6.605   5.905   4.810
 9854SOL    HW130461   6.516   5.876   4.775
 9854SOL    HW230462   6.677   5.857   4.759
 9855SOL     OW30463   2.033   3.862   1.149
 9855SOL    HW130464   1.952   3.845   1.093
 9855SOL    HW230465   2.017   3.828   1.241
 9856SOL     OW30466   4.739   4.195   4.517
 9856SOL    HW130467   4.658   4.217   4.463
 9856SOL    HW230468   4.726   4.228   4.611
 9857SOL     OW30469   5.050   2.523   2.617
 9857SOL    HW130470   5.029   2.612   2.577
 9857SOL    HW230471   5.016   2.520   2.711
 9858SOL     OW30472   7.021   0.597   1.752
 9858SOL    HW130473   0.021   0.557   1.840
 9858SOL    HW230474   7.010   0.524   1.685
 9859SOL     OW30475   6.248   6.352   3.154
 9859SOL    HW130476   6.154   6.347   3.122
 9859SOL    HW230477   6.307   6.386   3.080
 9860SOL     OW30478   1.842   2.323   3.654
 9860SOL    HW130479   1.939   2.346   3.652
 9860SOL    HW230480   1.788   2.400   3.619
 9861SOL     OW30481   3.078   0.598   3.258
 9861SOL    HW130482   3.092   0.681   3.203
 9861SOL    HW230483   3.166   0.566   3.292
 9862SOL     OW30484   3.511   2.990   6.764
 9862SOL    HW130485   3.529   2.954   6.672
 9862SOL    HW230486   3.591   3.042   6.796
 9863SOL     OW30487   3.948   6.900   2.400
 9863SOL    HW130488   4.028   6.841   2.392
 9863SOL    HW230489   3.929   6.943   2.312
 9864SOL     OW30490   3.986   6.581   3.700
 9864SOL    HW130491   3.919   6.639   3.654
 9864SOL    HW230492   3.962   6.572   3.796
 9865SOL     OW30493   1.928   6.711   4.681
 9865SOL    HW130494   1.919   6.726   4.583
 9865SOL    HW230495   1.894   6.619   4.703
 9866SOL     OW30496   4.762   4.698   6.460
 9866SOL    HW130497   4.768   4.598   6.463
 9866SOL    HW230498   4.850   4.736   6.431
 9867SOL     OW30499   6.802   1.610   1.173
 9867SOL    HW130500   6.732   1.598   1.102
 9867SOL    HW230501   6.788   1.542   1.246
 9868SOL     OW30502   0.828   3.402   5.070
 9868SOL    HW130503   0.825   3.474   5.139
 9868SOL    HW230504   0.846   3.314   5.114
 9869SOL     OW30505   0.615   2.346   1.757
 9869SOL    HW130506   0.518   2.358   1.781
 9869SOL    HW230507   0.630   2.251   1.729
 9870SOL     OW30508   3.734   5.781   2.481
 9870SOL    HW130509   3.706   5.780   2.385
 9870SOL    HW230510   3.686   5.709   2.530
 9871SOL     OW30511   6.759   5.279   6.165
 9871SOL    HW130512   6.732   5.345   6.236
 9871SOL    HW230513   6.680   5.259   6.107
 9872SOL     OW30514   2.471   5.278   5.046
 9872SOL    HW130515   2.407   5.239   5.113
 9872SOL    HW230516   2.419   5.326   4.976
 9873SOL     OW30517   2.474   2.540   0.445
 9873SOL    HW130518   2.451   2.551   0.542
 9873SOL    HW230519   2.405   2.483   0.401
 9874SOL     OW30520   5.224   3.545   5.066
 9874SOL    HW130521   5.324   3.554   5.068
 9874SOL    HW230522   5.187   3.577   5.154
 9875SOL     OW30523   5.920   5.750   1.412
 9875SOL    HW130524   5.928   5.666   1.466
 9875SOL    HW230525   5.876   5.729   1.324
 9876SOL     OW30526   5.509   0.895   4.023
 9876SOL    HW130527   5.540   0.897   4.118
 9876SOL    HW230528   5.586   0.874   3.963
 9877SOL     OW30529   6.492   5.010   4.322
 9877SOL    HW130530   6.572   5.070   4.320
 9877SOL    HW230531   6.472   4.984   4.417
 9878SOL     OW30532   3.142   4.290   5.745
 9878SOL    HW130533   3.145   4.381   5.785
 9878SOL    HW230534   3.095   4.227   5.807
 9879SOL     OW30535   5.023   5.926   5.251
 9879SOL    HW130536   5.114   5.903   5.287
 9879SOL    HW230537   5.032   5.954   5.155
 9880SOL     OW30538   3.798   0.909   0.250
 9880SOL    HW130539   3.876   0.969   0.232
 9880SOL    HW230540   3.810   0.865   0.338
 9881SOL     OW30541   1.280   1.480   5.055
 9881SOL    HW130542   1.306   1.398   5.006
 9881SOL    HW230543   1.230   1.542   4.994
 9882SOL     OW30544   1.811   3.813   4.849
 9882SOL    HW130545   1.851   3.725   4.874
 9882SOL    HW230546   1.849   3.884   4.908
 9883SOL     OW30547   1.468   6.161   0.713
 9883SOL    HW130548   1.551   6.153   0.768
 9883SOL    HW230549   1.395   6.199   0.769
 9884SOL     OW30550   4.733   2.494   0.991
 9884SOL    HW130551   4.815   2.509   0.936
 9884SOL    HW230552   4.676   2.424   0.948
 9885SOL     OW30553   0.036   1.932   4.733
 9885SOL    HW130554   0.097   1.985   4.792
 9885SOL    HW230555   0.026   1.979   4.645
 9886SOL     OW30556   1.043   5.506   2.079
 9886SOL    HW130557   1.031   5.407   2.078
 9886SOL    HW230558   1.027   5.542   1.987
 9887SOL     OW30559   3.936   0.346   6.894
 9887SOL    HW130560   3.920   0.262   6.841
 9887SOL    HW230561   3.892   0.423   6.847
 9888SOL     OW30562   5.118   5.113   2.774
 9888SOL    HW130563   5.037   5.098   2.716
 9888SOL    HW230564   5.161   5.025   2.795
 9889SOL     OW30565   6.216   4.451   0.952
 9889SOL    HW130566   6.149   4.513   0.912
 9889SOL    HW230567   6.305   4.463   0.907
 9890SOL     OW30568   0.493   2.534   1.170
 9890SOL    HW130569   0.544   2.452   1.198
 9890SOL    HW230570   0.459   2.581   1.251
 9891SOL     OW30571   5.971   3.101   1.742
 9891SOL    HW130572   5.917   3.099   1.826
 9891SOL    HW230573   5.922   3.052   1.670
 9892SOL     OW30574   1.681   5.199   2.484
 9892SOL    HW130575   1.710   5.252   2.404
 9892SOL    HW230576   1.604   5.139   2.458
 9893SOL     OW30577   6.348   0.453   2.526
 9893SOL    HW130578   6.424   0.390   2.535
 9893SOL    HW230579   6.332   0.499   2.613
 9894SOL     OW30580   3.005   1.973   6.791
 9894SOL    HW130581   3.039   1.880   6.808
 9894SOL    HW230582   2.978   2.014   6.878
 9895SOL     OW30583   5.091   3.756   5.460
 9895SOL    HW130584   4.995   3.739   5.481
 9895SOL    HW230585   5.146   3.678   5.489
 9896SOL     OW30586   5.436   1.543   0.883
 9896SOL    HW130587   5.521   1.532   0.832
 9896SOL    HW230588   5.456   1.544   0.981
 9897SOL     OW30589   5.620   0.271   2.380
 9897SOL    HW130590   5.716   0.251   2.361
 9897SOL    HW230591   5.605   0.370   2.376
 9898SOL     OW30592   0.691   4.532   6.173
 9898SOL    HW130593   0.784   4.556   6.146
 9898SOL    HW230594   0.644   4.488   6.096
 9899SOL     OW30595   1.277   5.123   1.976
 9899SOL    HW130596   1.312   5.198   1.919
 9899SOL    HW230597   1.296   5.143   2.072
 9900SOL     OW30598   1.498   3.382   2.056
 9900SOL    HW130599   1.517   3.318   2.131
 9900SOL    HW230600   1.414   3.432   2.075
 9901SOL     OW30601   3.247   0.788   6.876
 9901SOL    HW130602   3.228   0.808   6.973
 9901SOL    HW230603   3.192   0.709   6.848
 9902SOL     OW30604   3.833   4.177   1.436
 9902SOL    HW130605   3.768   4.108   1.468
 9902SOL    HW230606   3.875   4.222   1.515
 9903SOL     OW30607   5.467   1.792   1.332
 9903SOL    HW130608   5.519   1.852   1.393
 9903SOL    HW230609   5.417   1.847   1.265
 9904SOL     OW30610   0.365   3.844   6.378
 9904SOL    HW130611   0.341   3.939   6.359
 9904SOL    HW230612   0.382   3.832   6.475
 9905SOL     OW30613   2.528   0.294   5.782
 9905SOL    HW130614   2.517   0.208   5.832
 9905SOL    HW230615   2.577   0.360   5.840
 9906SOL     OW30616   1.920   3.487   0.698
 9906SOL    HW130617   1.980   3.526   0.768
 9906SOL    HW230618   1.898   3.557   0.630
 9907SOL     OW30619   1.310   0.751   1.616
 9907SOL    HW130620   1.377   0.737   1.689
 9907SOL    HW230621   1.348   0.812   1.546
 9908SOL     OW30622   6.789   2.787   5.174
 9908SOL    HW130623   6.789   2.712   5.241
 9908SOL    HW230624   6.849   2.860   5.207
 9909SOL     OW30625   3.894   0.625   2.516
 9909SOL    HW130626   3.813   0.577   2.482
 9909SOL    HW230627   3.865   0.706   2.567
 9910SOL     OW30628   1.518   5.375   1.344
 9910SOL    HW130629   1.481   5.448   1.402
 9910SOL    HW230630   1.481   5.385   1.251
 9911SOL     OW30631   2.758   5.849   1.959
 9911SOL    HW130632   2.790   5.863   1.865
 9911SOL    HW230633   2.728   5.754   1.970
 9912SOL     OW30634   3.802   0.982   1.302
 9912SOL    HW130635   3.779   0.941   1.214
 9912SOL    HW230636   3.861   0.919   1.354
 9913SOL     OW30637   5.957   2.996   1.205
 9913SOL    HW130638   5.929   3.079   1.252
 9913SOL    HW230639   5.944   3.008   1.106
 9914SOL     OW30640   6.893   6.723   5.755
 9914SOL    HW130641   6.888   6.744   5.657
 9914SOL    HW230642   6.808   6.680   5.784
 9915SOL     OW30643   5.615   1.182   3.506
 9915SOL    HW130644   5.622   1.099   3.451
 9915SOL    HW230645   5.570   1.161   3.593
 9916SOL     OW30646   1.890   2.235   3.193
 9916SOL    HW130647   1.813   2.196   3.244
 9916SOL    HW230648   1.976   2.204   3.234
 9917SOL     OW30649   3.403   3.577   5.460
 9917SOL    HW130650   3.356   3.663   5.438
 9917SOL    HW230651   3.483   3.567   5.401
 9918SOL     OW30652   1.248   3.042   2.380
 9918SOL    HW130653   1.154   3.013   2.369
 9918SOL    HW230654   1.262   3.076   2.473
 9919SOL     OW30655   2.625   5.579   2.043
 9919SOL    HW130656   2.637   5.482   2.026
 9919SOL    HW230657   2.665   5.603   2.131
 9920SOL     OW30658   4.791   0.492   2.679
 9920SOL    HW130659   4.862   0.562   2.685
 9920SOL    HW230660   4.702   0.535   2.663
 9921SOL     OW30661   4.530   6.821   4.839
 9921SOL    HW130662   4.475   6.812   4.921
 9921SOL    HW230663   4.555   6.917   4.826
 9922SOL     OW30664   3.991   4.239   1.191
 9922SOL    HW130665   4.088   4.216   1.185
 9922SOL    HW230666   3.955   4.208   1.279
 9923SOL     OW30667   6.167   3.636   0.471
 9923SOL    HW130668   6.161   3.705   0.543
 9923SOL    HW230669   6.263   3.618   0.450
 9924SOL     OW30670   4.939   1.625   3.070
 9924SOL    HW130671   4.845   1.640   3.039
 9924SOL    HW230672   5.003   1.668   3.007
 9925SOL     OW30673   0.651   4.753   3.906
 9925SOL    HW130674   0.692   4.824   3.963
 9925SOL    HW230675   0.658   4.665   3.953
 9926SOL     OW30676   3.687   2.811   0.572
 9926SOL    HW130677   3.614   2.742   0.566
 9926SOL    HW230678   3.647   2.902   0.557
 9927SOL     OW30679   1.221   1.147   0.618
 9927SOL    HW130680   1.259   1.086   0.550
 9927SOL    HW230681   1.293   1.177   0.680
 9928SOL     OW30682   5.405   3.945   3.448
 9928SOL    HW130683   5.383   3.921   3.353
 9928SOL    HW230684   5.475   4.016   3.449
 9929SOL     OW30685   3.902   4.033   4.442
 9929SOL    HW130686   3.953   3.998   4.363
 9929SOL    HW230687   3.932   3.986   4.525
 9930SOL     OW30688   0.613   6.595   6.126
 9930SOL    HW130689   0.614   6.549   6.215
 9930SOL    HW230690   0.683   6.666   6.125
 9931SOL     OW30691   6.970   5.946   4.119
 9931SOL    HW130692   6.936   5.881   4.051
 9931SOL    HW230693   6.895   5.978   4.176
 9932SOL     OW30694   2.700   2.407   5.819
 9932SOL    HW130695   2.708   2.501   5.787
 9932SOL    HW230696   2.781   2.382   5.873
 9933SOL     OW30697   1.684   6.793   4.037
 9933SOL    HW130698   1.783   6.796   4.024
 9933SOL    HW230699   1.648   6.706   4.002
 9934SOL     OW30700   6.849   1.812   6.358
 9934SOL    HW130701   6.804   1.807   6.269
 9934SOL    HW230702   6.781   1.803   6.431
 9935SOL     OW30703   2.662   6.994   1.173
 9935SOL    HW130704   2.623   0.003   1.258
 9935SOL    HW230705   2.588   6.974   1.109
 9936SOL     OW30706   6.562   4.943   0.436
 9936SOL    HW130707   6.503   5.004   0.489
 9936SOL    HW230708   6.522   4.852   0.432
 9937SOL     OW30709   0.723   1.393   2.014
 9937SOL    HW130710   0.632   1.353   2.024
 9937SOL    HW230711   0.774   1.342   1.944
 9938SOL     OW30712   5.863   5.565   4.043
 9938SOL    HW130713   5.834   5.475   4.076
 9938SOL    HW230714   5.918   5.553   3.960
 9939SOL     OW30715   3.011   2.942   0.821
 9939SOL    HW130716   3.000   2.971   0.916
 9939SOL    HW230717   3.102   2.970   0.789
 9940SOL     OW30718   1.168   0.163   2.247
 9940SOL    HW130719   1.140   0.247   2.201
 9940SOL    HW230720   1.115   0.152   2.331
 9941SOL     OW30721   3.300   4.655   6.042
 9941SOL    HW130722   3.225   4.601   6.081
 9941SOL    HW230723   3.273   4.751   6.037
 9942SOL     OW30724   4.022   5.527   2.298
 9942SOL    HW130725   3.941   5.576   2.265
 9942SOL    HW230726   4.100   5.590   2.300
 9943SOL     OW30727   0.976   4.892   6.531
 9943SOL    HW130728   0.908   4.948   6.579
 9943SOL    HW230729   0.933   4.806   6.502
 9944SOL     OW30730   0.956   4.539   6.641
 9944SOL    HW130731   0.942   4.564   6.545
 9944SOL    HW230732   0.941   4.441   6.653
 9945SOL     OW30733   4.640   5.524   0.215
 9945SOL    HW130734   4.650   5.453   0.284
 9945SOL    HW230735   4.590   5.601   0.254
 9946SOL     OW30736   6.566   6.979   3.195
 9946SOL    HW130737   6.611   0.001   3.269
 9946SOL    HW230738   6.479   7.024   3.173
 9947SOL     OW30739   2.873   2.206   4.977
 9947SOL    HW130740   2.807   2.280   4.992
 9947SOL    HW230741   2.964   2.237   5.005
 9948SOL     OW30742   6.334   5.860   4.767
 9948SOL    HW130743   6.254   5.842   4.825
 9948SOL    HW230744   6.323   5.812   4.680
 9949SOL     OW30745   0.231   4.949   4.002
 9949SOL    HW130746   0.296   4.920   4.072
 9949SOL    HW230747   0.154   4.886   3.999
 9950SOL     OW30748   5.996   6.369   6.799
 9950SOL    HW130749   5.938   6.288   6.806
 9950SOL    HW230750   5.996   6.418   6.886
 9951SOL     OW30751   0.810   2.632   3.012
 9951SOL    HW130752   0.868   2.708   2.983
 9951SOL    HW230753   0.715   2.663   3.015
 9952SOL     OW30754   1.765   4.186   0.595
 9952SOL    HW130755   1.834   4.258   0.608
 9952SOL    HW230756   1.738   4.150   0.685
 9953SOL     OW30757   6.064   1.746   3.635
 9953SOL    HW130758   6.094   1.651   3.642
 9953SOL    HW230759   6.136   1.801   3.592
 9954SOL     OW30760   1.347   0.141   5.105
 9954SOL    HW130761   1.427   0.109   5.155
 9954SOL    HW230762   1.359   0.124   5.007
 9955SOL     OW30763   4.548   3.614   6.228
 9955SOL    HW130764   4.497   3.638   6.311
 9955SOL    HW230765   4.537   3.687   6.160
 9956SOL     OW30766   0.388   5.053   3.761
 9956SOL    HW130767   0.324   5.120   3.723
 9956SOL    HW230768   0.350   5.016   3.846
 9957SOL     OW30769   5.883   0.378   1.869
 9957SOL    HW130770   5.983   0.386   1.866
 9957SOL    HW230771   5.857   0.334   1.955
 9958SOL     OW30772   2.853   5.779   0.023
 9958SOL    HW130773   2.772   5.812   7.003
 9958SOL    HW230774   2.919   5.854   0.031
 9959SOL     OW30775   4.153   3.559   3.437
 9959SOL    HW130776   4.100   3.572   3.353
 9959SOL    HW230777   4.251   3.564   3.416
 9960SOL     OW30778   0.624   6.961   2.422
 9960SOL    HW130779   0.533   6.924   2.407
 9960SOL    HW230780   0.661   6.996   2.335
 9961SOL     OW30781   1.661   5.190   4.238
 9961SOL    HW130782   1.633   5.248   4.162
 9961SOL    HW230783   1.761   5.185   4.242
 9962SOL     OW30784   4.609   0.803   2.838
 9962SOL    HW130785   4.597   0.756   2.751
 9962SOL    HW230786   4.578   0.897   2.830
 9963SOL     OW30787   2.189   2.501   6.506
 9963SOL    HW130788   2.241   2.471   6.586
 9963SOL    HW230789   2.142   2.587   6.528
 9964SOL     OW30790   4.304   4.569   6.094
 9964SOL    HW130791   4.399   4.539   6.082
 9964SOL    HW230792   4.303   4.658   6.141
 9965SOL     OW30793   3.660   5.067   5.252
 9965SOL    HW130794   3.594   5.002   5.214
 9965SOL    HW230795   3.679   5.045   5.347
 9966SOL     OW30796   2.866   5.162   2.324
 9966SOL    HW130797   2.781   5.110   2.312
 9966SOL    HW230798   2.858   5.249   2.277
 9967SOL     OW30799   5.428   5.862   1.455
 9967SOL    HW130800   5.359   5.825   1.392
 9967SOL    HW230801   5.382   5.900   1.536
 9968SOL     OW30802   3.376   5.316   6.378
 9968SOL    HW130803   3.404   5.268   6.461
 9968SOL    HW230804   3.454   5.365   6.340
 9969SOL     OW30805   0.879   2.815   4.029
 9969SOL    HW130806   0.906   2.743   3.964
 9969SOL    HW230807   0.915   2.794   4.119
 9970SOL     OW30808   6.556   4.541   2.064
 9970SOL    HW130809   6.570   4.488   1.981
 9970SOL    HW230810   6.549   4.638   2.041
 9971SOL     OW30811   2.397   3.984   0.559
 9971SOL    HW130812   2.316   3.927   0.544
 9971SOL    HW230813   2.472   3.952   0.501
 9972SOL     OW30814   3.478   4.346   0.196
 9972SOL    HW130815   3.532   4.314   0.273
 9972SOL    HW230816   3.506   4.297   0.113
 9973SOL     OW30817   4.399   2.073   4.754
 9973SOL    HW130818   4.413   2.009   4.679
 9973SOL    HW230819   4.347   2.029   4.826
 9974SOL     OW30820   5.906   3.526   3.307
 9974SOL    HW130821   5.917   3.503   3.211
 9974SOL    HW230822   5.982   3.584   3.337
 9975SOL     OW30823   0.096   4.462   0.107
 9975SOL    HW130824   0.034   4.408   0.164
 9975SOL    HW230825   0.131   4.406   0.032
 9976SOL     OW30826   6.835   5.618   5.592
 9976SOL    HW130827   6.768   5.617   5.518
 9976SOL    HW230828   6.904   5.688   5.574
 9977SOL     OW30829   6.797   4.950   5.750
 9977SOL    HW130830   6.722   4.909   5.697
 9977SOL    HW230831   6.885   4.919   5.713
 9978SOL     OW30832   6.085   2.177   3.827
 9978SOL    HW130833   6.073   2.261   3.880
 9978SOL    HW230834   6.089   2.200   3.730
 9979SOL     OW30835   6.502   5.093   6.561
 9979SOL    HW130836   6.594   5.068   6.531
 9979SOL    HW230837   6.439   5.017   6.545
 9980SOL     OW30838   1.549   1.444   6.364
 9980SOL    HW130839   1.515   1.525   6.316
 9980SOL    HW230840   1.574   1.470   6.457
 9981SOL     OW30841   2.491   1.842   1.264
 9981SOL    HW130842   2.562   1.791   1.216
 9981SOL    HW230843   2.465   1.792   1.347
 9982SOL     OW30844   0.634   1.515   3.063
 9982SOL    HW130845   0.686   1.573   3.126
 9982SOL    HW230846   0.560   1.569   3.022
 9983SOL     OW30847   1.451   1.897   2.063
 9983SOL    HW130848   1.463   1.798   2.077
 9983SOL    HW230849   1.502   1.925   1.982
 9984SOL     OW30850   1.208   0.146   0.491
 9984SOL    HW130851   1.227   0.071   0.427
 9984SOL    HW230852   1.278   0.146   0.563
 9985SOL     OW30853   2.893   0.727   1.195
 9985SOL    HW130854   2.969   0.750   1.256
 9985SOL    HW230855   2.928   0.708   1.104
 9986SOL     OW30856   5.424   4.240   6.554
 9986SOL    HW130857   5.494   4.248   6.483
 9986SOL    HW230858   5.370   4.157   6.537
 9987SOL     OW30859   5.120   1.748   2.912
 9987SOL    HW130860   5.217   1.725   2.909
 9987SOL    HW230861   5.080   1.736   2.821
 9988SOL     OW30862   0.160   5.696   4.916
 9988SOL    HW130863   0.119   5.691   4.825
 9988SOL    HW230864   0.094   5.735   4.981
 9989SOL     OW30865   5.330   3.475   2.555
 9989SOL    HW130866   5.371   3.495   2.466
 9989SOL    HW230867   5.252   3.536   2.571
 9990SOL     OW30868   2.815   6.817   3.189
 9990SOL    HW130869   2.876   6.776   3.257
 9990SOL    HW230870   2.865   6.830   3.103
 9991SOL     OW30871   1.356   3.143   5.168
 9991SOL    HW130872   1.280   3.120   5.107
 9991SOL    HW230873   1.426   3.072   5.162
 9992SOL     OW30874   5.069   3.616   0.643
 9992SOL    HW130875   5.142   3.559   0.681
 9992SOL    HW230876   5.037   3.680   0.712
 9993SOL     OW30877   4.620   6.754   2.786
 9993SOL    HW130878   4.561   6.721   2.860
 9993SOL    HW230879   4.674   6.678   2.750
 9994SOL     OW30880   6.714   3.758   4.327
 9994SOL    HW130881   6.765   3.698   4.389
 9994SOL    HW230882   6.688   3.842   4.376
 9995SOL     OW30883   2.837   6.827   2.596
 9995SOL    HW130884   2.796   6.867   2.679
 9995SOL    HW230885   2.900   6.894   2.555
 9996SOL     OW30886   2.675   2.341   1.248
 9996SOL    HW130887   2.654   2.252   1.208
 9996SOL    HW230888   2.765   2.372   1.215
 9997SOL     OW30889   3.971   2.107   1.158
 9997SOL    HW130890   4.058   2.152   1.136
 9997SOL    HW230891   3.896   2.171   1.143
 9998SOL     OW30892   6.570   3.762   2.151
 9998SOL    HW130893   6.576   3.665   2.128
 9998SOL    HW230894   6.625   3.781   2.232
 9999SOL     OW30895   6.528   4.566   4.601
 9999SOL    HW130896   6.506   4.471   4.581
 9999SOL    HW230897   6.518   4.621   4.518
10000SOL     OW30898   5.902   2.414   0.014
10000SOL    HW130899   5.987   2.371   7.012
10000SOL    HW230900   5.857   2.458   6.965
10001SOL     OW30901   4.944   1.277   1.644
10001SOL    HW130902   4.994   1.294   1.558
10001SOL    HW230903   4.857   1.233   1.623
10002SOL     OW30904   1.353   0.513   1.424
10002SOL    HW130905   1.399   0.593   1.461
10002SOL    HW230906   1.350   0.441   1.493
10003SOL     OW30907   3.835   2.096   3.597
10003SOL    HW130908   3.905   2.102   3.669
10003SOL    HW230909   3.770   2.024   3.620
10004SOL     OW30910   4.840   2.973   4.588
10004SOL    HW130911   4.761   2.929   4.545
10004SOL    HW230912   4.924   2.934   4.550
10005SOL     OW30913   5.108   6.000   3.544
10005SOL    HW130914   5.086   6.063   3.619
10005SOL    HW230915   5.024   5.957   3.510
10006SOL     OW30916   5.612   0.845   4.260
10006SOL    HW130917   5.611   0.856   4.360
10006SOL    HW230918   5.611   0.747   4.238
10007SOL     OW30919   0.710   4.483   5.141
10007SOL    HW130920   0.778   4.422   5.100
10007SOL    HW230921   0.679   4.443   5.228
10008SOL     OW30922   4.076   1.463   4.213
10008SOL    HW130923   4.088   1.507   4.302
10008SOL    HW230924   4.157   1.480   4.156
10009SOL     OW30925   1.998   3.765   1.408
10009SOL    HW130926   1.953   3.683   1.445
10009SOL    HW230927   2.023   3.825   1.484
10010SOL     OW30928   2.329   6.634   6.974
10010SOL    HW130929   2.241   6.597   7.004
10010SOL    HW230930   2.397   6.561   6.973
10011SOL     OW30931   0.085   2.481   5.084
10011SOL    HW130932   0.160   2.441   5.137
10011SOL    HW230933   0.008   2.501   5.145
10012SOL     OW30934   5.187   0.075   2.717
10012SOL    HW130935   5.210   0.012   2.642
10012SOL    HW230936   5.240   0.049   2.798
10013SOL     OW30937   1.772   1.486   4.332
10013SOL    HW130938   1.742   1.573   4.293
10013SOL    HW230939   1.764   1.415   4.263
10014SOL     OW30940   6.386   2.742   0.182
10014SOL    HW130941   6.426   2.773   0.269
10014SOL    HW230942   6.399   2.812   0.112
10015SOL     OW30943   3.000   4.315   0.125
10015SOL    HW130944   3.035   4.242   0.067
10015SOL    HW230945   3.039   4.306   0.217
10016SOL     OW30946   2.368   0.161   4.787
10016SOL    HW130947   2.313   0.209   4.856
10016SOL    HW230948   2.343   0.064   4.786
10017SOL     OW30949   1.939   2.591   2.340
10017SOL    HW130950   1.986   2.570   2.254
10017SOL    HW230951   1.905   2.685   2.337
10018SOL     OW30952   5.406   6.721   6.107
10018SOL    HW130953   5.333   6.665   6.069
10018SOL    HW230954   5.491   6.668   6.109
10019SOL     OW30955   1.426   1.700   3.155
10019SOL    HW130956   1.330   1.716   3.134
10019SOL    HW230957   1.478   1.690   3.070
10020SOL     OW30958   0.149   2.443   1.453
10020SOL    HW130959   0.108   2.378   1.388
10020SOL    HW230960   0.185   2.392   1.532
10021SOL     OW30961   0.769   3.026   1.560
10021SOL    HW130962   0.820   3.031   1.475
10021SOL    HW230963   0.765   3.116   1.603
10022SOL     OW30964   3.394   6.910   0.992
10022SOL    HW130965   3.312   6.870   0.952
10022SOL    HW230966   3.474   6.854   0.968
10023SOL     OW30967   1.626   5.153   5.785
10023SOL    HW130968   1.647   5.130   5.880
10023SOL    HW230969   1.699   5.118   5.726
10024SOL     OW30970   2.459   6.715   2.038
10024SOL    HW130971   2.399   6.648   2.082
10024SOL    HW230972   2.438   6.806   2.072
10025SOL     OW30973   1.084   0.889   1.171
10025SOL    HW130974   1.059   0.891   1.074
10025SOL    HW230975   1.155   0.958   1.189
10026SOL     OW30976   4.674   6.414   3.839
10026SOL    HW130977   4.715   6.360   3.765
10026SOL    HW230978   4.713   6.386   3.926
10027SOL     OW30979   0.378   4.434   5.035
10027SOL    HW130980   0.431   4.416   4.952
10027SOL    HW230981   0.437   4.422   5.115
10028SOL     OW30982   1.381   1.930   1.559
10028SOL    HW130983   1.287   1.953   1.587
10028SOL    HW230984   1.406   1.841   1.598
10029SOL     OW30985   3.026   2.245   3.561
10029SOL    HW130986   3.030   2.225   3.659
10029SOL    HW230987   2.983   2.168   3.513
10030SOL     OW30988   2.557   6.633   3.982
10030SOL    HW130989   2.639   6.620   4.038
10030SOL    HW230990   2.579   6.615   3.886
10031SOL     OW30991   6.016   5.182   3.733
10031SOL    HW130992   6.083   5.108   3.728
10031SOL    HW230993   6.007   5.225   3.643
10032SOL     OW30994   3.076   1.015   5.663
10032SOL    HW130995   3.083   0.947   5.589
10032SOL    HW230996   3.145   0.996   5.733
10033SOL     OW30997   4.920   2.496   4.103
10033SOL    HW130998   4.856   2.560   4.061
10033SOL    HW230999   4.996   2.478   4.041
10034SOL     OW31000   3.016   0.245   3.975
10034SOL    HW131001   3.024   0.289   4.065
10034SOL    HW231002   3.100   0.262   3.923
10035SOL     OW31003   6.731   4.561   2.276
10035SOL    HW131004   6.664   4.548   2.202
10035SOL    HW231005   6.784   4.477   2.288
10036SOL     OW31006   5.408   1.837   0.817
10036SOL    HW131007   5.370   1.848   0.726
10036SOL    HW231008   5.444   1.744   0.827
10037SOL     OW31009   5.772   1.667   0.994
10037SOL    HW131010   5.748   1.661   0.897
10037SOL    HW231011   5.689   1.659   1.050
10038SOL     OW31012   3.958   1.042   6.522
10038SOL    HW131013   3.892   1.113   6.547
10038SOL    HW231014   3.945   0.962   6.581
10039SOL     OW31015   3.455   0.173   3.786
10039SOL    HW131016   3.393   0.248   3.807
10039SOL    HW231017   3.403   0.089   3.776
10040SOL     OW31018   4.262   5.989   6.317
10040SOL    HW131019   4.291   5.925   6.245
10040SOL    HW231020   4.342   6.032   6.358
10041SOL     OW31021   3.907   6.464   6.410
10041SOL    HW131022   3.906   6.383   6.352
10041SOL    HW231023   3.971   6.450   6.485
10042SOL     OW31024   1.127   1.524   4.677
10042SOL    HW131025   1.054   1.579   4.637
10042SOL    HW231026   1.216   1.558   4.647
10043SOL     OW31027   6.717   1.927   4.586
10043SOL    HW131028   6.671   1.904   4.672
10043SOL    HW231029   6.672   2.006   4.544
10044SOL     OW31030   2.771   1.503   5.219
10044SOL    HW131031   2.854   1.559   5.223
10044SOL    HW231032   2.749   1.483   5.124
10045SOL     OW31033   3.762   0.552   3.316
10045SOL    HW131034   3.816   0.635   3.305
10045SOL    HW231035   3.670   0.566   3.279
10046SOL     OW31036   2.024   4.095   0.751
10046SOL    HW131037   2.088   4.020   0.769
10046SOL    HW231038   2.074   4.181   0.746
10047SOL     OW31039   0.688   3.856   5.009
10047SOL    HW131040   0.714   3.779   4.951
10047SOL    HW231041   0.593   3.881   4.990
10048SOL     OW31042   6.271   1.084   2.731
10048SOL    HW131043   6.349   1.051   2.783
10048SOL    HW231044   6.303   1.142   2.656
10049SOL     OW31045   0.651   1.813   6.443
10049SOL    HW131046   0.707   1.863   6.377
10049SOL    HW231047   0.672   1.845   6.535
10050SOL     OW31048   5.419   3.851   4.550
10050SOL    HW131049   5.469   3.767   4.573
10050SOL    HW231050   5.323   3.840   4.575
10051SOL     OW31051   6.337   3.881   5.776
10051SOL    HW131052   6.325   3.865   5.875
10051SOL    HW231053   6.248   3.881   5.731
10052SOL     OW31054   1.787   1.134   2.944
10052SOL    HW131055   1.745   1.149   2.854
10052SOL    HW231056   1.731   1.176   3.015
10053SOL     OW31057   3.761   5.410   3.072
10053SOL    HW131058   3.831   5.411   3.000
10053SOL    HW231059   3.771   5.491   3.130
10054SOL     OW31060   5.414   6.121   6.279
10054SOL    HW131061   5.344   6.051   6.292
10054SOL    HW231062   5.412   6.184   6.356
10055SOL     OW31063   6.096   1.125   4.864
10055SOL    HW131064   6.074   1.043   4.811
10055SOL    HW231065   6.151   1.187   4.808
10056SOL     OW31066   5.354   4.134   2.876
10056SOL    HW131067   5.394   4.044   2.894
10056SOL    HW231068   5.282   4.153   2.943
10057SOL     OW31069   4.031   2.680   5.737
10057SOL    HW131070   3.945   2.631   5.756
10057SOL    HW231071   4.104   2.613   5.723
10058SOL     OW31072   6.400   3.633   5.366
10058SOL    HW131073   6.442   3.723   5.375
10058SOL    HW231074   6.306   3.636   5.398
10059SOL     OW31075   0.211   1.476   0.558
10059SOL    HW131076   0.153   1.423   0.619
10059SOL    HW231077   0.284   1.519   0.610
10060SOL     OW31078   2.128   3.083   2.229
10060SOL    HW131079   2.121   3.148   2.154
10060SOL    HW231080   2.060   3.105   2.299
10061SOL     OW31081   4.766   1.392   4.429
10061SOL    HW131082   4.801   1.299   4.430
10061SOL    HW231083   4.667   1.391   4.439
10062SOL     OW31084   5.359   0.315   3.846
10062SOL    HW131085   5.353   0.228   3.895
10062SOL    HW231086   5.412   0.302   3.763
10063SOL     OW31087   2.818   1.062   4.088
10063SOL    HW131088   2.756   0.985   4.100
10063SOL    HW231089   2.774   1.133   4.033
10064SOL     OW31090   5.016   6.685   0.290
10064SOL    HW131091   4.989   6.781   0.287
10064SOL    HW231092   4.937   6.627   0.269
10065SOL     OW31093   2.578   0.133   2.771
10065SOL    HW131094   2.642   0.056   2.779
10065SOL    HW231095   2.543   0.136   2.678
10066SOL     OW31096   0.526   2.142   4.266
10066SOL    HW131097   0.556   2.188   4.350
10066SOL    HW231098   0.460   2.071   4.289
10067SOL     OW31099   0.293   3.451   5.128
10067SOL    HW131100   0.220   3.502   5.082
10067SOL    HW231101   0.259   3.360   5.152
10068SOL     OW31102   0.564   3.457   3.623
10068SOL    HW131103   0.640   3.506   3.580
10068SOL    HW231104   0.598   3.402   3.699
10069SOL     OW31105   3.446   4.981   1.505
10069SOL    HW131106   3.466   5.044   1.580
10069SOL    HW231107   3.469   4.888   1.532
10070SOL     OW31108   0.053   6.426   5.083
10070SOL    HW131109   0.094   6.386   5.165
10070SOL    HW231110   0.116   6.492   5.042
10071SOL     OW31111   0.033   5.720   4.293
10071SOL    HW131112   0.012   5.630   4.330
10071SOL    HW231113   0.132   5.733   4.288
10072SOL     OW31114   0.580   6.759   4.298
10072SOL    HW131115   0.540   6.733   4.210
10072SOL    HW231116   0.634   6.682   4.334
10073SOL     OW31117   6.672   4.144   4.256
10073SOL    HW131118   6.670   4.095   4.343
10073SOL    HW231119   6.764   4.136   4.216
10074SOL     OW31120   2.515   0.142   6.227
10074SOL    HW131121   2.529   0.049   6.260
10074SOL    HW231122   2.598   0.195   6.240
10075SOL     OW31123   1.556   2.490   2.021
10075SOL    HW131124   1.623   2.416   2.011
10075SOL    HW231125   1.482   2.460   2.081
10076SOL     OW31126   5.895   6.157   3.284
10076SOL    HW131127   5.955   6.195   3.354
10076SOL    HW231128   5.901   6.213   3.201
10077SOL     OW31129   4.496   3.595   0.246
10077SOL    HW131130   4.427   3.525   0.264
10077SOL    HW231131   4.473   3.644   0.162
10078SOL     OW31132   6.572   6.360   4.208
10078SOL    HW131133   6.516   6.357   4.290
10078SOL    HW231134   6.630   6.441   4.210
10079SOL     OW31135   6.093   3.180   3.229
10079SOL    HW131136   6.162   3.151   3.163
10079SOL    HW231137   6.002   3.171   3.189
10080SOL     OW31138   5.363   0.984   6.024
10080SOL    HW131139   5.268   0.987   6.055
10080SOL    HW231140   5.370   1.024   5.933
10081SOL     OW31141   0.539   1.737   0.055
10081SOL    HW131142   0.604   1.780   0.117
10081SOL    HW231143   0.588   1.699   7.005
10082SOL     OW31144   0.761   5.366   1.981
10082SOL    HW131145   0.799   5.282   2.020
10082SOL    HW231146   0.678   5.392   2.030
10083SOL     OW31147   3.834   0.167   3.857
10083SOL    HW131148   3.865   0.255   3.819
10083SOL    HW231149   3.799   0.181   3.949
10084SOL     OW31150   1.400   0.647   5.767
10084SOL    HW131151   1.326   0.695   5.815
10084SOL    HW231152   1.374   0.632   5.672
10085SOL     OW31153   3.161   6.744   0.609
10085SOL    HW131154   3.137   6.674   0.542
10085SOL    HW231155   3.245   6.790   0.581
10086SOL     OW31156   6.010   5.883   2.939
10086SOL    HW131157   6.025   5.900   3.037
10086SOL    HW231158   6.089   5.914   2.887
10087SOL     OW31159   6.227   5.695   3.971
10087SOL    HW131160   6.155   5.644   3.924
10087SOL    HW231161   6.316   5.672   3.931
10088SOL     OW31162   6.750   6.923   2.590
10088SOL    HW131163   6.711   6.916   2.682
10088SOL    HW231164   6.793   7.013   2.580
10089SOL     OW31165   2.907   2.016   3.485
10089SOL    HW131166   2.915   1.987   3.390
10089SOL    HW231167   2.816   2.055   3.501
10090SOL     OW31168   6.967   4.973   1.742
10090SOL    HW131169   7.000   4.927   1.824
10090SOL    HW231170   6.895   4.919   1.700
10091SOL     OW31171   6.541   5.742   6.549
10091SOL    HW131172   6.469   5.710   6.610
10091SOL    HW231173   6.539   5.842   6.544
10092SOL     OW31174   1.977   3.002   6.191
10092SOL    HW131175   2.029   3.087   6.204
10092SOL    HW231176   2.008   2.934   6.257
10093SOL     OW31177   4.694   3.421   5.384
10093SOL    HW131178   4.716   3.331   5.347
10093SOL    HW231179   4.666   3.481   5.309
10094SOL     OW31180   2.866   5.952   1.695
10094SOL    HW131181   2.790   5.920   1.639
10094SOL    HW231182   2.865   6.052   1.697
10095SOL     OW31183   5.287   1.203   4.329
10095SOL    HW131184   5.237   1.290   4.338
10095SOL    HW231185   5.286   1.155   4.416
10096SOL     OW31186   4.687   6.413   2.233
10096SOL    HW131187   4.720   6.324   2.202
10096SOL    HW231188   4.765   6.473   2.252
10097SOL     OW31189   1.403   2.057   0.158
10097SOL    HW131190   1.319   2.095   0.120
10097SOL    HW231191   1.388   1.961   0.181
10098SOL     OW31192   2.959   6.988   5.451
10098SOL    HW131193   2.943   6.954   5.544
10098SOL    HW231194   2.933   0.056   5.446
10099SOL     OW31195   0.857   4.682   1.101
10099SOL    HW131196   0.881   4.612   1.034
10099SOL    HW231197   0.904   4.767   1.079
10100SOL     OW31198   5.191   6.245   5.174
10100SOL    HW131199   5.112   6.204   5.127
10100SOL    HW231200   5.250   6.290   5.107
10101SOL     OW31201   6.998   2.920   2.158
10101SOL    HW131202   7.025   2.838   2.208
10101SOL    HW231203   6.910   2.952   2.193
10102SOL     OW31204   0.023   0.782   1.537
10102SOL    HW131205   0.110   0.831   1.545
10102SOL    HW231206   0.022   0.706   1.602
10103SOL     OW31207   2.177   0.218   5.510
10103SOL    HW131208   2.267   0.200   5.550
10103SOL    HW231209   2.126   0.281   5.569
10104SOL     OW31210   1.620   2.271   5.652
10104SOL    HW131211   1.707   2.293   5.697
10104SOL    HW231212   1.637   2.220   5.568
10105SOL     OW31213   2.289   0.305   6.257
10105SOL    HW131214   2.256   0.343   6.171
10105SOL    HW231215   2.355   0.232   6.239
10106SOL     OW31216   3.493   6.639   0.670
10106SOL    HW131217   3.515   6.670   0.762
10106SOL    HW231218   3.445   6.712   0.620
10107SOL     OW31219   5.430   1.638   6.031
10107SOL    HW131220   5.511   1.652   6.088
10107SOL    HW231221   5.349   1.671   6.079
10108SOL     OW31222   6.946   1.466   0.281
10108SOL    HW131223   6.854   1.454   0.243
10108SOL    HW231224   6.973   1.383   0.330
10109SOL     OW31225   0.336   0.752   0.881
10109SOL    HW131226   0.427   0.783   0.855
10109SOL    HW231227   0.296   0.817   0.947
10110SOL     OW31228   5.035   4.839   3.970
10110SOL    HW131229   5.049   4.825   4.068
10110SOL    HW231230   4.965   4.776   3.937
10111SOL     OW31231   6.859   3.801   3.601
10111SOL    HW131232   6.842   3.714   3.554
10111SOL    HW231233   6.891   3.784   3.694
10112SOL     OW31234   5.867   3.101   3.119
10112SOL    HW131235   5.902   3.068   3.031
10112SOL    HW231236   5.843   3.023   3.176
10113SOL     OW31237   4.610   6.888   0.367
10113SOL    HW131238   4.579   6.885   0.272
10113SOL    HW231239   4.605   6.982   0.401
10114SOL     OW31240   4.212   2.273   2.398
10114SOL    HW131241   4.199   2.174   2.386
10114SOL    HW231242   4.296   2.288   2.451
10115SOL     OW31243   4.439   2.177   5.100
10115SOL    HW131244   4.367   2.140   5.040
10115SOL    HW231245   4.519   2.117   5.097
10116SOL     OW31246   0.648   6.495   6.642
10116SOL    HW131247   0.683   6.582   6.680
10116SOL    HW231248   0.717   6.424   6.656
10117SOL     OW31249   6.627   6.524   5.709
10117SOL    HW131250   6.545   6.479   5.674
10117SOL    HW231251   6.683   6.458   5.758
10118SOL     OW31252   2.565   4.640   3.529
10118SOL    HW131253   2.664   4.639   3.544
10118SOL    HW231254   2.532   4.734   3.533
10119SOL     OW31255   6.584   5.011   3.823
10119SOL    HW131256   6.608   4.972   3.735
10119SOL    HW231257   6.649   4.979   3.892
10120SOL     OW31258   1.820   3.690   4.273
10120SOL    HW131259   1.747   3.738   4.223
10120SOL    HW231260   1.815   3.713   4.370
10121SOL     OW31261   5.623   3.602   7.002
10121SOL    HW131262   5.602   3.576   0.068
10121SOL    HW231263   5.720   3.584   6.984
10122SOL     OW31264   5.226   2.408   3.263
10122SOL    HW131265   5.132   2.376   3.249
10122SOL    HW231266   5.280   2.388   3.181
10123SOL     OW31267   5.512   6.088   0.645
10123SOL    HW131268   5.468   6.175   0.666
10123SOL    HW231269   5.596   6.104   0.593
10124SOL     OW31270   1.410   5.058   0.599
10124SOL    HW131271   1.458   4.978   0.563
10124SOL    HW231272   1.312   5.050   0.579
10125SOL     OW31273   2.171   1.221   0.862
10125SOL    HW131274   2.202   1.199   0.770
10125SOL    HW231275   2.224   1.168   0.929
10126SOL     OW31276   0.283   0.179   7.007
10126SOL    HW131277   0.356   0.247   7.002
10126SOL    HW231278   0.316   0.092   6.969
10127SOL     OW31279   2.230   3.765   0.531
10127SOL    HW131280   2.245   3.669   0.558
10127SOL    HW231281   2.150   3.770   0.471
10128SOL     OW31282   3.295   0.963   5.821
10128SOL    HW131283   3.365   1.004   5.763
10128SOL    HW231284   3.312   0.985   5.917
10129SOL     OW31285   6.900   1.196   2.456
10129SOL    HW131286   6.885   1.098   2.451
10129SOL    HW231287   6.919   1.232   2.365
10130SOL     OW31288   0.492   3.798   1.515
10130SOL    HW131289   0.584   3.763   1.497
10130SOL    HW231290   0.433   3.722   1.545
10131SOL     OW31291   2.141   0.282   4.559
10131SOL    HW131292   2.147   0.266   4.658
10131SOL    HW231293   2.048   0.310   4.536
10132SOL     OW31294   1.955   0.577   3.259
10132SOL    HW131295   1.914   0.659   3.218
10132SOL    HW231296   2.052   0.574   3.237
10133SOL     OW31297   4.538   6.569   1.094
10133SOL    HW131298   4.458   6.624   1.067
10133SOL    HW231299   4.518   6.473   1.079
10134SOL     OW31300   5.409   1.170   2.629
10134SOL    HW131301   5.360   1.152   2.714
10134SOL    HW231302   5.342   1.186   2.556
10135SOL     OW31303   5.131   2.451   4.266
10135SOL    HW131304   5.065   2.445   4.191
10135SOL    HW231305   5.169   2.543   4.270
10136SOL     OW31306   5.222   1.754   2.314
10136SOL    HW131307   5.282   1.675   2.300
10136SOL    HW231308   5.132   1.723   2.345
10137SOL     OW31309   0.400   4.647   5.368
10137SOL    HW131310   0.319   4.614   5.320
10137SOL    HW231311   0.469   4.575   5.372
10138SOL     OW31312   5.744   3.068   0.226
10138SOL    HW131313   5.815   3.071   0.295
10138SOL    HW231314   5.674   3.137   0.246
10139SOL     OW31315   3.018   3.882   4.416
10139SOL    HW131316   2.991   3.830   4.497
10139SOL    HW231317   2.968   3.847   4.336
10140SOL     OW31318   0.323   6.790   6.774
10140SOL    HW131319   0.387   6.860   6.743
10140SOL    HW231320   0.358   6.699   6.750
10141SOL     OW31321   4.532   1.198   5.122
10141SOL    HW131322   4.509   1.164   5.031
10141SOL    HW231323   4.448   1.210   5.175
10142SOL     OW31324   5.770   6.467   5.770
10142SOL    HW131325   5.819   6.493   5.687
10142SOL    HW231326   5.826   6.404   5.824
10143SOL     OW31327   5.514   2.372   0.437
10143SOL    HW131328   5.437   2.314   0.411
10143SOL    HW231329   5.581   2.317   0.487
10144SOL     OW31330   4.652   6.889   5.821
10144SOL    HW131331   4.606   6.950   5.885
10144SOL    HW231332   4.707   6.942   5.757
10145SOL     OW31333   3.564   5.580   2.908
10145SOL    HW131334   3.590   5.660   2.962
10145SOL    HW231335   3.615   5.500   2.940
10146SOL     OW31336   6.395   3.860   4.553
10146SOL    HW131337   6.328   3.790   4.574
10146SOL    HW231338   6.354   3.950   4.565
10147SOL     OW31339   4.936   4.028   6.620
10147SOL    HW131340   4.842   4.055   6.600
10147SOL    HW231341   4.977   4.095   6.682
10148SOL     OW31342   5.853   4.610   0.399
10148SOL    HW131343   5.866   4.665   0.317
10148SOL    HW231344   5.769   4.556   0.391
10149SOL     OW31345   5.174   4.148   1.197
10149SOL    HW131346   5.229   4.212   1.142
10149SOL    HW231347   5.179   4.174   1.293
10150SOL     OW31348   4.289   3.338   1.705
10150SOL    HW131349   4.308   3.241   1.721
10150SOL    HW231350   4.213   3.367   1.764
10151SOL     OW31351   1.330   6.851   6.645
10151SOL    HW131352   1.265   6.859   6.570
10151SOL    HW231353   1.347   6.755   6.665
10152SOL     OW31354   6.762   5.833   3.568
10152SOL    HW131355   6.807   5.783   3.642
10152SOL    HW231356   6.791   5.796   3.480
10153SOL     OW31357   5.231   6.036   4.099
10153SOL    HW131358   5.286   5.986   4.032
10153SOL    HW231359   5.139   6.051   4.063
10154SOL     OW31360   3.532   6.539   5.473
10154SOL    HW131361   3.521   6.638   5.474
10154SOL    HW231362   3.521   6.504   5.380
10155SOL     OW31363   4.901   2.640   5.251
10155SOL    HW131364   4.864   2.551   5.224
10155SOL    HW231365   4.872   2.661   5.344
10156SOL     OW31366   5.508   0.395   1.589
10156SOL    HW131367   5.507   0.470   1.524
10156SOL    HW231368   5.602   0.367   1.608
10157SOL     OW31369   6.919   2.298   0.103
10157SOL    HW131370   6.871   2.215   0.074
10157SOL    HW231371   6.955   2.285   0.195
10158SOL     OW31372   6.158   6.709   0.932
10158SOL    HW131373   6.100   6.755   0.864
10158SOL    HW231374   6.252   6.703   0.897
10159SOL     OW31375   3.710   3.406   2.302
10159SOL    HW131376   3.734   3.328   2.245
10159SOL    HW231377   3.611   3.420   2.301
10160SOL     OW31378   1.632   3.819   3.437
10160SOL    HW131379   1.591   3.909   3.419
10160SOL    HW231380   1.627   3.799   3.535
10161SOL     OW31381   3.498   4.456   6.324
10161SOL    HW131382   3.450   4.382   6.277
10161SOL    HW231383   3.589   4.467   6.284
10162SOL     OW31384   2.895   4.380   0.897
10162SOL    HW131385   2.905   4.478   0.913
10162SOL    HW231386   2.837   4.365   0.817
10163SOL     OW31387   0.628   4.587   6.751
10163SOL    HW131388   0.607   4.492   6.775
10163SOL    HW231389   0.723   4.607   6.777
10164SOL     OW31390   5.782   3.611   4.514
10164SOL    HW131391   5.712   3.637   4.581
10164SOL    HW231392   5.862   3.575   4.561
10165SOL     OW31393   6.590   2.201   3.432
10165SOL    HW131394   6.634   2.146   3.503
10165SOL    HW231395   6.646   2.280   3.411
10166SOL     OW31396   2.099   1.690   1.443
10166SOL    HW131397   2.170   1.620   1.443
10166SOL    HW231398   2.102   1.740   1.357
10167SOL     OW31399   6.893   5.860   6.881
10167SOL    HW131400   6.928   5.915   6.805
10167SOL    HW231401   6.905   5.763   6.860
10168SOL     OW31402   6.738   2.248   6.088
10168SOL    HW131403   6.721   2.255   6.186
10168SOL    HW231404   6.660   2.286   6.038
10169SOL     OW31405   6.352   3.431   3.042
10169SOL    HW131406   6.351   3.333   3.019
10169SOL    HW231407   6.271   3.453   3.096
10170SOL     OW31408   6.110   6.069   6.215
10170SOL    HW131409   6.016   6.083   6.246
10170SOL    HW231410   6.170   6.053   6.293
10171SOL     OW31411   0.820   2.335   3.774
10171SOL    HW131412   0.751   2.280   3.821
10171SOL    HW231413   0.823   2.308   3.677
10172SOL     OW31414   0.700   6.428   4.330
10172SOL    HW131415   0.614   6.420   4.380
10172SOL    HW231416   0.684   6.410   4.233
10173SOL     OW31417   2.324   3.083   6.701
10173SOL    HW131418   2.405   3.025   6.706
10173SOL    HW231419   2.346   3.175   6.735
10174SOL     OW31420   4.953   4.603   3.662
10174SOL    HW131421   4.889   4.527   3.650
10174SOL    HW231422   4.905   4.690   3.651
10175SOL     OW31423   5.836   1.847   3.740
10175SOL    HW131424   5.915   1.828   3.682
10175SOL    HW231425   5.814   1.765   3.793
10176SOL     OW31426   6.263   2.944   5.548
10176SOL    HW131427   6.289   3.038   5.572
10176SOL    HW231428   6.264   2.888   5.631
10177SOL     OW31429   1.688   0.344   0.687
10177SOL    HW131430   1.762   0.277   0.688
10177SOL    HW231431   1.693   0.398   0.603
10178SOL     OW31432   1.110   0.918   0.301
10178SOL    HW131433   1.094   0.999   0.244
10178SOL    HW231434   1.027   0.896   0.352
10179SOL     OW31435   0.866   3.569   6.510
10179SOL    HW131436   0.847   3.479   6.472
10179SOL    HW231437   0.782   3.606   6.550
10180SOL     OW31438   4.755   0.138   0.878
10180SOL    HW131439   4.775   0.175   0.969
10180SOL    HW231440   4.817   0.181   0.812
10181SOL     OW31441   0.515   3.007   1.098
10181SOL    HW131442   0.481   3.054   1.179
10181SOL    HW231443   0.557   2.921   1.124
10182SOL     OW31444   4.898   0.942   6.975
10182SOL    HW131445   4.933   0.918   6.885
10182SOL    HW231446   4.810   0.989   6.965
10183SOL     OW31447   5.803   2.883   5.854
10183SOL    HW131448   5.856   2.893   5.770
10183SOL    HW231449   5.810   2.967   5.908
10184SOL     OW31450   4.776   2.851   7.007
10184SOL    HW131451   4.778   2.751   7.004
10184SOL    HW231452   4.844   2.888   6.943
10185SOL     OW31453   6.164   5.621   2.031
10185SOL    HW131454   6.133   5.676   2.109
10185SOL    HW231455   6.264   5.615   2.032
10186SOL     OW31456   4.912   3.792   4.707
10186SOL    HW131457   4.871   3.876   4.743
10186SOL    HW231458   4.924   3.726   4.782
10187SOL     OW31459   1.631   3.471   5.863
10187SOL    HW131460   1.610   3.380   5.827
10187SOL    HW231461   1.683   3.462   5.948
10188SOL     OW31462   2.302   4.988   6.426
10188SOL    HW131463   2.206   4.962   6.436
10188SOL    HW231464   2.350   4.967   6.511
10189SOL     OW31465   0.997   0.678   5.984
10189SOL    HW131466   0.953   0.761   6.018
10189SOL    HW231467   0.979   0.602   6.047
10190SOL     OW31468   4.175   2.996   1.643
10190SOL    HW131469   4.178   2.896   1.649
10190SOL    HW231470   4.268   3.033   1.651
10191SOL     OW31471   5.110   5.319   6.856
10191SOL    HW131472   5.153   5.294   6.943
10191SOL    HW231473   5.074   5.237   6.813
10192SOL     OW31474   3.426   1.843   5.193
10192SOL    HW131475   3.424   1.807   5.100
10192SOL    HW231476   3.493   1.918   5.198
10193SOL     OW31477   3.157   3.809   2.554
10193SOL    HW131478   3.188   3.813   2.458
10193SOL    HW231479   3.058   3.793   2.556
10194SOL     OW31480   4.837   0.786   4.207
10194SOL    HW131481   4.741   0.813   4.211
10194SOL    HW231482   4.852   0.730   4.125
10195SOL     OW31483   6.843   0.103   2.048
10195SOL    HW131484   6.850   0.032   1.978
10195SOL    HW231485   6.777   0.173   2.018
10196SOL     OW31486   4.566   2.158   3.873
10196SOL    HW131487   4.551   2.199   3.963
10196SOL    HW231488   4.639   2.090   3.878
10197SOL     OW31489   4.469   1.842   4.083
10197SOL    HW131490   4.429   1.885   4.002
10197SOL    HW231491   4.563   1.813   4.063
10198SOL     OW31492   4.040   7.023   0.905
10198SOL    HW131493   4.112   7.004   0.971
10198SOL    HW231494   4.079   0.037   0.824
10199SOL     OW31495   0.892   2.172   0.018
10199SOL    HW131496   0.878   2.250   6.986
10199SOL    HW231497   0.804   2.130   0.041
10200SOL     OW31498   5.364   3.538   5.403
10200SOL    HW131499   5.432   3.508   5.336
10200SOL    HW231500   5.391   3.626   5.440
10201SOL     OW31501   0.354   6.254   0.981
10201SOL    HW131502   0.322   6.160   0.982
10201SOL    HW231503   0.453   6.256   0.990
10202SOL     OW31504   1.313   4.404   0.015
10202SOL    HW131505   1.264   4.361   6.968
10202SOL    HW231506   1.308   4.504   0.006
10203SOL     OW31507   1.303   2.823   1.869
10203SOL    HW131508   1.236   2.752   1.847
10203SOL    HW231509   1.273   2.875   1.949
10204SOL     OW31510   3.444   5.665   6.430
10204SOL    HW131511   3.351   5.689   6.404
10204SOL    HW231512   3.483   5.602   6.362
10205SOL     OW31513   3.155   1.246   2.391
10205SOL    HW131514   3.204   1.185   2.328
10205SOL    HW231515   3.108   1.316   2.338
10206SOL     OW31516   5.319   0.019   6.342
10206SOL    HW131517   5.336   0.078   6.421
10206SOL    HW231518   5.316   0.075   6.259
10207SOL     OW31519   2.440   1.224   0.130
10207SOL    HW131520   2.495   1.141   0.123
10207SOL    HW231521   2.355   1.212   0.078
10208SOL     OW31522   6.465   4.545   3.730
10208SOL    HW131523   6.546   4.489   3.747
10208SOL    HW231524   6.473   4.632   3.779
10209SOL     OW31525   0.372   0.577   5.825
10209SOL    HW131526   0.348   0.674   5.834
10209SOL    HW231527   0.470   0.569   5.809
10210SOL     OW31528   5.267   0.040   1.437
10210SOL    HW131529   5.342   7.011   1.403
10210SOL    HW231530   5.305   0.112   1.496
10211SOL     OW31531   3.911   6.490   5.208
10211SOL    HW131532   3.823   6.534   5.225
10211SOL    HW231533   3.904   6.393   5.230
10212SOL     OW31534   0.017   0.467   5.084
10212SOL    HW131535   6.960   0.508   5.051
10212SOL    HW231536   0.067   0.428   5.007
10213SOL     OW31537   5.319   2.597   2.601
10213SOL    HW131538   5.376   2.526   2.560
10213SOL    HW231539   5.231   2.558   2.629
10214SOL     OW31540   1.080   1.925   2.628
10214SOL    HW131541   1.168   1.961   2.599
10214SOL    HW231542   1.023   1.906   2.548
10215SOL     OW31543   3.637   2.946   3.758
10215SOL    HW131544   3.594   3.037   3.753
10215SOL    HW231545   3.658   2.924   3.853
10216SOL     OW31546   0.771   0.095   0.878
10216SOL    HW131547   0.717   0.027   0.828
10216SOL    HW231548   0.844   0.129   0.819
10217SOL     OW31549   2.349   1.803   3.338
10217SOL    HW131550   2.258   1.770   3.360
10217SOL    HW231551   2.417   1.733   3.361
10218SOL     OW31552   1.469   0.440   1.944
10218SOL    HW131553   1.503   0.468   1.854
10218SOL    HW231554   1.479   0.341   1.954
10219SOL     OW31555   0.182   3.152   2.147
10219SOL    HW131556   0.105   3.103   2.188
10219SOL    HW231557   0.230   3.093   2.083
10220SOL     OW31558   4.308   1.769   1.743
10220SOL    HW131559   4.331   1.704   1.671
10220SOL    HW231560   4.335   1.732   1.832
10221SOL     OW31561   1.846   2.964   4.351
10221SOL    HW131562   1.877   3.028   4.281
10221SOL    HW231563   1.766   2.915   4.319
10222SOL     OW31564   2.574   3.618   5.958
10222SOL    HW131565   2.656   3.656   6.002
10222SOL    HW231566   2.554   3.670   5.875
10223SOL     OW31567   1.786   5.665   6.674
10223SOL    HW131568   1.794   5.632   6.580
10223SOL    HW231569   1.848   5.613   6.733
10224SOL     OW31570   0.103   1.802   5.255
10224SOL    HW131571   0.100   1.853   5.341
10224SOL    HW231572   0.138   1.710   5.272
10225SOL     OW31573   1.926   6.080   6.655
10225SOL    HW131574   1.921   6.177   6.679
10225SOL    HW231575   2.010   6.064   6.603
10226SOL     OW31576   2.402   0.332   6.758
10226SOL    HW131577   2.349   0.346   6.842
10226SOL    HW231578   2.340   0.324   6.680
10227SOL     OW31579   5.083   4.886   0.937
10227SOL    HW131580   5.096   4.790   0.961
10227SOL    HW231581   5.153   4.942   0.982
10228SOL     OW31582   0.790   5.457   2.330
10228SOL    HW131583   0.845   5.540   2.325
10228SOL    HW231584   0.697   5.481   2.358
10229SOL     OW31585   1.251   1.879   4.235
10229SOL    HW131586   1.257   1.879   4.135
10229SOL    HW231587   1.339   1.905   4.274
10230SOL     OW31588   6.334   6.356   3.437
10230SOL    HW131589   6.300   6.381   3.346
10230SOL    HW231590   6.433   6.370   3.439
10231SOL     OW31591   6.233   5.819   5.402
10231SOL    HW131592   6.149   5.795   5.451
10231SOL    HW231593   6.227   5.786   5.308
10232SOL     OW31594   2.872   0.587   4.693
10232SOL    HW131595   2.859   0.522   4.617
10232SOL    HW231596   2.913   0.671   4.658
10233SOL     OW31597   4.772   3.857   5.304
10233SOL    HW131598   4.784   3.918   5.226
10233SOL    HW231599   4.739   3.768   5.272
10234SOL     OW31600   5.141   1.031   0.393
10234SOL    HW131601   5.164   1.049   0.297
10234SOL    HW231602   5.043   1.013   0.401
10235SOL     OW31603   4.501   3.128   0.144
10235SOL    HW131604   4.543   3.149   0.056
10235SOL    HW231605   4.406   3.159   0.144
10236SOL     OW31606   2.310   0.224   1.772
10236SOL    HW131607   2.264   0.215   1.684
10236SOL    HW231608   2.259   0.289   1.829
10237SOL     OW31609   6.559   4.381   0.812
10237SOL    HW131610   6.600   4.328   0.886
10237SOL    HW231611   6.534   4.472   0.846
10238SOL     OW31612   3.396   4.121   3.605
10238SOL    HW131613   3.493   4.136   3.589
10238SOL    HW231614   3.374   4.144   3.700
10239SOL     OW31615   1.546   3.907   5.407
10239SOL    HW131616   1.608   3.850   5.353
10239SOL    HW231617   1.595   3.942   5.487
10240SOL     OW31618   2.189   4.831   3.541
10240SOL    HW131619   2.287   4.817   3.553
10240SOL    HW231620   2.159   4.910   3.594
10241SOL     OW31621   6.747   0.470   2.221
10241SOL    HW131622   6.753   0.408   2.299
10241SOL    HW231623   6.767   0.420   2.136
10242SOL     OW31624   6.969   0.900   6.973
10242SOL    HW131625   6.888   0.890   6.915
10242SOL    HW231626   0.011   0.836   6.944
10243SOL     OW31627   0.942   4.954   1.542
10243SOL    HW131628   0.966   4.928   1.635
10243SOL    HW231629   0.843   4.960   1.533
10244SOL     OW31630   0.773   4.193   0.600
10244SOL    HW131631   0.853   4.204   0.660
10244SOL    HW231632   0.783   4.109   0.547
10245SOL     OW31633   2.820   4.447   6.805
10245SOL    HW131634   2.828   4.364   6.861
10245SOL    HW231635   2.907   4.465   6.759
10246SOL     OW31636   3.384   4.097   3.881
10246SOL    HW131637   3.473   4.114   3.922
10246SOL    HW231638   3.313   4.105   3.951
10247SOL     OW31639   0.011   5.470   5.687
10247SOL    HW131640   6.981   5.536   5.639
10247SOL    HW231641   7.019   5.473   5.785
10248SOL     OW31642   3.415   6.714   2.294
10248SOL    HW131643   3.453   6.687   2.382
10248SOL    HW231644   3.414   6.814   2.288
10249SOL     OW31645   3.402   0.940   6.084
10249SOL    HW131646   3.439   0.990   6.162
10249SOL    HW231647   3.307   0.917   6.101
10250SOL     OW31648   6.939   2.863   0.791
10250SOL    HW131649   6.939   2.900   0.884
10250SOL    HW231650   6.893   2.774   0.791
10251SOL     OW31651   2.374   2.313   5.584
10251SOL    HW131652   2.452   2.314   5.521
10251SOL    HW231653   2.350   2.407   5.609
10252SOL     OW31654   4.972   4.769   6.880
10252SOL    HW131655   5.032   4.695   6.848
10252SOL    HW231656   4.878   4.751   6.850
10253SOL     OW31657   3.880   5.744   0.404
10253SOL    HW131658   3.781   5.728   0.410
10253SOL    HW231659   3.899   5.841   0.416
10254SOL     OW31660   5.383   1.811   5.318
10254SOL    HW131661   5.339   1.895   5.348
10254SOL    HW231662   5.389   1.810   5.218
10255SOL     OW31663   1.636   6.666   1.057
10255SOL    HW131664   1.620   6.748   1.112
10255SOL    HW231665   1.683   6.597   1.111
10256SOL     OW31666   5.805   0.784   1.817
10256SOL    HW131667   5.855   0.701   1.794
10256SOL    HW231668   5.865   0.847   1.866
10257SOL     OW31669   1.913   5.588   4.486
10257SOL    HW131670   1.856   5.507   4.474
10257SOL    HW231671   1.999   5.562   4.530
10258SOL     OW31672   3.814   1.025   4.559
10258SOL    HW131673   3.877   1.063   4.491
10258SOL    HW231674   3.796   0.929   4.538
10259SOL     OW31675   0.519   4.373   3.384
10259SOL    HW131676   0.554   4.357   3.292
10259SOL    HW231677   0.437   4.430   3.380
10260SOL     OW31678   0.505   0.610   3.480
10260SOL    HW131679   0.432   0.664   3.521
10260SOL    HW231680   0.546   0.662   3.405
10261SOL     OW31681   6.887   5.544   3.041
10261SOL    HW131682   6.811   5.603   3.068
10261SOL    HW231683   6.858   5.448   3.045
10262SOL     OW31684   2.147   6.599   4.309
10262SOL    HW131685   2.159   6.534   4.384
10262SOL    HW231686   2.220   6.586   4.242
10263SOL     OW31687   5.187   0.846   6.409
10263SOL    HW131688   5.138   0.931   6.391
10263SOL    HW231689   5.165   0.780   6.337
10264SOL     OW31690   5.926   2.634   5.910
10264SOL    HW131691   5.892   2.726   5.932
10264SOL    HW231692   5.916   2.616   5.813
10265SOL     OW31693   3.115   2.132   2.934
10265SOL    HW131694   3.062   2.122   2.849
10265SOL    HW231695   3.092   2.220   2.976
10266SOL     OW31696   3.171   3.095   4.812
10266SOL    HW131697   3.200   3.010   4.768
10266SOL    HW231698   3.168   3.082   4.911
10267SOL     OW31699   6.411   1.539   0.082
10267SOL    HW131700   6.351   1.471   0.039
10267SOL    HW231701   6.363   1.584   0.157
10268SOL     OW31702   5.361   5.197   1.953
10268SOL    HW131703   5.304   5.115   1.953
10268SOL    HW231704   5.383   5.223   2.047
10269SOL     OW31705   0.646   2.744   5.035
10269SOL    HW131706   0.582   2.745   5.112
10269SOL    HW231707   0.610   2.799   4.960
10270SOL     OW31708   3.307   5.141   3.187
10270SOL    HW131709   3.392   5.172   3.145
10270SOL    HW231710   3.229   5.178   3.137
10271SOL     OW31711   3.574   2.730   0.156
10271SOL    HW131712   3.629   2.738   0.073
10271SOL    HW231713   3.522   2.815   0.170
10272SOL     OW31714   0.565   0.066   5.201
10272SOL    HW131715   0.504   0.136   5.238
10272SOL    HW231716   0.513   0.004   5.143
10273SOL     OW31717   3.971   5.418   2.888
10273SOL    HW131718   4.038   5.445   2.957
10273SOL    HW231719   3.999   5.332   2.846
10274SOL     OW31720   6.887   5.017   4.584
10274SOL    HW131721   6.965   5.075   4.609
10274SOL    HW231722   6.919   4.938   4.532
10275SOL     OW31723   0.736   6.662   1.771
10275SOL    HW131724   0.729   6.711   1.858
10275SOL    HW231725   0.802   6.588   1.779
10276SOL     OW31726   5.628   5.504   5.675
10276SOL    HW131727   5.559   5.469   5.738
10276SOL    HW231728   5.683   5.573   5.721
10277SOL     OW31729   2.561   5.492   4.179
10277SOL    HW131730   2.629   5.462   4.113
10277SOL    HW231731   2.480   5.435   4.172
10278SOL     OW31732   6.589   1.168   4.676
10278SOL    HW131733   6.638   1.169   4.763
10278SOL    HW231734   6.617   1.088   4.622
10279SOL     OW31735   2.399   5.883   4.754
10279SOL    HW131736   2.497   5.882   4.772
10279SOL    HW231737   2.380   5.942   4.676
10280SOL     OW31738   1.257   4.102   1.297
10280SOL    HW131739   1.301   4.140   1.379
10280SOL    HW231740   1.284   4.007   1.286
10281SOL     OW31741   5.974   1.099   2.742
10281SOL    HW131742   5.992   1.157   2.662
10281SOL    HW231743   6.056   1.044   2.762
10282SOL     OW31744   6.271   4.403   4.292
10282SOL    HW131745   6.218   4.329   4.251
10282SOL    HW231746   6.209   4.464   4.342
10283SOL     OW31747   0.495   3.578   1.178
10283SOL    HW131748   0.487   3.554   1.275
10283SOL    HW231749   0.561   3.518   1.134
10284SOL     OW31750   5.524   3.431   5.213
10284SOL    HW131751   5.481   3.349   5.176
10284SOL    HW231752   5.509   3.507   5.150
10285SOL     OW31753   4.737   0.820   1.093
10285SOL    HW131754   4.652   0.769   1.083
10285SOL    HW231755   4.724   0.914   1.061
10286SOL     OW31756   3.010   1.953   4.009
10286SOL    HW131757   2.972   1.938   4.100
10286SOL    HW231758   2.993   1.873   3.952
10287SOL     OW31759   2.538   6.064   0.682
10287SOL    HW131760   2.453   6.035   0.639
10287SOL    HW231761   2.543   6.027   0.774
10288SOL     OW31762   5.199   5.928   2.202
10288SOL    HW131763   5.247   5.840   2.195
10288SOL    HW231764   5.261   5.997   2.239
10289SOL     OW31765   3.286   0.827   2.100
10289SOL    HW131766   3.278   0.867   2.192
10289SOL    HW231767   3.217   0.868   2.040
10290SOL     OW31768   3.082   3.911   1.804
10290SOL    HW131769   3.109   3.859   1.723
10290SOL    HW231770   3.125   4.002   1.800
10291SOL     OW31771   3.631   1.086   3.585
10291SOL    HW131772   3.645   1.180   3.556
10291SOL    HW231773   3.626   1.082   3.685
10292SOL     OW31774   1.945   0.422   4.866
10292SOL    HW131775   1.896   0.495   4.914
10292SOL    HW231776   2.039   0.451   4.847
10293SOL     OW31777   1.838   5.406   3.289
10293SOL    HW131778   1.856   5.319   3.243
10293SOL    HW231779   1.810   5.389   3.384
10294SOL     OW31780   5.479   3.927   2.463
10294SOL    HW131781   5.485   3.842   2.412
10294SOL    HW231782   5.384   3.943   2.491
10295SOL     OW31783   5.647   5.400   5.985
10295SOL    HW131784   5.671   5.341   6.061
10295SOL    HW231785   5.724   5.405   5.921
10296SOL     OW31786   4.613   3.017   0.380
10296SOL    HW131787   4.547   3.010   0.455
10296SOL    HW231788   4.570   3.058   0.300
10297SOL     OW31789   1.930   6.736   6.589
10297SOL    HW131790   1.868   6.734   6.511
10297SOL    HW231791   2.023   6.718   6.558
10298SOL     OW31792   3.627   5.003   1.789
10298SOL    HW131793   3.612   4.913   1.830
10298SOL    HW231794   3.680   5.060   1.852
10299SOL     OW31795   4.747   5.105   2.507
10299SOL    HW131796   4.754   5.176   2.577
10299SOL    HW231797   4.663   5.118   2.455
10300SOL     OW31798   1.770   4.681   3.293
10300SOL    HW131799   1.729   4.765   3.255
10300SOL    HW231800   1.777   4.612   3.221
10301SOL     OW31801   6.130   1.936   3.901
10301SOL    HW131802   6.133   1.874   3.822
10301SOL    HW231803   6.106   2.028   3.870
10302SOL     OW31804   0.780   5.586   3.772
10302SOL    HW131805   0.763   5.552   3.864
10302SOL    HW231806   0.699   5.567   3.715
10303SOL     OW31807   2.263   6.066   2.500
10303SOL    HW131808   2.222   6.100   2.416
10303SOL    HW231809   2.245   5.967   2.508
10304SOL     OW31810   5.152   0.944   2.433
10304SOL    HW131811   5.125   1.034   2.466
10304SOL    HW231812   5.096   0.920   2.353
10305SOL     OW31813   0.125   4.689   6.858
10305SOL    HW131814   0.116   4.600   6.904
10305SOL    HW231815   0.222   4.709   6.844
10306SOL     OW31816   4.245   6.640   6.994
10306SOL    HW131817   4.178   6.623   6.921
10306SOL    HW231818   4.201   6.626   0.054
10307SOL     OW31819   2.164   2.381   4.666
10307SOL    HW131820   2.152   2.367   4.765
10307SOL    HW231821   2.219   2.307   4.628
10308SOL     OW31822   2.672   5.258   4.612
10308SOL    HW131823   2.666   5.259   4.712
10308SOL    HW231824   2.632   5.173   4.578
10309SOL     OW31825   5.906   1.211   4.228
10309SOL    HW131826   5.898   1.194   4.326
10309SOL    HW231827   5.846   1.287   4.202
10310SOL     OW31828   4.420   3.074   1.706
10310SOL    HW131829   4.455   3.014   1.635
10310SOL    HW231830   4.477   3.067   1.788
10311SOL     OW31831   0.631   6.271   1.042
10311SOL    HW131832   0.687   6.227   0.973
10311SOL    HW231833   0.678   6.268   1.131
10312SOL     OW31834   2.522   6.234   1.125
10312SOL    HW131835   2.559   6.319   1.161
10312SOL    HW231836   2.597   6.170   1.106
10313SOL     OW31837   4.402   0.079   1.230
10313SOL    HW131838   4.374   0.126   1.313
10313SOL    HW231839   4.495   0.043   1.242
10314SOL     OW31840   0.023   0.422   2.303
10314SOL    HW131841   0.042   0.486   2.378
10314SOL    HW231842   0.043   0.467   2.216
10315SOL     OW31843   6.220   5.353   4.078
10315SOL    HW131844   6.251   5.302   3.997
10315SOL    HW231845   6.149   5.418   4.051
10316SOL     OW31846   7.016   2.585   4.828
10316SOL    HW131847   6.949   2.658   4.836
10316SOL    HW231848   0.021   2.560   4.919
10317SOL     OW31849   3.295   5.841   5.503
10317SOL    HW131850   3.290   5.940   5.518
10317SOL    HW231851   3.340   5.822   5.416
10318SOL     OW31852   5.021   6.114   6.781
10318SOL    HW131853   4.962   6.034   6.789
10318SOL    HW231854   4.967   6.192   6.749
10319SOL     OW31855   2.049   2.765   5.741
10319SOL    HW131856   2.132   2.735   5.789
10319SOL    HW231857   1.971   2.714   5.776
10320SOL     OW31858   0.761   0.601   1.856
10320SOL    HW131859   0.778   0.621   1.760
10320SOL    HW231860   0.780   0.505   1.875
10321SOL     OW31861   4.451   0.698   3.346
10321SOL    HW131862   4.448   0.729   3.251
10321SOL    HW231863   4.528   0.743   3.393
10322SOL     OW31864   6.473   5.905   6.202
10322SOL    HW131865   6.539   5.974   6.233
10322SOL    HW231866   6.390   5.910   6.258
10323SOL     OW31867   6.321   3.513   5.672
10323SOL    HW131868   6.222   3.526   5.669
10323SOL    HW231869   6.350   3.495   5.766
10324SOL     OW31870   2.902   3.295   3.065
10324SOL    HW131871   2.964   3.230   3.021
10324SOL    HW231872   2.919   3.297   3.163
10325SOL     OW31873   6.397   4.039   3.063
10325SOL    HW131874   6.463   3.978   3.107
10325SOL    HW231875   6.425   4.056   2.968
10326SOL     OW31876   3.883   3.323   0.273
10326SOL    HW131877   3.828   3.347   0.193
10326SOL    HW231878   3.949   3.396   0.290
10327SOL     OW31879   2.672   1.822   1.691
10327SOL    HW131880   2.737   1.843   1.764
10327SOL    HW231881   2.580   1.815   1.729
10328SOL     OW31882   6.261   3.264   1.382
10328SOL    HW131883   6.259   3.197   1.308
10328SOL    HW231884   6.306   3.224   1.462
10329SOL     OW31885   3.493   0.087   4.665
10329SOL    HW131886   3.582   0.091   4.711
10329SOL    HW231887   3.440   0.169   4.689
10330SOL     OW31888   3.713   5.524   2.248
10330SOL    HW131889   3.613   5.533   2.239
10330SOL    HW231890   3.736   5.501   2.342
10331SOL     OW31891   6.344   0.750   4.193
10331SOL    HW131892   6.319   0.793   4.280
10331SOL    HW231893   6.442   0.728   4.193
10332SOL     OW31894   6.243   1.604   0.290
10332SOL    HW131895   6.243   1.675   0.361
10332SOL    HW231896   6.152   1.599   0.247
10333SOL     OW31897   6.436   4.303   4.521
10333SOL    HW131898   6.530   4.272   4.506
10333SOL    HW231899   6.387   4.303   4.435
10334SOL     OW31900   2.473   5.703   4.001
10334SOL    HW131901   2.504   5.634   4.066
10334SOL    HW231902   2.388   5.744   4.034
10335SOL     OW31903   2.691   4.641   6.943
10335SOL    HW131904   2.714   4.578   6.868
10335SOL    HW231905   2.598   4.675   6.931
10336SOL     OW31906   5.560   6.905   3.173
10336SOL    HW131907   5.491   6.889   3.244
10336SOL    HW231908   5.516   6.911   3.084
10337SOL     OW31909   6.526   6.747   5.942
10337SOL    HW131910   6.577   6.813   5.996
10337SOL    HW231911   6.539   6.655   5.981
10338SOL     OW31912   3.046   6.142   1.884
10338SOL    HW131913   3.111   6.213   1.913
10338SOL    HW231914   3.097   6.062   1.853
10339SOL     OW31915   3.092   5.516   0.634
10339SOL    HW131916   3.061   5.547   0.545
10339SOL    HW231917   3.051   5.427   0.655
10340SOL     OW31918   1.512   5.344   0.442
10340SOL    HW131919   1.482   5.439   0.438
10340SOL    HW231920   1.474   5.300   0.523
10341SOL     OW31921   2.103   3.438   1.716
10341SOL    HW131922   2.177   3.475   1.772
10341SOL    HW231923   2.107   3.479   1.624
10342SOL     OW31924   2.101   6.081   5.779
10342SOL    HW131925   2.137   6.064   5.870
10342SOL    HW231926   2.129   6.172   5.748
10343SOL     OW31927   1.970   4.131   0.392
10343SOL    HW131928   1.911   4.126   0.473
10343SOL    HW231929   1.916   4.162   0.314
10344SOL     OW31930   4.097   3.437   1.876
10344SOL    HW131931   4.037   3.418   1.953
10344SOL    HW231932   4.129   3.532   1.881
10345SOL     OW31933   1.681   0.667   6.075
10345SOL    HW131934   1.740   0.586   6.068
10345SOL    HW231935   1.684   0.718   5.989
10346SOL     OW31936   6.261   1.347   0.998
10346SOL    HW131937   6.332   1.379   0.936
10346SOL    HW231938   6.231   1.255   0.971
10347SOL     OW31939   5.461   2.394   2.514
10347SOL    HW131940   5.438   2.297   2.524
10347SOL    HW231941   5.498   2.411   2.423
10348SOL     OW31942   6.638   1.779   6.658
10348SOL    HW131943   6.585   1.740   6.732
10348SOL    HW231944   6.647   1.878   6.672
10349SOL     OW31945   7.018   1.868   0.195
10349SOL    HW131946   0.074   1.916   0.170
10349SOL    HW231947   0.000   1.824   0.283
10350SOL     OW31948   2.662   6.644   4.830
10350SOL    HW131949   2.757   6.632   4.802
10350SOL    HW231950   2.639   6.576   4.899
10351SOL     OW31951   5.713   5.287   6.229
10351SOL    HW131952   5.773   5.234   6.288
10351SOL    HW231953   5.688   5.372   6.275
10352SOL     OW31954   5.719   1.407   6.771
10352SOL    HW131955   5.757   1.323   6.812
10352SOL    HW231956   5.786   1.480   6.779
10353SOL     OW31957   6.700   2.837   4.570
10353SOL    HW131958   6.701   2.935   4.586
10353SOL    HW231959   6.783   2.810   4.520
10354SOL     OW31960   0.296   2.148   1.914
10354SOL    HW131961   0.230   2.077   1.887
10354SOL    HW231962   0.387   2.124   1.879
10355SOL     OW31963   1.433   0.632   1.031
10355SOL    HW131964   1.391   0.585   1.108
10355SOL    HW231965   1.507   0.576   0.993
10356SOL     OW31966   0.084   3.882   5.606
10356SOL    HW131967   0.010   3.864   5.671
10356SOL    HW231968   0.172   3.866   5.650
10357SOL     OW31969   3.931   2.739   6.664
10357SOL    HW131970   3.980   2.687   6.595
10357SOL    HW231971   3.897   2.824   6.625
10358SOL     OW31972   0.316   2.821   3.736
10358SOL    HW131973   0.280   2.751   3.797
10358SOL    HW231974   0.254   2.900   3.734
10359SOL     OW31975   5.132   1.708   1.522
10359SOL    HW131976   5.116   1.732   1.618
10359SOL    HW231977   5.054   1.739   1.467
10360SOL     OW31978   5.142   5.665   1.749
10360SOL    HW131979   5.198   5.716   1.814
10360SOL    HW231980   5.105   5.583   1.794
10361SOL     OW31981   2.299   1.110   2.786
10361SOL    HW131982   2.284   1.063   2.873
10361SOL    HW231983   2.307   1.042   2.713
10362SOL     OW31984   0.740   5.047   3.156
10362SOL    HW131985   0.774   4.955   3.174
10362SOL    HW231986   0.654   5.061   3.206
10363SOL     OW31987   5.141   2.714   1.499
10363SOL    HW131988   5.158   2.788   1.434
10363SOL    HW231989   5.118   2.631   1.449
10364SOL     OW31990   4.601   4.162   1.402
10364SOL    HW131991   4.608   4.070   1.363
10364SOL    HW231992   4.660   4.169   1.482
10365SOL     OW31993   5.791   3.919   6.775
10365SOL    HW131994   5.845   3.890   6.696
10365SOL    HW231995   5.838   3.893   6.859
10366SOL     OW31996   3.376   6.601   3.761
10366SOL    HW131997   3.341   6.670   3.825
10366SOL    HW231998   3.421   6.647   3.684
10367SOL     OW31999   6.872   1.575   1.850
10367SOL    HW132000   6.936   1.557   1.775
10367SOL    HW232001   6.917   1.556   1.937
10368SOL     OW32002   1.773   1.375   2.243
10368SOL    HW132003   1.798   1.312   2.317
10368SOL    HW232004   1.773   1.326   2.156
10369SOL     OW32005   3.262   6.895   6.140
10369SOL    HW132006   3.246   6.910   6.043
10369SOL    HW232007   3.205   6.957   6.193
10370SOL     OW32008   7.004   0.885   5.145
10370SOL    HW132009   6.971   0.978   5.131
10370SOL    HW232010   0.065   0.874   5.101
10371SOL     OW32011   2.218   6.326   4.807
10371SOL    HW132012   2.210   6.421   4.777
10371SOL    HW232013   2.163   6.268   4.747
10372SOL     OW32014   2.385   1.488   6.996
10372SOL    HW132015   2.366   1.565   0.028
10372SOL    HW232016   2.420   1.410   0.020
10373SOL     OW32017   1.446   6.540   5.341
10373SOL    HW132018   1.438   6.565   5.244
10373SOL    HW232019   1.387   6.462   5.360
10374SOL     OW32020   3.538   0.432   3.753
10374SOL    HW132021   3.536   0.333   3.766
10374SOL    HW232022   3.610   0.456   3.688
10375SOL     OW32023   2.419   2.479   6.309
10375SOL    HW132024   2.427   2.563   6.255
10375SOL    HW232025   2.323   2.453   6.316
10376SOL     OW32026   1.299   5.966   4.330
10376SOL    HW132027   1.230   6.031   4.363
10376SOL    HW232028   1.348   5.926   4.407
10377SOL     OW32029   0.185   0.762   2.089
10377SOL    HW132030   0.250   0.796   2.157
10377SOL    HW232031   0.171   0.831   2.018
10378SOL     OW32032   5.998   5.709   5.578
10378SOL    HW132033   5.974   5.735   5.671
10378SOL    HW232034   5.927   5.739   5.514
10379SOL     OW32035   3.422   5.857   4.252
10379SOL    HW132036   3.368   5.899   4.178
10379SOL    HW232037   3.519   5.873   4.235
10380SOL     OW32038   0.908   2.448   4.535
10380SOL    HW132039   0.912   2.531   4.590
10380SOL    HW232040   0.885   2.370   4.594
10381SOL     OW32041   4.314   3.790   1.368
10381SOL    HW132042   4.233   3.751   1.325
10381SOL    HW232043   4.360   3.720   1.423
10382SOL     OW32044   2.558   5.288   1.421
10382SOL    HW132045   2.478   5.319   1.369
10382SOL    HW232046   2.582   5.195   1.393
10383SOL     OW32047   1.168   3.998   0.677
10383SOL    HW132048   1.193   3.935   0.751
10383SOL    HW232049   1.132   3.946   0.600
10384SOL     OW32050   6.582   6.854   0.963
10384SOL    HW132051   6.645   6.850   0.885
10384SOL    HW232052   6.585   6.946   1.003
10385SOL     OW32053   3.987   6.091   6.452
10385SOL    HW132054   4.071   6.057   6.409
10385SOL    HW232055   3.923   6.120   6.381
10386SOL     OW32056   6.783   1.169   5.522
10386SOL    HW132057   6.813   1.092   5.466
10386SOL    HW232058   6.721   1.137   5.593
10387SOL     OW32059   4.520   2.196   3.472
10387SOL    HW132060   4.426   2.215   3.503
10387SOL    HW232061   4.541   2.100   3.486
10388SOL     OW32062   1.933   5.903   1.887
10388SOL    HW132063   2.032   5.894   1.876
10388SOL    HW232064   1.888   5.822   1.850
10389SOL     OW32065   6.688   5.014   0.761
10389SOL    HW132066   6.651   5.105   0.741
10389SOL    HW232067   6.636   4.945   0.710
10390SOL     OW32068   1.909   3.674   0.477
10390SOL    HW132069   1.927   3.733   0.398
10390SOL    HW232070   1.904   3.731   0.559
10391SOL     OW32071   0.233   6.107   3.407
10391SOL    HW132072   0.220   6.202   3.380
10391SOL    HW232073   0.316   6.098   3.461
10392SOL     OW32074   6.279   4.572   5.689
10392SOL    HW132075   6.191   4.612   5.664
10392SOL    HW232076   6.312   4.514   5.615
10393SOL     OW32077   2.501   2.571   3.181
10393SOL    HW132078   2.554   2.564   3.097
10393SOL    HW232079   2.534   2.503   3.247
10394SOL     OW32080   2.346   5.198   5.539
10394SOL    HW132081   2.265   5.199   5.481
10394SOL    HW232082   2.427   5.183   5.483
10395SOL     OW32083   0.914   0.938   1.642
10395SOL    HW132084   0.884   0.844   1.626
10395SOL    HW232085   0.999   0.938   1.694
10396SOL     OW32086   3.893   1.222   3.782
10396SOL    HW132087   3.860   1.254   3.693
10396SOL    HW232088   3.821   1.170   3.827
10397SOL     OW32089   3.496   1.111   4.794
10397SOL    HW132090   3.512   1.106   4.892
10397SOL    HW232091   3.581   1.139   4.748
10398SOL     OW32092   5.936   2.173   0.708
10398SOL    HW132093   6.007   2.241   0.720
10398SOL    HW232094   5.898   2.148   0.797
10399SOL     OW32095   5.038   1.867   3.503
10399SOL    HW132096   5.067   1.773   3.487
10399SOL    HW232097   4.953   1.884   3.453
10400SOL     OW32098   4.401   5.709   0.182
10400SOL    HW132099   4.411   5.771   0.260
10400SOL    HW232100   4.305   5.685   0.171
10401SOL     OW32101   0.056   6.589   2.091
10401SOL    HW132102   0.071   6.681   2.056
10401SOL    HW232103   6.988   6.575   2.110
10402SOL     OW32104   0.101   1.443   5.676
10402SOL    HW132105   0.007   1.476   5.690
10402SOL    HW232106   0.099   1.346   5.653
10403SOL     OW32107   4.260   2.287   3.004
10403SOL    HW132108   4.204   2.349   3.059
10403SOL    HW232109   4.311   2.225   3.064
10404SOL     OW32110   6.738   6.010   4.295
10404SOL    HW132111   6.752   6.086   4.358
10404SOL    HW232112   6.708   6.046   4.206
10405SOL     OW32113   1.070   5.988   5.167
10405SOL    HW132114   1.046   5.896   5.136
10405SOL    HW232115   1.170   5.998   5.170
10406SOL     OW32116   1.871   3.284   4.817
10406SOL    HW132117   1.962   3.273   4.858
10406SOL    HW232118   1.844   3.199   4.772
10407SOL     OW32119   3.030   0.001   6.296
10407SOL    HW132120   3.047   0.066   6.222
10407SOL    HW232121   3.025   0.051   6.383
10408SOL     OW32122   4.684   0.010   1.398
10408SOL    HW132123   4.708   0.099   1.435
10408SOL    HW232124   4.646   6.981   1.471
10409SOL     OW32125   6.640   4.383   1.273
10409SOL    HW132126   6.545   4.400   1.246
10409SOL    HW232127   6.684   4.324   1.205
10410SOL     OW32128   5.060   2.223   2.053
10410SOL    HW132129   5.074   2.127   2.078
10410SOL    HW232130   5.095   2.281   2.126
10411SOL     OW32131   3.227   6.067   3.593
10411SOL    HW132132   3.190   6.139   3.652
10411SOL    HW232133   3.282   6.109   3.520
10412SOL     OW32134   0.755   1.279   1.276
10412SOL    HW132135   0.797   1.239   1.358
10412SOL    HW232136   0.702   1.210   1.228
10413SOL     OW32137   6.238   2.947   1.581
10413SOL    HW132138   6.201   2.891   1.507
10413SOL    HW232139   6.187   2.930   1.665
10414SOL     OW32140   3.426   4.907   5.842
10414SOL    HW132141   3.442   4.831   5.780
10414SOL    HW232142   3.465   4.886   5.932
10415SOL     OW32143   1.760   4.464   4.001
10415SOL    HW132144   1.739   4.516   4.084
10415SOL    HW232145   1.704   4.382   3.998
10416SOL     OW32146   5.817   0.079   5.007
10416SOL    HW132147   5.807   0.105   5.103
10416SOL    HW232148   5.846   7.012   5.001
10417SOL     OW32149   3.940   5.071   3.741
10417SOL    HW132150   4.006   5.104   3.808
10417SOL    HW232151   3.968   4.981   3.707
10418SOL     OW32152   6.674   4.804   5.958
10418SOL    HW132153   6.732   4.869   5.908
10418SOL    HW232154   6.599   4.774   5.899
10419SOL     OW32155   3.376   6.625   6.170
10419SOL    HW132156   3.471   6.609   6.196
10419SOL    HW232157   3.350   6.718   6.193
10420SOL     OW32158   0.391   3.661   3.974
10420SOL    HW132159   0.432   3.751   3.985
10420SOL    HW232160   0.337   3.638   4.054
10421SOL     OW32161   0.977   3.452   3.808
10421SOL    HW132162   1.000   3.450   3.905
10421SOL    HW232163   1.034   3.386   3.759
10422SOL     OW32164   6.081   3.543   5.164
10422SOL    HW132165   5.986   3.528   5.136
10422SOL    HW232166   6.114   3.629   5.125
10423SOL     OW32167   5.820   5.066   5.846
10423SOL    HW132168   5.878   5.145   5.827
10423SOL    HW232169   5.870   4.982   5.823
10424SOL     OW32170   4.062   2.869   0.971
10424SOL    HW132171   3.989   2.901   1.032
10424SOL    HW232172   4.043   2.898   0.877
10425SOL     OW32173   0.952   6.599   2.535
10425SOL    HW132174   0.853   6.612   2.545
10425SOL    HW232175   0.990   6.677   2.485
10426SOL     OW32176   5.609   4.723   0.226
10426SOL    HW132177   5.580   4.647   0.284
10426SOL    HW232178   5.707   4.739   0.238
10427SOL     OW32179   3.979   1.372   0.381
10427SOL    HW132180   4.020   1.456   0.345
10427SOL    HW232181   3.881   1.371   0.358
10428SOL     OW32182   3.565   0.703   3.853
10428SOL    HW132183   3.591   0.607   3.842
10428SOL    HW232184   3.479   0.708   3.905
10429SOL     OW32185   6.681   4.055   2.398
10429SOL    HW132186   6.694   4.028   2.493
10429SOL    HW232187   6.741   4.132   2.376
10430SOL     OW32188   5.029   0.008   5.200
10430SOL    HW132189   5.080   0.082   5.156
10430SOL    HW232190   5.088   6.958   5.212
10431SOL     OW32191   2.625   5.907   4.351
10431SOL    HW132192   2.534   5.868   4.361
10431SOL    HW232193   2.682   5.880   4.429
10432SOL     OW32194   5.860   0.296   4.540
10432SOL    HW132195   5.807   0.367   4.495
10432SOL    HW232196   5.804   0.214   4.553
10433SOL     OW32197   0.892   6.151   2.460
10433SOL    HW132198   0.827   6.175   2.531
10433SOL    HW232199   0.890   6.052   2.444
10434SOL     OW32200   3.734   5.842   2.758
10434SOL    HW132201   3.700   5.826   2.665
10434SOL    HW232202   3.825   5.884   2.753
10435SOL     OW32203   0.801   1.623   5.470
10435SOL    HW132204   0.811   1.558   5.546
10435SOL    HW232205   0.799   1.573   5.384
10436SOL     OW32206   6.179   4.904   5.399
10436SOL    HW132207   6.268   4.862   5.381
10436SOL    HW232208   6.191   5.001   5.419
10437SOL     OW32209   4.614   4.194   6.150
10437SOL    HW132210   4.607   4.273   6.211
10437SOL    HW232211   4.560   4.210   6.068
10438SOL     OW32212   0.385   6.140   6.807
10438SOL    HW132213   0.350   6.047   6.797
10438SOL    HW232214   0.424   6.171   6.720
10439SOL     OW32215   4.283   1.490   4.629
10439SOL    HW132216   4.217   1.536   4.569
10439SOL    HW232217   4.297   1.544   4.711
10440SOL     OW32218   0.320   6.667   0.742
10440SOL    HW132219   0.372   6.582   0.755
10440SOL    HW232220   0.374   6.744   0.775
10441SOL     OW32221   4.246   1.304   1.400
10441SOL    HW132222   4.164   1.352   1.431
10441SOL    HW232223   4.222   1.209   1.378
10442SOL     OW32224   4.383   6.862   6.731
10442SOL    HW132225   4.362   6.765   6.717
10442SOL    HW232226   4.440   6.895   6.656
10443SOL     OW32227   4.958   3.497   3.915
10443SOL    HW132228   5.033   3.462   3.971
10443SOL    HW232229   4.929   3.586   3.951
10444SOL     OW32230   4.496   5.839   3.283
10444SOL    HW132231   4.521   5.780   3.360
10444SOL    HW232232   4.452   5.922   3.318
10445SOL     OW32233   0.275   4.335   4.480
10445SOL    HW132234   0.212   4.328   4.403
10445SOL    HW232235   0.354   4.391   4.453
10446SOL     OW32236   2.461   3.145   5.879
10446SOL    HW132237   2.403   3.168   5.800
10446SOL    HW232238   2.441   3.209   5.954
10447SOL     OW32239   0.254   0.824   2.728
10447SOL    HW132240   0.323   0.884   2.687
10447SOL    HW232241   0.185   0.880   2.773
10448SOL     OW32242   4.790   0.819   2.440
10448SOL    HW132243   4.718   0.763   2.400
10448SOL    HW232244   4.750   0.898   2.486
10449SOL     OW32245   1.793   5.161   5.402
10449SOL    HW132246   1.848   5.079   5.415
10449SOL    HW232247   1.696   5.137   5.410
10450SOL     OW32248   0.421   1.073   0.764
10450SOL    HW132249   0.430   1.041   0.858
10450SOL    HW232250   0.457   1.166   0.757
10451SOL     OW32251   2.397   5.631   2.585
10451SOL    HW132252   2.461   5.680   2.644
10451SOL    HW232253   2.402   5.533   2.605
10452SOL     OW32254   6.560   3.062   2.064
10452SOL    HW132255   6.598   3.081   1.973
10452SOL    HW232256   6.466   3.096   2.068
10453SOL     OW32257   4.786   6.964   1.157
10453SOL    HW132258   4.726   6.984   1.235
10453SOL    HW232259   4.751   6.885   1.108
10454SOL     OW32260   5.068   3.042   0.294
10454SOL    HW132261   4.982   3.093   0.298
10454SOL    HW232262   5.051   2.945   0.313
10455SOL     OW32263   6.315   6.703   3.725
10455SOL    HW132264   6.273   6.621   3.685
10455SOL    HW232265   6.363   6.679   3.809
10456SOL     OW32266   1.906   5.613   0.443
10456SOL    HW132267   1.847   5.556   0.385
10456SOL    HW232268   1.851   5.687   0.482
10457SOL     OW32269   3.451   2.727   1.206
10457SOL    HW132270   3.527   2.663   1.218
10457SOL    HW232271   3.382   2.709   1.276
10458SOL     OW32272   6.342   0.633   6.345
10458SOL    HW132273   6.289   0.712   6.312
10458SOL    HW232274   6.438   0.643   6.318
10459SOL     OW32275   4.490   6.251   1.837
10459SOL    HW132276   4.394   6.234   1.815
10459SOL    HW232277   4.543   6.166   1.828
10460SOL     OW32278   0.523   4.289   2.424
10460SOL    HW132279   0.472   4.266   2.508
10460SOL    HW232280   0.506   4.385   2.400
10461SOL     OW32281   6.722   5.207   5.766
10461SOL    HW132282   6.779   5.240   5.691
10461SOL    HW232283   6.762   5.124   5.804
10462SOL     OW32284   5.318   1.347   3.468
10462SOL    HW132285   5.306   1.251   3.443
10462SOL    HW232286   5.283   1.362   3.561
10463SOL     OW32287   4.861   3.299   5.938
10463SOL    HW132288   4.789   3.369   5.938
10463SOL    HW232289   4.838   3.228   5.870
10464SOL     OW32290   6.639   6.605   1.654
10464SOL    HW132291   6.646   6.704   1.648
10464SOL    HW232292   6.666   6.576   1.746
10465SOL     OW32293   6.157   6.216   0.573
10465SOL    HW132294   6.213   6.265   0.640
10465SOL    HW232295   6.215   6.165   0.511
10466SOL     OW32296   4.980   5.301   5.799
10466SOL    HW132297   5.051   5.347   5.744
10466SOL    HW232298   4.964   5.353   5.882
10467SOL     OW32299   2.888   1.111   6.957
10467SOL    HW132300   2.890   1.209   6.934
10467SOL    HW232301   2.882   1.100   0.028
10468SOL     OW32302   3.927   5.127   3.040
10468SOL    HW132303   3.917   5.167   3.131
10468SOL    HW232304   3.853   5.159   2.981
10469SOL     OW32305   4.013   4.613   5.559
10469SOL    HW132306   4.075   4.534   5.562
10469SOL    HW232307   4.034   4.673   5.636
10470SOL     OW32308   2.288   2.888   3.513
10470SOL    HW132309   2.216   2.950   3.482
10470SOL    HW232310   2.296   2.893   3.613
10471SOL     OW32311   3.330   1.435   1.048
10471SOL    HW132312   3.256   1.411   0.986
10471SOL    HW232313   3.404   1.369   1.040
10472SOL     OW32314   3.275   5.394   0.453
10472SOL    HW132315   3.210   5.415   0.526
10472SOL    HW232316   3.311   5.478   0.414
10473SOL     OW32317   6.694   0.045   0.218
10473SOL    HW132318   6.790   0.016   0.220
10473SOL    HW232319   6.669   0.084   0.306
10474SOL     OW32320   3.191   2.161   4.246
10474SOL    HW132321   3.260   2.176   4.175
10474SOL    HW232322   3.112   2.220   4.229
10475SOL     OW32323   4.869   6.398   1.068
10475SOL    HW132324   4.923   6.452   1.003
10475SOL    HW232325   4.804   6.341   1.018
10476SOL     OW32326   6.812   6.271   0.140
10476SOL    HW132327   6.898   6.220   0.154
10476SOL    HW232328   6.822   6.364   0.176
10477SOL     OW32329   0.224   1.363   4.951
10477SOL    HW132330   0.252   1.310   5.031
10477SOL    HW232331   0.131   1.397   4.965
10478SOL     OW32332   6.814   0.610   1.125
10478SOL    HW132333   6.824   0.645   1.032
10478SOL    HW232334   6.734   0.650   1.168
10479SOL     OW32335   0.098   2.146   2.601
10479SOL    HW132336   0.027   2.211   2.627
10479SOL    HW232337   0.111   2.147   2.502
10480SOL     OW32338   6.226   0.228   2.161
10480SOL    HW132339   6.200   0.324   2.158
10480SOL    HW232340   6.315   0.219   2.205
10481SOL     OW32341   2.875   0.093   4.520
10481SOL    HW132342   2.879   0.110   4.421
10481SOL    HW232343   2.780   0.076   4.546
10482SOL     OW32344   6.282   4.958   4.140
10482SOL    HW132345   6.222   4.903   4.199
10482SOL    HW232346   6.375   4.958   4.178
10483SOL     OW32347   6.653   4.673   0.199
10483SOL    HW132348   6.627   4.664   0.295
10483SOL    HW232349   6.572   4.697   0.145
10484SOL     OW32350   5.876   1.378   1.932
10484SOL    HW132351   5.902   1.473   1.913
10484SOL    HW232352   5.779   1.376   1.957
10485SOL     OW32353   3.197   3.866   0.802
10485SOL    HW132354   3.152   3.941   0.850
10485SOL    HW232355   3.282   3.898   0.760
10486SOL     OW32356   0.031   0.923   0.404
10486SOL    HW132357   6.975   0.973   0.426
10486SOL    HW232358   0.038   0.843   0.463
10487SOL     OW32359   4.805   2.029   2.065
10487SOL    HW132360   4.710   2.039   2.036
10487SOL    HW232361   4.841   2.118   2.092
10488SOL     OW32362   3.187   1.606   5.538
10488SOL    HW132363   3.102   1.622   5.589
10488SOL    HW232364   3.251   1.556   5.596
10489SOL     OW32365   0.028   0.137   4.735
10489SOL    HW132366   0.075   0.220   4.766
10489SOL    HW232367   7.010   0.156   4.648
10490SOL     OW32368   5.790   1.936   0.745
10490SOL    HW132369   5.853   1.995   0.694
10490SOL    HW232370   5.773   1.852   0.693
10491SOL     OW32371   2.504   1.952   6.017
10491SOL    HW132372   2.551   1.987   6.098
10491SOL    HW232373   2.523   2.011   5.939
10492SOL     OW32374   5.747   5.816   0.657
10492SOL    HW132375   5.670   5.847   0.713
10492SOL    HW232376   5.715   5.748   0.592
10493SOL     OW32377   3.470   0.123   1.954
10493SOL    HW132378   3.508   0.033   1.931
10493SOL    HW232379   3.536   0.173   2.010
10494SOL     OW32380   5.896   4.521   5.600
10494SOL    HW132381   5.919   4.461   5.676
10494SOL    HW232382   5.799   4.514   5.579
10495SOL     OW32383   1.121   6.340   1.282
10495SOL    HW132384   1.054   6.405   1.246
10495SOL    HW232385   1.213   6.370   1.257
10496SOL     OW32386   6.224   3.256   6.344
10496SOL    HW132387   6.168   3.339   6.357
10496SOL    HW232388   6.234   3.209   6.431
10497SOL     OW32389   1.951   0.162   1.781
10497SOL    HW132390   1.891   0.098   1.829
10497SOL    HW232391   1.997   0.221   1.848
10498SOL     OW32392   4.955   5.315   0.574
10498SOL    HW132393   4.925   5.219   0.569
10498SOL    HW232394   5.040   5.321   0.625
10499SOL     OW32395   4.440   0.013   1.985
10499SOL    HW132396   4.374   6.991   1.930
10499SOL    HW232397   4.531   0.002   1.945
10500SOL     OW32398   6.144   1.051   5.853
10500SOL    HW132399   6.087   1.133   5.857
10500SOL    HW232400   6.190   1.047   5.765
10501SOL     OW32401   2.458   5.951   2.112
10501SOL    HW132402   2.529   6.019   2.132
10501SOL    HW232403   2.439   5.897   2.194
10502SOL     OW32404   2.667   1.921   2.046
10502SOL    HW132405   2.742   1.984   2.027
10502SOL    HW232406   2.581   1.972   2.054
10503SOL     OW32407   4.862   2.656   1.179
10503SOL    HW132408   4.825   2.619   1.264
10503SOL    HW232409   4.816   2.613   1.101
10504SOL     OW32410   1.416   2.789   5.735
10504SOL    HW132411   1.385   2.832   5.650
10504SOL    HW232412   1.416   2.690   5.724
10505SOL     OW32413   5.455   5.262   0.683
10505SOL    HW132414   5.516   5.203   0.737
10505SOL    HW232415   5.460   5.355   0.719
10506SOL     OW32416   0.239   3.723   0.472
10506SOL    HW132417   0.328   3.713   0.427
10506SOL    HW232418   0.205   3.633   0.497
10507SOL     OW32419   1.792   6.698   0.833
10507SOL    HW132420   1.734   6.691   0.914
10507SOL    HW232421   1.860   6.625   0.834
10508SOL     OW32422   6.514   5.666   4.605
10508SOL    HW132423   6.533   5.569   4.593
10508SOL    HW232424   6.422   5.686   4.571
10509SOL     OW32425   0.010   5.765   5.125
10509SOL    HW132426   6.991   5.678   5.117
10509SOL    HW232427   6.973   5.839   5.133
10510SOL     OW32428   4.886   5.871   6.804
10510SOL    HW132429   4.790   5.866   6.775
10510SOL    HW232430   4.895   5.832   6.895
10511SOL     OW32431   2.955   1.382   1.833
10511SOL    HW132432   3.017   1.349   1.762
10511SOL    HW232433   2.962   1.482   1.840
10512SOL     OW32434   4.372   0.403   6.095
10512SOL    HW132435   4.372   0.347   6.012
10512SOL    HW232436   4.440   0.368   6.160
10513SOL     OW32437   6.370   2.404   3.992
10513SOL    HW132438   6.332   2.399   4.084
10513SOL    HW232439   6.401   2.313   3.964
10514SOL     OW32440   0.718   3.382   1.461
10514SOL    HW132441   0.760   3.339   1.541
10514SOL    HW232442   0.775   3.365   1.380
10515SOL     OW32443   0.772   3.291   3.793
10515SOL    HW132444   0.844   3.360   3.803
10515SOL    HW232445   0.777   3.250   3.702
10516SOL     OW32446   4.225   1.485   0.542
10516SOL    HW132447   4.170   1.540   0.478
10516SOL    HW232448   4.166   1.451   0.615
10517SOL     OW32449   0.439   3.351   1.428
10517SOL    HW132450   0.538   3.334   1.434
10517SOL    HW232451   0.409   3.342   1.333
10518SOL     OW32452   6.828   5.990   0.586
10518SOL    HW132453   6.909   5.934   0.604
10518SOL    HW232454   6.852   6.067   0.527
10519SOL     OW32455   3.466   3.124   0.880
10519SOL    HW132456   3.403   3.141   0.956
10519SOL    HW232457   3.481   3.209   0.829
10520SOL     OW32458   0.699   2.190   6.097
10520SOL    HW132459   0.779   2.216   6.043
10520SOL    HW232460   0.694   2.090   6.103
10521SOL     OW32461   6.483   5.664   1.597
10521SOL    HW132462   6.484   5.587   1.661
10521SOL    HW232463   6.499   5.749   1.648
10522SOL     OW32464   0.200   0.326   4.862
10522SOL    HW132465   0.278   0.355   4.807
10522SOL    HW232466   0.225   0.324   4.959
10523SOL     OW32467   0.887   4.475   2.957
10523SOL    HW132468   0.868   4.502   3.051
10523SOL    HW232469   0.889   4.557   2.899
10524SOL     OW32470   0.610   6.630   3.798
10524SOL    HW132471   0.547   6.675   3.734
10524SOL    HW232472   0.702   6.665   3.785
10525SOL     OW32473   4.454   0.519   5.686
10525SOL    HW132474   4.484   0.544   5.594
10525SOL    HW232475   4.438   0.602   5.740
10526SOL     OW32476   1.205   6.364   2.953
10526SOL    HW132477   1.305   6.372   2.953
10526SOL    HW232478   1.176   6.316   2.870
10527SOL     OW32479   0.887   0.975   5.449
10527SOL    HW132480   0.880   0.895   5.508
10527SOL    HW232481   0.929   1.050   5.500
10528SOL     OW32482   1.489   3.352   6.113
10528SOL    HW132483   1.587   3.358   6.132
10528SOL    HW232484   1.475   3.347   6.014
10529SOL     OW32485   2.994   6.542   4.245
10529SOL    HW132486   2.982   6.581   4.336
10529SOL    HW232487   3.077   6.580   4.204
10530SOL     OW32488   1.199   0.157   6.470
10530SOL    HW132489   1.252   0.184   6.389
10530SOL    HW232490   1.249   0.184   6.552
10531SOL     OW32491   1.622   2.702   4.356
10531SOL    HW132492   1.648   2.695   4.260
10531SOL    HW232493   1.658   2.624   4.406
10532SOL     OW32494   0.778   6.795   6.123
10532SOL    HW132495   0.875   6.793   6.146
10532SOL    HW232496   0.761   6.866   6.055
10533SOL     OW32497   3.051   6.465   3.307
10533SOL    HW132498   3.001   6.429   3.228
10533SOL    HW232499   3.115   6.536   3.276
10534SOL     OW32500   6.586   5.409   2.326
10534SOL    HW132501   6.624   5.318   2.309
10534SOL    HW232502   6.659   5.471   2.355
10535SOL     OW32503   1.459   2.145   2.221
10535SOL    HW132504   1.540   2.112   2.270
10535SOL    HW232505   1.445   2.088   2.140
10536SOL     OW32506   4.240   0.823   4.104
10536SOL    HW132507   4.239   0.761   4.182
10536SOL    HW232508   4.176   0.898   4.121
10537SOL     OW32509   4.354   6.345   4.556
10537SOL    HW132510   4.336   6.422   4.495
10537SOL    HW232511   4.282   6.339   4.626
10538SOL     OW32512   5.767   3.527   0.496
10538SOL    HW132513   5.678   3.573   0.504
10538SOL    HW232514   5.828   3.583   0.440
10539SOL     OW32515   0.679   4.983   6.998
10539SOL    HW132516   0.714   4.928   0.045
10539SOL    HW232517   0.579   4.977   6.996
10540SOL     OW32518   1.581   3.030   5.558
10540SOL    HW132519   1.593   3.129   5.548
10540SOL    HW232520   1.622   3.000   5.644
10541SOL     OW32521   3.466   3.778   1.805
10541SOL    HW132522   3.368   3.795   1.815
10541SOL    HW232523   3.488   3.761   1.709
10542SOL     OW32524   0.306   0.796   5.345
10542SOL    HW132525   0.355   0.754   5.421
10542SOL    HW232526   0.370   0.817   5.271
10543SOL     OW32527   0.467   1.344   4.767
10543SOL    HW132528   0.525   1.423   4.787
10543SOL    HW232529   0.391   1.341   4.832
10544SOL     OW32530   2.743   6.925   2.052
10544SOL    HW132531   2.789   6.985   1.986
10544SOL    HW232532   2.654   6.897   2.015
10545SOL     OW32533   0.340   1.890   1.122
10545SOL    HW132534   0.273   1.841   1.178
10545SOL    HW232535   0.347   1.985   1.155
10546SOL     OW32536   1.315   0.196   0.772
10546SOL    HW132537   1.386   0.127   0.779
10546SOL    HW232538   1.355   0.282   0.738
10547SOL     OW32539   5.057   3.118   3.236
10547SOL    HW132540   5.146   3.073   3.235
10547SOL    HW232541   5.000   3.081   3.162
10548SOL     OW32542   5.651   4.544   4.398
10548SOL    HW132543   5.721   4.603   4.437
10548SOL    HW232544   5.612   4.587   4.316
10549SOL     OW32545   0.752   0.347   1.829
10549SOL    HW132546   0.669   0.378   1.782
10549SOL    HW232547   0.812   0.301   1.764
10550SOL     OW32548   4.419   6.914   3.697
10550SOL    HW132549   4.342   6.874   3.748
10550SOL    HW232550   4.469   6.841   3.649
10551SOL     OW32551   1.363   2.815   0.231
10551SOL    HW132552   1.302   2.736   0.228
10551SOL    HW232553   1.456   2.786   0.210
10552SOL     OW32554   2.442   1.161   5.698
10552SOL    HW132555   2.365   1.224   5.693
10552SOL    HW232556   2.458   1.135   5.793
10553SOL     OW32557   0.443   4.630   1.383
10553SOL    HW132558   0.526   4.653   1.332
10553SOL    HW232559   0.400   4.549   1.343
10554SOL     OW32560   5.591   4.584   1.133
10554SOL    HW132561   5.584   4.589   1.033
10554SOL    HW232562   5.655   4.512   1.158
10555SOL     OW32563   2.094   2.404   0.312
10555SOL    HW132564   2.062   2.435   0.402
10555SOL    HW232565   2.194   2.402   0.312
10556SOL     OW32566   1.615   1.456   4.547
10556SOL    HW132567   1.554   1.534   4.559
10556SOL    HW232568   1.666   1.467   4.462
10557SOL     OW32569   1.603   2.877   3.089
10557SOL    HW132570   1.636   2.971   3.098
10557SOL    HW232571   1.664   2.814   3.137
10558SOL     OW32572   4.282   6.857   4.975
10558SOL    HW132573   4.270   6.922   4.900
10558SOL    HW232574   4.212   6.786   4.969
10559SOL     OW32575   4.989   0.931   1.646
10559SOL    HW132576   5.041   0.945   1.562
10559SOL    HW232577   5.049   0.892   1.716
10560SOL     OW32578   4.813   6.647   2.347
10560SOL    HW132579   4.875   6.660   2.424
10560SOL    HW232580   4.794   6.735   2.305
10561SOL     OW32581   3.751   4.349   1.727
10561SOL    HW132582   3.673   4.296   1.761
10561SOL    HW232583   3.718   4.434   1.685
10562SOL     OW32584   3.985   5.591   6.983
10562SOL    HW132585   3.916   5.658   7.012
10562SOL    HW232586   3.957   5.500   7.013
10563SOL     OW32587   0.635   0.863   3.531
10563SOL    HW132588   0.570   0.911   3.590
10563SOL    HW232589   0.659   0.921   3.453
10564SOL     OW32590   5.834   6.159   2.969
10564SOL    HW132591   5.739   6.183   2.989
10564SOL    HW232592   5.857   6.074   3.016
10565SOL     OW32593   0.682   6.514   5.834
10565SOL    HW132594   0.774   6.530   5.870
10565SOL    HW232595   0.614   6.540   5.903
10566SOL     OW32596   3.455   1.791   6.762
10566SOL    HW132597   3.535   1.784   6.702
10566SOL    HW232598   3.404   1.705   6.761
10567SOL     OW32599   2.310   2.122   5.049
10567SOL    HW132600   2.259   2.056   5.104
10567SOL    HW232601   2.359   2.073   4.976
10568SOL     OW32602   6.801   2.993   1.309
10568SOL    HW132603   6.835   2.911   1.356
10568SOL    HW232604   6.723   3.030   1.358
10569SOL     OW32605   5.572   1.107   2.208
10569SOL    HW132606   5.508   1.124   2.133
10569SOL    HW232607   5.587   1.009   2.218
10570SOL     OW32608   1.202   4.592   2.982
10570SOL    HW132609   1.210   4.675   2.927
10570SOL    HW232610   1.186   4.617   3.077
10571SOL     OW32611   6.926   4.449   4.940
10571SOL    HW132612   6.987   4.518   4.902
10571SOL    HW232613   6.850   4.433   4.877
10572SOL     OW32614   6.702   4.514   2.932
10572SOL    HW132615   6.618   4.563   2.956
10572SOL    HW232616   6.687   4.416   2.941
10573SOL     OW32617   5.602   0.376   5.166
10573SOL    HW132618   5.681   0.387   5.226
10573SOL    HW232619   5.526   0.431   5.200
10574SOL     OW32620   1.218   1.591   4.006
10574SOL    HW132621   1.203   1.687   3.980
10574SOL    HW232622   1.211   1.583   4.106
10575SOL     OW32623   0.086   0.828   3.956
10575SOL    HW132624   0.102   0.892   4.031
10575SOL    HW232625   0.171   0.782   3.933
10576SOL     OW32626   6.986   5.543   4.742
10576SOL    HW132627   6.929   5.481   4.689
10576SOL    HW232628   6.954   5.637   4.730
10577SOL     OW32629   1.889   4.524   0.126
10577SOL    HW132630   1.824   4.548   0.055
10577SOL    HW232631   1.932   4.607   0.161
10578SOL     OW32632   4.531   1.613   3.051
10578SOL    HW132633   4.435   1.617   3.080
10578SOL    HW232634   4.557   1.517   3.036
10579SOL     OW32635   4.761   3.046   1.468
10579SOL    HW132636   4.680   3.063   1.411
10579SOL    HW232637   4.767   3.117   1.539
10580SOL     OW32638   6.545   0.663   6.712
10580SOL    HW132639   6.480   0.713   6.654
10580SOL    HW232640   6.537   0.565   6.694
10581SOL     OW32641   5.318   0.076   2.963
10581SOL    HW132642   5.314   0.086   3.062
10581SOL    HW232643   5.383   0.003   2.940
10582SOL     OW32644   4.576   4.564   5.851
10582SOL    HW132645   4.651   4.568   5.785
10582SOL    HW232646   4.489   4.575   5.802
10583SOL     OW32647   3.386   1.205   3.900
10583SOL    HW132648   3.351   1.169   3.814
10583SOL    HW232649   3.359   1.301   3.910
10584SOL     OW32650   6.950   0.564   0.285
10584SOL    HW132651   0.012   0.588   0.321
10584SOL    HW232652   6.923   0.475   0.319
10585SOL     OW32653   2.546   2.078   5.340
10585SOL    HW132654   2.636   2.075   5.297
10585SOL    HW232655   2.507   2.169   5.329
10586SOL     OW32656   6.106   4.873   5.110
10586SOL    HW132657   6.116   4.955   5.167
10586SOL    HW232658   6.112   4.792   5.168
10587SOL     OW32659   6.467   4.801   0.014
10587SOL    HW132660   6.403   4.730   0.044
10587SOL    HW232661   6.416   4.877   7.003
10588SOL     OW32662   1.514   3.365   4.545
10588SOL    HW132663   1.492   3.300   4.617
10588SOL    HW232664   1.609   3.396   4.556
10589SOL     OW32665   6.242   1.242   4.645
10589SOL    HW132666   6.244   1.242   4.545
10589SOL    HW232667   6.327   1.281   4.680
10590SOL     OW32668   0.553   0.605   1.117
10590SOL    HW132669   0.577   0.538   1.188
10590SOL    HW232670   0.457   0.593   1.091
10591SOL     OW32671   1.621   2.135   0.308
10591SOL    HW132672   1.699   2.193   0.287
10591SOL    HW232673   1.576   2.107   0.223
10592SOL     OW32674   6.137   3.674   2.928
10592SOL    HW132675   6.163   3.739   3.000
10592SOL    HW232676   6.168   3.709   2.839
10593SOL     OW32677   2.159   6.055   0.395
10593SOL    HW132678   2.130   6.125   0.329
10593SOL    HW232679   2.240   6.087   0.445
10594SOL     OW32680   5.034   1.014   3.196
10594SOL    HW132681   5.062   0.983   3.105
10594SOL    HW232682   4.935   1.022   3.200
10595SOL     OW32683   5.329   6.560   6.935
10595SOL    HW132684   5.286   6.614   6.863
10595SOL    HW232685   5.266   6.550   7.012
10596SOL     OW32686   4.693   1.079   0.234
10596SOL    HW132687   4.653   0.988   0.240
10596SOL    HW232688   4.744   1.099   0.318
10597SOL     OW32689   3.032   1.220   5.923
10597SOL    HW132690   2.936   1.241   5.941
10597SOL    HW232691   3.048   1.217   5.825
10598SOL     OW32692   3.274   2.643   6.977
10598SOL    HW132693   3.285   2.733   7.020
10598SOL    HW232694   3.345   2.630   6.908
10599SOL     OW32695   5.335   3.512   6.319
10599SOL    HW132696   5.250   3.541   6.274
10599SOL    HW232697   5.376   3.590   6.366
10600SOL     OW32698   3.257   2.597   0.558
10600SOL    HW132699   3.207   2.593   0.471
10600SOL    HW232700   3.193   2.622   0.631
10601SOL     OW32701   1.656   4.525   5.112
10601SOL    HW132702   1.728   4.456   5.121
10601SOL    HW232703   1.698   4.615   5.101
10602SOL     OW32704   2.293   0.563   2.036
10602SOL    HW132705   2.250   0.632   1.978
10602SOL    HW232706   2.387   0.591   2.057
10603SOL     OW32707   3.908   0.350   3.186
10603SOL    HW132708   3.870   0.421   3.245
10603SOL    HW232709   3.902   0.379   3.091
10604SOL     OW32710   6.412   5.828   5.605
10604SOL    HW132711   6.499   5.862   5.570
10604SOL    HW232712   6.342   5.836   5.534
10605SOL     OW32713   2.068   6.607   6.828
10605SOL    HW132714   2.120   6.551   6.763
10605SOL    HW232715   2.036   6.690   6.782
10606SOL     OW32716   0.272   0.290   1.614
10606SOL    HW132717   0.255   0.200   1.655
10606SOL    HW232718   0.217   0.299   1.530
10607SOL     OW32719   4.240   5.135   5.800
10607SOL    HW132720   4.224   5.233   5.801
10607SOL    HW232721   4.337   5.117   5.783
10608SOL     OW32722   6.220   3.305   5.194
10608SOL    HW132723   6.162   3.248   5.253
10608SOL    HW232724   6.192   3.400   5.203
10609SOL     OW32725   2.507   6.410   6.732
10609SOL    HW132726   2.555   6.497   6.716
10609SOL    HW232727   2.442   6.394   6.659
10610SOL     OW32728   1.008   2.303   4.114
10610SOL    HW132729   1.091   2.276   4.064
10610SOL    HW232730   1.031   2.373   4.182
10611SOL     OW32731   2.072   3.712   6.744
10611SOL    HW132732   1.996   3.722   6.680
10611SOL    HW232733   2.157   3.740   6.699
10612SOL     OW32734   3.432   2.031   4.625
10612SOL    HW132735   3.412   1.933   4.634
10612SOL    HW232736   3.347   2.081   4.609
10613SOL     OW32737   5.317   6.107   5.403
10613SOL    HW132738   5.294   6.164   5.325
10613SOL    HW232739   5.412   6.076   5.395
10614SOL     OW32740   5.040   1.958   5.088
10614SOL    HW132741   4.965   1.936   5.149
10614SOL    HW232742   5.031   2.053   5.056
10615SOL     OW32743   4.567   0.649   5.464
10615SOL    HW132744   4.569   0.732   5.407
10615SOL    HW232745   4.641   0.588   5.436
10616SOL     OW32746   1.955   6.988   0.287
10616SOL    HW132747   1.874   6.966   0.232
10616SOL    HW232748   1.989   6.905   0.331
10617SOL     OW32749   3.120   4.028   1.408
10617SOL    HW132750   3.160   3.937   1.423
10617SOL    HW232751   3.025   4.028   1.437
10618SOL     OW32752   0.878   3.759   5.882
10618SOL    HW132753   0.920   3.789   5.797
10618SOL    HW232754   0.916   3.811   5.959
10619SOL     OW32755   0.324   3.078   2.549
10619SOL    HW132756   0.376   3.055   2.467
10619SOL    HW232757   0.359   3.026   2.627
10620SOL     OW32758   1.108   6.416   5.408
10620SOL    HW132759   1.124   6.396   5.311
10620SOL    HW232760   1.022   6.465   5.418
10621SOL     OW32761   0.613   5.330   1.743
10621SOL    HW132762   0.597   5.235   1.770
10621SOL    HW232763   0.663   5.377   1.815
10622SOL     OW32764   5.157   1.801   1.905
10622SOL    HW132765   5.178   1.868   1.976
10622SOL    HW232766   5.058   1.791   1.896
10623SOL     OW32767   0.343   5.042   5.837
10623SOL    HW132768   0.293   5.067   5.919
10623SOL    HW232769   0.402   5.118   5.809
10624SOL     OW32770   1.186   2.341   4.633
10624SOL    HW132771   1.103   2.290   4.658
10624SOL    HW232772   1.160   2.436   4.612
10625SOL     OW32773   0.208   4.740   0.966
10625SOL    HW132774   0.180   4.667   0.904
10625SOL    HW232775   0.138   4.811   0.968
10626SOL     OW32776   2.516   2.807   0.472
10626SOL    HW132777   2.565   2.851   0.396
10626SOL    HW232778   2.499   2.711   0.449
10627SOL     OW32779   4.914   0.258   0.705
10627SOL    HW132780   4.964   0.302   0.780
10627SOL    HW232781   4.972   0.188   0.663
10628SOL     OW32782   5.035   6.341   0.288
10628SOL    HW132783   4.998   6.259   0.244
10628SOL    HW232784   4.962   6.386   0.340
10629SOL     OW32785   2.545   4.883   4.781
10629SOL    HW132786   2.468   4.928   4.827
10629SOL    HW232787   2.537   4.784   4.791
10630SOL     OW32788   6.368   1.197   3.861
10630SOL    HW132789   6.381   1.181   3.764
10630SOL    HW232790   6.272   1.184   3.885
10631SOL     OW32791   3.307   5.051   5.236
10631SOL    HW132792   3.311   5.097   5.148
10631SOL    HW232793   3.222   5.076   5.283
10632SOL     OW32794   5.261   0.514   3.649
10632SOL    HW132795   5.285   0.528   3.745
10632SOL    HW232796   5.224   0.422   3.637
10633SOL     OW32797   2.082   2.779   0.595
10633SOL    HW132798   2.029   2.862   0.607
10633SOL    HW232799   2.178   2.796   0.618
10634SOL     OW32800   3.258   4.017   0.390
10634SOL    HW132801   3.183   4.083   0.397
10634SOL    HW232802   3.240   3.953   0.315
10635SOL     OW32803   1.885   3.467   0.134
10635SOL    HW132804   1.867   3.424   0.222
10635SOL    HW232805   1.982   3.456   0.111
10636SOL     OW32806   0.769   2.150   1.154
10636SOL    HW132807   0.709   2.075   1.184
10636SOL    HW232808   0.801   2.201   1.234
10637SOL     OW32809   2.144   4.543   5.750
10637SOL    HW132810   2.224   4.504   5.796
10637SOL    HW232811   2.168   4.565   5.655
10638SOL     OW32812   5.869   5.697   2.806
10638SOL    HW132813   5.930   5.772   2.832
10638SOL    HW232814   5.908   5.647   2.728
10639SOL     OW32815   1.112   3.464   3.299
10639SOL    HW132816   1.127   3.515   3.384
10639SOL    HW232817   1.035   3.503   3.250
10640SOL     OW32818   4.456   0.293   4.810
10640SOL    HW132819   4.434   0.356   4.736
10640SOL    HW232820   4.385   0.222   4.816
10641SOL     OW32821   2.471   2.267   1.847
10641SOL    HW132822   2.510   2.327   1.917
10641SOL    HW232823   2.405   2.318   1.792
10642SOL     OW32824   6.625   2.580   1.672
10642SOL    HW132825   6.708   2.607   1.722
10642SOL    HW232826   6.572   2.662   1.648
10643SOL     OW32827   1.692   5.382   4.545
10643SOL    HW132828   1.648   5.296   4.571
10643SOL    HW232829   1.646   5.419   4.464
10644SOL     OW32830   5.474   2.836   2.595
10644SOL    HW132831   5.512   2.886   2.673
10644SOL    HW232832   5.424   2.756   2.628
10645SOL     OW32833   1.935   2.711   4.535
10645SOL    HW132834   1.928   2.793   4.479
10645SOL    HW232835   2.009   2.721   4.601
10646SOL     OW32836   1.226   0.309   6.875
10646SOL    HW132837   1.134   0.277   6.856
10646SOL    HW232838   1.291   0.265   6.812
10647SOL     OW32839   2.748   5.432   5.067
10647SOL    HW132840   2.667   5.387   5.106
10647SOL    HW232841   2.752   5.414   4.969
10648SOL     OW32842   6.068   4.064   6.197
10648SOL    HW132843   5.973   4.044   6.171
10648SOL    HW232844   6.069   4.118   6.281
10649SOL     OW32845   0.073   4.604   2.421
10649SOL    HW132846   0.125   4.599   2.336
10649SOL    HW232847   0.100   4.687   2.470
10650SOL     OW32848   1.033   0.186   3.976
10650SOL    HW132849   1.064   0.118   3.909
10650SOL    HW232850   1.034   0.146   4.067
10651SOL     OW32851   5.661   6.861   0.266
10651SOL    HW132852   5.608   6.793   0.215
10651SOL    HW232853   5.714   6.815   0.337
10652SOL     OW32854   3.507   7.007   5.470
10652SOL    HW132855   3.585   0.040   5.458
10652SOL    HW232856   3.537   6.923   5.514
10653SOL     OW32857   3.955   5.199   3.300
10653SOL    HW132858   3.944   5.109   3.342
10653SOL    HW232859   3.881   5.259   3.332
10654SOL     OW32860   5.079   0.864   1.164
10654SOL    HW132861   5.138   0.873   1.084
10654SOL    HW232862   5.090   0.773   1.204
10655SOL     OW32863   2.263   5.682   0.694
10655SOL    HW132864   2.232   5.637   0.611
10655SOL    HW232865   2.332   5.626   0.739
10656SOL     OW32866   6.801   1.796   2.787
10656SOL    HW132867   6.741   1.810   2.866
10656SOL    HW232868   6.796   1.700   2.758
10657SOL     OW32869   6.253   0.525   5.468
10657SOL    HW132870   6.304   0.604   5.434
10657SOL    HW232871   6.190   0.555   5.540
10658SOL     OW32872   6.349   4.789   4.967
10658SOL    HW132873   6.261   4.793   5.015
10658SOL    HW232874   6.358   4.870   4.908
10659SOL     OW32875   0.527   5.434   1.238
10659SOL    HW132876   0.534   5.360   1.172
10659SOL    HW232877   0.491   5.399   1.324
10660SOL     OW32878   5.153   4.213   6.431
10660SOL    HW132879   5.130   4.272   6.508
10660SOL    HW232880   5.071   4.167   6.398
10661SOL     OW32881   0.997   6.589   1.629
10661SOL    HW132882   1.076   6.534   1.654
10661SOL    HW232883   0.938   6.537   1.567
10662SOL     OW32884   5.404   6.635   3.067
10662SOL    HW132885   5.366   6.724   3.095
10662SOL    HW232886   5.364   6.609   2.979
10663SOL     OW32887   0.338   1.891   2.244
10663SOL    HW132888   0.416   1.937   2.201
10663SOL    HW232889   0.366   1.851   2.331
10664SOL     OW32890   6.646   4.208   5.044
10664SOL    HW132891   6.616   4.189   4.950
10664SOL    HW232892   6.726   4.152   5.065
10665SOL     OW32893   0.960   1.575   0.744
10665SOL    HW132894   0.862   1.595   0.744
10665SOL    HW232895   0.982   1.516   0.820
10666SOL     OW32896   3.510   4.149   1.765
10666SOL    HW132897   3.548   4.079   1.705
10666SOL    HW232898   3.455   4.106   1.836
10667SOL     OW32899   4.357   3.211   5.593
10667SOL    HW132900   4.268   3.190   5.552
10667SOL    HW232901   4.344   3.249   5.684
10668SOL     OW32902   2.840   0.325   5.179
10668SOL    HW132903   2.894   0.276   5.111
10668SOL    HW232904   2.750   0.347   5.140
10669SOL     OW32905   5.218   6.877   1.002
10669SOL    HW132906   5.242   6.817   1.079
10669SOL    HW232907   5.207   6.822   0.919
10670SOL     OW32908   5.309   3.995   5.002
10670SOL    HW132909   5.304   4.094   4.984
10670SOL    HW232910   5.348   3.949   4.922
10671SOL     OW32911   2.729   2.399   3.213
10671SOL    HW132912   2.713   2.300   3.217
10671SOL    HW232913   2.720   2.430   3.118
10672SOL     OW32914   6.597   3.090   0.891
10672SOL    HW132915   6.659   3.064   0.965
10672SOL    HW232916   6.611   3.029   0.813
10673SOL     OW32917   1.140   1.131   6.207
10673SOL    HW132918   1.136   1.230   6.193
10673SOL    HW232919   1.092   1.108   6.292
10674SOL     OW32920   3.721   4.010   2.260
10674SOL    HW132921   3.632   4.031   2.220
10674SOL    HW232922   3.737   3.911   2.257
10675SOL     OW32923   1.785   0.104   6.364
10675SOL    HW132924   1.839   0.135   6.442
10675SOL    HW232925   1.846   0.091   6.285
10676SOL     OW32926   6.582   6.461   6.028
10676SOL    HW132927   6.599   6.399   5.951
10676SOL    HW232928   6.666   6.475   6.078
10677SOL     OW32929   1.344   0.509   2.598
10677SOL    HW132930   1.439   0.534   2.579
10677SOL    HW232931   1.329   0.414   2.573
10678SOL     OW32932   3.689   5.922   4.204
10678SOL    HW132933   3.663   6.019   4.211
10678SOL    HW232934   3.715   5.888   4.294
10679SOL     OW32935   4.625   5.948   5.989
10679SOL    HW132936   4.689   5.912   5.921
10679SOL    HW232937   4.675   5.982   6.068
10680SOL     OW32938   3.135   1.837   2.938
10680SOL    HW132939   3.183   1.846   2.851
10680SOL    HW232940   3.108   1.928   2.971
10681SOL     OW32941   0.706   3.310   0.326
10681SOL    HW132942   0.656   3.391   0.357
10681SOL    HW232943   0.767   3.279   0.398
10682SOL     OW32944   1.488   0.930   4.535
10682SOL    HW132945   1.548   0.878   4.595
10682SOL    HW232946   1.543   0.995   4.482
10683SOL     OW32947   3.377   1.831   3.457
10683SOL    HW132948   3.302   1.840   3.522
10683SOL    HW232949   3.364   1.748   3.403
10684SOL     OW32950   5.587   4.173   1.144
10684SOL    HW132951   5.537   4.186   1.230
10684SOL    HW232952   5.671   4.226   1.146
10685SOL     OW32953   0.844   5.460   2.609
10685SOL    HW132954   0.824   5.438   2.514
10685SOL    HW232955   0.778   5.415   2.669
10686SOL     OW32956   1.017   4.848   5.994
10686SOL    HW132957   1.042   4.751   5.992
10686SOL    HW232958   1.037   4.885   6.085
10687SOL     OW32959   6.739   5.375   1.622
10687SOL    HW132960   6.693   5.347   1.537
10687SOL    HW232961   6.759   5.295   1.678
10688SOL     OW32962   6.114   4.425   3.218
10688SOL    HW132963   6.162   4.339   3.238
10688SOL    HW232964   6.045   4.409   3.148
10689SOL     OW32965   0.546   6.004   3.501
10689SOL    HW132966   0.643   5.981   3.501
10689SOL    HW232967   0.535   6.103   3.490
10690SOL     OW32968   0.518   6.228   3.094
10690SOL    HW132969   0.490   6.274   3.178
10690SOL    HW232970   0.442   6.173   3.060
10691SOL     OW32971   0.535   2.206   2.389
10691SOL    HW132972   0.493   2.129   2.437
10691SOL    HW232973   0.635   2.195   2.392
10692SOL     OW32974   2.681   5.758   3.133
10692SOL    HW132975   2.666   5.822   3.209
10692SOL    HW232976   2.689   5.808   3.048
10693SOL     OW32977   2.537   0.014   0.035
10693SOL    HW132978   2.616   0.039   7.009
10693SOL    HW232979   2.547   0.050   0.128
10694SOL     OW32980   5.130   6.432   1.617
10694SOL    HW132981   5.066   6.483   1.674
10694SOL    HW232982   5.168   6.493   1.547
10695SOL     OW32983   5.117   1.979   3.115
10695SOL    HW132984   5.051   2.053   3.104
10695SOL    HW232985   5.101   1.910   3.044
10696SOL     OW32986   6.932   3.791   3.883
10696SOL    HW132987   6.854   3.827   3.935
10696SOL    HW232988   6.962   3.705   3.924
10697SOL     OW32989   0.261   6.254   4.345
10697SOL    HW132990   0.264   6.353   4.358
10697SOL    HW232991   0.256   6.209   4.434
10698SOL     OW32992   4.232   5.903   5.206
10698SOL    HW132993   4.252   5.806   5.218
10698SOL    HW232994   4.243   5.927   5.109
10699SOL     OW32995   4.161   3.135   1.937
10699SOL    HW132996   4.189   3.231   1.937
10699SOL    HW232997   4.208   3.086   1.864
10700SOL     OW32998   6.908   6.836   1.580
10700SOL    HW132999   6.942   6.768   1.515
10700SOL    HW233000   6.809   6.848   1.568
10701SOL     OW33001   3.329   6.060   0.063
10701SOL    HW133002   3.417   6.014   0.078
10701SOL    HW233003   3.346   6.152   0.026
10702SOL     OW33004   5.487   2.997   2.149
10702SOL    HW133005   5.495   2.902   2.179
10702SOL    HW233006   5.573   3.045   2.167
10703SOL     OW33007   3.409   4.020   5.217
10703SOL    HW133008   3.334   4.081   5.241
10703SOL    HW233009   3.496   4.063   5.239
10704SOL     OW33010   6.486   5.535   1.855
10704SOL    HW133011   6.553   5.466   1.880
10704SOL    HW233012   6.393   5.502   1.876
10705SOL     OW33013   6.277   4.739   1.900
10705SOL    HW133014   6.263   4.825   1.852
10705SOL    HW233015   6.330   4.677   1.842
10706SOL     OW33016   4.922   7.005   2.429
10706SOL    HW133017   4.987   6.939   2.391
10706SOL    HW233018   4.836   6.999   2.378
10707SOL     OW33019   0.257   6.350   3.750
10707SOL    HW133020   0.315   6.338   3.830
10707SOL    HW233021   0.217   6.263   3.724
10708SOL     OW33022   4.317   0.817   2.447
10708SOL    HW133023   4.408   0.781   2.472
10708SOL    HW233024   4.247   0.756   2.483
10709SOL     OW33025   6.137   6.620   5.021
10709SOL    HW133026   6.041   6.604   4.999
10709SOL    HW233027   6.159   6.717   5.009
10710SOL     OW33028   0.235   6.844   5.315
10710SOL    HW133029   0.285   6.899   5.248
10710SOL    HW233030   0.245   6.885   5.406
10711SOL     OW33031   1.499   5.910   3.840
10711SOL    HW133032   1.463   5.947   3.926
10711SOL    HW233033   1.488   5.810   3.839
10712SOL     OW33034   2.563   1.194   1.545
10712SOL    HW133035   2.487   1.171   1.606
10712SOL    HW233036   2.648   1.160   1.584
10713SOL     OW33037   0.849   3.904   1.703
10713SOL    HW133038   0.779   3.853   1.754
10713SOL    HW233039   0.815   3.996   1.682
10714SOL     OW33040   6.055   3.854   4.822
10714SOL    HW133041   6.038   3.881   4.916
10714SOL    HW233042   6.101   3.765   4.821
10715SOL     OW33043   4.738   6.978   3.091
10715SOL    HW133044   4.826   6.996   3.047
10715SOL    HW233045   4.665   6.985   3.022
10716SOL     OW33046   5.733   2.730   4.735
10716SOL    HW133047   5.774   2.690   4.653
10716SOL    HW233048   5.707   2.658   4.799
10717SOL     OW33049   0.929   2.734   1.155
10717SOL    HW133050   0.980   2.674   1.093
10717SOL    HW233051   0.987   2.759   1.233
10718SOL     OW33052   1.390   3.023   6.505
10718SOL    HW133053   1.312   2.961   6.496
10718SOL    HW233054   1.359   3.118   6.492
10719SOL     OW33055   5.162   5.504   0.257
10719SOL    HW133056   5.099   5.431   0.229
10719SOL    HW233057   5.125   5.593   0.229
10720SOL     OW33058   6.533   3.373   5.301
10720SOL    HW133059   6.510   3.455   5.353
10720SOL    HW233060   6.455   3.345   5.245
10721SOL     OW33061   6.115   4.483   5.447
10721SOL    HW133062   6.165   4.402   5.478
10721SOL    HW233063   6.025   4.485   5.491
10722SOL     OW33064   0.249   3.416   0.547
10722SOL    HW133065   0.161   3.368   0.540
10722SOL    HW233066   0.316   3.357   0.592
10723SOL     OW33067   0.393   4.173   5.943
10723SOL    HW133068   0.398   4.183   5.843
10723SOL    HW233069   0.420   4.080   5.968
10724SOL     OW33070   4.389   1.066   6.948
10724SOL    HW133071   4.449   1.069   6.868
10724SOL    HW233072   4.347   0.975   6.955
10725SOL     OW33073   0.094   4.822   4.256
10725SOL    HW133074   0.070   4.914   4.227
10725SOL    HW233075   0.079   4.812   4.355
10726SOL     OW33076   5.448   6.951   5.949
10726SOL    HW133077   5.402   7.021   6.003
10726SOL    HW233078   5.450   6.865   6.000
10727SOL     OW33079   0.472   5.204   4.397
10727SOL    HW133080   0.522   5.123   4.429
10727SOL    HW233081   0.459   5.268   4.473
10728SOL     OW33082   6.254   6.286   1.210
10728SOL    HW133083   6.266   6.374   1.256
10728SOL    HW233084   6.188   6.230   1.260
10729SOL     OW33085   5.822   1.007   2.486
10729SOL    HW133086   5.768   1.086   2.513
10729SOL    HW233087   5.823   1.000   2.386
10730SOL     OW33088   2.277   0.420   1.416
10730SOL    HW133089   2.242   0.363   1.489
10730SOL    HW233090   2.304   0.509   1.452
10731SOL     OW33091   2.767   5.514   0.534
10731SOL    HW133092   2.780   5.604   0.493
10731SOL    HW233093   2.799   5.443   0.471
10732SOL     OW33094   4.951   5.498   2.258
10732SOL    HW133095   5.005   5.570   2.213
10732SOL    HW233096   4.961   5.506   2.357
10733SOL     OW33097   5.003   1.929   6.845
10733SOL    HW133098   5.035   2.021   6.821
10733SOL    HW233099   5.015   1.914   6.943
10734SOL     OW33100   1.322   0.367   0.348
10734SOL    HW133101   1.292   0.370   0.253
10734SOL    HW233102   1.274   0.293   0.395
10735SOL     OW33103   1.699   4.514   3.045
10735SOL    HW133104   1.740   4.555   2.964
10735SOL    HW233105   1.630   4.446   3.017
10736SOL     OW33106   0.388   0.324   3.173
10736SOL    HW133107   0.382   0.287   3.266
10736SOL    HW233108   0.447   0.265   3.118
10737SOL     OW33109   1.525   1.703   0.564
10737SOL    HW133110   1.524   1.763   0.484
10737SOL    HW233111   1.603   1.641   0.558
10738SOL     OW33112   2.549   0.485   3.067
10738SOL    HW133113   2.531   0.394   3.029
10738SOL    HW233114   2.567   0.477   3.165
10739SOL     OW33115   0.111   1.381   1.643
10739SOL    HW133116   0.200   1.414   1.612
10739SOL    HW233117   0.123   1.322   1.723
10740SOL     OW33118   1.396   4.522   5.177
10740SOL    HW133119   1.388   4.498   5.274
10740SOL    HW233120   1.492   4.526   5.152
10741SOL     OW33121   0.588   0.520   3.108
10741SOL    HW133122   0.661   0.471   3.059
10741SOL    HW233123   0.508   0.461   3.116
10742SOL     OW33124   6.010   0.380   1.480
10742SOL    HW133125   5.946   0.397   1.405
10742SOL    HW233126   6.102   0.373   1.444
10743SOL     OW33127   2.271   1.727   4.307
10743SOL    HW133128   2.187   1.706   4.356
10743SOL    HW233129   2.254   1.799   4.240
10744SOL     OW33130   2.822   1.386   2.466
10744SOL    HW133131   2.854   1.393   2.371
10744SOL    HW233132   2.876   1.446   2.524
10745SOL     OW33133   1.016   4.906   1.084
10745SOL    HW133134   1.087   4.897   1.154
10745SOL    HW233135   1.016   4.999   1.048
10746SOL     OW33136   1.702   3.696   1.532
10746SOL    HW133137   1.738   3.607   1.503
10746SOL    HW233138   1.627   3.682   1.596
10747SOL     OW33139   4.372   0.815   3.101
10747SOL    HW133140   4.319   0.874   3.161
10747SOL    HW233141   4.332   0.814   3.010
10748SOL     OW33142   3.561   0.555   0.996
10748SOL    HW133143   3.501   0.584   1.071
10748SOL    HW233144   3.562   0.625   0.925
10749SOL     OW33145   0.078   4.734   4.000
10749SOL    HW133146   0.049   4.732   4.096
10749SOL    HW233147   0.151   4.666   3.987
10750SOL     OW33148   3.948   6.132   4.700
10750SOL    HW133149   3.856   6.146   4.664
10750SOL    HW233150   3.971   6.035   4.696
10751SOL     OW33151   0.878   3.912   5.185
10751SOL    HW133152   0.813   3.881   5.115
10751SOL    HW233153   0.907   4.006   5.164
10752SOL     OW33154   6.501   3.886   6.282
10752SOL    HW133155   6.585   3.903   6.231
10752SOL    HW233156   6.428   3.862   6.218
10753SOL     OW33157   5.077   0.644   4.223
10753SOL    HW133158   5.004   0.711   4.238
10753SOL    HW233159   5.151   0.686   4.170
10754SOL     OW33160   1.538   2.159   3.921
10754SOL    HW133161   1.508   2.113   3.837
10754SOL    HW233162   1.627   2.201   3.905
10755SOL     OW33163   0.830   2.320   0.406
10755SOL    HW133164   0.863   2.240   0.356
10755SOL    HW233165   0.870   2.320   0.498
10756SOL     OW33166   6.453   4.596   6.842
10756SOL    HW133167   6.412   4.640   6.922
10756SOL    HW233168   6.488   4.665   6.780
10757SOL     OW33169   1.246   3.275   0.452
10757SOL    HW133170   1.327   3.309   0.500
10757SOL    HW233171   1.265   3.184   0.415
10758SOL     OW33172   1.065   6.801   5.171
10758SOL    HW133173   1.001   6.743   5.221
10758SOL    HW233174   1.063   6.776   5.074
10759SOL     OW33175   1.911   3.227   6.846
10759SOL    HW133176   1.840   3.172   6.889
10759SOL    HW233177   1.899   3.323   6.871
10760SOL     OW33178   7.015   1.216   0.330
10760SOL    HW133179   6.954   1.144   0.299
10760SOL    HW233180   0.073   1.176   0.361
10761SOL     OW33181   0.909   2.017   6.326
10761SOL    HW133182   0.867   1.975   6.246
10761SOL    HW233183   0.952   1.946   6.382
10762SOL     OW33184   3.822   1.718   5.199
10762SOL    HW133185   3.915   1.686   5.217
10762SOL    HW233186   3.802   1.707   5.101
10763SOL     OW33187   4.418   6.078   1.185
10763SOL    HW133188   4.398   6.039   1.275
10763SOL    HW233189   4.517   6.095   1.178
10764SOL     OW33190   5.905   1.824   5.091
10764SOL    HW133191   5.968   1.767   5.038
10764SOL    HW233192   5.825   1.769   5.117
10765SOL     OW33193   5.682   3.104   1.153
10765SOL    HW133194   5.737   3.157   1.218
10765SOL    HW233195   5.620   3.166   1.104
10766SOL     OW33196   3.332   3.176   1.098
10766SOL    HW133197   3.278   3.256   1.125
10766SOL    HW233198   3.338   3.112   1.174
10767SOL     OW33199   1.529   0.631   6.894
10767SOL    HW133200   1.572   0.569   6.829
10767SOL    HW233201   1.529   0.724   6.857
10768SOL     OW33202   4.334   5.187   1.166
10768SOL    HW133203   4.260   5.239   1.124
10768SOL    HW233204   4.366   5.235   1.248
10769SOL     OW33205   2.046   5.233   4.935
10769SOL    HW133206   2.079   5.142   4.911
10769SOL    HW233207   2.021   5.283   4.852
10770SOL     OW33208   5.783   0.387   4.893
10770SOL    HW133209   5.738   0.340   4.817
10770SOL    HW233210   5.722   0.387   4.973
10771SOL     OW33211   4.872   1.133   4.867
10771SOL    HW133212   4.935   1.208   4.881
10771SOL    HW233213   4.901   1.079   4.788
10772SOL     OW33214   6.479   6.474   4.485
10772SOL    HW133215   6.560   6.533   4.481
10772SOL    HW233216   6.496   6.398   4.547
10773SOL     OW33217   6.384   5.498   6.302
10773SOL    HW133218   6.319   5.555   6.352
10773SOL    HW233219   6.468   5.489   6.354
10774SOL     OW33220   1.558   1.701   6.582
10774SOL    HW133221   1.482   1.725   6.642
10774SOL    HW233222   1.637   1.675   6.638
10775SOL     OW33223   0.443   3.043   0.537
10775SOL    HW133224   0.537   3.017   0.558
10775SOL    HW233225   0.384   2.962   0.542
10776SOL     OW33226   1.650   6.267   6.986
10776SOL    HW133227   1.682   6.175   6.964
10776SOL    HW233228   1.728   6.327   7.002
10777SOL     OW33229   4.216   6.556   4.411
10777SOL    HW133230   4.117   6.561   4.399
10777SOL    HW233231   4.245   6.622   4.481
10778SOL     OW33232   5.736   6.173   4.934
10778SOL    HW133233   5.750   6.087   4.885
10778SOL    HW233234   5.643   6.177   4.969
10779SOL     OW33235   6.309   4.993   3.600
10779SOL    HW133236   6.388   4.931   3.611
10779SOL    HW233237   6.227   4.949   3.636
10780SOL     OW33238   1.372   0.090   3.669
10780SOL    HW133239   1.288   0.059   3.625
10780SOL    HW233240   1.365   0.078   3.768
10781SOL     OW33241   3.859   1.808   3.039
10781SOL    HW133242   3.773   1.819   2.990
10781SOL    HW233243   3.936   1.828   2.978
10782SOL     OW33244   6.993   1.452   3.732
10782SOL    HW133245   0.002   1.485   3.819
10782SOL    HW233246   0.039   1.426   3.671
10783SOL     OW33247   1.180   3.551   3.542
10783SOL    HW133248   1.165   3.646   3.570
10783SOL    HW233249   1.253   3.511   3.598
10784SOL     OW33250   3.066   0.179   2.944
10784SOL    HW133251   2.972   0.158   2.918
10784SOL    HW233252   3.127   0.164   2.867
10785SOL     OW33253   0.630   5.000   0.864
10785SOL    HW133254   0.560   5.028   0.929
10785SOL    HW233255   0.719   4.995   0.909
10786SOL     OW33256   4.846   4.499   2.587
10786SOL    HW133257   4.862   4.581   2.641
10786SOL    HW233258   4.815   4.526   2.495
10787SOL     OW33259   3.090   1.742   4.231
10787SOL    HW133260   3.030   1.821   4.221
10787SOL    HW233261   3.168   1.766   4.287
10788SOL     OW33262   2.308   4.456   6.518
10788SOL    HW133263   2.332   4.433   6.612
10788SOL    HW233264   2.263   4.545   6.515
10789SOL     OW33265   5.901   2.816   0.388
10789SOL    HW133266   5.839   2.763   0.330
10789SOL    HW233267   5.962   2.870   0.331
10790SOL     OW33268   1.370   0.427   3.120
10790SOL    HW133269   1.398   0.521   3.141
10790SOL    HW233270   1.321   0.425   3.033
10791SOL     OW33271   0.025   0.459   0.995
10791SOL    HW133272   0.076   0.466   1.080
10791SOL    HW233273   6.958   0.434   1.015
10792SOL     OW33274   3.829   3.597   1.906
10792SOL    HW133275   3.884   3.532   1.958
10792SOL    HW233276   3.865   3.604   1.813
10793SOL     OW33277   5.515   2.521   4.429
10793SOL    HW133278   5.523   2.457   4.506
10793SOL    HW233279   5.479   2.472   4.349
10794SOL     OW33280   2.995   3.854   3.457
10794SOL    HW133281   3.021   3.758   3.445
10794SOL    HW233282   3.078   3.910   3.467
10795SOL     OW33283   6.803   3.561   3.512
10795SOL    HW133284   6.842   3.503   3.583
10795SOL    HW233285   6.760   3.504   3.442
10796SOL     OW33286   5.200   6.525   0.154
10796SOL    HW133287   5.157   6.597   0.208
10796SOL    HW233288   5.152   6.439   0.169
10797SOL     OW33289   3.580   1.973   0.958
10797SOL    HW133290   3.647   2.048   0.960
10797SOL    HW233291   3.488   2.011   0.961
10798SOL     OW33292   2.282   6.225   0.593
10798SOL    HW133293   2.194   6.267   0.575
10798SOL    HW233294   2.346   6.294   0.628
10799SOL     OW33295   3.743   0.864   2.405
10799SOL    HW133296   3.774   0.954   2.374
10799SOL    HW233297   3.705   0.872   2.497
10800SOL     OW33298   0.978   0.218   0.225
10800SOL    HW133299   0.949   0.249   0.316
10800SOL    HW233300   1.046   0.282   0.189
10801SOL     OW33301   0.863   6.555   5.493
10801SOL    HW133302   0.927   6.517   5.560
10801SOL    HW233303   0.789   6.603   5.540
10802SOL     OW33304   1.389   2.909   3.376
10802SOL    HW133305   1.478   2.953   3.384
10802SOL    HW233306   1.341   2.945   3.296
10803SOL     OW33307   4.162   4.380   5.589
10803SOL    HW133308   4.175   4.378   5.490
10803SOL    HW233309   4.112   4.298   5.617
10804SOL     OW33310   5.853   3.887   1.769
10804SOL    HW133311   5.909   3.817   1.723
10804SOL    HW233312   5.760   3.883   1.733
10805SOL     OW33313   3.908   0.141   6.708
10805SOL    HW133314   3.897   0.172   6.614
10805SOL    HW233315   3.982   0.073   6.712
10806SOL     OW33316   4.609   4.506   6.173
10806SOL    HW133317   4.704   4.488   6.150
10806SOL    HW233318   4.590   4.604   6.161
10807SOL     OW33319   1.216   6.478   3.490
10807SOL    HW133320   1.258   6.411   3.429
10807SOL    HW233321   1.220   6.569   3.448
10808SOL     OW33322   6.480   3.948   6.551
10808SOL    HW133323   6.551   3.889   6.589
10808SOL    HW233324   6.482   3.941   6.451
10809SOL     OW33325   3.133   5.806   3.586
10809SOL    HW133326   3.210   5.748   3.561
10809SOL    HW233327   3.162   5.902   3.583
10810SOL     OW33328   2.225   0.253   5.005
10810SOL    HW133329   2.247   0.253   5.102
10810SOL    HW233330   2.127   0.238   4.993
10811SOL     OW33331   4.293   4.810   5.640
10811SOL    HW133332   4.223   4.846   5.701
10811SOL    HW233333   4.352   4.885   5.610
10812SOL     OW33334   1.018   3.775   1.875
10812SOL    HW133335   0.967   3.846   1.827
10812SOL    HW233336   0.955   3.703   1.904
10813SOL     OW33337   2.117   5.569   0.148
10813SOL    HW133338   2.105   5.515   0.231
10813SOL    HW233339   2.197   5.628   0.158
10814SOL     OW33340   1.604   6.218   6.583
10814SOL    HW133341   1.683   6.264   6.622
10814SOL    HW233342   1.624   6.191   6.488
10815SOL     OW33343   4.692   4.659   3.129
10815SOL    HW133344   4.621   4.729   3.116
10815SOL    HW233345   4.669   4.579   3.075
10816SOL     OW33346   1.511   2.206   1.426
10816SOL    HW133347   1.600   2.251   1.425
10816SOL    HW233348   1.500   2.151   1.343
10817SOL     OW33349   5.518   6.638   2.309
10817SOL    HW133350   5.584   6.695   2.259
10817SOL    HW233351   5.507   6.673   2.402
10818SOL     OW33352   4.327   4.683   5.392
10818SOL    HW133353   4.415   4.644   5.418
10818SOL    HW233354   4.285   4.728   5.471
10819SOL     OW33355   6.639   4.402   0.122
10819SOL    HW133356   6.610   4.493   0.152
10819SOL    HW233357   6.559   4.343   0.111
10820SOL     OW33358   6.027   5.592   3.838
10820SOL    HW133359   6.009   5.654   3.762
10820SOL    HW233360   6.097   5.525   3.811
10821SOL     OW33361   5.631   6.224   2.155
10821SOL    HW133362   5.699   6.167   2.201
10821SOL    HW233363   5.652   6.228   2.057
10822SOL     OW33364   1.195   3.042   3.191
10822SOL    HW133365   1.098   3.019   3.179
10822SOL    HW233366   1.202   3.131   3.235
10823SOL     OW33367   1.769   5.398   1.714
10823SOL    HW133368   1.683   5.350   1.698
10823SOL    HW233369   1.771   5.483   1.661
10824SOL     OW33370   5.708   0.864   3.829
10824SOL    HW133371   5.779   0.804   3.791
10824SOL    HW233372   5.696   0.943   3.768
10825SOL     OW33373   3.425   7.008   6.390
10825SOL    HW133374   3.504   6.956   6.356
10825SOL    HW233375   3.372   6.951   6.453
10826SOL     OW33376   0.367   3.375   3.460
10826SOL    HW133377   0.304   3.452   3.452
10826SOL    HW233378   0.451   3.406   3.506
10827SOL     OW33379   6.135   4.038   4.231
10827SOL    HW133380   6.128   4.091   4.315
10827SOL    HW233381   6.228   4.046   4.194
10828SOL     OW33382   0.877   4.916   1.917
10828SOL    HW133383   0.877   4.822   1.884
10828SOL    HW233384   0.879   4.917   2.017
10829SOL     OW33385   3.613   2.459   0.740
10829SOL    HW133386   3.566   2.436   0.826
10829SOL    HW233387   3.545   2.470   0.667
10830SOL     OW33388   5.181   1.793   3.817
10830SOL    HW133389   5.112   1.747   3.872
10830SOL    HW233390   5.154   1.789   3.720
10831SOL     OW33391   3.942   6.040   2.077
10831SOL    HW133392   3.986   6.065   2.162
10831SOL    HW233393   3.947   5.941   2.064
10832SOL     OW33394   0.781   2.599   0.461
10832SOL    HW133395   0.769   2.500   0.450
10832SOL    HW233396   0.706   2.647   0.416
10833SOL     OW33397   1.329   1.389   2.295
10833SOL    HW133398   1.398   1.455   2.324
10833SOL    HW233399   1.352   1.355   2.203
10834SOL     OW33400   1.415   2.105   6.521
10834SOL    HW133401   1.389   2.057   6.436
10834SOL    HW233402   1.511   2.084   6.542
10835SOL     OW33403   6.537   2.257   0.172
10835SOL    HW133404   6.595   2.216   0.243
10835SOL    HW233405   6.516   2.352   0.198
10836SOL     OW33406   0.152   1.663   4.494
10836SOL    HW133407   0.070   1.708   4.530
10836SOL    HW233408   0.232   1.721   4.512
10837SOL     OW33409   6.793   4.704   0.465
10837SOL    HW133410   6.774   4.776   0.532
10837SOL    HW233411   6.755   4.617   0.498
10838SOL     OW33412   5.987   6.402   4.596
10838SOL    HW133413   6.005   6.334   4.524
10838SOL    HW233414   6.073   6.438   4.630
10839SOL     OW33415   3.696   3.025   0.833
10839SOL    HW133416   3.603   3.060   0.836
10839SOL    HW233417   3.707   2.956   0.905
10840SOL     OW33418   3.968   5.761   1.962
10840SOL    HW133419   3.871   5.744   1.945
10840SOL    HW233420   4.019   5.677   1.943
10841SOL     OW33421   4.443   6.103   0.598
10841SOL    HW133422   4.525   6.113   0.653
10841SOL    HW233423   4.428   6.186   0.544
10842SOL     OW33424   5.252   2.897   1.355
10842SOL    HW133425   5.170   2.955   1.346
10842SOL    HW233426   5.261   2.840   1.273
10843SOL     OW33427   0.634   2.138   1.579
10843SOL    HW133428   0.656   2.169   1.486
10843SOL    HW233429   0.537   2.153   1.597
10844SOL     OW33430   0.361   0.089   4.183
10844SOL    HW133431   0.273   0.060   4.221
10844SOL    HW233432   0.346   0.151   4.105
10845SOL     OW33433   3.147   0.456   6.013
10845SOL    HW133434   3.112   0.533   5.960
10845SOL    HW233435   3.225   0.486   6.068
10846SOL     OW33436   4.480   2.749   1.123
10846SOL    HW133437   4.391   2.718   1.089
10846SOL    HW233438   4.515   2.683   1.190
10847SOL     OW33439   3.813   3.557   6.554
10847SOL    HW133440   3.751   3.532   6.480
10847SOL    HW233441   3.882   3.621   6.519
10848SOL     OW33442   2.446   2.455   0.073
10848SOL    HW133443   2.426   2.439   7.005
10848SOL    HW233444   2.411   2.545   0.099
10849SOL     OW33445   2.597   4.937   2.850
10849SOL    HW133446   2.619   5.019   2.904
10849SOL    HW233447   2.651   4.859   2.884
10850SOL     OW33448   3.336   5.666   0.323
10850SOL    HW133449   3.303   5.760   0.325
10850SOL    HW233450   3.425   5.661   0.369
10851SOL     OW33451   2.917   3.152   6.610
10851SOL    HW133452   2.877   3.198   6.532
10851SOL    HW233453   2.888   3.056   6.611
10852SOL     OW33454   0.860   6.703   0.028
10852SOL    HW133455   0.940   6.760   0.009
10852SOL    HW233456   0.880   6.644   0.106
10853SOL     OW33457   3.488   2.465   5.746
10853SOL    HW133458   3.484   2.387   5.808
10853SOL    HW233459   3.396   2.492   5.720
10854SOL     OW33460   5.136   0.242   5.480
10854SOL    HW133461   5.221   0.289   5.454
10854SOL    HW233462   5.150   0.143   5.474
10855SOL     OW33463   2.864   6.633   1.691
10855SOL    HW133464   2.792   6.640   1.759
10855SOL    HW233465   2.953   6.628   1.737
10856SOL     OW33466   5.699   1.704   2.222
10856SOL    HW133467   5.624   1.679   2.161
10856SOL    HW233468   5.716   1.629   2.286
10857SOL     OW33469   5.820   2.659   3.193
10857SOL    HW133470   5.910   2.624   3.218
10857SOL    HW233471   5.820   2.686   3.096
10858SOL     OW33472   0.575   2.661   6.720
10858SOL    HW133473   0.488   2.622   6.687
10858SOL    HW233474   0.596   2.624   6.810
10859SOL     OW33475   2.088   3.482   3.784
10859SOL    HW133476   2.114   3.404   3.727
10859SOL    HW233477   2.113   3.567   3.738
10860SOL     OW33478   6.413   0.796   5.717
10860SOL    HW133479   6.498   0.767   5.762
10860SOL    HW233480   6.334   0.764   5.769
10861SOL     OW33481   3.929   3.108   3.026
10861SOL    HW133482   3.890   3.076   3.112
10861SOL    HW233483   4.012   3.162   3.045
10862SOL     OW33484   2.690   1.989   6.534
10862SOL    HW133485   2.725   2.002   6.627
10862SOL    HW233486   2.761   1.949   6.476
10863SOL     OW33487   3.933   0.412   2.897
10863SOL    HW133488   3.869   0.351   2.849
10863SOL    HW233489   3.929   0.502   2.854
10864SOL     OW33490   3.366   5.037   0.579
10864SOL    HW133491   3.435   5.102   0.546
10864SOL    HW233492   3.307   5.082   0.646
10865SOL     OW33493   5.984   1.398   3.044
10865SOL    HW133494   6.047   1.355   3.110
10865SOL    HW233495   5.957   1.488   3.078
10866SOL     OW33496   4.482   5.150   0.504
10866SOL    HW133497   4.506   5.105   0.418
10866SOL    HW233498   4.384   5.167   0.507
10867SOL     OW33499   3.178   3.806   0.205
10867SOL    HW133500   3.157   3.806   0.108
10867SOL    HW233501   3.093   3.793   0.257
10868SOL     OW33502   2.499   2.052   3.797
10868SOL    HW133503   2.491   2.023   3.702
10868SOL    HW233504   2.410   2.080   3.831
10869NA      NA33505   0.546   2.316   6.250
10870NA      NA33506   4.238   4.713   5.168
10871NA      NA33507   2.053   4.127   2.169
10872NA      NA33508   4.977   4.187   3.502
10873NA      NA33509   4.301   2.334   5.217
10874NA      NA33510   3.145   4.390   1.522
10875NA      NA33511   0.234   4.623   0.208
10876NA      NA33512   3.376   3.569   2.889
10877NA      NA33513   5.052   5.123   0.904
10878NA      NA33514   3.349   0.147   5.402
10879NA      NA33515   5.969   5.788   0.726
10880NA      NA33516   2.322   0.758   5.049
10881NA      NA33517   4.090   4.971   1.762
10882NA      NA33518   4.040   3.101   1.499
   7.02868   7.02868   7.02868
