Generated by trjconv : CNT in water t= 467.00000
33518
    1C        C    1   2.845   2.768   4.743
    1C        C    2   2.894   2.716   4.864
    1C        C    3   2.840   2.769   4.983
    1C        C    4   2.851   2.776   4.260
    1C        C    5   2.904   2.726   4.381
    1C        C    6   2.842   2.767   4.501
    1C        C    7   3.009   2.634   4.624
    1C        C    8   2.893   2.714   4.622
    1C        C    9   3.071   2.598   4.746
    1C        C   10   3.003   2.626   4.866
    1C        C   11   3.180   2.493   4.976
    1C        C   12   3.055   2.557   4.976
    1C        C   13   2.850   2.770   3.770
    1C        C   14   2.898   2.720   3.893
    1C        C   15   2.848   2.772   4.015
    1C        C   16   3.014   2.642   4.136
    1C        C   17   2.902   2.728   4.138
    1C        C   18   3.076   2.605   4.257
    1C        C   19   3.018   2.643   4.380
    1C        C   20   3.204   2.548   4.503
    1C        C   21   3.073   2.600   4.503
    1C        C   22   3.274   2.525   4.624
    1C        C   23   3.202   2.543   4.744
    1C        C   24   3.410   2.487   4.865
    1C        C   25   3.267   2.501   4.863
    1C        C   26   3.484   2.479   4.983
    1C        C   27   2.846   2.764   3.278
    1C        C   28   2.901   2.722   3.401
    1C        C   29   2.849   2.768   3.524
    1C        C   30   3.014   2.638   3.646
    1C        C   31   2.899   2.720   3.647
    1C        C   32   3.074   2.602   3.769
    1C        C   33   3.014   2.641   3.891
    1C        C   34   3.202   2.544   4.017
    1C        C   35   3.073   2.601   4.013
    1C        C   36   3.270   2.520   4.138
    1C        C   37   3.203   2.543   4.260
    1C        C   38   3.412   2.502   4.379
    1C        C   39   3.273   2.527   4.382
    1C        C   40   3.483   2.500   4.501
    1C        C   41   3.413   2.501   4.623
    1C        C   42   3.627   2.479   4.741
    1C        C   43   3.485   2.484   4.744
    1C        C   44   3.701   2.487   4.861
    1C        C   45   3.623   2.483   4.977
    1C        C   46   2.840   2.752   2.789
    1C        C   47   2.892   2.708   2.913
    1C        C   48   2.846   2.759   3.036
    1C        C   49   3.014   2.630   3.158
    1C        C   50   2.898   2.710   3.158
    1C        C   51   3.077   2.601   3.282
    1C        C   52   3.014   2.637   3.403
    1C        C   53   3.201   2.536   3.526
    1C        C   54   3.074   2.597   3.525
    1C        C   55   3.267   2.517   3.650
    1C        C   56   3.202   2.542   3.772
    1C        C   57   3.410   2.503   3.894
    1C        C   58   3.270   2.524   3.895
    1C        C   59   3.482   2.494   4.015
    1C        C   60   3.410   2.502   4.137
    1C        C   61   3.625   2.497   4.255
    1C        C   62   3.484   2.490   4.257
    1C        C   63   3.695   2.508   4.377
    1C        C   64   3.624   2.503   4.499
    1C        C   65   3.829   2.551   4.618
    1C        C   66   3.697   2.501   4.620
    1C        C   67   3.900   2.566   4.739
    1C        C   68   3.836   2.529   4.859
    1C        C   69   4.047   2.587   4.976
    1C        C   70   3.916   2.537   4.973
    1C        C   71   2.824   2.734   2.305
    1C        C   72   2.879   2.689   2.427
    1C        C   73   2.835   2.749   2.546
    1C        C   74   3.008   2.622   2.672
    1C        C   75   2.893   2.703   2.667
    1C        C   76   3.070   2.586   2.793
    1C        C   77   3.008   2.628   2.913
    1C        C   78   3.202   2.539   3.035
    1C        C   79   3.071   2.593   3.035
    1C        C   80   3.269   2.517   3.158
    1C        C   81   3.202   2.536   3.281
    1C        C   82   3.408   2.489   3.401
    1C        C   83   3.268   2.513   3.404
    1C        C   84   3.477   2.488   3.524
    1C        C   85   3.408   2.500   3.646
    1C        C   86   3.618   2.503   3.766
    1C        C   87   3.476   2.500   3.770
    1C        C   88   3.690   2.512   3.887
    1C        C   89   3.623   2.501   4.012
    1C        C   90   3.830   2.553   4.133
    1C        C   91   3.694   2.513   4.133
    1C        C   92   3.898   2.574   4.254
    1C        C   93   3.831   2.548   4.376
    1C        C   94   4.024   2.640   4.496
    1C        C   95   3.896   2.580   4.497
    1C        C   96   4.090   2.668   4.617
    1C        C   97   4.028   2.627   4.738
    1C        C   98   4.193   2.759   4.857
    1C        C   99   4.095   2.655   4.860
    1C        C  100   4.220   2.835   4.972
    1C        C  101   2.820   2.732   2.068
    1C        C  102   2.992   2.594   2.188
    1C        C  103   2.878   2.681   2.185
    1C        C  104   3.062   2.568   2.310
    1C        C  105   3.000   2.615   2.428
    1C        C  106   3.197   2.531   2.546
    1C        C  107   3.067   2.586   2.549
    1C        C  108   3.265   2.509   2.668
    1C        C  109   3.200   2.531   2.792
    1C        C  110   3.409   2.490   2.913
    1C        C  111   3.269   2.512   2.914
    1C        C  112   3.479   2.485   3.035
    1C        C  113   3.409   2.496   3.157
    1C        C  114   3.621   2.494   3.275
    1C        C  115   3.480   2.492   3.279
    1C        C  116   3.688   2.505   3.399
    1C        C  117   3.618   2.498   3.522
    1C        C  118   3.824   2.552   3.643
    1C        C  119   3.688   2.513   3.644
    1C        C  120   3.890   2.578   3.765
    1C        C  121   3.826   2.550   3.887
    1C        C  122   4.018   2.643   4.011
    1C        C  123   3.893   2.577   4.008
    1C        C  124   4.081   2.679   4.132
    1C        C  125   4.022   2.641   4.255
    1C        C  126   4.201   2.761   4.372
    1C        C  127   4.086   2.679   4.375
    1C        C  128   4.249   2.812   4.494
    1C        C  129   4.194   2.763   4.615
    1C        C  130   4.330   2.928   4.736
    1C        C  131   4.244   2.815   4.737
    1C        C  132   4.360   2.997   4.856
    1C        C  133   4.293   2.954   4.971
    1C        C  134   3.168   2.463   2.078
    1C        C  135   3.036   2.508   2.083
    1C        C  136   3.258   2.474   2.185
    1C        C  137   3.194   2.516   2.304
    1C        C  138   3.404   2.479   2.425
    1C        C  139   3.264   2.502   2.425
    1C        C  140   3.477   2.481   2.546
    1C        C  141   3.404   2.488   2.667
    1C        C  142   3.618   2.491   2.788
    1C        C  143   3.477   2.487   2.789
    1C        C  144   3.689   2.503   2.910
    1C        C  145   3.620   2.491   3.033
    1C        C  146   3.827   2.543   3.154
    1C        C  147   3.693   2.500   3.154
    1C        C  148   3.892   2.568   3.277
    1C        C  149   3.823   2.546   3.398
    1C        C  150   4.018   2.632   3.519
    1C        C  151   3.889   2.574   3.520
    1C        C  152   4.076   2.673   3.642
    1C        C  153   4.015   2.645   3.766
    1C        C  154   4.190   2.764   3.883
    1C        C  155   4.076   2.681   3.888
    1C        C  156   4.245   2.811   4.005
    1C        C  157   4.195   2.762   4.127
    1C        C  158   4.342   2.916   4.251
    1C        C  159   4.252   2.807   4.248
    1C        C  160   4.380   2.979   4.371
    1C        C  161   4.333   2.925   4.493
    1C        C  162   4.441   3.110   4.616
    1C        C  163   4.369   2.989   4.614
    1C        C  164   4.469   3.179   4.736
    1C        C  165   4.435   3.116   4.858
    1C        C  166   4.515   3.319   4.973
    1C        C  167   4.478   3.185   4.972
    1C        C  168   3.473   2.426   2.070
    1C        C  169   3.398   2.454   2.185
    1C        C  170   3.616   2.464   2.303
    1C        C  171   3.474   2.462   2.304
    1C        C  172   3.690   2.481   2.423
    1C        C  173   3.618   2.484   2.544
    1C        C  174   3.824   2.538   2.665
    1C        C  175   3.689   2.497   2.666
    1C        C  176   3.893   2.559   2.786
    1C        C  177   3.824   2.544   2.908
    1C        C  178   4.021   2.622   3.029
    1C        C  179   3.893   2.564   3.030
    1C        C  180   4.082   2.662   3.151
    1C        C  181   4.020   2.627   3.273
    1C        C  182   4.190   2.751   3.394
    1C        C  183   4.080   2.664   3.396
    1C        C  184   4.239   2.804   3.515
    1C        C  185   4.189   2.758   3.639
    1C        C  186   4.335   2.915   3.761
    1C        C  187   4.243   2.807   3.760
    1C        C  188   4.379   2.972   3.882
    1C        C  189   4.339   2.917   4.005
    1C        C  190   4.443   3.100   4.127
    1C        C  191   4.381   2.974   4.128
    1C        C  192   4.471   3.168   4.248
    1C        C  193   4.446   3.104   4.371
    1C        C  194   4.506   3.309   4.487
    1C        C  195   4.470   3.173   4.492
    1C        C  196   4.525   3.381   4.608
    1C        C  197   4.518   3.313   4.732
    1C        C  198   4.554   3.529   4.849
    1C        C  199   4.533   3.388   4.852
    1C        C  200   4.582   3.615   4.960
    1C        C  201   3.613   2.413   2.067
    1C        C  202   3.820   2.512   2.179
    1C        C  203   3.687   2.457   2.181
    1C        C  204   3.891   2.543   2.298
    1C        C  205   3.825   2.520   2.421
    1C        C  206   4.017   2.618   2.539
    1C        C  207   3.891   2.554   2.542
    1C        C  208   4.080   2.656   2.660
    1C        C  209   4.019   2.622   2.783
    1C        C  210   4.191   2.744   2.903
    1C        C  211   4.079   2.658   2.906
    1C        C  212   4.242   2.795   3.024
    1C        C  213   4.193   2.749   3.148
    1C        C  214   4.334   2.906   3.270
    1C        C  215   4.246   2.795   3.271
    1C        C  216   4.364   2.970   3.392
    1C        C  217   4.327   2.915   3.517
    1C        C  218   4.435   3.099   3.634
    1C        C  219   4.373   2.973   3.638
    1C        C  220   4.466   3.163   3.757
    1C        C  221   4.447   3.096   3.880
    1C        C  222   4.504   3.300   4.000
    1C        C  223   4.471   3.162   4.003
    1C        C  224   4.512   3.375   4.120
    1C        C  225   4.506   3.305   4.242
    1C        C  226   4.516   3.517   4.366
    1C        C  227   4.519   3.376   4.363
    1C        C  228   4.511   3.591   4.486
    1C        C  229   4.529   3.522   4.608
    1C        C  230   4.498   3.735   4.724
    1C        C  231   4.538   3.599   4.726
    1C        C  232   4.488   3.811   4.843
    1C        C  233   4.538   3.748   4.958
    1C        C  234   4.012   2.609   2.059
    1C        C  235   3.891   2.541   2.061
    1C        C  236   4.082   2.642   2.175
    1C        C  237   4.019   2.605   2.296
    1C        C  238   4.194   2.732   2.417
    1C        C  239   4.079   2.650   2.416
    1C        C  240   4.250   2.782   2.537
    1C        C  241   4.189   2.745   2.659
    1C        C  242   4.330   2.906   2.778
    1C        C  243   4.242   2.795   2.781
    1C        C  244   4.371   2.961   2.901
    1C        C  245   4.332   2.904   3.025
    1C        C  246   4.440   3.086   3.144
    1C        C  247   4.375   2.961   3.147
    1C        C  248   4.460   3.156   3.266
    1C        C  249   4.428   3.096   3.390
    1C        C  250   4.500   3.297   3.509
    1C        C  251   4.460   3.162   3.510
    1C        C  252   4.509   3.367   3.632
    1C        C  253   4.503   3.299   3.756
    1C        C  254   4.518   3.510   3.875
    1C        C  255   4.516   3.369   3.878
    1C        C  256   4.516   3.583   3.996
    1C        C  257   4.519   3.516   4.121
    1C        C  258   4.487   3.726   4.239
    1C        C  259   4.512   3.586   4.243
    1C        C  260   4.464   3.795   4.360
    1C        C  261   4.480   3.729   4.484
    1C        C  262   4.419   3.935   4.600
    1C        C  263   4.469   3.803   4.603
    1C        C  264   4.387   4.001   4.721
    1C        C  265   4.429   3.940   4.841
    1C        C  266   4.317   4.127   4.954
    1C        C  267   4.390   4.009   4.957
    1C        C  268   4.256   2.771   2.057
    1C        C  269   4.193   2.729   2.175
    1C        C  270   4.343   2.884   2.295
    1C        C  271   4.250   2.777   2.295
    1C        C  272   4.385   2.945   2.416
    1C        C  273   4.345   2.886   2.537
    1C        C  274   4.449   3.078   2.655
    1C        C  275   4.378   2.956   2.656
    1C        C  276   4.477   3.145   2.777
    1C        C  277   4.447   3.080   2.898
    1C        C  278   4.503   3.285   3.023
    1C        C  279   4.468   3.148   3.021
    1C        C  280   4.516   3.357   3.144
    1C        C  281   4.503   3.290   3.268
    1C        C  282   4.518   3.507   3.386
    1C        C  283   4.516   3.366   3.387
    1C        C  284   4.514   3.578   3.509
    1C        C  285   4.513   3.508   3.632
    1C        C  286   4.482   3.719   3.749
    1C        C  287   4.508   3.580   3.753
    1C        C  288   4.462   3.787   3.872
    1C        C  289   4.482   3.721   3.995
    1C        C  290   4.418   3.924   4.114
    1C        C  291   4.469   3.792   4.116
    1C        C  292   4.385   3.990   4.235
    1C        C  293   4.418   3.928   4.357
    1C        C  294   4.321   4.121   4.474
    1C        C  295   4.391   3.999   4.477
    1C        C  296   4.281   4.184   4.595
    1C        C  297   4.318   4.125   4.718
    1C        C  298   4.197   4.311   4.835
    1C        C  299   4.277   4.192   4.837
    1C        C  300   4.163   4.395   4.946
    1C        C  301   4.352   2.872   2.061
    1C        C  302   4.467   3.064   2.175
    1C        C  303   4.395   2.941   2.175
    1C        C  304   4.479   3.139   2.295
    1C        C  305   4.452   3.069   2.416
    1C        C  306   4.508   3.281   2.536
    1C        C  307   4.479   3.143   2.533
    1C        C  308   4.513   3.354   2.657
    1C        C  309   4.504   3.284   2.779
    1C        C  310   4.524   3.496   2.898
    1C        C  311   4.515   3.355   2.901
    1C        C  312   4.515   3.568   3.019
    1C        C  313   4.515   3.498   3.143
    1C        C  314   4.481   3.712   3.261
    1C        C  315   4.511   3.574   3.262
    1C        C  316   4.461   3.781   3.382
    1C        C  317   4.480   3.715   3.506
    1C        C  318   4.413   3.918   3.624
    1C        C  319   4.463   3.786   3.627
    1C        C  320   4.382   3.980   3.747
    1C        C  321   4.412   3.919   3.870
    1C        C  322   4.307   4.104   3.988
    1C        C  323   4.385   3.986   3.992
    1C        C  324   4.266   4.162   4.110
    1C        C  325   4.313   4.111   4.233
    1C        C  326   4.182   4.282   4.352
    1C        C  327   4.277   4.177   4.353
    1C        C  328   4.131   4.333   4.474
    1C        C  329   4.186   4.288   4.596
    1C        C  330   4.024   4.438   4.708
    1C        C  331   4.135   4.348   4.713
    1C        C  332   3.967   4.491   4.826
    1C        C  333   4.047   4.473   4.940
    1C        C  334   4.545   3.260   2.061
    1C        C  335   4.533   3.121   2.061
    1C        C  336   4.539   3.345   2.172
    1C        C  337   4.516   3.276   2.293
    1C        C  338   4.528   3.491   2.409
    1C        C  339   4.524   3.350   2.413
    1C        C  340   4.519   3.562   2.530
    1C        C  341   4.520   3.495   2.654
    1C        C  342   4.493   3.706   2.773
    1C        C  343   4.517   3.567   2.776
    1C        C  344   4.472   3.776   2.894
    1C        C  345   4.485   3.706   3.016
    1C        C  346   4.409   3.907   3.134
    1C        C  347   4.463   3.776   3.136
    1C        C  348   4.379   3.973   3.255
    1C        C  349   4.418   3.915   3.378
    1C        C  350   4.308   4.097   3.500
    1C        C  351   4.387   3.980   3.499
    1C        C  352   4.265   4.157   3.620
    1C        C  353   4.307   4.100   3.743
    1C        C  354   4.167   4.261   3.864
    1C        C  355   4.264   4.158   3.864
    1C        C  356   4.115   4.309   3.986
    1C        C  357   4.171   4.266   4.109
    1C        C  358   4.010   4.405   4.229
    1C        C  359   4.127   4.326   4.230
    1C        C  360   3.949   4.447   4.350
    1C        C  361   4.013   4.411   4.470
    1C        C  362   3.825   4.519   4.591
    1C        C  363   3.952   4.459   4.589
    1C        C  364   3.759   4.548   4.713
    1C        C  365   3.835   4.540   4.832
    1C        C  366   3.625   4.587   4.949
    1C        C  367   3.762   4.563   4.949
    1C        C  368   4.506   3.558   2.051
    1C        C  369   4.524   3.485   2.169
    1C        C  370   4.499   3.702   2.287
    1C        C  371   4.517   3.562   2.287
    1C        C  372   4.482   3.774   2.407
    1C        C  373   4.492   3.701   2.528
    1C        C  374   4.410   3.899   2.649
    1C        C  375   4.466   3.769   2.649
    1C        C  376   4.380   3.967   2.769
    1C        C  377   4.421   3.907   2.890
    1C        C  378   4.317   4.093   3.009
    1C        C  379   4.392   3.974   3.011
    1C        C  380   4.270   4.149   3.130
    1C        C  381   4.307   4.095   3.255
    1C        C  382   4.168   4.256   3.376
    1C        C  383   4.263   4.151   3.377
    1C        C  384   4.112   4.301   3.498
    1C        C  385   4.167   4.258   3.621
    1C        C  386   4.003   4.396   3.740
    1C        C  387   4.115   4.309   3.742
    1C        C  388   3.944   4.433   3.863
    1C        C  389   4.002   4.394   3.985
    1C        C  390   3.815   4.492   4.106
    1C        C  391   3.946   4.438   4.107
    1C        C  392   3.748   4.512   4.228
    1C        C  393   3.819   4.503   4.350
    1C        C  394   3.613   4.554   4.472
    1C        C  395   3.753   4.534   4.471
    1C        C  396   3.543   4.567   4.594
    1C        C  397   3.619   4.566   4.713
    1C        C  398   3.407   4.550   4.836
    1C        C  399   3.546   4.574   4.833
    1C        C  400   3.338   4.512   4.952
    1C        C  401   4.502   3.697   2.049
    1C        C  402   4.443   3.909   2.164
    1C        C  403   4.486   3.774   2.166
    1C        C  404   4.403   3.971   2.284
    1C        C  405   4.426   3.903   2.406
    1C        C  406   4.321   4.090   2.522
    1C        C  407   4.390   3.967   2.527
    1C        C  408   4.272   4.145   2.642
    1C        C  409   4.304   4.086   2.767
    1C        C  410   4.167   4.248   2.883
    1C        C  411   4.267   4.149   2.888
    1C        C  412   4.116   4.292   3.007
    1C        C  413   4.172   4.251   3.130
    1C        C  414   4.001   4.379   3.251
    1C        C  415   4.119   4.301   3.251
    1C        C  416   3.938   4.414   3.372
    1C        C  417   3.997   4.382   3.496
    1C        C  418   3.810   4.482   3.617
    1C        C  419   3.940   4.427   3.617
    1C        C  420   3.745   4.508   3.740
    1C        C  421   3.815   4.491   3.862
    1C        C  422   3.610   4.540   3.985
    1C        C  423   3.750   4.519   3.984
    1C        C  424   3.538   4.541   4.106
    1C        C  425   3.609   4.540   4.228
    1C        C  426   3.400   4.545   4.356
    1C        C  427   3.541   4.554   4.351
    1C        C  428   3.328   4.541   4.477
    1C        C  429   3.402   4.558   4.596
    1C        C  430   3.192   4.515   4.719
    1C        C  431   3.331   4.544   4.717
    1C        C  432   3.122   4.487   4.840
    1C        C  433   3.201   4.486   4.956
    1C        C  434   4.381   4.121   2.052
    1C        C  435   4.439   3.993   2.053
    1C        C  436   4.301   4.164   2.163
    1C        C  437   4.332   4.094   2.283
    1C        C  438   4.174   4.244   2.398
    1C        C  439   4.279   4.150   2.401
    1C        C  440   4.124   4.296   2.519
    1C        C  441   4.176   4.249   2.642
    1C        C  442   4.003   4.381   2.762
    1C        C  443   4.116   4.296   2.761
    1C        C  444   3.940   4.414   2.884
    1C        C  445   4.003   4.377   3.005
    1C        C  446   3.814   4.474   3.129
    1C        C  447   3.939   4.409   3.127
    1C        C  448   3.746   4.498   3.251
    1C        C  449   3.811   4.477   3.374
    1C        C  450   3.604   4.528   3.493
    1C        C  451   3.744   4.507   3.495
    1C        C  452   3.537   4.536   3.617
    1C        C  453   3.607   4.536   3.740
    1C        C  454   3.397   4.547   3.863
    1C        C  455   3.538   4.547   3.863
    1C        C  456   3.328   4.536   3.985
    1C        C  457   3.397   4.542   4.108
    1C        C  458   3.193   4.502   4.233
    1C        C  459   3.331   4.534   4.233
    1C        C  460   3.125   4.483   4.355
    1C        C  461   3.190   4.509   4.477
    1C        C  462   2.995   4.427   4.599
    1C        C  463   3.121   4.492   4.599
    1C        C  464   2.928   4.398   4.720
    1C        C  465   2.988   4.437   4.843
    1C        C  466   2.801   4.332   4.958
    1C        C  467   2.905   4.427   4.958
    1C        C  468   4.116   4.279   2.038
    1C        C  469   4.183   4.245   2.156
    1C        C  470   3.997   4.362   2.274
    1C        C  471   4.119   4.288   2.275
    1C        C  472   3.941   4.401   2.398
    1C        C  473   4.007   4.375   2.520
    1C        C  474   3.811   4.468   2.642
    1C        C  475   3.941   4.412   2.639
    1C        C  476   3.745   4.493   2.764
    1C        C  477   3.811   4.472   2.887
    1C        C  478   3.605   4.523   3.006
    1C        C  479   3.743   4.497   3.009
    1C        C  480   3.534   4.528   3.128
    1C        C  481   3.607   4.524   3.249
    1C        C  482   3.395   4.530   3.376
    1C        C  483   3.535   4.539   3.370
    1C        C  484   3.324   4.529   3.499
    1C        C  485   3.396   4.540   3.619
    1C        C  486   3.189   4.502   3.742
    1C        C  487   3.325   4.537   3.742
    1C        C  488   3.123   4.478   3.865
    1C        C  489   3.191   4.501   3.987
    1C        C  490   3.003   4.410   4.113
    1C        C  491   3.126   4.479   4.110
    1C        C  492   2.942   4.378   4.237
    1C        C  493   2.997   4.423   4.359
    1C        C  494   2.822   4.299   4.481
    1C        C  495   2.932   4.387   4.479
    1C        C  496   2.770   4.252   4.604
    1C        C  497   2.815   4.313   4.723
    1C        C  498   2.664   4.160   4.844
    1C        C  499   2.753   4.270   4.842
    1C        C  500   2.587   4.117   4.953
    1C        C  501   4.001   4.357   2.033
    1C        C  502   3.816   4.468   2.157
    1C        C  503   3.938   4.398   2.152
    1C        C  504   3.744   4.485   2.277
    1C        C  505   3.812   4.457   2.398
    1C        C  506   3.605   4.512   2.518
    1C        C  507   3.742   4.480   2.519
    1C        C  508   3.534   4.519   2.640
    1C        C  509   3.605   4.514   2.762
    1C        C  510   3.392   4.528   2.882
    1C        C  511   3.534   4.524   2.884
    1C        C  512   3.323   4.523   3.005
    1C        C  513   3.392   4.530   3.128
    1C        C  514   3.189   4.490   3.253
    1C        C  515   3.327   4.523   3.253
    1C        C  516   3.124   4.465   3.375
    1C        C  517   3.185   4.499   3.498
    1C        C  518   2.998   4.406   3.623
    1C        C  519   3.120   4.477   3.621
    1C        C  520   2.942   4.367   3.747
    1C        C  521   3.000   4.408   3.870
    1C        C  522   2.835   4.278   3.994
    1C        C  523   2.941   4.371   3.992
    1C        C  524   2.790   4.228   4.119
    1C        C  525   2.837   4.284   4.240
    1C        C  526   2.692   4.129   4.361
    1C        C  527   2.776   4.242   4.361
    1C        C  528   2.650   4.071   4.483
    1C        C  529   2.684   4.140   4.602
    1C        C  530   2.580   3.958   4.728
    1C        C  531   2.642   4.086   4.726
    1C        C  532   2.535   3.901   4.850
    1C        C  533   2.520   3.994   4.957
    1C        C  534   3.615   4.557   2.040
    1C        C  535   3.747   4.510   2.042
    1C        C  536   3.535   4.534   2.156
    1C        C  537   3.605   4.512   2.278
    1C        C  538   3.390   4.515   2.397
    1C        C  539   3.531   4.516   2.398
    1C        C  540   3.319   4.510   2.520
    1C        C  541   3.393   4.516   2.640
    1C        C  542   3.183   4.482   2.763
    1C        C  543   3.320   4.518   2.761
    1C        C  544   3.120   4.460   2.888
    1C        C  545   3.186   4.488   3.009
    1C        C  546   2.997   4.397   3.132
    1C        C  547   3.121   4.466   3.132
    1C        C  548   2.941   4.358   3.256
    1C        C  549   2.999   4.399   3.378
    1C        C  550   2.834   4.271   3.502
    1C        C  551   2.940   4.364   3.501
    1C        C  552   2.786   4.221   3.626
    1C        C  553   2.834   4.277   3.747
    1C        C  554   2.700   4.117   3.873
    1C        C  555   2.787   4.228   3.871
    1C        C  556   2.663   4.057   3.995
    1C        C  557   2.701   4.119   4.116
    1C        C  558   2.590   3.941   4.244
    1C        C  559   2.660   4.064   4.239
    1C        C  560   2.555   3.877   4.365
    1C        C  561   2.588   3.944   4.484
    1C        C  562   2.528   3.747   4.616
    1C        C  563   2.558   3.885   4.609
    1C        C  564   2.516   3.677   4.738
    1C        C  565   2.520   3.758   4.855
    1C        C  566   2.527   3.544   4.976
    1C        C  567   2.525   3.683   4.973
    1C        C  568   3.330   4.466   2.039
    1C        C  569   3.395   4.511   2.155
    1C        C  570   3.181   4.471   2.276
    1C        C  571   3.319   4.506   2.275
    1C        C  572   3.113   4.454   2.399
    1C        C  573   3.181   4.479   2.520
    1C        C  574   2.988   4.393   2.644
    1C        C  575   3.113   4.459   2.642
    1C        C  576   2.932   4.353   2.767
    1C        C  577   2.994   4.395   2.887
    1C        C  578   2.829   4.265   3.013
    1C        C  579   2.939   4.354   3.011
    1C        C  580   2.783   4.212   3.136
    1C        C  581   2.836   4.263   3.257
    1C        C  582   2.692   4.113   3.381
    1C        C  583   2.784   4.219   3.381
    1C        C  584   2.654   4.057   3.505
    1C        C  585   2.694   4.114   3.627
    1C        C  586   2.590   3.934   3.753
    1C        C  587   2.658   4.058   3.752
    1C        C  588   2.564   3.869   3.876
    1C        C  589   2.598   3.932   3.998
    1C        C  590   2.530   3.736   4.125
    1C        C  591   2.569   3.872   4.123
    1C        C  592   2.518   3.669   4.249
    1C        C  593   2.525   3.739   4.371
    1C        C  594   2.509   3.533   4.496
    1C        C  595   2.516   3.674   4.496
    1C        C  596   2.517   3.461   4.618
    1C        C  597   2.513   3.535   4.738
    1C        C  598   2.530   3.324   4.858
    1C        C  599   2.524   3.465   4.860
    1C        C  600   2.537   3.248   4.976
    1C        C  601   3.195   4.436   2.040
    1C        C  602   2.980   4.390   2.156
    1C        C  603   3.115   4.438   2.155
    1C        C  604   2.923   4.354   2.281
    1C        C  605   2.987   4.390   2.402
    1C        C  606   2.816   4.266   2.524
    1C        C  607   2.924   4.356   2.524
    1C        C  608   2.772   4.212   2.647
    1C        C  609   2.825   4.261   2.768
    1C        C  610   2.689   4.103   2.892
    1C        C  611   2.777   4.214   2.893
    1C        C  612   2.652   4.046   3.016
    1C        C  613   2.691   4.105   3.138
    1C        C  614   2.586   3.925   3.265
    1C        C  615   2.645   4.054   3.261
    1C        C  616   2.560   3.862   3.389
    1C        C  617   2.589   3.931   3.509
    1C        C  618   2.523   3.731   3.635
    1C        C  619   2.563   3.867   3.632
    1C        C  620   2.513   3.660   3.757
    1C        C  621   2.530   3.732   3.877
    1C        C  622   2.509   3.526   4.008
    1C        C  623   2.518   3.667   4.003
    1C        C  624   2.511   3.457   4.131
    1C        C  625   2.511   3.528   4.253
    1C        C  626   2.536   3.319   4.376
    1C        C  627   2.508   3.458   4.376
    1C        C  628   2.556   3.252   4.498
    1C        C  629   2.538   3.322   4.619
    1C        C  630   2.591   3.114   4.741
    1C        C  631   2.545   3.249   4.740
    1C        C  632   2.611   3.045   4.864
    1C        C  633   2.561   3.110   4.981
    1C        C  634   2.786   4.300   2.048
    1C        C  635   2.896   4.387   2.041
    1C        C  636   2.750   4.224   2.160
    1C        C  637   2.808   4.271   2.280
    1C        C  638   2.675   4.106   2.405
    1C        C  639   2.762   4.218   2.403
    1C        C  640   2.637   4.046   2.527
    1C        C  641   2.682   4.102   2.649
    1C        C  642   2.581   3.918   2.774
    1C        C  643   2.643   4.045   2.772
    1C        C  644   2.555   3.854   2.898
    1C        C  645   2.585   3.921   3.018
    1C        C  646   2.531   3.720   3.145
    1C        C  647   2.565   3.857   3.143
    1C        C  648   2.516   3.654   3.269
    1C        C  649   2.528   3.725   3.391
    1C        C  650   2.507   3.516   3.515
    1C        C  651   2.516   3.657   3.515
    1C        C  652   2.509   3.449   3.639
    1C        C  653   2.507   3.519   3.761
    1C        C  654   2.526   3.313   3.886
    1C        C  655   2.508   3.454   3.887
    1C        C  656   2.547   3.249   4.010
    1C        C  657   2.532   3.317   4.132
    1C        C  658   2.604   3.117   4.254
    1C        C  659   2.556   3.250   4.254
    1C        C  660   2.637   3.054   4.376
    1C        C  661   2.601   3.118   4.497
    1C        C  662   2.714   2.939   4.623
    1C        C  663   2.632   3.054   4.620
    1C        C  664   2.755   2.879   4.743
    1C        C  665   2.695   2.930   4.862
    1C        C  666   2.743   2.868   4.979
    1C        C  667   2.682   4.017   2.052
    1C        C  668   2.681   4.101   2.165
    1C        C  669   2.589   3.907   2.286
    1C        C  670   2.639   4.041   2.285
    1C        C  671   2.558   3.846   2.409
    1C        C  672   2.577   3.918   2.529
    1C        C  673   2.514   3.717   2.654
    1C        C  674   2.553   3.853   2.652
    1C        C  675   2.502   3.650   2.777
    1C        C  676   2.517   3.718   2.900
    1C        C  677   2.504   3.510   3.025
    1C        C  678   2.516   3.650   3.023
    1C        C  679   2.508   3.442   3.150
    1C        C  680   2.505   3.513   3.272
    1C        C  681   2.527   3.304   3.399
    1C        C  682   2.505   3.443   3.394
    1C        C  683   2.551   3.237   3.522
    1C        C  684   2.531   3.309   3.642
    1C        C  685   2.601   3.111   3.769
    1C        C  686   2.547   3.242   3.766
    1C        C  687   2.634   3.050   3.891
    1C        C  688   2.603   3.119   4.010
    1C        C  689   2.709   2.934   4.135
    1C        C  690   2.634   3.054   4.132
    1C        C  691   2.752   2.876   4.257
    1C        C  692   2.712   2.934   4.380
    1C        C  693   2.753   2.877   4.502
    1C        C  694   2.626   3.889   2.052
    1C        C  695   2.521   3.699   2.171
    1C        C  696   2.580   3.828   2.170
    1C        C  697   2.498   3.635   2.295
    1C        C  698   2.516   3.711   2.413
    1C        C  699   2.483   3.502   2.543
    1C        C  700   2.495   3.643   2.535
    1C        C  701   2.500   3.432   2.664
    1C        C  702   2.497   3.508   2.783
    1C        C  703   2.527   3.297   2.910
    1C        C  704   2.501   3.436   2.905
    1C        C  705   2.545   3.232   3.034
    1C        C  706   2.530   3.303   3.155
    1C        C  707   2.594   3.102   3.276
    1C        C  708   2.543   3.234   3.278
    1C        C  709   2.628   3.041   3.399
    1C        C  710   2.601   3.105   3.522
    1C        C  711   2.713   2.932   3.646
    1C        C  712   2.631   3.047   3.647
    1C        C  713   2.758   2.877   3.768
    1C        C  714   2.713   2.933   3.891
    1C        C  715   2.754   2.878   4.014
    1C        C  716   2.442   3.492   2.059
    1C        C  717   2.485   3.626   2.058
    1C        C  718   2.461   3.420   2.181
    1C        C  719   2.472   3.496   2.301
    1C        C  720   2.517   3.290   2.421
    1C        C  721   2.479   3.426   2.424
    1C        C  722   2.540   3.224   2.544
    1C        C  723   2.523   3.293   2.666
    1C        C  724   2.587   3.093   2.790
    1C        C  725   2.543   3.227   2.789
    1C        C  726   2.621   3.031   2.912
    1C        C  727   2.594   3.099   3.032
    1C        C  728   2.702   2.918   3.155
    1C        C  729   2.625   3.036   3.155
    1C        C  730   2.753   2.870   3.278
    1C        C  731   2.711   2.927   3.401
    1C        C  732   2.754   2.873   3.524
    1C        C  733   2.488   3.196   2.070
    1C        C  734   2.482   3.279   2.183
    1C        C  735   2.573   3.081   2.303
    1C        C  736   2.517   3.211   2.303
    1C        C  737   2.611   3.021   2.425
    1C        C  738   2.586   3.091   2.546
    1C        C  739   2.694   2.908   2.670
    1C        C  740   2.617   3.027   2.668
    1C        C  741   2.745   2.856   2.791
    1C        C  742   2.703   2.915   2.912
    1C        C  743   2.748   2.861   3.034
    1C        C  744   2.542   3.068   2.069
    1C        C  745   2.684   2.898   2.186
    1C        C  746   2.602   3.013   2.183
    1C        C  747   2.727   2.838   2.307
    1C        C  748   2.686   2.901   2.426
    1C        C  749   2.739   2.852   2.548
    1C        C  750   2.736   2.842   2.069
    1C        C  751   3.652   2.295   1.987
    1C        O  752   3.685   2.194   2.054
    1C        O  753   3.667   2.288   1.848
    1C        C  754   4.636   3.041   1.991
    1C        O  755   4.630   3.028   1.865
    1C        O  756   4.745   2.973   2.047
    1C        C  757   4.449   4.218   1.963
    1C        O  758   4.498   4.321   2.016
    1C        O  759   4.404   4.247   1.834
    1C        C  760   3.591   4.665   1.941
    1C        O  761   3.631   4.782   1.962
    1C        O  762   3.569   4.621   1.810
    1C        C  763   2.899   4.481   1.927
    1C        O  764   2.956   4.449   1.819
    1C        O  765   2.850   4.612   1.921
    1C        C  766   2.321   3.472   1.976
    1C        O  767   2.332   3.423   1.861
    1C        O  768   2.211   3.425   2.050
    1C        C  769   4.689   3.587   5.058
    1C        O  770   4.677   3.590   5.184
    1C        O  771   4.823   3.584   5.019
    1C        C  772   4.257   4.435   5.053
    1C        O  773   4.229   4.423   5.175
    1C        O  774   4.348   4.541   5.040
    1C        C  775   4.143   2.539   5.078
    1C        O  776   4.257   2.492   5.050
    1C        O  777   4.095   2.502   5.204
    1C        C  778   2.884   4.550   5.039
    1C        O  779   2.801   4.631   4.990
    1C        O  780   2.902   4.540   5.177
    1C        C  781   2.456   3.045   5.062
    1C        O  782   2.337   3.029   5.022
    1C        O  783   2.458   3.021   5.199
    1C        C  784   2.428   3.983   5.073
    1C        O  785   2.318   4.044   5.072
    1C        O  786   2.472   3.929   5.194
    1C        C  787   2.938   2.424   2.009
    1C        O  788   2.888   2.463   1.900
    1C        O  789   2.863   2.322   2.067
    1C        C  790   3.198   2.404   5.093
    1C        O  791   3.159   2.285   5.093
    1C        O  792   3.235   2.464   5.214
    1C        H  793   4.265   3.031   5.039
    1C        H  794   4.237   2.776   5.060
    1C        H  795   4.517   3.127   5.053
    1C        H  796   4.556   3.359   5.063
    1C        H  797   4.527   3.799   5.051
    1C        H  798   4.465   4.006   5.033
    1C        H  799   4.268   4.156   5.045
    1C        H  800   4.031   4.538   5.023
    1C        H  801   3.794   4.512   5.037
    1C        H  802   3.577   4.622   5.038
    1C        H  803   3.398   4.453   5.018
    1C        H  804   3.155   4.478   5.052
    1C        H  805   3.872   2.522   5.070
    1C        H  806   3.672   2.475   5.072
    1C        H  807   2.988   2.531   5.056
    1C        H  808   3.437   2.512   5.073
    1C        H  809   2.841   2.714   5.075
    1C        H  810   2.664   2.852   5.049
    1C        H  811   2.483   3.291   5.058
    1C        H  812   2.535   3.498   5.072
    1C        H  813   2.560   3.726   5.064
    1C        H  814   2.567   4.185   5.033
    1C        H  815   2.735   4.336   5.042
    1C        H  816   2.721   2.889   1.974
    1C        H  817   2.810   2.665   1.985
    1C        H  818   3.198   2.406   1.993
    1C        H  819   3.418   2.416   1.979
    1C        H  820   3.848   2.513   1.967
    1C        H  821   4.039   2.654   1.966
    1C        H  822   4.268   2.702   1.976
    1C        H  823   4.376   2.917   1.967
    1C        H  824   4.545   3.307   1.964
    1C        H  825   4.440   3.512   1.981
    1C        H  826   4.517   3.745   1.955
    1C        H  827   3.776   4.467   1.948
    1C        H  828   3.988   4.420   1.948
    1C        H  829   4.164   4.252   1.946
    1C        H  830   4.495   3.966   1.966
    1C        H  831   2.617   3.840   1.958
    1C        H  832   2.761   4.033   1.981
    1C        H  833   2.761   4.255   1.954
    1C        H  834   3.366   4.504   1.946
    1C        H  835   3.159   4.381   1.955
    1C        H  836   2.514   3.009   1.983
    1C        H  837   2.409   3.216   2.001
    1C        H  838   2.509   3.662   1.961
    2V3OU   H29  839   2.798   3.551   5.176
    2V3OU   C27  840   2.778   3.506   5.276
    2V3OU   H27  841   2.717   3.564   5.350
    2V3OU   H28  842   2.730   3.406   5.265
    2V3OU   O11  843   2.904   3.477   5.337
    2V3OU   C15  844   2.918   3.401   5.452
    2V3OU   C13  845   3.047   3.375   5.503
    2V3OU   C14  846   3.073   3.265   5.584
    2V3OU   C16  847   2.968   3.183   5.624
    2V3OU    H6  848   2.991   3.094   5.684
    2V3OU   C12  849   3.210   3.228   5.629
    2V3OU    O2  850   3.233   3.122   5.691
    2V3OU   C10  851   3.321   3.304   5.572
    2V3OU    C8  852   3.454   3.270   5.596
    2V3OU   O10  853   3.484   3.153   5.659
    2V3OU   H26  854   3.400   3.117   5.691
    2V3OU    C6  855   3.563   3.352   5.553
    2V3OU    C5  856   3.534   3.464   5.475
    2V3OU    C4  857   3.700   3.293   5.551
    2V3OU    H4  858   3.722   3.222   5.636
    2V3OU    H5  859   3.707   3.234   5.455
    2V3OU    C2  860   3.811   3.398   5.548
    2V3OU    O6  861   3.803   3.471   5.671
    2V3OU   H21  862   3.767   3.557   5.643
    2V3OU    C3  863   3.777   3.492   5.433
    2V3OU    H2  864   3.856   3.571   5.424
    2V3OU    H3  865   3.777   3.436   5.336
    2V3OU   C25  866   3.947   3.328   5.541
    2V3OU    O7  867   3.987   3.288   5.431
    2V3OU   C26  868   4.031   3.285   5.660
    2V3OU   H22  869   4.070   3.376   5.711
    2V3OU   H23  870   4.117   3.221   5.628
    2V3OU    O8  871   3.964   3.209   5.757
    2V3OU   H24  872   3.919   3.265   5.823
    2V3OU    C1  873   3.643   3.562   5.444
    2V3OU    H1  874   3.623   3.614   5.346
    2V3OU    O3  875   3.659   3.658   5.549
    2V3OU   C19  876   3.613   3.793   5.531
    2V3OU    H9  877   3.520   3.793   5.467
    2V3OU    O4  878   3.712   3.847   5.447
    2V3OU   C20  879   3.842   3.868   5.504
    2V3OU   H10  880   3.892   3.767   5.513
    2V3OU   C24  881   3.607   3.854   5.671
    2V3OU   H16  882   3.541   3.788   5.733
    2V3OU   H17  883   3.557   3.953   5.653
    2V3OU   C23  884   3.746   3.873   5.731
    2V3OU   H15  885   3.787   3.768   5.750
    2V3OU    N1  886   3.736   3.952   5.852
    2V3OU   H19  887   3.802   3.919   5.919
    2V3OU   H20  888   3.649   3.928   5.896
    2V3OU   C21  889   3.846   3.946   5.635
    2V3OU   H11  890   3.944   3.927   5.689
    2V3OU    O5  891   3.831   4.086   5.621
    2V3OU   H18  892   3.784   4.109   5.703
    2V3OU   C22  893   3.910   3.950   5.396
    2V3OU   H12  894   3.859   4.049   5.385
    2V3OU   H13  895   3.906   3.894   5.299
    2V3OU   H14  896   4.019   3.963   5.421
    2V3OU   C11  897   3.157   3.472   5.488
    2V3OU    O1  898   3.132   3.586   5.443
    2V3OU    C9  899   3.296   3.423   5.499
    2V3OU    C7  900   3.399   3.501   5.448
    2V3OU    O9  901   3.382   3.610   5.364
    2V3OU   H25  902   3.287   3.630   5.358
    2V3OU   C17  903   2.816   3.311   5.491
    2V3OU    H7  904   2.715   3.332   5.456
    2V3OU   C18  905   2.839   3.204   5.576
    2V3OU    H8  906   2.750   3.146   5.604
    3SOL     OW  907   3.942   3.077   4.056
    3SOL    HW1  908   3.887   3.014   4.111
    3SOL    HW2  909   3.979   3.149   4.116
    4SOL     OW  910   6.767   6.444   0.798
    4SOL    HW1  911   6.727   6.533   0.819
    4SOL    HW2  912   6.867   6.451   0.800
    5SOL     OW  913   4.706   2.310   6.946
    5SOL    HW1  914   4.656   2.231   6.981
    5SOL    HW2  915   4.765   2.347   7.018
    6SOL     OW  916   5.312   0.884   3.019
    6SOL    HW1  917   5.333   0.974   3.056
    6SOL    HW2  918   5.224   0.886   2.972
    7SOL     OW  919   1.295   4.035   4.292
    7SOL    HW1  920   1.288   4.006   4.196
    7SOL    HW2  921   1.248   3.968   4.350
    8SOL     OW  922   1.283   3.373   4.894
    8SOL    HW1  923   1.257   3.403   4.986
    8SOL    HW2  924   1.284   3.273   4.891
    9SOL     OW  925   6.817   0.765   6.254
    9SOL    HW1  926   6.862   0.716   6.329
    9SOL    HW2  927   6.884   0.822   6.206
   10SOL     OW  928   5.115   4.756   1.912
   10SOL    HW1  929   5.101   4.782   2.008
   10SOL    HW2  930   5.212   4.763   1.890
   11SOL     OW  931   2.187   2.264   0.338
   11SOL    HW1  932   2.234   2.346   0.305
   11SOL    HW2  933   2.113   2.292   0.400
   12SOL     OW  934   3.350   4.919   2.956
   12SOL    HW1  935   3.251   4.936   2.961
   12SOL    HW2  936   3.376   4.903   2.860
   13SOL     OW  937   5.731   5.706   1.019
   13SOL    HW1  938   5.813   5.718   0.963
   13SOL    HW2  939   5.751   5.642   1.093
   14SOL     OW  940   4.506   5.889   5.484
   14SOL    HW1  941   4.429   5.863   5.542
   14SOL    HW2  942   4.573   5.941   5.538
   15SOL     OW  943   0.406   6.666   5.925
   15SOL    HW1  944   0.492   6.695   5.883
   15SOL    HW2  945   0.388   6.722   6.005
   16SOL     OW  946   1.741   4.252   4.873
   16SOL    HW1  947   1.757   4.340   4.828
   16SOL    HW2  948   1.828   4.218   4.910
   17SOL     OW  949   6.487   1.622   5.428
   17SOL    HW1  950   6.498   1.557   5.352
   17SOL    HW2  951   6.485   1.715   5.393
   18SOL     OW  952   2.240   0.816   6.207
   18SOL    HW1  953   2.154   0.840   6.252
   18SOL    HW2  954   2.248   0.865   6.121
   19SOL     OW  955   2.823   7.007   3.529
   19SOL    HW1  956   2.733   6.974   3.556
   19SOL    HW2  957   2.816   0.084   3.498
   20SOL     OW  958   6.642   1.685   5.656
   20SOL    HW1  959   6.610   1.644   5.570
   20SOL    HW2  960   6.687   1.616   5.712
   21SOL     OW  961   2.666   4.674   3.084
   21SOL    HW1  962   2.695   4.664   2.989
   21SOL    HW2  963   2.727   4.737   3.131
   22SOL     OW  964   1.364   0.502   6.986
   22SOL    HW1  965   1.340   0.585   6.935
   22SOL    HW2  966   1.294   0.432   6.970
   23SOL     OW  967   5.899   4.770   1.356
   23SOL    HW1  968   5.801   4.784   1.370
   23SOL    HW2  969   5.943   4.751   1.444
   24SOL     OW  970   4.482   0.922   0.737
   24SOL    HW1  971   4.545   0.870   0.678
   24SOL    HW2  972   4.435   0.991   0.682
   25SOL     OW  973   1.456   1.361   4.591
   25SOL    HW1  974   1.367   1.315   4.594
   25SOL    HW2  975   1.474   1.393   4.498
   26SOL     OW  976   0.561   2.950   6.785
   26SOL    HW1  977   0.553   3.048   6.763
   26SOL    HW2  978   0.586   2.900   6.702
   27SOL     OW  979   5.966   0.690   1.482
   27SOL    HW1  980   5.882   0.636   1.494
   27SOL    HW2  981   5.972   0.759   1.554
   28SOL     OW  982   2.222   1.141   5.417
   28SOL    HW1  983   2.298   1.140   5.481
   28SOL    HW2  984   2.242   1.205   5.343
   29SOL     OW  985   0.579   6.894   1.158
   29SOL    HW1  986   0.571   6.794   1.160
   29SOL    HW2  987   0.489   6.935   1.173
   30SOL     OW  988   4.791   0.189   5.049
   30SOL    HW1  989   4.780   0.090   5.044
   30SOL    HW2  990   4.857   0.212   5.120
   31SOL     OW  991   1.104   2.883   5.018
   31SOL    HW1  992   1.068   2.812   5.079
   31SOL    HW2  993   1.175   2.843   4.960
   32SOL     OW  994   3.223   0.356   1.786
   32SOL    HW1  995   3.236   0.260   1.811
   32SOL    HW2  996   3.181   0.361   1.696
   33SOL     OW  997   1.509   5.654   6.004
   33SOL    HW1  998   1.487   5.717   6.078
   33SOL    HW2  999   1.515   5.561   6.040
   34SOL     OW 1000   2.246   5.055   5.469
   34SOL    HW1 1001   2.241   5.109   5.385
   34SOL    HW2 1002   2.299   5.104   5.537
   35SOL     OW 1003   2.574   3.187   7.013
   35SOL    HW1 1004   2.524   3.119   6.961
   35SOL    HW2 1005   2.603   3.261   6.953
   36SOL     OW 1006   3.815   1.215   4.281
   36SOL    HW1 1007   3.793   1.138   4.222
   36SOL    HW2 1008   3.765   1.296   4.252
   37SOL     OW 1009   2.729   0.603   4.086
   37SOL    HW1 1010   2.713   0.679   4.149
   37SOL    HW2 1011   2.804   0.546   4.120
   38SOL     OW 1012   1.019   3.913   2.688
   38SOL    HW1 1013   0.995   3.832   2.634
   38SOL    HW2 1014   0.941   3.940   2.744
   39SOL     OW 1015   6.829   5.125   0.325
   39SOL    HW1 1016   6.874   5.042   0.358
   39SOL    HW2 1017   6.861   5.204   0.377
   40SOL     OW 1018   4.500   1.850   0.639
   40SOL    HW1 1019   4.509   1.878   0.543
   40SOL    HW2 1020   4.533   1.757   0.649
   41SOL     OW 1021   5.076   4.250   1.164
   41SOL    HW1 1022   4.982   4.256   1.130
   41SOL    HW2 1023   5.098   4.334   1.215
   42SOL     OW 1024   2.905   5.019   6.553
   42SOL    HW1 1025   2.880   5.015   6.649
   42SOL    HW2 1026   2.859   4.946   6.503
   43SOL     OW 1027   3.867   6.756   5.203
   43SOL    HW1 1028   3.804   6.799   5.268
   43SOL    HW2 1029   3.910   6.827   5.147
   44SOL     OW 1030   6.905   1.254   5.681
   44SOL    HW1 1031   6.899   1.172   5.737
   44SOL    HW2 1032   6.851   1.327   5.723
   45SOL     OW 1033   2.262   4.867   6.190
   45SOL    HW1 1034   2.226   4.936   6.128
   45SOL    HW2 1035   2.333   4.814   6.144
   46SOL     OW 1036   0.577   3.309   4.227
   46SOL    HW1 1037   0.554   3.322   4.131
   46SOL    HW2 1038   0.667   3.266   4.234
   47SOL     OW 1039   6.398   3.396   0.869
   47SOL    HW1 1040   6.427   3.417   0.776
   47SOL    HW2 1041   6.449   3.318   0.904
   48SOL     OW 1042   6.067   3.906   1.235
   48SOL    HW1 1043   5.993   3.921   1.169
   48SOL    HW2 1044   6.142   3.857   1.191
   49SOL     OW 1045   3.365   3.851   6.828
   49SOL    HW1 1046   3.350   3.762   6.872
   49SOL    HW2 1047   3.450   3.891   6.862
   50SOL     OW 1048   6.395   2.507   0.315
   50SOL    HW1 1049   6.397   2.411   0.287
   50SOL    HW2 1050   6.365   2.514   0.410
   51SOL     OW 1051   2.028   5.682   2.872
   51SOL    HW1 1052   2.112   5.630   2.888
   51SOL    HW2 1053   1.950   5.632   2.909
   52SOL     OW 1054   6.356   3.299   2.145
   52SOL    HW1 1055   6.357   3.316   2.244
   52SOL    HW2 1056   6.303   3.217   2.126
   53SOL     OW 1057   4.028   0.753   1.943
   53SOL    HW1 1058   4.055   0.728   1.850
   53SOL    HW2 1059   3.939   0.798   1.942
   54SOL     OW 1060   5.397   0.035   6.517
   54SOL    HW1 1061   5.392   6.954   6.502
   54SOL    HW2 1062   5.489   0.067   6.494
   55SOL     OW 1063   1.004   3.408   6.259
   55SOL    HW1 1064   1.087   3.446   6.301
   55SOL    HW2 1065   1.014   3.410   6.160
   56SOL     OW 1066   0.712   2.594   6.696
   56SOL    HW1 1067   0.764   2.543   6.765
   56SOL    HW2 1068   0.615   2.576   6.708
   57SOL     OW 1069   4.213   6.269   0.084
   57SOL    HW1 1070   4.245   6.336   0.016
   57SOL    HW2 1071   4.187   6.185   0.037
   58SOL     OW 1072   0.585   0.186   0.410
   58SOL    HW1 1073   0.590   0.259   0.342
   58SOL    HW2 1074   0.606   0.098   0.367
   59SOL     OW 1075   5.413   3.422   5.649
   59SOL    HW1 1076   5.444   3.394   5.558
   59SOL    HW2 1077   5.488   3.466   5.697
   60SOL     OW 1078   5.185   1.891   2.268
   60SOL    HW1 1079   5.248   1.892   2.190
   60SOL    HW2 1080   5.136   1.977   2.274
   61SOL     OW 1081   0.596   5.917   4.477
   61SOL    HW1 1082   0.678   5.871   4.444
   61SOL    HW2 1083   0.523   5.908   4.409
   62SOL     OW 1084   5.877   2.861   2.470
   62SOL    HW1 1085   5.841   2.768   2.460
   62SOL    HW2 1086   5.926   2.869   2.557
   63SOL     OW 1087   4.185   6.666   5.676
   63SOL    HW1 1088   4.217   6.723   5.752
   63SOL    HW2 1089   4.099   6.703   5.641
   64SOL     OW 1090   0.936   3.998   5.140
   64SOL    HW1 1091   0.961   4.045   5.056
   64SOL    HW2 1092   0.861   3.934   5.123
   65SOL     OW 1093   0.735   6.218   4.822
   65SOL    HW1 1094   0.684   6.132   4.827
   65SOL    HW2 1095   0.673   6.292   4.794
   66SOL     OW 1096   3.766   1.079   2.243
   66SOL    HW1 1097   3.672   1.111   2.252
   66SOL    HW2 1098   3.798   1.095   2.149
   67SOL     OW 1099   0.164   3.088   1.836
   67SOL    HW1 1100   0.221   3.081   1.918
   67SOL    HW2 1101   0.203   3.154   1.773
   68SOL     OW 1102   6.964   1.941   5.957
   68SOL    HW1 1103   6.866   1.944   5.976
   68SOL    HW2 1104   6.991   1.848   5.934
   69SOL     OW 1105   1.068   6.047   6.481
   69SOL    HW1 1106   0.994   6.026   6.545
   69SOL    HW2 1107   1.131   5.970   6.477
   70SOL     OW 1108   5.200   3.677   4.062
   70SOL    HW1 1109   5.184   3.758   4.119
   70SOL    HW2 1110   5.134   3.676   3.987
   71SOL     OW 1111   5.296   1.962   4.575
   71SOL    HW1 1112   5.374   1.986   4.518
   71SOL    HW2 1113   5.223   1.925   4.517
   72SOL     OW 1114   0.553   0.486   2.821
   72SOL    HW1 1115   0.576   0.504   2.916
   72SOL    HW2 1116   0.468   0.434   2.816
   73SOL     OW 1117   3.370   0.925   0.755
   73SOL    HW1 1118   3.360   0.953   0.850
   73SOL    HW2 1119   3.464   0.892   0.739
   74SOL     OW 1120   2.388   2.627   1.231
   74SOL    HW1 1121   2.337   2.641   1.146
   74SOL    HW2 1122   2.396   2.714   1.280
   75SOL     OW 1123   3.096   3.216   0.866
   75SOL    HW1 1124   3.059   3.133   0.825
   75SOL    HW2 1125   3.149   3.193   0.947
   76SOL     OW 1126   3.657   4.760   5.404
   76SOL    HW1 1127   3.725   4.692   5.428
   76SOL    HW2 1128   3.610   4.791   5.487
   77SOL     OW 1129   0.385   5.536   4.262
   77SOL    HW1 1130   0.304   5.590   4.284
   77SOL    HW2 1131   0.416   5.488   4.344
   78SOL     OW 1132   4.908   1.904   1.271
   78SOL    HW1 1133   4.866   1.995   1.277
   78SOL    HW2 1134   4.837   1.835   1.258
   79SOL     OW 1135   0.930   4.517   3.171
   79SOL    HW1 1136   0.943   4.609   3.135
   79SOL    HW2 1137   0.867   4.521   3.248
   80SOL     OW 1138   3.644   0.984   5.220
   80SOL    HW1 1139   3.669   1.074   5.256
   80SOL    HW2 1140   3.581   0.996   5.142
   81SOL     OW 1141   4.780   5.363   1.838
   81SOL    HW1 1142   4.774   5.271   1.797
   81SOL    HW2 1143   4.769   5.355   1.937
   82SOL     OW 1144   2.904   6.157   2.136
   82SOL    HW1 1145   2.882   6.060   2.144
   82SOL    HW2 1146   2.920   6.195   2.228
   83SOL     OW 1147   5.462   1.281   4.713
   83SOL    HW1 1148   5.423   1.364   4.754
   83SOL    HW2 1149   5.405   1.202   4.734
   84SOL     OW 1150   5.259   2.412   2.323
   84SOL    HW1 1151   5.218   2.335   2.372
   84SOL    HW2 1152   5.226   2.412   2.228
   85SOL     OW 1153   2.619   6.607   4.150
   85SOL    HW1 1154   2.642   6.669   4.075
   85SOL    HW2 1155   2.689   6.536   4.158
   86SOL     OW 1156   5.927   0.050   0.221
   86SOL    HW1 1157   5.922   0.006   0.132
   86SOL    HW2 1158   5.912   0.148   0.211
   87SOL     OW 1159   2.432   4.450   6.145
   87SOL    HW1 1160   2.521   4.404   6.146
   87SOL    HW2 1161   2.397   4.453   6.051
   88SOL     OW 1162   3.100   3.399   1.138
   88SOL    HW1 1163   3.073   3.305   1.161
   88SOL    HW2 1164   3.021   3.446   1.099
   89SOL     OW 1165   3.440   3.909   4.112
   89SOL    HW1 1166   3.436   4.009   4.100
   89SOL    HW2 1167   3.523   3.874   4.067
   90SOL     OW 1168   4.822   3.570   1.832
   90SOL    HW1 1169   4.830   3.476   1.797
   90SOL    HW2 1170   4.843   3.634   1.758
   91SOL     OW 1171   4.070   5.236   5.592
   91SOL    HW1 1172   3.991   5.233   5.654
   91SOL    HW2 1173   4.057   5.308   5.524
   92SOL     OW 1174   4.960   3.389   6.632
   92SOL    HW1 1175   5.030   3.378   6.702
   92SOL    HW2 1176   4.997   3.362   6.543
   93SOL     OW 1177   3.087   3.630   2.260
   93SOL    HW1 1178   3.146   3.579   2.197
   93SOL    HW2 1179   3.125   3.625   2.353
   94SOL     OW 1180   3.307   2.148   4.685
   94SOL    HW1 1181   3.379   2.127   4.751
   94SOL    HW2 1182   3.221   2.107   4.715
   95SOL     OW 1183   0.521   0.339   3.739
   95SOL    HW1 1184   0.541   0.414   3.803
   95SOL    HW2 1185   0.536   0.252   3.786
   96SOL     OW 1186   6.331   4.865   6.768
   96SOL    HW1 1187   6.430   4.858   6.777
   96SOL    HW2 1188   6.306   4.864   6.671
   97SOL     OW 1189   2.103   4.532   5.315
   97SOL    HW1 1190   2.127   4.473   5.393
   97SOL    HW2 1191   2.184   4.582   5.286
   98SOL     OW 1192   1.871   2.176   3.240
   98SOL    HW1 1193   1.821   2.145   3.320
   98SOL    HW2 1194   1.864   2.107   3.167
   99SOL     OW 1195   3.672   3.936   5.170
   99SOL    HW1 1196   3.577   3.953   5.197
   99SOL    HW2 1197   3.722   3.899   5.248
  100SOL     OW 1198   6.891   0.845   5.076
  100SOL    HW1 1199   6.955   0.854   5.152
  100SOL    HW2 1200   6.908   0.917   5.009
  101SOL     OW 1201   6.194   3.774   2.271
  101SOL    HW1 1202   6.191   3.753   2.369
  101SOL    HW2 1203   6.101   3.778   2.235
  102SOL     OW 1204   4.897   7.000   0.339
  102SOL    HW1 1205   4.954   0.022   0.412
  102SOL    HW2 1206   4.842   6.926   0.377
  103SOL     OW 1207   2.933   1.038   2.078
  103SOL    HW1 1208   2.925   0.986   1.994
  103SOL    HW2 1209   2.965   1.130   2.058
  104SOL     OW 1210   6.666   4.949   1.944
  104SOL    HW1 1211   6.589   4.901   1.986
  104SOL    HW2 1212   6.725   4.884   1.896
  105SOL     OW 1213   6.356   0.860   5.619
  105SOL    HW1 1214   6.427   0.826   5.680
  105SOL    HW2 1215   6.329   0.952   5.647
  106SOL     OW 1216   4.883   4.501   1.498
  106SOL    HW1 1217   4.841   4.414   1.474
  106SOL    HW2 1218   4.963   4.517   1.439
  107SOL     OW 1219   5.620   0.206   1.354
  107SOL    HW1 1220   5.588   0.151   1.277
  107SOL    HW2 1221   5.685   0.153   1.408
  108SOL     OW 1222   2.694   0.836   4.260
  108SOL    HW1 1223   2.772   0.818   4.319
  108SOL    HW2 1224   2.614   0.859   4.316
  109SOL     OW 1225   1.568   1.180   4.055
  109SOL    HW1 1226   1.536   1.129   3.975
  109SOL    HW2 1227   1.571   1.277   4.033
  110SOL     OW 1228   3.460   4.124   5.881
  110SOL    HW1 1229   3.389   4.152   5.816
  110SOL    HW2 1230   3.435   4.036   5.921
  111SOL     OW 1231   6.154   3.244   1.231
  111SOL    HW1 1232   6.223   3.204   1.171
  111SOL    HW2 1233   6.187   3.241   1.326
  112SOL     OW 1234   4.942   6.173   6.305
  112SOL    HW1 1235   4.979   6.152   6.215
  112SOL    HW2 1236   4.842   6.175   6.301
  113SOL     OW 1237   0.393   5.317   2.754
  113SOL    HW1 1238   0.490   5.321   2.730
  113SOL    HW2 1239   0.340   5.293   2.673
  114SOL     OW 1240   6.866   2.699   2.409
  114SOL    HW1 1241   6.855   2.668   2.315
  114SOL    HW2 1242   6.944   2.761   2.415
  115SOL     OW 1243   5.219   0.431   3.130
  115SOL    HW1 1244   5.247   0.352   3.185
  115SOL    HW2 1245   5.267   0.513   3.162
  116SOL     OW 1246   0.304   4.974   0.480
  116SOL    HW1 1247   0.309   4.931   0.570
  116SOL    HW2 1248   0.348   4.916   0.412
  117SOL     OW 1249   1.915   2.587   0.111
  117SOL    HW1 1250   1.956   2.498   0.094
  117SOL    HW2 1251   1.857   2.582   0.193
  118SOL     OW 1252   6.952   2.046   2.981
  118SOL    HW1 1253   6.863   2.008   3.007
  118SOL    HW2 1254   6.939   2.123   2.918
  119SOL     OW 1255   6.174   7.010   5.919
  119SOL    HW1 1256   6.151   0.083   5.954
  119SOL    HW2 1257   6.147   7.003   5.824
  120SOL     OW 1258   5.614   2.645   4.923
  120SOL    HW1 1259   5.632   2.589   5.004
  120SOL    HW2 1260   5.556   2.594   4.860
  121SOL     OW 1261   0.957   4.869   6.773
  121SOL    HW1 1262   0.978   4.886   6.869
  121SOL    HW2 1263   1.026   4.808   6.733
  122SOL     OW 1264   6.678   4.663   6.414
  122SOL    HW1 1265   6.707   4.756   6.389
  122SOL    HW2 1266   6.607   4.669   6.484
  123SOL     OW 1267   0.948   2.274   1.896
  123SOL    HW1 1268   0.972   2.370   1.909
  123SOL    HW2 1269   0.848   2.265   1.894
  124SOL     OW 1270   1.727   3.247   6.961
  124SOL    HW1 1271   1.766   3.339   6.955
  124SOL    HW2 1272   1.688   3.222   6.872
  125SOL     OW 1273   4.450   3.102   0.446
  125SOL    HW1 1274   4.403   3.128   0.362
  125SOL    HW2 1275   4.501   3.180   0.482
  126SOL     OW 1276   4.069   3.576   4.449
  126SOL    HW1 1277   4.062   3.477   4.461
  126SOL    HW2 1278   4.097   3.597   4.355
  127SOL     OW 1279   0.092   5.631   5.847
  127SOL    HW1 1280   0.123   5.628   5.752
  127SOL    HW2 1281   0.169   5.609   5.907
  128SOL     OW 1282   4.474   3.414   6.817
  128SOL    HW1 1283   4.507   3.322   6.793
  128SOL    HW2 1284   4.434   3.457   6.736
  129SOL     OW 1285   1.404   5.436   2.170
  129SOL    HW1 1286   1.329   5.447   2.106
  129SOL    HW2 1287   1.426   5.524   2.212
  130SOL     OW 1288   6.630   2.985   3.554
  130SOL    HW1 1289   6.602   2.898   3.513
  130SOL    HW2 1290   6.549   3.033   3.589
  131SOL     OW 1291   0.229   2.468   3.426
  131SOL    HW1 1292   0.218   2.518   3.340
  131SOL    HW2 1293   0.323   2.435   3.433
  132SOL     OW 1294   3.562   3.025   2.089
  132SOL    HW1 1295   3.514   3.111   2.106
  132SOL    HW2 1296   3.511   2.971   2.022
  133SOL     OW 1297   5.708   6.495   6.279
  133SOL    HW1 1298   5.739   6.433   6.351
  133SOL    HW2 1299   5.767   6.575   6.275
  134SOL     OW 1300   5.705   1.446   1.465
  134SOL    HW1 1301   5.759   1.363   1.450
  134SOL    HW2 1302   5.612   1.420   1.493
  135SOL     OW 1303   4.822   2.981   3.806
  135SOL    HW1 1304   4.796   2.903   3.750
  135SOL    HW2 1305   4.830   3.063   3.748
  136SOL     OW 1306   3.327   0.546   6.375
  136SOL    HW1 1307   3.359   0.528   6.282
  136SOL    HW2 1308   3.318   0.645   6.389
  137SOL     OW 1309   3.260   3.434   6.207
  137SOL    HW1 1310   3.212   3.371   6.146
  137SOL    HW2 1311   3.359   3.426   6.193
  138SOL     OW 1312   0.917   4.870   5.811
  138SOL    HW1 1313   1.000   4.861   5.867
  138SOL    HW2 1314   0.912   4.795   5.746
  139SOL     OW 1315   2.248   6.375   1.052
  139SOL    HW1 1316   2.175   6.376   0.984
  139SOL    HW2 1317   2.212   6.346   1.140
  140SOL     OW 1318   3.233   0.578   1.300
  140SOL    HW1 1319   3.287   0.499   1.329
  140SOL    HW2 1320   3.294   0.656   1.286
  141SOL     OW 1321   6.947   3.008   0.624
  141SOL    HW1 1322   7.009   3.087   0.628
  141SOL    HW2 1323   6.860   3.036   0.584
  142SOL     OW 1324   1.634   4.229   1.409
  142SOL    HW1 1325   1.594   4.210   1.319
  142SOL    HW2 1326   1.570   4.282   1.464
  143SOL     OW 1327   4.851   6.286   2.244
  143SOL    HW1 1328   4.765   6.316   2.284
  143SOL    HW2 1329   4.846   6.189   2.221
  144SOL     OW 1330   3.129   5.146   3.900
  144SOL    HW1 1331   3.105   5.212   3.829
  144SOL    HW2 1332   3.085   5.058   3.880
  145SOL     OW 1333   6.739   4.521   3.010
  145SOL    HW1 1334   6.793   4.605   3.020
  145SOL    HW2 1335   6.643   4.540   3.030
  146SOL     OW 1336   5.045   0.544   6.007
  146SOL    HW1 1337   5.008   0.522   6.098
  146SOL    HW2 1338   5.143   0.524   6.006
  147SOL     OW 1339   4.866   1.182   4.824
  147SOL    HW1 1340   4.953   1.212   4.862
  147SOL    HW2 1341   4.865   1.083   4.815
  148SOL     OW 1342   1.574   5.886   1.485
  148SOL    HW1 1343   1.665   5.860   1.520
  148SOL    HW2 1344   1.584   5.940   1.402
  149SOL     OW 1345   2.205   2.275   5.013
  149SOL    HW1 1346   2.179   2.372   5.011
  149SOL    HW2 1347   2.274   2.258   4.943
  150SOL     OW 1348   4.335   1.579   5.195
  150SOL    HW1 1349   4.260   1.527   5.153
  150SOL    HW2 1350   4.422   1.550   5.155
  151SOL     OW 1351   4.240   2.847   1.291
  151SOL    HW1 1352   4.153   2.853   1.339
  151SOL    HW2 1353   4.290   2.933   1.302
  152SOL     OW 1354   0.379   2.402   0.540
  152SOL    HW1 1355   0.387   2.303   0.534
  152SOL    HW2 1356   0.403   2.442   0.451
  153SOL     OW 1357   2.614   1.502   3.563
  153SOL    HW1 1358   2.616   1.421   3.504
  153SOL    HW2 1359   2.563   1.575   3.518
  154SOL     OW 1360   6.418   1.713   2.768
  154SOL    HW1 1361   6.506   1.741   2.804
  154SOL    HW2 1362   6.368   1.793   2.734
  155SOL     OW 1363   0.889   6.461   2.490
  155SOL    HW1 1364   0.899   6.435   2.585
  155SOL    HW2 1365   0.955   6.533   2.467
  156SOL     OW 1366   5.654   2.750   0.561
  156SOL    HW1 1367   5.746   2.789   0.550
  156SOL    HW2 1368   5.652   2.692   0.642
  157SOL     OW 1369   4.366   5.714   0.527
  157SOL    HW1 1370   4.444   5.653   0.513
  157SOL    HW2 1371   4.390   5.807   0.497
  158SOL     OW 1372   6.978   2.938   3.925
  158SOL    HW1 1373   6.969   3.024   3.975
  158SOL    HW2 1374   6.944   2.863   3.981
  159SOL     OW 1375   6.355   5.174   0.514
  159SOL    HW1 1376   6.303   5.217   0.588
  159SOL    HW2 1377   6.293   5.142   0.443
  160SOL     OW 1378   6.457   6.984   1.785
  160SOL    HW1 1379   6.429   6.956   1.877
  160SOL    HW2 1380   6.557   6.997   1.784
  161SOL     OW 1381   0.649   6.040   0.990
  161SOL    HW1 1382   0.693   5.953   0.964
  161SOL    HW2 1383   0.636   6.042   1.089
  162SOL     OW 1384   4.785   6.762   6.920
  162SOL    HW1 1385   4.837   6.772   7.004
  162SOL    HW2 1386   4.829   6.813   6.846
  163SOL     OW 1387   0.523   3.976   2.464
  163SOL    HW1 1388   0.593   4.032   2.419
  163SOL    HW2 1389   0.440   4.030   2.477
  164SOL     OW 1390   2.911   2.093   4.153
  164SOL    HW1 1391   2.924   2.041   4.068
  164SOL    HW2 1392   2.959   2.047   4.228
  165SOL     OW 1393   0.376   5.964   3.603
  165SOL    HW1 1394   0.398   5.868   3.583
  165SOL    HW2 1395   0.293   5.968   3.659
  166SOL     OW 1396   6.714   4.103   2.883
  166SOL    HW1 1397   6.626   4.081   2.842
  166SOL    HW2 1398   6.748   4.024   2.935
  167SOL     OW 1399   2.578   1.788   0.116
  167SOL    HW1 1400   2.575   1.694   0.082
  167SOL    HW2 1401   2.659   1.835   0.080
  168SOL     OW 1402   4.144   4.152   1.483
  168SOL    HW1 1403   4.154   4.251   1.491
  168SOL    HW2 1404   4.195   4.120   1.403
  169SOL     OW 1405   4.626   2.387   0.891
  169SOL    HW1 1406   4.662   2.342   0.810
  169SOL    HW2 1407   4.606   2.483   0.870
  170SOL     OW 1408   6.975   6.052   2.307
  170SOL    HW1 1409   6.876   6.044   2.294
  170SOL    HW2 1410   6.996   6.139   2.350
  171SOL     OW 1411   3.255   3.685   0.828
  171SOL    HW1 1412   3.258   3.586   0.841
  171SOL    HW2 1413   3.265   3.706   0.730
  172SOL     OW 1414   0.295   2.470   6.633
  172SOL    HW1 1415   0.220   2.436   6.577
  172SOL    HW2 1416   0.382   2.442   6.593
  173SOL     OW 1417   6.548   1.550   4.339
  173SOL    HW1 1418   6.627   1.600   4.302
  173SOL    HW2 1419   6.474   1.551   4.272
  174SOL     OW 1420   5.388   5.217   4.984
  174SOL    HW1 1421   5.442   5.295   5.015
  174SOL    HW2 1422   5.297   5.248   4.956
  175SOL     OW 1423   0.682   6.718   1.710
  175SOL    HW1 1424   0.645   6.709   1.618
  175SOL    HW2 1425   0.623   6.776   1.765
  176SOL     OW 1426   6.044   4.167   1.133
  176SOL    HW1 1427   5.991   4.160   1.217
  176SOL    HW2 1428   6.139   4.144   1.150
  177SOL     OW 1429   5.788   2.572   4.393
  177SOL    HW1 1430   5.847   2.497   4.423
  177SOL    HW2 1431   5.777   2.567   4.294
  178SOL     OW 1432   2.315   6.400   5.333
  178SOL    HW1 1433   2.409   6.432   5.320
  178SOL    HW2 1434   2.308   6.305   5.302
  179SOL     OW 1435   3.531   4.615   0.897
  179SOL    HW1 1436   3.463   4.542   0.901
  179SOL    HW2 1437   3.622   4.575   0.894
  180SOL     OW 1438   3.845   1.051   0.626
  180SOL    HW1 1439   3.932   1.082   0.588
  180SOL    HW2 1440   3.843   0.951   0.626
  181SOL     OW 1441   3.361   2.058   5.502
  181SOL    HW1 1442   3.326   2.024   5.415
  181SOL    HW2 1443   3.314   2.011   5.578
  182SOL     OW 1444   3.742   2.875   6.096
  182SOL    HW1 1445   3.677   2.926   6.041
  182SOL    HW2 1446   3.731   2.777   6.079
  183SOL     OW 1447   3.965   1.224   3.429
  183SOL    HW1 1448   3.876   1.195   3.395
  183SOL    HW2 1449   3.968   1.324   3.435
  184SOL     OW 1450   4.907   5.672   3.554
  184SOL    HW1 1451   4.863   5.657   3.643
  184SOL    HW2 1452   5.006   5.679   3.567
  185SOL     OW 1453   6.890   0.607   4.667
  185SOL    HW1 1454   6.811   0.616   4.728
  185SOL    HW2 1455   6.970   0.578   4.719
  186SOL     OW 1456   4.184   6.482   4.478
  186SOL    HW1 1457   4.136   6.549   4.422
  186SOL    HW2 1458   4.233   6.418   4.420
  187SOL     OW 1459   4.080   6.041   1.843
  187SOL    HW1 1460   4.178   6.062   1.839
  187SOL    HW2 1461   4.029   6.124   1.864
  188SOL     OW 1462   1.131   3.058   3.150
  188SOL    HW1 1463   1.063   3.101   3.210
  188SOL    HW2 1464   1.208   3.120   3.138
  189SOL     OW 1465   5.772   5.065   5.843
  189SOL    HW1 1466   5.696   5.121   5.877
  189SOL    HW2 1467   5.831   5.039   5.919
  190SOL     OW 1468   6.327   0.748   0.167
  190SOL    HW1 1469   6.331   0.687   0.246
  190SOL    HW2 1470   6.289   0.698   0.089
  191SOL     OW 1471   0.155   0.889   5.273
  191SOL    HW1 1472   0.125   0.846   5.359
  191SOL    HW2 1473   0.253   0.878   5.262
  192SOL     OW 1474   0.704   5.201   0.838
  192SOL    HW1 1475   0.786   5.244   0.801
  192SOL    HW2 1476   0.626   5.263   0.827
  193SOL     OW 1477   2.755   6.280   0.416
  193SOL    HW1 1478   2.714   6.339   0.485
  193SOL    HW2 1479   2.848   6.311   0.395
  194SOL     OW 1480   4.117   6.475   2.057
  194SOL    HW1 1481   4.164   6.557   2.025
  194SOL    HW2 1482   4.047   6.500   2.123
  195SOL     OW 1483   3.585   1.139   1.015
  195SOL    HW1 1484   3.589   1.176   0.922
  195SOL    HW2 1485   3.646   1.192   1.075
  196SOL     OW 1486   3.097   2.166   6.949
  196SOL    HW1 1487   3.073   2.252   6.994
  196SOL    HW2 1488   3.185   2.177   6.902
  197SOL     OW 1489   2.459   6.229   0.386
  197SOL    HW1 1490   2.549   6.198   0.353
  197SOL    HW2 1491   2.463   6.243   0.485
  198SOL     OW 1492   4.200   0.846   0.013
  198SOL    HW1 1493   4.203   0.766   0.074
  198SOL    HW2 1494   4.274   0.840   6.964
  199SOL     OW 1495   0.258   0.515   2.491
  199SOL    HW1 1496   0.213   0.462   2.420
  199SOL    HW2 1497   0.291   0.602   2.453
  200SOL     OW 1498   0.234   4.248   3.100
  200SOL    HW1 1499   0.199   4.167   3.052
  200SOL    HW2 1500   0.161   4.286   3.158
  201SOL     OW 1501   3.887   1.403   6.750
  201SOL    HW1 1502   3.981   1.369   6.744
  201SOL    HW2 1503   3.834   1.367   6.673
  202SOL     OW 1504   3.511   0.615   2.652
  202SOL    HW1 1505   3.485   0.522   2.626
  202SOL    HW2 1506   3.523   0.671   2.569
  203SOL     OW 1507   5.376   2.541   6.893
  203SOL    HW1 1508   5.279   2.522   6.911
  203SOL    HW2 1509   5.385   2.587   6.805
  204SOL     OW 1510   2.846   5.892   1.237
  204SOL    HW1 1511   2.776   5.823   1.217
  204SOL    HW2 1512   2.897   5.865   1.318
  205SOL     OW 1513   6.546   0.565   6.970
  205SOL    HW1 1514   6.490   0.487   6.998
  205SOL    HW2 1515   6.489   0.631   6.922
  206SOL     OW 1516   0.976   4.244   1.339
  206SOL    HW1 1517   0.906   4.312   1.315
  206SOL    HW2 1518   1.048   4.288   1.393
  207SOL     OW 1519   4.662   0.784   5.623
  207SOL    HW1 1520   4.732   0.847   5.657
  207SOL    HW2 1521   4.573   0.809   5.662
  208SOL     OW 1522   3.400   4.683   6.105
  208SOL    HW1 1523   3.314   4.723   6.136
  208SOL    HW2 1524   3.381   4.599   6.054
  209SOL     OW 1525   6.302   5.387   5.622
  209SOL    HW1 1526   6.216   5.349   5.658
  209SOL    HW2 1527   6.314   5.480   5.656
  210SOL     OW 1528   4.103   2.206   2.157
  210SOL    HW1 1529   4.064   2.287   2.113
  210SOL    HW2 1530   4.193   2.186   2.118
  211SOL     OW 1531   1.417   1.919   2.231
  211SOL    HW1 1532   1.364   1.984   2.285
  211SOL    HW2 1533   1.379   1.827   2.244
  212SOL     OW 1534   0.950   5.067   3.857
  212SOL    HW1 1535   0.912   5.018   3.778
  212SOL    HW2 1536   0.951   5.007   3.937
  213SOL     OW 1537   4.375   2.668   6.790
  213SOL    HW1 1538   4.416   2.607   6.858
  213SOL    HW2 1539   4.275   2.666   6.798
  214SOL     OW 1540   1.752   0.161   2.395
  214SOL    HW1 1541   1.776   0.065   2.381
  214SOL    HW2 1542   1.810   0.199   2.468
  215SOL     OW 1543   3.202   3.657   2.515
  215SOL    HW1 1544   3.235   3.571   2.554
  215SOL    HW2 1545   3.203   3.728   2.586
  216SOL     OW 1546   0.565   6.273   5.980
  216SOL    HW1 1547   0.488   6.335   5.999
  216SOL    HW2 1548   0.563   6.246   5.884
  217SOL     OW 1549   0.198   2.861   3.531
  217SOL    HW1 1550   0.135   2.808   3.589
  217SOL    HW2 1551   0.291   2.826   3.542
  218SOL     OW 1552   1.068   3.834   5.741
  218SOL    HW1 1553   1.088   3.758   5.678
  218SOL    HW2 1554   0.974   3.826   5.773
  219SOL     OW 1555   4.418   4.932   6.794
  219SOL    HW1 1556   4.384   5.026   6.788
  219SOL    HW2 1557   4.504   4.925   6.743
  220SOL     OW 1558   2.927   5.298   0.250
  220SOL    HW1 1559   2.902   5.351   0.169
  220SOL    HW2 1560   3.012   5.332   0.288
  221SOL     OW 1561   6.486   2.323   4.096
  221SOL    HW1 1562   6.392   2.306   4.066
  221SOL    HW2 1563   6.549   2.265   4.045
  222SOL     OW 1564   1.199   6.275   4.962
  222SOL    HW1 1565   1.099   6.283   4.968
  222SOL    HW2 1566   1.225   6.179   4.956
  223SOL     OW 1567   6.564   3.989   1.584
  223SOL    HW1 1568   6.663   3.975   1.577
  223SOL    HW2 1569   6.545   4.079   1.622
  224SOL     OW 1570   3.197   2.214   1.789
  224SOL    HW1 1571   3.142   2.179   1.713
  224SOL    HW2 1572   3.190   2.152   1.867
  225SOL     OW 1573   6.907   0.197   0.263
  225SOL    HW1 1574   6.929   0.209   0.167
  225SOL    HW2 1575   6.935   0.106   0.293
  226SOL     OW 1576   6.826   5.755   1.180
  226SOL    HW1 1577   6.810   5.851   1.204
  226SOL    HW2 1578   6.848   5.748   1.083
  227SOL     OW 1579   1.590   2.687   4.119
  227SOL    HW1 1580   1.623   2.781   4.112
  227SOL    HW2 1581   1.515   2.673   4.054
  228SOL     OW 1582   3.850   0.008   3.206
  228SOL    HW1 1583   3.862   0.088   3.265
  228SOL    HW2 1584   3.925   0.004   3.140
  229SOL     OW 1585   6.097   5.553   2.416
  229SOL    HW1 1586   6.070   5.496   2.494
  229SOL    HW2 1587   6.093   5.649   2.443
  230SOL     OW 1588   1.509   4.025   5.675
  230SOL    HW1 1589   1.441   3.995   5.742
  230SOL    HW2 1590   1.495   4.121   5.653
  231SOL     OW 1591   0.648   1.831   6.876
  231SOL    HW1 1592   0.736   1.800   6.911
  231SOL    HW2 1593   0.651   1.930   6.863
  232SOL     OW 1594   1.983   4.992   6.625
  232SOL    HW1 1595   1.948   4.926   6.691
  232SOL    HW2 1596   1.907   5.028   6.571
  233SOL     OW 1597   2.724   1.014   5.954
  233SOL    HW1 1598   2.645   0.996   5.895
  233SOL    HW2 1599   2.789   0.938   5.947
  234SOL     OW 1600   2.760   6.166   0.112
  234SOL    HW1 1601   2.749   6.142   0.208
  234SOL    HW2 1602   2.843   6.124   0.077
  235SOL     OW 1603   3.515   3.272   4.877
  235SOL    HW1 1604   3.564   3.238   4.797
  235SOL    HW2 1605   3.522   3.206   4.952
  236SOL     OW 1606   6.805   2.727   5.741
  236SOL    HW1 1607   6.868   2.772   5.804
  236SOL    HW2 1608   6.855   2.659   5.686
  237SOL     OW 1609   0.943   0.106   1.808
  237SOL    HW1 1610   0.935   0.092   1.907
  237SOL    HW2 1611   1.040   0.111   1.784
  238SOL     OW 1612   5.770   2.349   1.969
  238SOL    HW1 1613   5.867   2.338   1.948
  238SOL    HW2 1614   5.723   2.261   1.959
  239SOL     OW 1615   0.731   5.445   0.588
  239SOL    HW1 1616   0.778   5.357   0.588
  239SOL    HW2 1617   0.777   5.507   0.651
  240SOL     OW 1618   6.755   4.084   5.253
  240SOL    HW1 1619   6.753   4.070   5.154
  240SOL    HW2 1620   6.685   4.027   5.296
  241SOL     OW 1621   0.047   1.085   3.574
  241SOL    HW1 1622   0.120   1.019   3.592
  241SOL    HW2 1623   0.083   1.178   3.586
  242SOL     OW 1624   2.234   2.959   3.618
  242SOL    HW1 1625   2.270   2.870   3.645
  242SOL    HW2 1626   2.204   2.956   3.523
  243SOL     OW 1627   4.562   0.689   5.159
  243SOL    HW1 1628   4.643   0.735   5.121
  243SOL    HW2 1629   4.580   0.591   5.168
  244SOL     OW 1630   6.719   0.994   5.623
  244SOL    HW1 1631   6.774   0.993   5.707
  244SOL    HW2 1632   6.691   1.088   5.604
  245SOL     OW 1633   6.197   1.454   3.498
  245SOL    HW1 1634   6.210   1.359   3.527
  245SOL    HW2 1635   6.232   1.515   3.569
  246SOL     OW 1636   4.923   3.197   3.157
  246SOL    HW1 1637   5.013   3.170   3.189
  246SOL    HW2 1638   4.912   3.171   3.060
  247SOL     OW 1639   3.404   1.398   3.547
  247SOL    HW1 1640   3.371   1.490   3.568
  247SOL    HW2 1641   3.460   1.400   3.464
  248SOL     OW 1642   5.846   1.375   2.628
  248SOL    HW1 1643   5.868   1.344   2.721
  248SOL    HW2 1644   5.747   1.374   2.615
  249SOL     OW 1645   2.829   0.287   3.672
  249SOL    HW1 1646   2.832   0.199   3.719
  249SOL    HW2 1647   2.921   0.325   3.667
  250SOL     OW 1648   4.602   2.969   6.147
  250SOL    HW1 1649   4.632   2.874   6.141
  250SOL    HW2 1650   4.526   2.977   6.210
  251SOL     OW 1651   2.098   2.787   0.410
  251SOL    HW1 1652   2.035   2.833   0.474
  251SOL    HW2 1653   2.157   2.724   0.461
  252SOL     OW 1654   0.259   1.247   6.269
  252SOL    HW1 1655   0.306   1.160   6.254
  252SOL    HW2 1656   0.247   1.294   6.182
  253SOL     OW 1657   2.347   3.914   6.024
  253SOL    HW1 1658   2.367   3.824   6.064
  253SOL    HW2 1659   2.418   3.938   5.957
  254SOL     OW 1660   5.894   3.682   5.518
  254SOL    HW1 1661   5.967   3.635   5.567
  254SOL    HW2 1662   5.838   3.734   5.584
  255SOL     OW 1663   3.507   2.085   3.673
  255SOL    HW1 1664   3.583   2.100   3.609
  255SOL    HW2 1665   3.427   2.137   3.643
  256SOL     OW 1666   6.348   5.621   0.183
  256SOL    HW1 1667   6.276   5.552   0.170
  256SOL    HW2 1668   6.309   5.712   0.172
  257SOL     OW 1669   2.634   5.319   5.931
  257SOL    HW1 1670   2.716   5.361   5.891
  257SOL    HW2 1671   2.656   5.226   5.959
  258SOL     OW 1672   4.860   3.877   4.122
  258SOL    HW1 1673   4.940   3.900   4.067
  258SOL    HW2 1674   4.789   3.837   4.064
  259SOL     OW 1675   1.491   2.262   2.833
  259SOL    HW1 1676   1.524   2.283   2.925
  259SOL    HW2 1677   1.409   2.206   2.838
  260SOL     OW 1678   6.192   6.848   6.410
  260SOL    HW1 1679   6.128   6.771   6.413
  260SOL    HW2 1680   6.160   6.921   6.471
  261SOL     OW 1681   1.170   1.721   2.981
  261SOL    HW1 1682   1.226   1.640   3.001
  261SOL    HW2 1683   1.223   1.804   3.000
  262SOL     OW 1684   1.415   5.155   2.074
  262SOL    HW1 1685   1.431   5.253   2.080
  262SOL    HW2 1686   1.317   5.136   2.084
  263SOL     OW 1687   0.537   1.678   4.310
  263SOL    HW1 1688   0.608   1.647   4.247
  263SOL    HW2 1689   0.552   1.775   4.332
  264SOL     OW 1690   2.498   4.735   6.069
  264SOL    HW1 1691   2.493   4.652   6.124
  264SOL    HW2 1692   2.556   4.719   5.989
  265SOL     OW 1693   5.340   5.244   5.302
  265SOL    HW1 1694   5.241   5.254   5.291
  265SOL    HW2 1695   5.387   5.299   5.234
  266SOL     OW 1696   4.124   2.548   0.482
  266SOL    HW1 1697   4.086   2.456   0.485
  266SOL    HW2 1698   4.222   2.543   0.463
  267SOL     OW 1699   1.375   1.142   5.988
  267SOL    HW1 1700   1.277   1.129   6.005
  267SOL    HW2 1701   1.397   1.240   5.996
  268SOL     OW 1702   3.435   5.282   4.338
  268SOL    HW1 1703   3.491   5.308   4.417
  268SOL    HW2 1704   3.339   5.285   4.363
  269SOL     OW 1705   1.080   1.052   5.833
  269SOL    HW1 1706   1.068   0.955   5.852
  269SOL    HW2 1707   1.110   1.064   5.738
  270SOL     OW 1708   4.947   0.551   3.759
  270SOL    HW1 1709   4.907   0.479   3.815
  270SOL    HW2 1710   5.041   0.568   3.788
  271SOL     OW 1711   1.480   1.411   7.001
  271SOL    HW1 1712   1.572   1.374   7.014
  271SOL    HW2 1713   1.415   1.336   6.994
  272SOL     OW 1714   4.296   5.811   3.003
  272SOL    HW1 1715   4.269   5.842   2.912
  272SOL    HW2 1716   4.286   5.712   3.009
  273SOL     OW 1717   2.842   0.113   4.882
  273SOL    HW1 1718   2.830   0.076   4.974
  273SOL    HW2 1719   2.866   0.210   4.888
  274SOL     OW 1720   6.030   2.072   1.207
  274SOL    HW1 1721   5.945   2.022   1.224
  274SOL    HW2 1722   6.014   2.170   1.218
  275SOL     OW 1723   5.762   5.571   5.134
  275SOL    HW1 1724   5.830   5.556   5.205
  275SOL    HW2 1725   5.802   5.549   5.045
  276SOL     OW 1726   6.494   6.355   4.138
  276SOL    HW1 1727   6.522   6.265   4.170
  276SOL    HW2 1728   6.396   6.368   4.158
  277SOL     OW 1729   4.735   1.206   5.666
  277SOL    HW1 1730   4.680   1.290   5.671
  277SOL    HW2 1731   4.802   1.215   5.592
  278SOL     OW 1732   5.682   2.894   3.206
  278SOL    HW1 1733   5.774   2.925   3.181
  278SOL    HW2 1734   5.663   2.807   3.162
  279SOL     OW 1735   0.310   3.663   4.802
  279SOL    HW1 1736   0.242   3.595   4.773
  279SOL    HW2 1737   0.321   3.658   4.901
  280SOL     OW 1738   3.211   0.520   3.206
  280SOL    HW1 1739   3.260   0.501   3.120
  280SOL    HW2 1740   3.275   0.511   3.282
  281SOL     OW 1741   5.874   6.452   3.819
  281SOL    HW1 1742   5.778   6.432   3.836
  281SOL    HW2 1743   5.887   6.551   3.815
  282SOL     OW 1744   2.348   2.044   0.362
  282SOL    HW1 1745   2.352   1.989   0.279
  282SOL    HW2 1746   2.288   2.122   0.348
  283SOL     OW 1747   6.959   2.154   4.623
  283SOL    HW1 1748   6.863   2.175   4.610
  283SOL    HW2 1749   7.002   2.224   4.680
  284SOL     OW 1750   4.768   6.191   3.099
  284SOL    HW1 1751   4.744   6.094   3.093
  284SOL    HW2 1752   4.685   6.246   3.089
  285SOL     OW 1753   4.364   0.529   6.382
  285SOL    HW1 1754   4.408   0.440   6.396
  285SOL    HW2 1755   4.270   0.526   6.417
  286SOL     OW 1756   2.206   4.862   5.249
  286SOL    HW1 1757   2.236   4.911   5.331
  286SOL    HW2 1758   2.265   4.783   5.235
  287SOL     OW 1759   3.174   7.018   6.474
  287SOL    HW1 1760   3.144   0.008   6.569
  287SOL    HW2 1761   3.269   6.988   6.472
  288SOL     OW 1762   4.195   0.558   1.143
  288SOL    HW1 1763   4.241   0.640   1.178
  288SOL    HW2 1764   4.104   0.583   1.110
  289SOL     OW 1765   6.135   6.200   3.381
  289SOL    HW1 1766   6.142   6.296   3.407
  289SOL    HW2 1767   6.039   6.175   3.366
  290SOL     OW 1768   3.626   0.341   6.144
  290SOL    HW1 1769   3.550   0.401   6.118
  290SOL    HW2 1770   3.638   0.344   6.243
  291SOL     OW 1771   3.020   6.497   4.672
  291SOL    HW1 1772   3.081   6.506   4.594
  291SOL    HW2 1773   2.943   6.560   4.663
  292SOL     OW 1774   4.478   0.376   4.270
  292SOL    HW1 1775   4.577   0.372   4.255
  292SOL    HW2 1776   4.444   0.466   4.242
  293SOL     OW 1777   5.633   7.011   1.966
  293SOL    HW1 1778   5.557   6.946   1.961
  293SOL    HW2 1779   5.643   0.038   1.877
  294SOL     OW 1780   6.146   0.579   6.028
  294SOL    HW1 1781   6.053   0.543   6.027
  294SOL    HW2 1782   6.165   0.621   6.117
  295SOL     OW 1783   1.373   1.842   4.902
  295SOL    HW1 1784   1.435   1.912   4.866
  295SOL    HW2 1785   1.359   1.771   4.834
  296SOL     OW 1786   0.025   1.903   0.738
  296SOL    HW1 1787   6.965   1.890   0.800
  296SOL    HW2 1788   0.031   1.826   0.675
  297SOL     OW 1789   5.299   3.261   3.686
  297SOL    HW1 1790   5.302   3.316   3.602
  297SOL    HW2 1791   5.303   3.321   3.766
  298SOL     OW 1792   4.005   0.444   6.196
  298SOL    HW1 1793   4.029   0.350   6.170
  298SOL    HW2 1794   3.954   0.487   6.122
  299SOL     OW 1795   0.872   0.993   0.062
  299SOL    HW1 1796   0.881   1.075   0.118
  299SOL    HW2 1797   0.950   0.933   0.078
  300SOL     OW 1798   4.355   0.220   3.471
  300SOL    HW1 1799   4.307   0.197   3.555
  300SOL    HW2 1800   4.389   0.314   3.476
  301SOL     OW 1801   6.264   5.738   0.994
  301SOL    HW1 1802   6.263   5.832   1.029
  301SOL    HW2 1803   6.357   5.704   0.992
  302SOL     OW 1804   0.842   5.439   1.868
  302SOL    HW1 1805   0.764   5.379   1.887
  302SOL    HW2 1806   0.926   5.386   1.868
  303SOL     OW 1807   5.578   6.186   3.048
  303SOL    HW1 1808   5.514   6.244   2.999
  303SOL    HW2 1809   5.528   6.124   3.109
  304SOL     OW 1810   2.444   5.703   4.693
  304SOL    HW1 1811   2.378   5.779   4.696
  304SOL    HW2 1812   2.457   5.674   4.598
  305SOL     OW 1813   1.105   3.112   2.284
  305SOL    HW1 1814   1.052   3.180   2.233
  305SOL    HW2 1815   1.182   3.157   2.328
  306SOL     OW 1816   0.283   6.514   2.878
  306SOL    HW1 1817   0.227   6.534   2.958
  306SOL    HW2 1818   0.362   6.459   2.905
  307SOL     OW 1819   3.503   3.060   4.089
  307SOL    HW1 1820   3.494   2.994   4.164
  307SOL    HW2 1821   3.415   3.069   4.042
  308SOL     OW 1822   5.489   2.563   3.364
  308SOL    HW1 1823   5.460   2.544   3.270
  308SOL    HW2 1824   5.524   2.656   3.370
  309SOL     OW 1825   1.732   6.492   6.819
  309SOL    HW1 1826   1.699   6.401   6.796
  309SOL    HW2 1827   1.656   6.549   6.850
  310SOL     OW 1828   5.410   0.447   5.097
  310SOL    HW1 1829   5.467   0.521   5.132
  310SOL    HW2 1830   5.333   0.432   5.159
  311SOL     OW 1831   2.065   5.812   2.630
  311SOL    HW1 1832   2.040   5.768   2.716
  311SOL    HW2 1833   1.996   5.879   2.604
  312SOL     OW 1834   4.081   0.811   3.426
  312SOL    HW1 1835   4.059   0.765   3.341
  312SOL    HW2 1836   4.122   0.746   3.490
  313SOL     OW 1837   4.138   3.612   2.724
  313SOL    HW1 1838   4.140   3.608   2.624
  313SOL    HW2 1839   4.079   3.688   2.753
  314SOL     OW 1840   2.309   5.669   5.555
  314SOL    HW1 1841   2.243   5.709   5.618
  314SOL    HW2 1842   2.389   5.729   5.547
  315SOL     OW 1843   6.281   0.622   3.675
  315SOL    HW1 1844   6.243   0.708   3.641
  315SOL    HW2 1845   6.379   0.633   3.692
  316SOL     OW 1846   4.004   1.191   6.280
  316SOL    HW1 1847   4.072   1.137   6.230
  316SOL    HW2 1848   4.043   1.222   6.366
  317SOL     OW 1849   1.287   1.509   2.012
  317SOL    HW1 1850   1.382   1.501   1.982
  317SOL    HW2 1851   1.229   1.528   1.933
  318SOL     OW 1852   0.954   0.228   4.838
  318SOL    HW1 1853   0.865   0.202   4.800
  318SOL    HW2 1854   1.024   0.165   4.804
  319SOL     OW 1855   1.246   1.292   2.380
  319SOL    HW1 1856   1.232   1.216   2.443
  319SOL    HW2 1857   1.170   1.357   2.389
  320SOL     OW 1858   5.861   2.210   5.922
  320SOL    HW1 1859   5.803   2.292   5.920
  320SOL    HW2 1860   5.806   2.130   5.944
  321SOL     OW 1861   4.649   3.311   0.812
  321SOL    HW1 1862   4.695   3.399   0.800
  321SOL    HW2 1863   4.645   3.288   0.909
  322SOL     OW 1864   3.339   3.618   5.751
  322SOL    HW1 1865   3.255   3.583   5.792
  322SOL    HW2 1866   3.418   3.574   5.794
  323SOL     OW 1867   1.064   3.745   1.864
  323SOL    HW1 1868   1.125   3.737   1.942
  323SOL    HW2 1869   1.047   3.655   1.825
  324SOL     OW 1870   0.241   0.213   3.046
  324SOL    HW1 1871   0.178   0.235   3.121
  324SOL    HW2 1872   0.223   0.120   3.014
  325SOL     OW 1873   0.039   3.946   1.703
  325SOL    HW1 1874   7.011   3.974   1.620
  325SOL    HW2 1875   7.003   3.876   1.749
  326SOL     OW 1876   0.951   6.572   6.096
  326SOL    HW1 1877   1.034   6.518   6.106
  326SOL    HW2 1878   0.872   6.512   6.087
  327SOL     OW 1879   5.048   5.449   3.936
  327SOL    HW1 1880   4.965   5.489   3.897
  327SOL    HW2 1881   5.023   5.379   4.004
  328SOL     OW 1882   1.868   4.042   2.577
  328SOL    HW1 1883   1.916   3.973   2.523
  328SOL    HW2 1884   1.809   3.997   2.643
  329SOL     OW 1885   3.253   3.351   1.997
  329SOL    HW1 1886   3.205   3.264   1.989
  329SOL    HW2 1887   3.194   3.425   1.963
  330SOL     OW 1888   3.143   5.717   0.941
  330SOL    HW1 1889   3.228   5.744   0.894
  330SOL    HW2 1890   3.090   5.657   0.882
  331SOL     OW 1891   5.806   5.249   6.849
  331SOL    HW1 1892   5.766   5.243   6.757
  331SOL    HW2 1893   5.750   5.195   6.912
  332SOL     OW 1894   5.993   2.128   3.512
  332SOL    HW1 1895   6.067   2.194   3.522
  332SOL    HW2 1896   6.023   2.053   3.452
  333SOL     OW 1897   2.990   1.028   5.662
  333SOL    HW1 1898   2.892   1.015   5.669
  333SOL    HW2 1899   3.011   1.080   5.579
  334SOL     OW 1900   3.965   3.050   3.565
  334SOL    HW1 1901   3.918   3.005   3.642
  334SOL    HW2 1902   3.918   3.026   3.480
  335SOL     OW 1903   3.809   1.184   7.014
  335SOL    HW1 1904   3.745   1.139   6.952
  335SOL    HW2 1905   3.759   1.233   0.067
  336SOL     OW 1906   2.815   1.582   3.751
  336SOL    HW1 1907   2.892   1.523   3.730
  336SOL    HW2 1908   2.753   1.585   3.672
  337SOL     OW 1909   1.690   0.365   6.076
  337SOL    HW1 1910   1.692   0.287   6.014
  337SOL    HW2 1911   1.603   0.414   6.064
  338SOL     OW 1912   4.112   1.621   1.235
  338SOL    HW1 1913   4.029   1.656   1.190
  338SOL    HW2 1914   4.188   1.620   1.169
  339SOL     OW 1915   3.762   5.587   4.822
  339SOL    HW1 1916   3.791   5.586   4.918
  339SOL    HW2 1917   3.831   5.633   4.767
  340SOL     OW 1918   5.073   2.166   4.247
  340SOL    HW1 1919   5.139   2.163   4.323
  340SOL    HW2 1920   5.094   2.244   4.188
  341SOL     OW 1921   6.330   6.171   2.904
  341SOL    HW1 1922   6.372   6.141   2.989
  341SOL    HW2 1923   6.402   6.186   2.835
  342SOL     OW 1924   4.440   2.212   2.267
  342SOL    HW1 1925   4.502   2.154   2.320
  342SOL    HW2 1926   4.443   2.184   2.171
  343SOL     OW 1927   7.009   5.683   2.873
  343SOL    HW1 1928   6.975   5.767   2.830
  343SOL    HW2 1929   0.084   5.665   2.843
  344SOL     OW 1930   1.664   2.790   1.459
  344SOL    HW1 1931   1.755   2.764   1.489
  344SOL    HW2 1932   1.617   2.839   1.533
  345SOL     OW 1933   6.843   3.614   3.864
  345SOL    HW1 1934   6.931   3.662   3.868
  345SOL    HW2 1935   6.854   3.530   3.810
  346SOL     OW 1936   2.223   6.714   3.265
  346SOL    HW1 1937   2.146   6.777   3.253
  346SOL    HW2 1938   2.284   6.748   3.337
  347SOL     OW 1939   2.534   4.832   0.870
  347SOL    HW1 1940   2.573   4.801   0.957
  347SOL    HW2 1941   2.562   4.927   0.853
  348SOL     OW 1942   4.360   5.177   1.278
  348SOL    HW1 1943   4.451   5.185   1.238
  348SOL    HW2 1944   4.291   5.202   1.210
  349SOL     OW 1945   6.372   4.292   1.168
  349SOL    HW1 1946   6.340   4.374   1.121
  349SOL    HW2 1947   6.362   4.305   1.267
  350SOL     OW 1948   3.315   2.847   0.421
  350SOL    HW1 1949   3.376   2.814   0.349
  350SOL    HW2 1950   3.315   2.781   0.497
  351SOL     OW 1951   3.165   4.454   0.934
  351SOL    HW1 1952   3.264   4.463   0.928
  351SOL    HW2 1953   3.122   4.540   0.909
  352SOL     OW 1954   4.089   0.050   3.073
  352SOL    HW1 1955   4.175   0.020   3.114
  352SOL    HW2 1956   4.082   0.149   3.079
  353SOL     OW 1957   2.172   6.909   6.611
  353SOL    HW1 1958   2.179   6.985   6.547
  353SOL    HW2 1959   2.155   6.824   6.561
  354SOL     OW 1960   0.304   3.043   0.542
  354SOL    HW1 1961   0.240   3.099   0.594
  354SOL    HW2 1962   0.269   3.029   0.449
  355SOL     OW 1963   1.879   1.911   2.585
  355SOL    HW1 1964   1.791   1.919   2.538
  355SOL    HW2 1965   1.885   1.982   2.655
  356SOL     OW 1966   0.905   7.006   6.029
  356SOL    HW1 1967   0.974   6.982   5.960
  356SOL    HW2 1968   0.860   6.922   6.061
  357SOL     OW 1969   5.260   6.921   4.961
  357SOL    HW1 1970   5.298   6.917   4.869
  357SOL    HW2 1971   5.184   6.986   4.963
  358SOL     OW 1972   4.000   5.455   0.126
  358SOL    HW1 1973   3.981   5.479   0.222
  358SOL    HW2 1974   4.075   5.511   0.092
  359SOL     OW 1975   2.493   1.685   2.918
  359SOL    HW1 1976   2.497   1.686   2.818
  359SOL    HW2 1977   2.448   1.768   2.951
  360SOL     OW 1978   1.191   4.530   4.249
  360SOL    HW1 1979   1.228   4.622   4.232
  360SOL    HW2 1980   1.183   4.481   4.162
  361SOL     OW 1981   6.263   0.781   2.852
  361SOL    HW1 1982   6.280   0.700   2.908
  361SOL    HW2 1983   6.333   0.787   2.781
  362SOL     OW 1984   4.245   4.858   0.862
  362SOL    HW1 1985   4.281   4.845   0.769
  362SOL    HW2 1986   4.147   4.838   0.863
  363SOL     OW 1987   5.761   5.120   2.106
  363SOL    HW1 1988   5.792   5.215   2.110
  363SOL    HW2 1989   5.796   5.077   2.024
  364SOL     OW 1990   0.764   6.374   6.131
  364SOL    HW1 1991   0.751   6.382   6.230
  364SOL    HW2 1992   0.683   6.331   6.090
  365SOL     OW 1993   4.970   1.899   3.393
  365SOL    HW1 1994   5.064   1.935   3.394
  365SOL    HW2 1995   4.929   1.915   3.304
  366SOL     OW 1996   5.493   1.856   6.931
  366SOL    HW1 1997   5.538   1.945   6.925
  366SOL    HW2 1998   5.563   1.784   6.935
  367SOL     OW 1999   5.160   1.801   5.712
  367SOL    HW1 2000   5.060   1.808   5.719
  367SOL    HW2 2001   5.202   1.858   5.783
  368SOL     OW 2002   6.014   2.102   6.122
  368SOL    HW1 2003   6.088   2.169   6.118
  368SOL    HW2 2004   5.939   2.132   6.062
  369SOL     OW 2005   6.020   2.867   2.714
  369SOL    HW1 2006   5.986   2.917   2.794
  369SOL    HW2 2007   6.070   2.786   2.745
  370SOL     OW 2008   1.909   3.288   3.528
  370SOL    HW1 2009   1.867   3.198   3.540
  370SOL    HW2 2010   1.878   3.327   3.442
  371SOL     OW 2011   1.310   5.093   6.774
  371SOL    HW1 2012   1.320   5.019   6.707
  371SOL    HW2 2013   1.401   5.118   6.808
  372SOL     OW 2014   3.072   6.416   6.458
  372SOL    HW1 2015   3.093   6.412   6.556
  372SOL    HW2 2016   3.066   6.512   6.430
  373SOL     OW 2017   5.803   5.738   4.294
  373SOL    HW1 2018   5.794   5.675   4.216
  373SOL    HW2 2019   5.716   5.744   4.342
  374SOL     OW 2020   2.844   1.996   3.330
  374SOL    HW1 2021   2.802   2.066   3.272
  374SOL    HW2 2022   2.933   2.027   3.361
  375SOL     OW 2023   1.277   5.055   4.874
  375SOL    HW1 2024   1.189   5.027   4.912
  375SOL    HW2 2025   1.351   5.022   4.933
  376SOL     OW 2026   2.711   0.815   4.586
  376SOL    HW1 2027   2.655   0.744   4.544
  376SOL    HW2 2028   2.806   0.784   4.593
  377SOL     OW 2029   0.668   2.158   6.768
  377SOL    HW1 2030   0.767   2.173   6.778
  377SOL    HW2 2031   0.629   2.230   6.710
  378SOL     OW 2032   3.630   1.124   1.740
  378SOL    HW1 2033   3.725   1.153   1.735
  378SOL    HW2 2034   3.614   1.050   1.675
  379SOL     OW 2035   6.477   1.686   6.308
  379SOL    HW1 2036   6.466   1.648   6.217
  379SOL    HW2 2037   6.455   1.616   6.376
  380SOL     OW 2038   3.931   2.033   0.960
  380SOL    HW1 2039   3.916   2.101   1.032
  380SOL    HW2 2040   3.919   2.076   0.870
  381SOL     OW 2041   1.928   3.957   3.134
  381SOL    HW1 2042   2.028   3.956   3.133
  381SOL    HW2 2043   1.893   3.939   3.043
  382SOL     OW 2044   5.293   0.323   0.052
  382SOL    HW1 2045   5.364   0.272   0.004
  382SOL    HW2 2046   5.336   0.387   0.116
  383SOL     OW 2047   4.139   2.827   0.603
  383SOL    HW1 2048   4.136   2.742   0.549
  383SOL    HW2 2049   4.047   2.847   0.637
  384SOL     OW 2050   5.622   4.103   4.818
  384SOL    HW1 2051   5.595   4.014   4.783
  384SOL    HW2 2052   5.706   4.095   4.871
  385SOL     OW 2053   4.461   4.189   0.240
  385SOL    HW1 2054   4.515   4.109   0.265
  385SOL    HW2 2055   4.520   4.270   0.239
  386SOL     OW 2056   3.490   6.468   3.787
  386SOL    HW1 2057   3.445   6.538   3.733
  386SOL    HW2 2058   3.422   6.400   3.818
  387SOL     OW 2059   2.202   6.016   3.725
  387SOL    HW1 2060   2.251   5.937   3.763
  387SOL    HW2 2061   2.255   6.099   3.741
  388SOL     OW 2062   2.186   3.035   6.504
  388SOL    HW1 2063   2.172   2.977   6.424
  388SOL    HW2 2064   2.112   3.020   6.570
  389SOL     OW 2065   2.998   3.827   3.211
  389SOL    HW1 2066   2.969   3.770   3.135
  389SOL    HW2 2067   2.974   3.783   3.297
  390SOL     OW 2068   2.001   1.232   4.392
  390SOL    HW1 2069   1.971   1.217   4.298
  390SOL    HW2 2070   2.029   1.145   4.432
  391SOL     OW 2071   0.788   3.228   6.959
  391SOL    HW1 2072   0.846   3.162   6.911
  391SOL    HW2 2073   0.741   3.286   6.892
  392SOL     OW 2074   2.510   4.873   2.911
  392SOL    HW1 2075   2.469   4.923   2.987
  392SOL    HW2 2076   2.465   4.899   2.825
  393SOL     OW 2077   5.986   4.702   4.489
  393SOL    HW1 2078   5.909   4.756   4.456
  393SOL    HW2 2079   6.029   4.655   4.412
  394SOL     OW 2080   1.554   0.102   0.427
  394SOL    HW1 2081   1.594   0.193   0.432
  394SOL    HW2 2082   1.626   0.035   0.408
  395SOL     OW 2083   4.782   4.252   1.391
  395SOL    HW1 2084   4.791   4.270   1.293
  395SOL    HW2 2085   4.710   4.184   1.406
  396SOL     OW 2086   3.639   4.039   3.569
  396SOL    HW1 2087   3.566   4.108   3.575
  396SOL    HW2 2088   3.606   3.961   3.516
  397SOL     OW 2089   4.538   1.731   5.702
  397SOL    HW1 2090   4.565   1.795   5.630
  397SOL    HW2 2091   4.455   1.766   5.747
  398SOL     OW 2092   1.137   4.965   2.427
  398SOL    HW1 2093   1.064   4.899   2.408
  398SOL    HW2 2094   1.128   4.997   2.521
  399SOL     OW 2095   4.622   5.220   1.189
  399SOL    HW1 2096   4.627   5.287   1.115
  399SOL    HW2 2097   4.714   5.187   1.211
  400SOL     OW 2098   0.456   5.983   5.237
  400SOL    HW1 2099   0.455   5.887   5.208
  400SOL    HW2 2100   0.382   5.998   5.303
  401SOL     OW 2101   5.133   2.128   6.932
  401SOL    HW1 2102   5.182   2.129   6.845
  401SOL    HW2 2103   5.052   2.186   6.926
  402SOL     OW 2104   6.136   5.926   1.331
  402SOL    HW1 2105   6.121   5.829   1.347
  402SOL    HW2 2106   6.061   5.979   1.372
  403SOL     OW 2107   4.556   2.236   5.858
  403SOL    HW1 2108   4.471   2.250   5.806
  403SOL    HW2 2109   4.537   2.244   5.955
  404SOL     OW 2110   0.874   0.064   4.145
  404SOL    HW1 2111   0.928   6.999   4.164
  404SOL    HW2 2112   0.819   0.050   4.063
  405SOL     OW 2113   1.070   2.514   1.211
  405SOL    HW1 2114   1.117   2.602   1.204
  405SOL    HW2 2115   1.132   2.441   1.181
  406SOL     OW 2116   1.823   2.533   4.045
  406SOL    HW1 2117   1.889   2.597   4.004
  406SOL    HW2 2118   1.733   2.575   4.048
  407SOL     OW 2119   2.758   0.469   5.142
  407SOL    HW1 2120   2.658   0.467   5.140
  407SOL    HW2 2121   2.791   0.548   5.090
  408SOL     OW 2122   2.063   0.633   3.705
  408SOL    HW1 2123   2.000   0.595   3.637
  408SOL    HW2 2124   2.011   0.667   3.783
  409SOL     OW 2125   5.732   3.286   3.755
  409SOL    HW1 2126   5.681   3.293   3.670
  409SOL    HW2 2127   5.791   3.367   3.765
  410SOL     OW 2128   2.438   1.031   6.643
  410SOL    HW1 2129   2.398   1.083   6.568
  410SOL    HW2 2130   2.538   1.033   6.635
  411SOL     OW 2131   6.483   4.586   4.999
  411SOL    HW1 2132   6.464   4.631   5.086
  411SOL    HW2 2133   6.406   4.526   4.976
  412SOL     OW 2134   4.091   0.556   2.116
  412SOL    HW1 2135   4.016   0.544   2.182
  412SOL    HW2 2136   4.068   0.628   2.051
  413SOL     OW 2137   3.250   6.328   0.425
  413SOL    HW1 2138   3.261   6.377   0.511
  413SOL    HW2 2139   3.263   6.230   0.441
  414SOL     OW 2140   4.271   4.207   0.457
  414SOL    HW1 2141   4.312   4.199   0.366
  414SOL    HW2 2142   4.220   4.123   0.478
  415SOL     OW 2143   2.065   6.657   1.340
  415SOL    HW1 2144   2.137   6.611   1.391
  415SOL    HW2 2145   1.986   6.596   1.329
  416SOL     OW 2146   4.262   6.257   4.974
  416SOL    HW1 2147   4.167   6.258   5.005
  416SOL    HW2 2148   4.270   6.311   4.890
  417SOL     OW 2149   4.292   6.195   2.118
  417SOL    HW1 2150   4.232   6.230   2.047
  417SOL    HW2 2151   4.298   6.261   2.193
  418SOL     OW 2152   4.858   5.650   0.515
  418SOL    HW1 2153   4.948   5.630   0.553
  418SOL    HW2 2154   4.841   5.748   0.518
  419SOL     OW 2155   0.259   6.727   1.238
  419SOL    HW1 2156   0.331   6.725   1.167
  419SOL    HW2 2157   0.211   6.639   1.238
  420SOL     OW 2158   5.012   4.338   0.268
  420SOL    HW1 2159   4.944   4.349   0.341
  420SOL    HW2 2160   5.048   4.244   0.271
  421SOL     OW 2161   2.502   6.387   6.637
  421SOL    HW1 2162   2.492   6.443   6.555
  421SOL    HW2 2163   2.483   6.292   6.615
  422SOL     OW 2164   5.821   4.065   6.471
  422SOL    HW1 2165   5.723   4.076   6.453
  422SOL    HW2 2166   5.834   4.014   6.556
  423SOL     OW 2167   5.885   2.950   6.966
  423SOL    HW1 2168   5.801   2.977   7.013
  423SOL    HW2 2169   5.962   3.003   7.003
  424SOL     OW 2170   2.867   4.212   0.707
  424SOL    HW1 2171   2.855   4.283   0.637
  424SOL    HW2 2172   2.782   4.202   0.759
  425SOL     OW 2173   3.222   1.409   1.132
  425SOL    HW1 2174   3.185   1.396   1.040
  425SOL    HW2 2175   3.158   1.374   1.200
  426SOL     OW 2176   5.155   3.134   6.174
  426SOL    HW1 2177   5.070   3.125   6.121
  426SOL    HW2 2178   5.233   3.140   6.111
  427SOL     OW 2179   5.513   4.156   1.439
  427SOL    HW1 2180   5.429   4.189   1.397
  427SOL    HW2 2181   5.582   4.139   1.369
  428SOL     OW 2182   3.985   0.288   5.477
  428SOL    HW1 2183   3.978   0.316   5.573
  428SOL    HW2 2184   4.066   0.329   5.436
  429SOL     OW 2185   1.742   4.857   6.921
  429SOL    HW1 2186   1.745   4.954   6.944
  429SOL    HW2 2187   1.667   4.814   6.971
  430SOL     OW 2188   1.282   6.900   4.744
  430SOL    HW1 2189   1.232   6.987   4.738
  430SOL    HW2 2190   1.376   6.914   4.714
  431SOL     OW 2191   3.836   1.935   0.403
  431SOL    HW1 2192   3.822   1.929   0.501
  431SOL    HW2 2193   3.806   1.850   0.359
  432SOL     OW 2194   6.730   1.309   0.288
  432SOL    HW1 2195   6.787   1.314   0.206
  432SOL    HW2 2196   6.686   1.219   0.292
  433SOL     OW 2197   3.117   6.493   4.939
  433SOL    HW1 2198   3.066   6.517   4.856
  433SOL    HW2 2199   3.211   6.471   4.914
  434SOL     OW 2200   5.661   3.675   1.116
  434SOL    HW1 2201   5.588   3.608   1.130
  434SOL    HW2 2202   5.653   3.749   1.183
  435SOL     OW 2203   3.033   3.822   6.308
  435SOL    HW1 2204   2.947   3.826   6.358
  435SOL    HW2 2205   3.109   3.815   6.374
  436SOL     OW 2206   1.545   0.796   0.851
  436SOL    HW1 2207   1.455   0.764   0.822
  436SOL    HW2 2208   1.566   0.759   0.942
  437SOL     OW 2209   0.141   0.378   6.292
  437SOL    HW1 2210   0.117   0.439   6.216
  437SOL    HW2 2211   0.181   0.294   6.255
  438SOL     OW 2212   1.791   3.416   1.953
  438SOL    HW1 2213   1.716   3.351   1.945
  438SOL    HW2 2214   1.867   3.387   1.895
  439SOL     OW 2215   6.503   5.032   2.358
  439SOL    HW1 2216   6.409   5.052   2.386
  439SOL    HW2 2217   6.559   5.114   2.372
  440SOL     OW 2218   0.831   2.390   3.676
  440SOL    HW1 2219   0.786   2.309   3.638
  440SOL    HW2 2220   0.848   2.377   3.773
  441SOL     OW 2221   1.378   1.518   2.986
  441SOL    HW1 2222   1.462   1.563   2.956
  441SOL    HW2 2223   1.338   1.466   2.911
  442SOL     OW 2224   6.733   3.954   6.982
  442SOL    HW1 2225   6.701   3.859   6.972
  442SOL    HW2 2226   6.759   3.989   6.892
  443SOL     OW 2227   1.509   3.696   5.029
  443SOL    HW1 2228   1.569   3.774   5.042
  443SOL    HW2 2229   1.421   3.714   5.075
  444SOL     OW 2230   4.676   2.457   6.243
  444SOL    HW1 2231   4.769   2.474   6.276
  444SOL    HW2 2232   4.671   2.479   6.146
  445SOL     OW 2233   2.439   4.414   3.824
  445SOL    HW1 2234   2.470   4.438   3.732
  445SOL    HW2 2235   2.388   4.328   3.822
  446SOL     OW 2236   3.922   5.091   3.627
  446SOL    HW1 2237   3.849   5.129   3.685
  446SOL    HW2 2238   3.895   5.096   3.531
  447SOL     OW 2239   0.256   5.239   0.400
  447SOL    HW1 2240   0.310   5.160   0.430
  447SOL    HW2 2241   0.160   5.213   0.391
  448SOL     OW 2242   4.237   1.007   5.317
  448SOL    HW1 2243   4.159   0.948   5.340
  448SOL    HW2 2244   4.269   1.053   5.400
  449SOL     OW 2245   5.939   1.076   4.584
  449SOL    HW1 2246   5.961   0.993   4.534
  449SOL    HW2 2247   5.840   1.082   4.599
  450SOL     OW 2248   0.139   5.903   3.770
  450SOL    HW1 2249   0.058   5.884   3.713
  450SOL    HW2 2250   0.124   5.987   3.822
  451SOL     OW 2251   0.536   1.542   2.565
  451SOL    HW1 2252   0.495   1.573   2.480
  451SOL    HW2 2253   0.500   1.452   2.590
  452SOL     OW 2254   0.366   4.212   0.407
  452SOL    HW1 2255   0.319   4.291   0.446
  452SOL    HW2 2256   0.407   4.238   0.319
  453SOL     OW 2257   3.186   1.693   6.464
  453SOL    HW1 2258   3.105   1.683   6.522
  453SOL    HW2 2259   3.160   1.735   6.377
  454SOL     OW 2260   0.717   6.343   6.806
  454SOL    HW1 2261   0.812   6.369   6.790
  454SOL    HW2 2262   0.658   6.389   6.740
  455SOL     OW 2263   5.980   0.359   4.066
  455SOL    HW1 2264   6.005   0.425   4.137
  455SOL    HW2 2265   5.882   0.367   4.047
  456SOL     OW 2266   4.259   5.827   6.359
  456SOL    HW1 2267   4.267   5.728   6.354
  456SOL    HW2 2268   4.164   5.854   6.340
  457SOL     OW 2269   2.280   4.323   2.926
  457SOL    HW1 2270   2.292   4.230   2.960
  457SOL    HW2 2271   2.206   4.368   2.976
  458SOL     OW 2272   5.965   5.807   5.446
  458SOL    HW1 2273   5.970   5.893   5.394
  458SOL    HW2 2274   5.946   5.827   5.542
  459SOL     OW 2275   1.377   0.530   2.737
  459SOL    HW1 2276   1.399   0.606   2.797
  459SOL    HW2 2277   1.380   0.444   2.789
  460SOL     OW 2278   6.559   1.638   2.312
  460SOL    HW1 2279   6.639   1.692   2.340
  460SOL    HW2 2280   6.539   1.569   2.381
  461SOL     OW 2281   4.527   0.174   5.057
  461SOL    HW1 2282   4.516   0.091   5.112
  461SOL    HW2 2283   4.623   0.184   5.030
  462SOL     OW 2284   3.004   2.835   6.167
  462SOL    HW1 2285   2.936   2.899   6.132
  462SOL    HW2 2286   3.060   2.801   6.092
  463SOL     OW 2287   6.525   5.316   3.226
  463SOL    HW1 2288   6.623   5.336   3.223
  463SOL    HW2 2289   6.479   5.385   3.283
  464SOL     OW 2290   1.528   1.474   6.707
  464SOL    HW1 2291   1.496   1.462   6.801
  464SOL    HW2 2292   1.459   1.440   6.644
  465SOL     OW 2293   0.511   1.858   3.851
  465SOL    HW1 2294   0.444   1.899   3.913
  465SOL    HW2 2295   0.489   1.761   3.837
  466SOL     OW 2296   0.779   6.881   3.606
  466SOL    HW1 2297   0.753   6.794   3.564
  466SOL    HW2 2298   0.729   6.955   3.562
  467SOL     OW 2299   1.377   0.359   5.486
  467SOL    HW1 2300   1.315   0.430   5.453
  467SOL    HW2 2301   1.381   0.284   5.421
  468SOL     OW 2302   3.831   5.659   0.823
  468SOL    HW1 2303   3.878   5.695   0.742
  468SOL    HW2 2304   3.899   5.632   0.891
  469SOL     OW 2305   2.409   5.716   0.195
  469SOL    HW1 2306   2.409   5.804   0.243
  469SOL    HW2 2307   2.499   5.674   0.203
  470SOL     OW 2308   4.168   0.880   2.219
  470SOL    HW1 2309   4.216   0.796   2.243
  470SOL    HW2 2310   4.070   0.869   2.235
  471SOL     OW 2311   1.933   2.587   4.843
  471SOL    HW1 2312   1.921   2.686   4.833
  471SOL    HW2 2313   2.022   2.561   4.806
  472SOL     OW 2314   4.798   5.213   6.332
  472SOL    HW1 2315   4.795   5.247   6.238
  472SOL    HW2 2316   4.705   5.198   6.365
  473SOL     OW 2317   0.530   3.100   2.217
  473SOL    HW1 2318   0.591   3.164   2.170
  473SOL    HW2 2319   0.584   3.031   2.264
  474SOL     OW 2320   4.389   5.037   4.340
  474SOL    HW1 2321   4.378   4.978   4.420
  474SOL    HW2 2322   4.328   5.006   4.267
  475SOL     OW 2323   0.066   6.722   6.446
  475SOL    HW1 2324   0.131   6.707   6.521
  475SOL    HW2 2325   0.022   6.636   6.422
  476SOL     OW 2326   6.078   4.876   2.241
  476SOL    HW1 2327   6.049   4.800   2.183
  476SOL    HW2 2328   6.168   4.907   2.212
  477SOL     OW 2329   1.998   4.898   4.365
  477SOL    HW1 2330   2.094   4.874   4.377
  477SOL    HW2 2331   1.986   4.939   4.274
  478SOL     OW 2332   3.470   5.486   3.381
  478SOL    HW1 2333   3.524   5.429   3.320
  478SOL    HW2 2334   3.395   5.529   3.330
  479SOL     OW 2335   2.685   2.614   0.334
  479SOL    HW1 2336   2.715   2.703   0.368
  479SOL    HW2 2337   2.721   2.542   0.392
  480SOL     OW 2338   1.712   6.907   2.059
  480SOL    HW1 2339   1.689   7.005   2.057
  480SOL    HW2 2340   1.731   6.876   1.966
  481SOL     OW 2341   2.914   0.307   1.903
  481SOL    HW1 2342   2.998   0.355   1.929
  481SOL    HW2 2343   2.866   0.276   1.986
  482SOL     OW 2344   5.367   4.704   2.405
  482SOL    HW1 2345   5.405   4.673   2.318
  482SOL    HW2 2346   5.349   4.626   2.464
  483SOL     OW 2347   5.774   1.771   1.910
  483SOL    HW1 2348   5.850   1.720   1.949
  483SOL    HW2 2349   5.707   1.706   1.873
  484SOL     OW 2350   0.339   2.919   4.188
  484SOL    HW1 2351   0.301   3.012   4.194
  484SOL    HW2 2352   0.272   2.853   4.222
  485SOL     OW 2353   3.562   4.917   2.438
  485SOL    HW1 2354   3.508   4.915   2.354
  485SOL    HW2 2355   3.566   5.010   2.473
  486SOL     OW 2356   0.856   1.566   0.488
  486SOL    HW1 2357   0.941   1.568   0.540
  486SOL    HW2 2358   0.795   1.497   0.526
  487SOL     OW 2359   0.523   2.314   0.148
  487SOL    HW1 2360   0.567   2.224   0.158
  487SOL    HW2 2361   0.584   2.375   0.098
  488SOL     OW 2362   0.688   1.842   1.746
  488SOL    HW1 2363   0.623   1.918   1.740
  488SOL    HW2 2364   0.693   1.810   1.841
  489SOL     OW 2365   3.887   6.287   0.305
  489SOL    HW1 2366   3.987   6.299   0.307
  489SOL    HW2 2367   3.855   6.287   0.211
  490SOL     OW 2368   6.190   6.458   3.870
  490SOL    HW1 2369   6.114   6.461   3.805
  490SOL    HW2 2370   6.192   6.543   3.922
  491SOL     OW 2371   0.455   2.347   2.970
  491SOL    HW1 2372   0.516   2.276   2.935
  491SOL    HW2 2373   0.361   2.313   2.971
  492SOL     OW 2374   3.119   0.658   6.139
  492SOL    HW1 2375   3.181   0.580   6.138
  492SOL    HW2 2376   3.079   0.670   6.048
  493SOL     OW 2377   6.461   4.653   6.085
  493SOL    HW1 2378   6.485   4.559   6.060
  493SOL    HW2 2379   6.544   4.703   6.109
  494SOL     OW 2380   0.489   6.240   0.161
  494SOL    HW1 2381   0.456   6.189   0.081
  494SOL    HW2 2382   0.492   6.337   0.138
  495SOL     OW 2383   5.119   5.010   2.581
  495SOL    HW1 2384   5.190   4.995   2.513
  495SOL    HW2 2385   5.083   4.921   2.611
  496SOL     OW 2386   5.764   3.305   3.041
  496SOL    HW1 2387   5.801   3.216   3.013
  496SOL    HW2 2388   5.796   3.376   2.979
  497SOL     OW 2389   3.206   1.077   5.279
  497SOL    HW1 2390   3.199   0.977   5.275
  497SOL    HW2 2391   3.300   1.105   5.259
  498SOL     OW 2392   0.688   2.649   2.435
  498SOL    HW1 2393   0.589   2.646   2.425
  498SOL    HW2 2394   0.720   2.743   2.423
  499SOL     OW 2395   3.349   0.279   4.641
  499SOL    HW1 2396   3.314   0.278   4.548
  499SOL    HW2 2397   3.294   0.219   4.699
  500SOL     OW 2398   0.828   4.094   2.853
  500SOL    HW1 2399   0.860   4.177   2.899
  500SOL    HW2 2400   0.729   4.097   2.844
  501SOL     OW 2401   2.456   2.851   6.860
  501SOL    HW1 2402   2.405   2.767   6.838
  501SOL    HW2 2403   2.442   2.874   6.956
  502SOL     OW 2404   4.999   4.391   6.150
  502SOL    HW1 2405   4.901   4.371   6.142
  502SOL    HW2 2406   5.041   4.389   6.059
  503SOL     OW 2407   6.015   4.525   5.756
  503SOL    HW1 2408   6.036   4.449   5.816
  503SOL    HW2 2409   6.062   4.513   5.669
  504SOL     OW 2410   2.398   5.961   4.361
  504SOL    HW1 2411   2.379   6.030   4.291
  504SOL    HW2 2412   2.340   5.881   4.346
  505SOL     OW 2413   4.082   0.495   6.438
  505SOL    HW1 2414   4.069   0.399   6.463
  505SOL    HW2 2415   4.056   0.509   6.343
  506SOL     OW 2416   1.877   4.288   5.227
  506SOL    HW1 2417   1.809   4.341   5.177
  506SOL    HW2 2418   1.967   4.298   5.184
  507SOL     OW 2419   3.028   7.017   4.442
  507SOL    HW1 2420   2.934   0.021   4.416
  507SOL    HW2 2421   3.030   6.983   4.535
  508SOL     OW 2422   5.650   3.633   2.731
  508SOL    HW1 2423   5.589   3.570   2.779
  508SOL    HW2 2424   5.605   3.721   2.721
  509SOL     OW 2425   4.205   1.404   1.711
  509SOL    HW1 2426   4.279   1.452   1.759
  509SOL    HW2 2427   4.163   1.465   1.645
  510SOL     OW 2428   6.652   4.762   5.810
  510SOL    HW1 2429   6.688   4.779   5.901
  510SOL    HW2 2430   6.583   4.831   5.788
  511SOL     OW 2431   0.199   5.987   0.452
  511SOL    HW1 2432   0.285   5.936   0.462
  511SOL    HW2 2433   0.133   5.931   0.402
  512SOL     OW 2434   1.561   3.537   6.756
  512SOL    HW1 2435   1.518   3.522   6.845
  512SOL    HW2 2436   1.567   3.451   6.706
  513SOL     OW 2437   6.390   6.085   3.192
  513SOL    HW1 2438   6.442   6.148   3.249
  513SOL    HW2 2439   6.292   6.097   3.210
  514SOL     OW 2440   7.007   2.141   4.273
  514SOL    HW1 2441   0.023   2.052   4.303
  514SOL    HW2 2442   6.908   2.136   4.258
  515SOL     OW 2443   2.254   0.097   5.595
  515SOL    HW1 2444   2.161   0.113   5.627
  515SOL    HW2 2445   2.263   0.003   5.564
  516SOL     OW 2446   2.498   5.273   1.712
  516SOL    HW1 2447   2.494   5.366   1.748
  516SOL    HW2 2448   2.464   5.209   1.781
  517SOL     OW 2449   5.104   6.865   1.726
  517SOL    HW1 2450   5.132   6.883   1.632
  517SOL    HW2 2451   5.181   6.825   1.776
  518SOL     OW 2452   2.241   2.327   1.957
  518SOL    HW1 2453   2.314   2.261   1.977
  518SOL    HW2 2454   2.220   2.380   2.039
  519SOL     OW 2455   0.367   0.608   5.016
  519SOL    HW1 2456   0.379   0.560   4.929
  519SOL    HW2 2457   0.372   0.707   5.001
  520SOL     OW 2458   5.556   4.781   6.014
  520SOL    HW1 2459   5.588   4.689   5.989
  520SOL    HW2 2460   5.463   4.795   5.981
  521SOL     OW 2461   0.130   1.769   6.336
  521SOL    HW1 2462   0.144   1.670   6.329
  521SOL    HW2 2463   0.044   1.786   6.385
  522SOL     OW 2464   3.773   2.789   5.181
  522SOL    HW1 2465   3.801   2.713   5.240
  522SOL    HW2 2466   3.839   2.801   5.107
  523SOL     OW 2467   6.827   0.116   3.880
  523SOL    HW1 2468   6.881   0.193   3.844
  523SOL    HW2 2469   6.808   0.052   3.806
  524SOL     OW 2470   2.524   0.793   6.879
  524SOL    HW1 2471   2.549   0.884   6.848
  524SOL    HW2 2472   2.498   0.737   6.800
  525SOL     OW 2473   2.758   3.488   6.110
  525SOL    HW1 2474   2.856   3.488   6.131
  525SOL    HW2 2475   2.713   3.417   6.163
  526SOL     OW 2476   3.042   5.177   4.920
  526SOL    HW1 2477   3.105   5.099   4.924
  526SOL    HW2 2478   2.976   5.170   4.995
  527SOL     OW 2479   6.568   1.298   5.807
  527SOL    HW1 2480   6.480   1.296   5.855
  527SOL    HW2 2481   6.552   1.302   5.709
  528SOL     OW 2482   1.311   1.327   5.240
  528SOL    HW1 2483   1.397   1.295   5.282
  528SOL    HW2 2484   1.292   1.420   5.272
  529SOL     OW 2485   1.043   5.215   4.961
  529SOL    HW1 2486   1.033   5.124   5.002
  529SOL    HW2 2487   1.139   5.242   4.965
  530SOL     OW 2488   2.339   3.172   5.371
  530SOL    HW1 2489   2.353   3.267   5.341
  530SOL    HW2 2490   2.384   3.110   5.307
  531SOL     OW 2491   0.519   0.565   1.230
  531SOL    HW1 2492   0.557   0.473   1.221
  531SOL    HW2 2493   0.536   0.599   1.323
  532SOL     OW 2494   1.606   1.733   5.660
  532SOL    HW1 2495   1.581   1.788   5.739
  532SOL    HW2 2496   1.645   1.792   5.589
  533SOL     OW 2497   5.430   6.360   4.771
  533SOL    HW1 2498   5.501   6.373   4.840
  533SOL    HW2 2499   5.373   6.282   4.796
  534SOL     OW 2500   4.265   5.262   3.090
  534SOL    HW1 2501   4.207   5.295   3.164
  534SOL    HW2 2502   4.353   5.231   3.127
  535SOL     OW 2503   0.453   3.887   3.591
  535SOL    HW1 2504   0.514   3.861   3.666
  535SOL    HW2 2505   0.444   3.811   3.527
  536SOL     OW 2506   1.588   5.523   1.454
  536SOL    HW1 2507   1.653   5.447   1.444
  536SOL    HW2 2508   1.634   5.602   1.495
  537SOL     OW 2509   2.301   6.617   3.024
  537SOL    HW1 2510   2.285   6.661   3.112
  537SOL    HW2 2511   2.286   6.683   2.950
  538SOL     OW 2512   1.399   5.591   3.497
  538SOL    HW1 2513   1.315   5.628   3.455
  538SOL    HW2 2514   1.384   5.495   3.522
  539SOL     OW 2515   1.440   5.507   1.713
  539SOL    HW1 2516   1.509   5.463   1.656
  539SOL    HW2 2517   1.483   5.544   1.795
  540SOL     OW 2518   1.008   1.925   2.533
  540SOL    HW1 2519   0.953   2.009   2.533
  540SOL    HW2 2520   0.997   1.878   2.620
  541SOL     OW 2521   3.094   6.076   5.054
  541SOL    HW1 2522   3.193   6.090   5.057
  541SOL    HW2 2523   3.073   5.988   5.010
  542SOL     OW 2524   5.483   5.964   6.893
  542SOL    HW1 2525   5.529   5.882   6.928
  542SOL    HW2 2526   5.395   5.974   6.939
  543SOL     OW 2527   1.264   4.857   6.938
  543SOL    HW1 2528   1.273   4.951   6.902
  543SOL    HW2 2529   1.351   4.828   6.976
  544SOL     OW 2530   0.623   5.127   0.177
  544SOL    HW1 2531   0.671   5.045   0.146
  544SOL    HW2 2532   0.633   5.136   0.277
  545SOL     OW 2533   3.765   1.272   3.075
  545SOL    HW1 2534   3.860   1.298   3.054
  545SOL    HW2 2535   3.703   1.337   3.032
  546SOL     OW 2536   1.079   3.391   1.331
  546SOL    HW1 2537   1.077   3.488   1.353
  546SOL    HW2 2538   1.003   3.369   1.269
  547SOL     OW 2539   2.763   2.934   0.842
  547SOL    HW1 2540   2.696   3.000   0.808
  547SOL    HW2 2541   2.726   2.841   0.833
  548SOL     OW 2542   3.822   2.915   4.243
  548SOL    HW1 2543   3.811   2.988   4.310
  548SOL    HW2 2544   3.747   2.850   4.252
  549SOL     OW 2545   5.029   3.633   1.548
  549SOL    HW1 2546   4.935   3.661   1.568
  549SOL    HW2 2547   5.041   3.537   1.576
  550SOL     OW 2548   6.761   3.150   2.236
  550SOL    HW1 2549   6.682   3.091   2.223
  550SOL    HW2 2550   6.796   3.181   2.148
  551SOL     OW 2551   0.072   1.394   0.992
  551SOL    HW1 2552   0.068   1.431   1.085
  551SOL    HW2 2553   0.154   1.338   0.982
  552SOL     OW 2554   4.048   5.080   0.609
  552SOL    HW1 2555   3.965   5.028   0.629
  552SOL    HW2 2556   4.048   5.108   0.513
  553SOL     OW 2557   2.213   1.243   1.642
  553SOL    HW1 2558   2.267   1.224   1.724
  553SOL    HW2 2559   2.273   1.274   1.569
  554SOL     OW 2560   5.678   7.005   5.506
  554SOL    HW1 2561   5.612   0.061   5.491
  554SOL    HW2 2562   5.755   7.015   5.443
  555SOL     OW 2563   1.538   4.783   4.611
  555SOL    HW1 2564   1.630   4.818   4.595
  555SOL    HW2 2565   1.539   4.721   4.690
  556SOL     OW 2566   5.841   2.185   3.756
  556SOL    HW1 2567   5.913   2.170   3.688
  556SOL    HW2 2568   5.789   2.267   3.732
  557SOL     OW 2569   6.881   5.949   6.744
  557SOL    HW1 2570   6.867   6.007   6.824
  557SOL    HW2 2571   6.939   5.997   6.678
  558SOL     OW 2572   4.455   3.608   5.301
  558SOL    HW1 2573   4.454   3.508   5.298
  558SOL    HW2 2574   4.532   3.641   5.247
  559SOL     OW 2575   0.371   5.858   6.458
  559SOL    HW1 2576   0.362   5.827   6.552
  559SOL    HW2 2577   0.459   5.905   6.446
  560SOL     OW 2578   4.718   6.502   6.960
  560SOL    HW1 2579   4.670   6.479   6.875
  560SOL    HW2 2580   4.745   6.598   6.958
  561SOL     OW 2581   6.146   0.022   0.402
  561SOL    HW1 2582   6.196   6.953   0.399
  561SOL    HW2 2583   6.063   0.014   0.348
  562SOL     OW 2584   5.342   1.267   6.180
  562SOL    HW1 2585   5.350   1.361   6.212
  562SOL    HW2 2586   5.263   1.260   6.118
  563SOL     OW 2587   2.670   6.148   4.056
  563SOL    HW1 2588   2.729   6.113   4.128
  563SOL    HW2 2589   2.722   6.212   3.999
  564SOL     OW 2590   0.816   1.618   6.675
  564SOL    HW1 2591   0.826   1.519   6.662
  564SOL    HW2 2592   0.766   1.635   6.760
  565SOL     OW 2593   4.538   3.666   5.729
  565SOL    HW1 2594   4.545   3.594   5.797
  565SOL    HW2 2595   4.607   3.736   5.746
  566SOL     OW 2596   4.408   5.120   3.573
  566SOL    HW1 2597   4.472   5.042   3.573
  566SOL    HW2 2598   4.460   5.205   3.575
  567SOL     OW 2599   3.112   3.362   4.892
  567SOL    HW1 2600   3.045   3.364   4.819
  567SOL    HW2 2601   3.203   3.382   4.856
  568SOL     OW 2602   3.033   2.176   0.347
  568SOL    HW1 2603   2.966   2.120   0.299
  568SOL    HW2 2604   3.031   2.269   0.311
  569SOL     OW 2605   1.577   2.883   0.991
  569SOL    HW1 2606   1.592   2.791   0.954
  569SOL    HW2 2607   1.485   2.914   0.967
  570SOL     OW 2608   1.160   6.375   0.533
  570SOL    HW1 2609   1.248   6.400   0.491
  570SOL    HW2 2610   1.100   6.455   0.533
  571SOL     OW 2611   3.759   5.079   2.751
  571SOL    HW1 2612   3.735   5.036   2.839
  571SOL    HW2 2613   3.853   5.113   2.756
  572SOL     OW 2614   1.953   4.072   5.603
  572SOL    HW1 2615   1.885   4.127   5.652
  572SOL    HW2 2616   1.972   3.989   5.656
  573SOL     OW 2617   4.352   1.395   5.492
  573SOL    HW1 2618   4.330   1.468   5.427
  573SOL    HW2 2619   4.368   1.435   5.583
  574SOL     OW 2620   2.507   2.244   4.018
  574SOL    HW1 2621   2.418   2.287   4.034
  574SOL    HW2 2622   2.529   2.185   4.096
  575SOL     OW 2623   6.649   2.626   0.074
  575SOL    HW1 2624   6.566   2.570   0.066
  575SOL    HW2 2625   6.624   2.720   0.095
  576SOL     OW 2626   1.304   2.077   2.709
  576SOL    HW1 2627   1.365   1.997   2.705
  576SOL    HW2 2628   1.264   2.093   2.618
  577SOL     OW 2629   2.778   1.895   3.686
  577SOL    HW1 2630   2.725   1.872   3.767
  577SOL    HW2 2631   2.774   1.820   3.620
  578SOL     OW 2632   0.450   3.354   3.561
  578SOL    HW1 2633   0.537   3.305   3.560
  578SOL    HW2 2634   0.393   3.323   3.485
  579SOL     OW 2635   4.692   2.335   0.322
  579SOL    HW1 2636   4.767   2.358   0.259
  579SOL    HW2 2637   4.660   2.418   0.368
  580SOL     OW 2638   1.639   5.455   6.589
  580SOL    HW1 2639   1.636   5.469   6.688
  580SOL    HW2 2640   1.701   5.380   6.567
  581SOL     OW 2641   3.817   2.985   2.600
  581SOL    HW1 2642   3.860   3.032   2.677
  581SOL    HW2 2643   3.870   3.001   2.517
  582SOL     OW 2644   5.176   3.861   2.542
  582SOL    HW1 2645   5.150   3.764   2.545
  582SOL    HW2 2646   5.097   3.916   2.518
  583SOL     OW 2647   2.204   4.301   0.409
  583SOL    HW1 2648   2.244   4.347   0.488
  583SOL    HW2 2649   2.112   4.337   0.392
  584SOL     OW 2650   0.251   4.881   5.064
  584SOL    HW1 2651   0.225   4.938   5.143
  584SOL    HW2 2652   0.220   4.925   4.980
  585SOL     OW 2653   0.134   1.945   6.148
  585SOL    HW1 2654   0.131   1.860   6.200
  585SOL    HW2 2655   0.070   1.940   6.071
  586SOL     OW 2656   2.714   6.505   0.704
  586SOL    HW1 2657   2.633   6.545   0.747
  586SOL    HW2 2658   2.783   6.577   0.691
  587SOL     OW 2659   1.055   3.367   5.653
  587SOL    HW1 2660   1.024   3.273   5.635
  587SOL    HW2 2661   0.977   3.423   5.680
  588SOL     OW 2662   3.327   6.247   1.822
  588SOL    HW1 2663   3.312   6.294   1.735
  588SOL    HW2 2664   3.247   6.192   1.844
  589SOL     OW 2665   3.644   5.185   2.538
  589SOL    HW1 2666   3.554   5.218   2.567
  589SOL    HW2 2667   3.700   5.165   2.619
  590SOL     OW 2668   0.163   2.022   1.895
  590SOL    HW1 2669   0.224   2.100   1.913
  590SOL    HW2 2670   0.211   1.955   1.838
  591SOL     OW 2671   3.644   0.091   3.484
  591SOL    HW1 2672   3.689   0.106   3.572
  591SOL    HW2 2673   3.652   7.012   3.460
  592SOL     OW 2674   5.059   0.838   0.364
  592SOL    HW1 2675   5.112   0.907   0.414
  592SOL    HW2 2676   4.978   0.813   0.418
  593SOL     OW 2677   5.037   2.403   4.070
  593SOL    HW1 2678   4.948   2.403   4.115
  593SOL    HW2 2679   5.024   2.391   3.971
  594SOL     OW 2680   3.935   3.938   1.226
  594SOL    HW1 2681   4.017   3.984   1.258
  594SOL    HW2 2682   3.855   3.997   1.240
  595SOL     OW 2683   3.848   5.986   4.135
  595SOL    HW1 2684   3.760   5.982   4.181
  595SOL    HW2 2685   3.878   5.893   4.112
  596SOL     OW 2686   0.718   4.518   2.719
  596SOL    HW1 2687   0.664   4.514   2.803
  596SOL    HW2 2688   0.657   4.509   2.640
  597SOL     OW 2689   4.229   0.473   5.847
  597SOL    HW1 2690   4.164   0.491   5.773
  597SOL    HW2 2691   4.227   0.549   5.912
  598SOL     OW 2692   3.760   4.616   0.432
  598SOL    HW1 2693   3.712   4.625   0.345
  598SOL    HW2 2694   3.836   4.680   0.434
  599SOL     OW 2695   6.553   0.072   2.532
  599SOL    HW1 2696   6.641   0.026   2.521
  599SOL    HW2 2697   6.536   0.089   2.629
  600SOL     OW 2698   1.552   0.564   0.384
  600SOL    HW1 2699   1.584   0.473   0.409
  600SOL    HW2 2700   1.513   0.609   0.464
  601SOL     OW 2701   2.999   5.440   4.009
  601SOL    HW1 2702   3.018   5.366   4.074
  601SOL    HW2 2703   2.972   5.401   3.922
  602SOL     OW 2704   2.116   0.164   1.074
  602SOL    HW1 2705   2.126   0.143   0.977
  602SOL    HW2 2706   2.057   0.244   1.085
  603SOL     OW 2707   4.049   2.179   3.191
  603SOL    HW1 2708   3.976   2.245   3.174
  603SOL    HW2 2709   4.137   2.226   3.192
  604SOL     OW 2710   0.812   3.606   6.336
  604SOL    HW1 2711   0.864   3.689   6.357
  604SOL    HW2 2712   0.870   3.540   6.291
  605SOL     OW 2713   5.814   6.924   3.370
  605SOL    HW1 2714   5.731   6.891   3.326
  605SOL    HW2 2715   5.827   0.003   3.349
  606SOL     OW 2716   3.975   0.240   3.806
  606SOL    HW1 2717   4.063   0.238   3.760
  606SOL    HW2 2718   3.983   0.198   3.897
  607SOL     OW 2719   5.262   1.231   3.888
  607SOL    HW1 2720   5.185   1.180   3.850
  607SOL    HW2 2721   5.256   1.327   3.859
  608SOL     OW 2722   3.654   0.874   0.956
  608SOL    HW1 2723   3.649   0.973   0.955
  608SOL    HW2 2724   3.637   0.839   1.048
  609SOL     OW 2725   3.298   3.192   4.554
  609SOL    HW1 2726   3.237   3.139   4.614
  609SOL    HW2 2727   3.244   3.234   4.481
  610SOL     OW 2728   5.221   2.738   3.927
  610SOL    HW1 2729   5.278   2.816   3.954
  610SOL    HW2 2730   5.272   2.654   3.944
  611SOL     OW 2731   0.347   0.085   0.473
  611SOL    HW1 2732   0.290   0.152   0.425
  611SOL    HW2 2733   0.443   0.111   0.465
  612SOL     OW 2734   2.497   5.203   6.213
  612SOL    HW1 2735   2.470   5.139   6.285
  612SOL    HW2 2736   2.548   5.279   6.254
  613SOL     OW 2737   3.535   2.073   7.017
  613SOL    HW1 2738   3.474   1.995   0.016
  613SOL    HW2 2739   3.549   2.123   0.084
  614SOL     OW 2740   5.401   4.758   1.215
  614SOL    HW1 2741   5.317   4.791   1.259
  614SOL    HW2 2742   5.399   4.659   1.209
  615SOL     OW 2743   6.917   6.768   1.050
  615SOL    HW1 2744   6.859   6.810   0.980
  615SOL    HW2 2745   7.013   6.774   1.022
  616SOL     OW 2746   5.676   1.058   4.201
  616SOL    HW1 2747   5.648   1.146   4.240
  616SOL    HW2 2748   5.596   1.000   4.191
  617SOL     OW 2749   0.563   4.762   5.852
  617SOL    HW1 2750   0.648   4.753   5.800
  617SOL    HW2 2751   0.519   4.849   5.828
  618SOL     OW 2752   5.661   3.075   0.650
  618SOL    HW1 2753   5.567   3.106   0.666
  618SOL    HW2 2754   5.723   3.154   0.652
  619SOL     OW 2755   2.411   0.347   0.680
  619SOL    HW1 2756   2.415   0.447   0.678
  619SOL    HW2 2757   2.488   0.309   0.628
  620SOL     OW 2758   6.031   1.697   2.022
  620SOL    HW1 2759   6.101   1.754   1.978
  620SOL    HW2 2760   6.074   1.619   2.066
  621SOL     OW 2761   3.617   1.033   6.843
  621SOL    HW1 2762   3.600   1.126   6.809
  621SOL    HW2 2763   3.532   0.981   6.840
  622SOL     OW 2764   1.147   1.913   5.056
  622SOL    HW1 2765   1.230   1.887   5.007
  622SOL    HW2 2766   1.094   1.977   5.000
  623SOL     OW 2767   5.987   6.714   3.810
  623SOL    HW1 2768   5.935   6.722   3.895
  623SOL    HW2 2769   6.081   6.746   3.825
  624SOL     OW 2770   6.445   0.488   6.560
  624SOL    HW1 2771   6.386   0.542   6.499
  624SOL    HW2 2772   6.531   0.536   6.573
  625SOL     OW 2773   2.535   1.215   0.165
  625SOL    HW1 2774   2.605   1.168   0.219
  625SOL    HW2 2775   2.521   1.166   0.079
  626SOL     OW 2776   0.607   5.058   3.942
  626SOL    HW1 2777   0.641   5.041   3.850
  626SOL    HW2 2778   0.572   5.151   3.948
  627SOL     OW 2779   6.538   0.201   6.839
  627SOL    HW1 2780   6.618   0.227   6.785
  627SOL    HW2 2781   6.566   0.187   6.934
  628SOL     OW 2782   5.080   4.991   5.404
  628SOL    HW1 2783   5.152   5.015   5.468
  628SOL    HW2 2784   5.059   4.893   5.413
  629SOL     OW 2785   0.018   6.752   6.025
  629SOL    HW1 2786   0.064   6.816   6.086
  629SOL    HW2 2787   6.948   6.725   6.066
  630SOL     OW 2788   6.543   0.914   0.867
  630SOL    HW1 2789   6.467   0.944   0.925
  630SOL    HW2 2790   6.583   0.993   0.821
  631SOL     OW 2791   1.989   2.466   5.092
  631SOL    HW1 2792   1.951   2.510   5.011
  631SOL    HW2 2793   1.923   2.474   5.167
  632SOL     OW 2794   3.042   3.222   6.908
  632SOL    HW1 2795   3.016   3.171   6.991
  632SOL    HW2 2796   3.060   3.157   6.835
  633SOL     OW 2797   2.144   5.871   1.759
  633SOL    HW1 2798   2.226   5.863   1.702
  633SOL    HW2 2799   2.070   5.912   1.706
  634SOL     OW 2800   2.948   3.330   4.230
  634SOL    HW1 2801   2.863   3.382   4.238
  634SOL    HW2 2802   2.966   3.312   4.133
  635SOL     OW 2803   5.894   0.705   6.309
  635SOL    HW1 2804   5.849   0.639   6.370
  635SOL    HW2 2805   5.840   0.713   6.225
  636SOL     OW 2806   2.450   0.693   6.608
  636SOL    HW1 2807   2.526   0.654   6.557
  636SOL    HW2 2808   2.364   0.672   6.560
  637SOL     OW 2809   6.525   1.254   1.445
  637SOL    HW1 2810   6.444   1.279   1.392
  637SOL    HW2 2811   6.510   1.166   1.489
  638SOL     OW 2812   6.590   3.307   3.841
  638SOL    HW1 2813   6.536   3.389   3.853
  638SOL    HW2 2814   6.624   3.277   3.930
  639SOL     OW 2815   4.870   4.655   3.135
  639SOL    HW1 2816   4.855   4.612   3.045
  639SOL    HW2 2817   4.811   4.735   3.144
  640SOL     OW 2818   1.025   2.183   2.172
  640SOL    HW1 2819   1.000   2.094   2.134
  640SOL    HW2 2820   0.946   2.245   2.168
  641SOL     OW 2821   1.978   5.002   4.642
  641SOL    HW1 2822   1.975   4.969   4.547
  641SOL    HW2 2823   1.899   5.061   4.658
  642SOL     OW 2824   0.844   3.705   5.095
  642SOL    HW1 2825   0.747   3.716   5.074
  642SOL    HW2 2826   0.897   3.716   5.011
  643SOL     OW 2827   4.687   4.943   6.398
  643SOL    HW1 2828   4.781   4.968   6.375
  643SOL    HW2 2829   4.629   5.023   6.393
  644SOL     OW 2830   6.597   6.812   4.596
  644SOL    HW1 2831   6.619   6.891   4.653
  644SOL    HW2 2832   6.498   6.799   4.594
  645SOL     OW 2833   4.381   4.741   2.424
  645SOL    HW1 2834   4.391   4.775   2.518
  645SOL    HW2 2835   4.287   4.756   2.394
  646SOL     OW 2836   4.032   0.653   5.596
  646SOL    HW1 2837   3.997   0.739   5.632
  646SOL    HW2 2838   3.986   0.632   5.509
  647SOL     OW 2839   4.463   2.536   5.436
  647SOL    HW1 2840   4.448   2.616   5.377
  647SOL    HW2 2841   4.554   2.500   5.420
  648SOL     OW 2842   5.765   2.171   3.375
  648SOL    HW1 2843   5.701   2.095   3.367
  648SOL    HW2 2844   5.847   2.141   3.423
  649SOL     OW 2845   2.337   5.333   0.889
  649SOL    HW1 2846   2.322   5.409   0.826
  649SOL    HW2 2847   2.390   5.262   0.844
  650SOL     OW 2848   6.765   5.312   1.198
  650SOL    HW1 2849   6.668   5.307   1.176
  650SOL    HW2 2850   6.782   5.390   1.258
  651SOL     OW 2851   1.552   6.972   4.581
  651SOL    HW1 2852   1.537   0.047   4.613
  651SOL    HW2 2853   1.650   6.954   4.574
  652SOL     OW 2854   3.436   6.585   1.570
  652SOL    HW1 2855   3.498   6.658   1.545
  652SOL    HW2 2856   3.464   6.546   1.658
  653SOL     OW 2857   1.240   6.404   1.976
  653SOL    HW1 2858   1.188   6.478   1.934
  653SOL    HW2 2859   1.178   6.330   2.001
  654SOL     OW 2860   7.005   6.727   4.754
  654SOL    HW1 2861   0.015   6.728   4.850
  654SOL    HW2 2862   0.065   6.703   4.696
  655SOL     OW 2863   6.834   4.778   1.790
  655SOL    HW1 2864   6.923   4.735   1.801
  655SOL    HW2 2865   6.777   4.722   1.730
  656SOL     OW 2866   3.717   6.784   0.528
  656SOL    HW1 2867   3.772   6.812   0.449
  656SOL    HW2 2868   3.762   6.815   0.612
  657SOL     OW 2869   4.000   3.147   2.042
  657SOL    HW1 2870   3.952   3.225   2.003
  657SOL    HW2 2871   3.942   3.103   2.111
  658SOL     OW 2872   2.166   3.298   3.900
  658SOL    HW1 2873   2.168   3.379   3.959
  658SOL    HW2 2874   2.174   3.327   3.804
  659SOL     OW 2875   2.133   6.606   5.759
  659SOL    HW1 2876   2.175   6.697   5.770
  659SOL    HW2 2877   2.203   6.540   5.734
  660SOL     OW 2878   4.744   4.301   2.489
  660SOL    HW1 2879   4.647   4.283   2.470
  660SOL    HW2 2880   4.801   4.238   2.437
  661SOL     OW 2881   4.166   4.776   4.500
  661SOL    HW1 2882   4.068   4.785   4.487
  661SOL    HW2 2883   4.195   4.682   4.479
  662SOL     OW 2884   4.980   3.479   0.067
  662SOL    HW1 2885   4.904   3.485   0.002
  662SOL    HW2 2886   4.981   3.560   0.125
  663SOL     OW 2887   0.341   4.488   0.467
  663SOL    HW1 2888   0.255   4.535   0.487
  663SOL    HW2 2889   0.400   4.490   0.547
  664SOL     OW 2890   1.720   6.984   6.959
  664SOL    HW1 2891   1.696   0.039   0.005
  664SOL    HW2 2892   1.777   0.004   6.886
  665SOL     OW 2893   4.376   5.770   0.993
  665SOL    HW1 2894   4.343   5.709   1.066
  665SOL    HW2 2895   4.306   5.777   0.922
  666SOL     OW 2896   3.768   2.126   0.208
  666SOL    HW1 2897   3.814   2.050   0.252
  666SOL    HW2 2898   3.735   2.190   0.278
  667SOL     OW 2899   0.633   3.056   2.777
  667SOL    HW1 2900   0.638   2.957   2.793
  667SOL    HW2 2901   0.626   3.104   2.865
  668SOL     OW 2902   5.285   7.007   0.796
  668SOL    HW1 2903   5.358   0.056   0.813
  668SOL    HW2 2904   5.309   6.951   0.716
  669SOL     OW 2905   1.696   5.865   3.126
  669SOL    HW1 2906   1.749   5.881   3.209
  669SOL    HW2 2907   1.688   5.950   3.074
  670SOL     OW 2908   3.297   3.619   3.951
  670SOL    HW1 2909   3.374   3.556   3.964
  670SOL    HW2 2910   3.275   3.662   4.039
  671SOL     OW 2911   1.975   0.116   5.660
  671SOL    HW1 2912   1.915   0.192   5.688
  671SOL    HW2 2913   1.936   0.030   5.690
  672SOL     OW 2914   2.238   3.077   4.118
  672SOL    HW1 2915   2.150   3.047   4.081
  672SOL    HW2 2916   2.266   3.162   4.074
  673SOL     OW 2917   5.529   0.471   0.784
  673SOL    HW1 2918   5.500   0.395   0.726
  673SOL    HW2 2919   5.539   0.554   0.729
  674SOL     OW 2920   0.261   1.581   3.653
  674SOL    HW1 2921   0.359   1.563   3.653
  674SOL    HW2 2922   0.226   1.573   3.747
  675SOL     OW 2923   6.870   2.745   4.814
  675SOL    HW1 2924   6.773   2.769   4.806
  675SOL    HW2 2925   6.882   2.680   4.889
  676SOL     OW 2926   1.805   4.712   4.469
  676SOL    HW1 2927   1.851   4.760   4.395
  676SOL    HW2 2928   1.873   4.672   4.531
  677SOL     OW 2929   6.574   0.376   0.831
  677SOL    HW1 2930   6.655   0.367   0.890
  677SOL    HW2 2931   6.600   0.415   0.743
  678SOL     OW 2932   2.630   1.250   6.108
  678SOL    HW1 2933   2.666   1.173   6.055
  678SOL    HW2 2934   2.606   1.325   6.046
  679SOL     OW 2935   4.570   6.991   2.541
  679SOL    HW1 2936   4.650   7.014   2.596
  679SOL    HW2 2937   4.528   0.057   2.506
  680SOL     OW 2938   4.744   4.344   6.116
  680SOL    HW1 2939   4.710   4.308   6.029
  680SOL    HW2 2940   4.667   4.364   6.176
  681SOL     OW 2941   0.860   6.687   1.297
  681SOL    HW1 2942   0.783   6.739   1.334
  681SOL    HW2 2943   0.889   6.618   1.364
  682SOL     OW 2944   2.030   6.115   6.854
  682SOL    HW1 2945   2.074   6.174   6.786
  682SOL    HW2 2946   2.098   6.054   6.894
  683SOL     OW 2947   4.636   1.874   0.191
  683SOL    HW1 2948   4.675   1.815   0.120
  683SOL    HW2 2949   4.586   1.817   0.257
  684SOL     OW 2950   0.308   5.567   6.403
  684SOL    HW1 2951   0.252   5.484   6.397
  684SOL    HW2 2952   0.253   5.642   6.438
  685SOL     OW 2953   5.504   0.213   5.507
  685SOL    HW1 2954   5.577   0.263   5.460
  685SOL    HW2 2955   5.417   0.261   5.495
  686SOL     OW 2956   5.100   4.567   2.862
  686SOL    HW1 2957   5.001   4.556   2.872
  686SOL    HW2 2958   5.146   4.480   2.879
  687SOL     OW 2959   6.846   3.858   5.938
  687SOL    HW1 2960   6.746   3.849   5.944
  687SOL    HW2 2961   6.877   3.930   5.999
  688SOL     OW 2962   0.274   4.269   5.875
  688SOL    HW1 2963   0.188   4.245   5.830
  688SOL    HW2 2964   0.274   4.367   5.895
  689SOL     OW 2965   6.348   3.794   5.727
  689SOL    HW1 2966   6.346   3.697   5.749
  689SOL    HW2 2967   6.266   3.819   5.676
  690SOL     OW 2968   1.365   2.366   3.422
  690SOL    HW1 2969   1.373   2.351   3.323
  690SOL    HW2 2970   1.297   2.438   3.439
  691SOL     OW 2971   1.066   2.643   6.522
  691SOL    HW1 2972   1.129   2.703   6.473
  691SOL    HW2 2973   0.972   2.662   6.494
  692SOL     OW 2974   2.724   0.087   2.661
  692SOL    HW1 2975   2.679   0.176   2.669
  692SOL    HW2 2976   2.721   0.040   2.749
  693SOL     OW 2977   6.777   2.590   2.160
  693SOL    HW1 2978   6.850   2.526   2.136
  693SOL    HW2 2979   6.719   2.549   2.230
  694SOL     OW 2980   2.387   6.627   1.042
  694SOL    HW1 2981   2.409   6.670   0.954
  694SOL    HW2 2982   2.324   6.550   1.026
  695SOL     OW 2983   4.989   6.196   5.286
  695SOL    HW1 2984   5.070   6.209   5.228
  695SOL    HW2 2985   4.911   6.168   5.230
  696SOL     OW 2986   4.413   4.827   2.701
  696SOL    HW1 2987   4.321   4.866   2.696
  696SOL    HW2 2988   4.478   4.899   2.724
  697SOL     OW 2989   0.905   4.024   4.044
  697SOL    HW1 2990   0.926   3.927   4.037
  697SOL    HW2 2991   0.833   4.039   4.111
  698SOL     OW 2992   4.734   0.357   3.027
  698SOL    HW1 2993   4.822   0.382   3.066
  698SOL    HW2 2994   4.731   0.259   3.009
  699SOL     OW 2995   1.737   4.430   1.025
  699SOL    HW1 2996   1.799   4.363   1.066
  699SOL    HW2 2997   1.781   4.520   1.024
  700SOL     OW 2998   2.749   2.242   4.452
  700SOL    HW1 2999   2.825   2.224   4.514
  700SOL    HW2 3000   2.782   2.292   4.372
  701SOL     OW 3001   0.253   3.650   6.123
  701SOL    HW1 3002   0.188   3.680   6.053
  701SOL    HW2 3003   0.312   3.728   6.149
  702SOL     OW 3004   5.084   6.159   4.420
  702SOL    HW1 3005   5.035   6.079   4.387
  702SOL    HW2 3006   5.047   6.187   4.509
  703SOL     OW 3007   3.655   3.924   6.856
  703SOL    HW1 3008   3.703   3.849   6.901
  703SOL    HW2 3009   3.713   4.006   6.857
  704SOL     OW 3010   1.709   0.335   6.732
  704SOL    HW1 3011   1.715   0.431   6.759
  704SOL    HW2 3012   1.759   0.279   6.799
  705SOL     OW 3013   5.912   1.853   2.397
  705SOL    HW1 3014   5.824   1.806   2.406
  705SOL    HW2 3015   5.957   1.824   2.313
  706SOL     OW 3016   3.896   1.842   3.686
  706SOL    HW1 3017   3.986   1.886   3.682
  706SOL    HW2 3018   3.867   1.818   3.594
  707SOL     OW 3019   4.892   0.337   1.719
  707SOL    HW1 3020   4.978   0.286   1.724
  707SOL    HW2 3021   4.815   0.273   1.723
  708SOL     OW 3022   3.990   0.960   1.461
  708SOL    HW1 3023   4.016   1.041   1.512
  708SOL    HW2 3024   4.045   0.953   1.378
  709SOL     OW 3025   0.877   4.730   0.656
  709SOL    HW1 3026   0.892   4.631   0.655
  709SOL    HW2 3027   0.954   4.776   0.699
  710SOL     OW 3028   3.164   4.024   2.868
  710SOL    HW1 3029   3.142   4.082   2.789
  710SOL    HW2 3030   3.113   3.938   2.860
  711SOL     OW 3031   6.666   1.363   4.492
  711SOL    HW1 3032   6.616   1.423   4.430
  711SOL    HW2 3033   6.605   1.331   4.564
  712SOL     OW 3034   1.548   3.836   1.197
  712SOL    HW1 3035   1.522   3.869   1.287
  712SOL    HW2 3036   1.469   3.838   1.136
  713SOL     OW 3037   3.595   3.229   2.588
  713SOL    HW1 3038   3.614   3.214   2.685
  713SOL    HW2 3039   3.639   3.157   2.534
  714SOL     OW 3040   5.261   4.749   5.153
  714SOL    HW1 3041   5.239   4.843   5.129
  714SOL    HW2 3042   5.314   4.706   5.080
  715SOL     OW 3043   4.535   6.882   6.372
  715SOL    HW1 3044   4.562   6.949   6.303
  715SOL    HW2 3045   4.538   6.925   6.463
  716SOL     OW 3046   0.123   4.869   1.456
  716SOL    HW1 3047   0.086   4.787   1.501
  716SOL    HW2 3048   0.078   4.950   1.492
  717SOL     OW 3049   6.400   2.749   0.651
  717SOL    HW1 3050   6.335   2.806   0.602
  717SOL    HW2 3051   6.383   2.652   0.630
  718SOL     OW 3052   3.661   3.511   6.127
  718SOL    HW1 3053   3.647   3.590   6.187
  718SOL    HW2 3054   3.756   3.482   6.133
  719SOL     OW 3055   5.974   4.381   0.988
  719SOL    HW1 3056   5.885   4.401   1.029
  719SOL    HW2 3057   6.008   4.293   1.022
  720SOL     OW 3058   2.307   1.798   6.318
  720SOL    HW1 3059   2.303   1.713   6.264
  720SOL    HW2 3060   2.395   1.842   6.304
  721SOL     OW 3061   1.356   7.010   5.852
  721SOL    HW1 3062   1.446   0.007   5.812
  721SOL    HW2 3063   1.333   0.069   5.913
  722SOL     OW 3064   3.958   0.388   4.953
  722SOL    HW1 3065   4.039   0.392   4.894
  722SOL    HW2 3066   3.896   0.463   4.929
  723SOL     OW 3067   1.268   2.898   2.180
  723SOL    HW1 3068   1.185   2.954   2.181
  723SOL    HW2 3069   1.246   2.805   2.209
  724SOL     OW 3070   0.095   0.667   4.513
  724SOL    HW1 3071   0.125   0.736   4.579
  724SOL    HW2 3072   0.004   0.634   4.539
  725SOL     OW 3073   1.974   4.721   2.085
  725SOL    HW1 3074   1.918   4.639   2.079
  725SOL    HW2 3075   1.949   4.772   2.168
  726SOL     OW 3076   3.944   0.181   6.871
  726SOL    HW1 3077   4.043   0.170   6.880
  726SOL    HW2 3078   3.901   0.091   6.876
  727SOL     OW 3079   2.562   5.088   3.879
  727SOL    HW1 3080   2.644   5.122   3.924
  727SOL    HW2 3081   2.529   5.006   3.926
  728SOL     OW 3082   6.587   4.122   4.562
  728SOL    HW1 3083   6.674   4.156   4.596
  728SOL    HW2 3084   6.531   4.091   4.639
  729SOL     OW 3085   2.570   0.357   1.478
  729SOL    HW1 3086   2.629   0.381   1.401
  729SOL    HW2 3087   2.610   0.390   1.563
  730SOL     OW 3088   6.484   0.427   3.468
  730SOL    HW1 3089   6.421   0.411   3.544
  730SOL    HW2 3090   6.510   0.524   3.466
  731SOL     OW 3091   5.755   3.848   4.820
  731SOL    HW1 3092   5.842   3.866   4.776
  731SOL    HW2 3093   5.751   3.752   4.849
  732SOL     OW 3094   6.655   2.878   1.189
  732SOL    HW1 3095   6.590   2.935   1.240
  732SOL    HW2 3096   6.624   2.783   1.189
  733SOL     OW 3097   4.540   4.398   3.774
  733SOL    HW1 3098   4.557   4.403   3.676
  733SOL    HW2 3099   4.447   4.430   3.793
  734SOL     OW 3100   6.621   4.629   1.051
  734SOL    HW1 3101   6.577   4.542   1.071
  734SOL    HW2 3102   6.702   4.613   0.995
  735SOL     OW 3103   1.873   4.338   6.408
  735SOL    HW1 3104   1.893   4.435   6.422
  735SOL    HW2 3105   1.942   4.298   6.348
  736SOL     OW 3106   6.825   0.688   3.589
  736SOL    HW1 3107   6.875   0.752   3.649
  736SOL    HW2 3108   6.840   0.714   3.493
  737SOL     OW 3109   5.268   3.712   0.988
  737SOL    HW1 3110   5.177   3.753   0.976
  737SOL    HW2 3111   5.272   3.625   0.938
  738SOL     OW 3112   0.247   3.975   3.823
  738SOL    HW1 3113   0.298   3.906   3.876
  738SOL    HW2 3114   0.267   3.965   3.726
  739SOL     OW 3115   4.383   6.025   6.025
  739SOL    HW1 3116   4.403   6.068   5.937
  739SOL    HW2 3117   4.404   6.090   6.099
  740SOL     OW 3118   6.465   6.532   1.492
  740SOL    HW1 3119   6.542   6.596   1.484
  740SOL    HW2 3120   6.441   6.498   1.401
  741SOL     OW 3121   2.002   6.525   2.915
  741SOL    HW1 3122   2.032   6.493   2.825
  741SOL    HW2 3123   1.973   6.447   2.970
  742SOL     OW 3124   1.539   6.670   3.507
  742SOL    HW1 3125   1.498   6.730   3.439
  742SOL    HW2 3126   1.472   6.649   3.579
  743SOL     OW 3127   1.833   3.555   4.081
  743SOL    HW1 3128   1.813   3.484   4.147
  743SOL    HW2 3129   1.749   3.602   4.055
  744SOL     OW 3130   0.263   5.633   0.182
  744SOL    HW1 3131   0.359   5.607   0.198
  744SOL    HW2 3132   0.231   5.689   0.259
  745SOL     OW 3133   1.377   5.772   2.601
  745SOL    HW1 3134   1.476   5.783   2.588
  745SOL    HW2 3135   1.329   5.803   2.518
  746SOL     OW 3136   1.327   0.384   4.774
  746SOL    HW1 3137   1.337   0.341   4.865
  746SOL    HW2 3138   1.265   0.462   4.781
  747SOL     OW 3139   4.591   4.925   3.581
  747SOL    HW1 3140   4.584   4.835   3.537
  747SOL    HW2 3141   4.686   4.955   3.578
  748SOL     OW 3142   4.258   3.683   0.843
  748SOL    HW1 3143   4.165   3.710   0.819
  748SOL    HW2 3144   4.298   3.631   0.768
  749SOL     OW 3145   0.603   2.675   5.244
  749SOL    HW1 3146   0.534   2.683   5.317
  749SOL    HW2 3147   0.662   2.597   5.263
  750SOL     OW 3148   2.266   3.790   0.023
  750SOL    HW1 3149   2.311   3.810   6.954
  750SOL    HW2 3150   2.185   3.733   0.006
  751SOL     OW 3151   4.169   1.096   0.311
  751SOL    HW1 3152   4.101   1.082   0.239
  751SOL    HW2 3153   4.212   1.009   0.335
  752SOL     OW 3154   4.489   2.469   2.255
  752SOL    HW1 3155   4.496   2.504   2.161
  752SOL    HW2 3156   4.477   2.370   2.252
  753SOL     OW 3157   2.091   2.923   4.634
  753SOL    HW1 3158   2.066   2.854   4.566
  753SOL    HW2 3159   2.113   3.009   4.588
  754SOL     OW 3160   3.766   5.213   6.586
  754SOL    HW1 3161   3.698   5.153   6.543
  754SOL    HW2 3162   3.725   5.257   6.666
  755SOL     OW 3163   0.578   6.031   0.325
  755SOL    HW1 3164   0.528   6.111   0.291
  755SOL    HW2 3165   0.563   5.954   0.262
  756SOL     OW 3166   4.746   0.742   1.650
  756SOL    HW1 3167   4.773   0.669   1.712
  756SOL    HW2 3168   4.784   0.829   1.682
  757SOL     OW 3169   0.282   6.700   3.404
  757SOL    HW1 3170   0.211   6.634   3.430
  757SOL    HW2 3171   0.244   6.765   3.338
  758SOL     OW 3172   3.520   2.119   1.230
  758SOL    HW1 3173   3.546   2.162   1.317
  758SOL    HW2 3174   3.461   2.041   1.248
  759SOL     OW 3175   0.907   1.961   0.119
  759SOL    HW1 3176   0.984   2.024   0.128
  759SOL    HW2 3177   0.914   1.890   0.189
  760SOL     OW 3178   5.479   0.990   6.717
  760SOL    HW1 3179   5.540   0.962   6.791
  760SOL    HW2 3180   5.403   1.043   6.754
  761SOL     OW 3181   6.116   2.296   0.197
  761SOL    HW1 3182   6.204   2.281   0.153
  761SOL    HW2 3183   6.114   2.250   0.286
  762SOL     OW 3184   2.315   6.252   3.774
  762SOL    HW1 3185   2.408   6.289   3.776
  762SOL    HW2 3186   2.270   6.272   3.860
  763SOL     OW 3187   3.985   5.866   6.576
  763SOL    HW1 3188   3.960   5.954   6.615
  763SOL    HW2 3189   4.022   5.807   6.648
  764SOL     OW 3190   3.521   1.810   1.910
  764SOL    HW1 3191   3.443   1.844   1.962
  764SOL    HW2 3192   3.573   1.887   1.872
  765SOL     OW 3193   6.887   0.055   2.681
  765SOL    HW1 3194   6.962   0.099   2.730
  765SOL    HW2 3195   6.855   6.993   2.733
  766SOL     OW 3196   0.061   6.532   0.065
  766SOL    HW1 3197   7.006   6.469   0.089
  766SOL    HW2 3198   0.104   6.502   6.998
  767SOL     OW 3199   6.346   6.321   2.614
  767SOL    HW1 3200   6.256   6.353   2.645
  767SOL    HW2 3201   6.336   6.276   2.525
  768SOL     OW 3202   2.796   6.702   2.954
  768SOL    HW1 3203   2.776   6.629   3.019
  768SOL    HW2 3204   2.791   6.791   3.001
  769SOL     OW 3205   4.585   0.426   5.195
  769SOL    HW1 3206   4.536   0.344   5.167
  769SOL    HW2 3207   4.591   0.430   5.295
  770SOL     OW 3208   3.066   4.835   3.915
  770SOL    HW1 3209   3.161   4.848   3.944
  770SOL    HW2 3210   3.009   4.814   3.995
  771SOL     OW 3211   1.152   5.103   3.421
  771SOL    HW1 3212   1.129   5.196   3.390
  771SOL    HW2 3213   1.120   5.036   3.354
  772SOL     OW 3214   6.745   4.063   6.679
  772SOL    HW1 3215   6.646   4.080   6.684
  772SOL    HW2 3216   6.768   4.030   6.588
  773SOL     OW 3217   6.620   4.095   2.551
  773SOL    HW1 3218   6.587   4.007   2.518
  773SOL    HW2 3219   6.591   4.167   2.487
  774SOL     OW 3220   1.587   1.498   1.641
  774SOL    HW1 3221   1.591   1.412   1.590
  774SOL    HW2 3222   1.661   1.558   1.609
  775SOL     OW 3223   1.495   2.110   4.481
  775SOL    HW1 3224   1.436   2.094   4.560
  775SOL    HW2 3225   1.589   2.127   4.512
  776SOL     OW 3226   1.842   0.614   6.023
  776SOL    HW1 3227   1.809   0.704   5.993
  776SOL    HW2 3228   1.766   0.550   6.023
  777SOL     OW 3229   4.560   1.058   0.957
  777SOL    HW1 3230   4.593   0.997   1.028
  777SOL    HW2 3231   4.524   1.003   0.881
  778SOL     OW 3232   4.411   0.723   3.936
  778SOL    HW1 3233   4.440   0.629   3.916
  778SOL    HW2 3234   4.451   0.785   3.868
  779SOL     OW 3235   0.789   2.361   2.176
  779SOL    HW1 3236   0.720   2.369   2.104
  779SOL    HW2 3237   0.815   2.452   2.208
  780SOL     OW 3238   6.046   2.952   4.262
  780SOL    HW1 3239   6.113   2.947   4.188
  780SOL    HW2 3240   5.974   3.016   4.239
  781SOL     OW 3241   6.875   1.095   6.130
  781SOL    HW1 3242   6.952   1.057   6.180
  781SOL    HW2 3243   6.791   1.079   6.181
  782SOL     OW 3244   0.232   3.088   0.992
  782SOL    HW1 3245   0.194   3.104   1.082
  782SOL    HW2 3246   0.256   3.175   0.949
  783SOL     OW 3247   3.161   5.353   0.402
  783SOL    HW1 3248   3.198   5.446   0.411
  783SOL    HW2 3249   3.143   5.316   0.493
  784SOL     OW 3250   3.642   1.014   4.942
  784SOL    HW1 3251   3.696   1.082   4.992
  784SOL    HW2 3252   3.691   0.989   4.858
  785SOL     OW 3253   6.123   1.475   3.067
  785SOL    HW1 3254   6.155   1.382   3.085
  785SOL    HW2 3255   6.031   1.471   3.027
  786SOL     OW 3256   0.074   6.762   0.200
  786SOL    HW1 3257   0.067   6.668   0.167
  786SOL    HW2 3258   0.042   6.825   0.130
  787SOL     OW 3259   2.650   2.174   6.378
  787SOL    HW1 3260   2.685   2.081   6.391
  787SOL    HW2 3261   2.555   2.179   6.408
  788SOL     OW 3262   1.992   3.578   4.489
  788SOL    HW1 3263   2.052   3.554   4.566
  788SOL    HW2 3264   1.956   3.670   4.501
  789SOL     OW 3265   5.099   3.880   1.664
  789SOL    HW1 3266   5.040   3.954   1.631
  789SOL    HW2 3267   5.073   3.795   1.619
  790SOL     OW 3268   2.902   1.333   3.446
  790SOL    HW1 3269   2.938   1.278   3.371
  790SOL    HW2 3270   2.871   1.273   3.519
  791SOL     OW 3271   3.349   1.310   5.018
  791SOL    HW1 3272   3.255   1.291   4.993
  791SOL    HW2 3273   3.402   1.335   4.936
  792SOL     OW 3274   5.791   0.527   2.514
  792SOL    HW1 3275   5.763   0.448   2.459
  792SOL    HW2 3276   5.739   0.608   2.486
  793SOL     OW 3277   5.355   0.284   0.674
  793SOL    HW1 3278   5.325   0.227   0.598
  793SOL    HW2 3279   5.316   0.376   0.664
  794SOL     OW 3280   2.139   4.737   5.669
  794SOL    HW1 3281   2.221   4.776   5.711
  794SOL    HW2 3282   2.084   4.690   5.738
  795SOL     OW 3283   3.983   4.860   6.050
  795SOL    HW1 3284   4.005   4.775   6.098
  795SOL    HW2 3285   3.928   4.919   6.109
  796SOL     OW 3286   6.780   2.898   6.162
  796SOL    HW1 3287   6.707   2.963   6.140
  796SOL    HW2 3288   6.866   2.929   6.121
  797SOL     OW 3289   5.756   2.590   4.110
  797SOL    HW1 3290   5.739   2.532   4.031
  797SOL    HW2 3291   5.800   2.675   4.080
  798SOL     OW 3292   5.279   0.597   6.962
  798SOL    HW1 3293   5.259   0.504   6.990
  798SOL    HW2 3294   5.229   0.619   6.879
  799SOL     OW 3295   6.516   2.062   3.257
  799SOL    HW1 3296   6.559   2.019   3.336
  799SOL    HW2 3297   6.474   2.149   3.284
  800SOL     OW 3298   5.069   1.187   2.364
  800SOL    HW1 3299   5.018   1.234   2.292
  800SOL    HW2 3300   5.088   1.251   2.438
  801SOL     OW 3301   6.953   2.183   3.263
  801SOL    HW1 3302   7.016   2.176   3.340
  801SOL    HW2 3303   6.970   2.108   3.199
  802SOL     OW 3304   5.504   1.333   0.295
  802SOL    HW1 3305   5.417   1.316   0.341
  802SOL    HW2 3306   5.488   1.382   0.210
  803SOL     OW 3307   6.197   5.463   4.131
  803SOL    HW1 3308   6.116   5.420   4.092
  803SOL    HW2 3309   6.188   5.470   4.230
  804SOL     OW 3310   0.784   6.511   0.131
  804SOL    HW1 3311   0.694   6.549   0.108
  804SOL    HW2 3312   0.804   6.528   0.228
  805SOL     OW 3313   3.156   2.798   5.942
  805SOL    HW1 3314   3.225   2.772   6.009
  805SOL    HW2 3315   3.200   2.811   5.853
  806SOL     OW 3316   4.851   1.868   6.980
  806SOL    HW1 3317   4.779   1.799   6.992
  806SOL    HW2 3318   4.893   1.888   0.050
  807SOL     OW 3319   1.214   0.673   3.108
  807SOL    HW1 3320   1.172   0.624   3.031
  807SOL    HW2 3321   1.177   0.638   3.194
  808SOL     OW 3322   5.708   3.182   5.908
  808SOL    HW1 3323   5.713   3.188   5.809
  808SOL    HW2 3324   5.637   3.243   5.942
  809SOL     OW 3325   0.661   4.535   0.440
  809SOL    HW1 3326   0.605   4.584   0.507
  809SOL    HW2 3327   0.706   4.601   0.380
  810SOL     OW 3328   5.549   3.469   0.182
  810SOL    HW1 3329   5.476   3.518   0.135
  810SOL    HW2 3330   5.516   3.437   0.271
  811SOL     OW 3331   5.261   5.073   3.953
  811SOL    HW1 3332   5.264   5.104   4.048
  811SOL    HW2 3333   5.214   4.984   3.948
  812SOL     OW 3334   0.433   0.244   1.446
  812SOL    HW1 3335   0.439   0.184   1.526
  812SOL    HW2 3336   0.355   0.216   1.390
  813SOL     OW 3337   4.561   5.388   2.589
  813SOL    HW1 3338   4.644   5.394   2.534
  813SOL    HW2 3339   4.507   5.310   2.559
  814SOL     OW 3340   5.696   6.410   1.885
  814SOL    HW1 3341   5.597   6.395   1.888
  814SOL    HW2 3342   5.720   6.488   1.943
  815SOL     OW 3343   6.802   2.304   0.947
  815SOL    HW1 3344   6.755   2.392   0.947
  815SOL    HW2 3345   6.748   2.237   0.895
  816SOL     OW 3346   6.608   6.142   1.134
  816SOL    HW1 3347   6.559   6.143   1.222
  816SOL    HW2 3348   6.585   6.225   1.083
  817SOL     OW 3349   1.856   3.592   2.209
  817SOL    HW1 3350   1.810   3.558   2.127
  817SOL    HW2 3351   1.950   3.558   2.211
  818SOL     OW 3352   6.235   1.732   0.913
  818SOL    HW1 3353   6.242   1.760   0.817
  818SOL    HW2 3354   6.321   1.750   0.959
  819SOL     OW 3355   6.908   2.278   2.858
  819SOL    HW1 3356   6.923   2.317   2.949
  819SOL    HW2 3357   6.850   2.339   2.805
  820SOL     OW 3358   0.591   2.514   4.373
  820SOL    HW1 3359   0.550   2.594   4.415
  820SOL    HW2 3360   0.649   2.467   4.440
  821SOL     OW 3361   1.280   4.058   0.158
  821SOL    HW1 3362   1.272   4.028   0.063
  821SOL    HW2 3363   1.227   3.996   0.217
  822SOL     OW 3364   0.936   4.131   4.463
  822SOL    HW1 3365   0.858   4.108   4.404
  822SOL    HW2 3366   0.976   4.048   4.500
  823SOL     OW 3367   4.498   4.003   6.714
  823SOL    HW1 3368   4.514   3.907   6.688
  823SOL    HW2 3369   4.458   4.052   6.637
  824SOL     OW 3370   5.020   2.746   5.559
  824SOL    HW1 3371   5.112   2.766   5.593
  824SOL    HW2 3372   5.014   2.651   5.531
  825SOL     OW 3373   2.137   3.312   2.552
  825SOL    HW1 3374   2.154   3.219   2.520
  825SOL    HW2 3375   2.128   3.311   2.652
  826SOL     OW 3376   6.183   3.129   6.557
  826SOL    HW1 3377   6.171   3.183   6.640
  826SOL    HW2 3378   6.155   3.035   6.574
  827SOL     OW 3379   3.660   5.758   0.168
  827SOL    HW1 3380   3.611   5.677   0.137
  827SOL    HW2 3381   3.737   5.776   0.106
  828SOL     OW 3382   5.779   0.992   5.198
  828SOL    HW1 3383   5.690   0.950   5.182
  828SOL    HW2 3384   5.820   0.954   5.281
  829SOL     OW 3385   3.033   3.173   4.459
  829SOL    HW1 3386   3.044   3.162   4.557
  829SOL    HW2 3387   2.938   3.197   4.437
  830SOL     OW 3388   4.726   3.988   5.173
  830SOL    HW1 3389   4.637   3.970   5.215
  830SOL    HW2 3390   4.758   4.078   5.201
  831SOL     OW 3391   6.274   0.723   5.391
  831SOL    HW1 3392   6.247   0.801   5.336
  831SOL    HW2 3393   6.357   0.745   5.442
  832SOL     OW 3394   2.096   2.370   6.858
  832SOL    HW1 3395   2.050   2.326   6.936
  832SOL    HW2 3396   2.182   2.411   6.889
  833SOL     OW 3397   6.132   6.772   6.726
  833SOL    HW1 3398   6.230   6.789   6.717
  833SOL    HW2 3399   6.082   6.839   6.670
  834SOL     OW 3400   3.005   3.918   4.244
  834SOL    HW1 3401   3.024   3.946   4.338
  834SOL    HW2 3402   3.043   3.985   4.180
  835SOL     OW 3403   3.248   6.646   4.084
  835SOL    HW1 3404   3.176   6.656   4.153
  835SOL    HW2 3405   3.208   6.650   3.993
  836SOL     OW 3406   3.410   0.652   0.178
  836SOL    HW1 3407   3.486   0.643   0.242
  836SOL    HW2 3408   3.346   0.576   0.191
  837SOL     OW 3409   4.661   0.535   5.811
  837SOL    HW1 3410   4.594   0.589   5.759
  837SOL    HW2 3411   4.752   0.548   5.772
  838SOL     OW 3412   2.237   5.705   4.380
  838SOL    HW1 3413   2.148   5.708   4.425
  838SOL    HW2 3414   2.228   5.738   4.286
  839SOL     OW 3415   2.942   1.611   3.388
  839SOL    HW1 3416   2.903   1.520   3.404
  839SOL    HW2 3417   2.869   1.677   3.376
  840SOL     OW 3418   1.297   1.212   6.962
  840SOL    HW1 3419   1.363   1.204   6.887
  840SOL    HW2 3420   1.206   1.188   6.929
  841SOL     OW 3421   0.016   3.518   0.033
  841SOL    HW1 3422   0.028   3.615   0.052
  841SOL    HW2 3423   0.104   3.471   0.043
  842SOL     OW 3424   3.726   4.872   3.254
  842SOL    HW1 3425   3.813   4.916   3.276
  842SOL    HW2 3426   3.733   4.774   3.271
  843SOL     OW 3427   6.322   2.283   1.878
  843SOL    HW1 3428   6.399   2.309   1.937
  843SOL    HW2 3429   6.250   2.241   1.934
  844SOL     OW 3430   4.878   5.928   0.553
  844SOL    HW1 3431   4.931   5.998   0.602
  844SOL    HW2 3432   4.786   5.924   0.591
  845SOL     OW 3433   6.957   4.363   4.319
  845SOL    HW1 3434   6.945   4.265   4.309
  845SOL    HW2 3435   0.025   4.382   4.365
  846SOL     OW 3436   6.210   1.641   6.769
  846SOL    HW1 3437   6.124   1.592   6.754
  846SOL    HW2 3438   6.254   1.604   6.851
  847SOL     OW 3439   5.305   3.484   1.577
  847SOL    HW1 3440   5.256   3.446   1.655
  847SOL    HW2 3441   5.328   3.579   1.595
  848SOL     OW 3442   6.123   0.222   6.049
  848SOL    HW1 3443   6.024   0.212   6.059
  848SOL    HW2 3444   6.159   0.274   6.127
  849SOL     OW 3445   0.350   5.202   4.786
  849SOL    HW1 3446   0.411   5.159   4.719
  849SOL    HW2 3447   0.265   5.229   4.742
  850SOL     OW 3448   4.324   1.015   2.933
  850SOL    HW1 3449   4.382   1.074   2.877
  850SOL    HW2 3450   4.335   0.920   2.904
  851SOL     OW 3451   0.964   0.986   6.707
  851SOL    HW1 3452   1.014   0.900   6.719
  851SOL    HW2 3453   1.020   1.061   6.741
  852SOL     OW 3454   2.277   3.411   6.711
  852SOL    HW1 3455   2.354   3.384   6.653
  852SOL    HW2 3456   2.306   3.410   6.806
  853SOL     OW 3457   0.989   3.140   1.651
  853SOL    HW1 3458   0.959   3.232   1.676
  853SOL    HW2 3459   0.958   3.119   1.558
  854SOL     OW 3460   5.324   5.406   2.779
  854SOL    HW1 3461   5.314   5.365   2.870
  854SOL    HW2 3462   5.420   5.433   2.766
  855SOL     OW 3463   5.408   0.200   1.560
  855SOL    HW1 3464   5.450   0.239   1.478
  855SOL    HW2 3465   5.435   0.104   1.568
  856SOL     OW 3466   2.021   6.306   5.006
  856SOL    HW1 3467   1.997   6.370   4.933
  856SOL    HW2 3468   1.944   6.245   5.024
  857SOL     OW 3469   6.006   3.644   1.380
  857SOL    HW1 3470   6.039   3.735   1.356
  857SOL    HW2 3471   5.912   3.632   1.351
  858SOL     OW 3472   3.260   5.049   1.135
  858SOL    HW1 3473   3.207   5.133   1.134
  858SOL    HW2 3474   3.202   4.974   1.168
  859SOL     OW 3475   6.688   4.957   6.975
  859SOL    HW1 3476   6.745   5.039   6.984
  859SOL    HW2 3477   6.652   4.932   0.047
  860SOL     OW 3478   2.682   4.692   1.069
  860SOL    HW1 3479   2.593   4.649   1.052
  860SOL    HW2 3480   2.743   4.626   1.112
  861SOL     OW 3481   3.347   6.031   5.449
  861SOL    HW1 3482   3.274   6.045   5.515
  861SOL    HW2 3483   3.428   5.996   5.497
  862SOL     OW 3484   4.856   4.343   4.464
  862SOL    HW1 3485   4.925   4.306   4.526
  862SOL    HW2 3486   4.818   4.269   4.409
  863SOL     OW 3487   6.773   0.813   0.964
  863SOL    HW1 3488   6.782   0.719   0.995
  863SOL    HW2 3489   6.680   0.827   0.927
  864SOL     OW 3490   6.340   4.369   2.471
  864SOL    HW1 3491   6.419   4.421   2.438
  864SOL    HW2 3492   6.273   4.432   2.511
  865SOL     OW 3493   1.919   6.795   4.057
  865SOL    HW1 3494   1.960   6.884   4.078
  865SOL    HW2 3495   1.903   6.788   3.958
  866SOL     OW 3496   3.306   1.833   2.074
  866SOL    HW1 3497   3.274   1.759   2.135
  866SOL    HW2 3498   3.229   1.867   2.021
  867SOL     OW 3499   2.591   3.050   6.683
  867SOL    HW1 3500   2.689   3.065   6.695
  867SOL    HW2 3501   2.565   2.964   6.728
  868SOL     OW 3502   5.518   1.509   3.241
  868SOL    HW1 3503   5.542   1.412   3.246
  868SOL    HW2 3504   5.582   1.556   3.180
  869SOL     OW 3505   6.159   6.081   2.073
  869SOL    HW1 3506   6.154   6.033   2.161
  869SOL    HW2 3507   6.071   6.126   2.055
  870SOL     OW 3508   6.419   1.541   1.113
  870SOL    HW1 3509   6.490   1.520   1.181
  870SOL    HW2 3510   6.417   1.640   1.097
  871SOL     OW 3511   6.027   2.337   1.230
  871SOL    HW1 3512   5.943   2.393   1.224
  871SOL    HW2 3513   6.089   2.363   1.156
  872SOL     OW 3514   6.218   2.279   3.624
  872SOL    HW1 3515   6.276   2.203   3.652
  872SOL    HW2 3516   6.261   2.365   3.653
  873SOL     OW 3517   3.425   6.434   4.502
  873SOL    HW1 3518   3.345   6.490   4.523
  873SOL    HW2 3519   3.437   6.365   4.573
  874SOL     OW 3520   1.307   3.700   5.212
  874SOL    HW1 3521   1.337   3.711   5.306
  874SOL    HW2 3522   1.268   3.608   5.199
  875SOL     OW 3523   5.810   3.676   0.596
  875SOL    HW1 3524   5.710   3.687   0.596
  875SOL    HW2 3525   5.842   3.668   0.502
  876SOL     OW 3526   6.991   3.473   1.727
  876SOL    HW1 3527   0.000   3.462   1.823
  876SOL    HW2 3528   7.005   3.387   1.678
  877SOL     OW 3529   5.021   5.704   0.133
  877SOL    HW1 3530   4.931   5.679   0.098
  877SOL    HW2 3531   5.051   5.789   0.091
  878SOL     OW 3532   3.106   5.032   0.578
  878SOL    HW1 3533   3.202   5.037   0.603
  878SOL    HW2 3534   3.057   5.110   0.617
  879SOL     OW 3535   4.306   2.348   2.938
  879SOL    HW1 3536   4.364   2.395   2.872
  879SOL    HW2 3537   4.234   2.297   2.890
  880SOL     OW 3538   3.708   5.556   0.442
  880SOL    HW1 3539   3.699   5.471   0.390
  880SOL    HW2 3540   3.673   5.632   0.387
  881SOL     OW 3541   3.789   5.141   4.661
  881SOL    HW1 3542   3.877   5.094   4.672
  881SOL    HW2 3543   3.717   5.086   4.703
  882SOL     OW 3544   1.092   0.696   4.035
  882SOL    HW1 3545   1.062   0.763   3.967
  882SOL    HW2 3546   1.027   0.619   4.037
  883SOL     OW 3547   3.213   5.466   5.797
  883SOL    HW1 3548   3.240   5.380   5.753
  883SOL    HW2 3549   3.235   5.542   5.735
  884SOL     OW 3550   5.168   3.391   1.789
  884SOL    HW1 3551   5.239   3.370   1.856
  884SOL    HW2 3552   5.078   3.380   1.831
  885SOL     OW 3553   5.697   6.479   0.593
  885SOL    HW1 3554   5.639   6.427   0.530
  885SOL    HW2 3555   5.642   6.551   0.637
  886SOL     OW 3556   4.316   1.844   6.325
  886SOL    HW1 3557   4.332   1.918   6.259
  886SOL    HW2 3558   4.403   1.799   6.345
  887SOL     OW 3559   3.756   6.818   5.913
  887SOL    HW1 3560   3.720   6.884   5.979
  887SOL    HW2 3561   3.765   6.729   5.957
  888SOL     OW 3562   6.556   5.855   3.125
  888SOL    HW1 3563   6.581   5.798   3.204
  888SOL    HW2 3564   6.517   5.941   3.157
  889SOL     OW 3565   0.460   6.507   4.943
  889SOL    HW1 3566   0.472   6.438   4.870
  889SOL    HW2 3567   0.476   6.464   5.032
  890SOL     OW 3568   2.732   4.709   2.143
  890SOL    HW1 3569   2.658   4.643   2.126
  890SOL    HW2 3570   2.802   4.699   2.072
  891SOL     OW 3571   5.408   3.257   6.853
  891SOL    HW1 3572   5.322   3.299   6.880
  891SOL    HW2 3573   5.403   3.158   6.866
  892SOL     OW 3574   2.886   5.078   0.906
  892SOL    HW1 3575   2.859   4.982   0.892
  892SOL    HW2 3576   2.807   5.130   0.937
  893SOL     OW 3577   1.088   0.118   0.093
  893SOL    HW1 3578   1.029   0.040   0.072
  893SOL    HW2 3579   1.183   0.087   0.095
  894SOL     OW 3580   1.072   5.731   3.998
  894SOL    HW1 3581   1.015   5.670   3.943
  894SOL    HW2 3582   1.066   5.705   4.094
  895SOL     OW 3583   2.484   6.524   4.805
  895SOL    HW1 3584   2.397   6.477   4.821
  895SOL    HW2 3585   2.480   6.574   4.719
  896SOL     OW 3586   5.759   6.857   2.485
  896SOL    HW1 3587   5.680   6.880   2.428
  896SOL    HW2 3588   5.768   6.924   2.558
  897SOL     OW 3589   5.310   1.777   6.420
  897SOL    HW1 3590   5.317   1.785   6.519
  897SOL    HW2 3591   5.248   1.848   6.385
  898SOL     OW 3592   5.732   6.347   3.235
  898SOL    HW1 3593   5.799   6.320   3.165
  898SOL    HW2 3594   5.640   6.322   3.205
  899SOL     OW 3595   0.404   4.635   5.567
  899SOL    HW1 3596   0.480   4.700   5.565
  899SOL    HW2 3597   0.319   4.684   5.585
  900SOL     OW 3598   0.891   5.695   3.251
  900SOL    HW1 3599   0.892   5.793   3.230
  900SOL    HW2 3600   0.803   5.670   3.290
  901SOL     OW 3601   6.067   1.345   4.147
  901SOL    HW1 3602   6.104   1.296   4.068
  901SOL    HW2 3603   5.968   1.352   4.138
  902SOL     OW 3604   6.966   6.212   0.294
  902SOL    HW1 3605   6.994   6.217   0.390
  902SOL    HW2 3606   6.887   6.151   0.287
  903SOL     OW 3607   1.404   5.147   0.584
  903SOL    HW1 3608   1.474   5.075   0.592
  903SOL    HW2 3609   1.353   5.153   0.670
  904SOL     OW 3610   1.585   1.854   3.661
  904SOL    HW1 3611   1.521   1.784   3.694
  904SOL    HW2 3612   1.671   1.811   3.633
  905SOL     OW 3613   5.974   2.433   5.295
  905SOL    HW1 3614   6.056   2.485   5.320
  905SOL    HW2 3615   5.995   2.335   5.295
  906SOL     OW 3616   6.386   3.298   5.954
  906SOL    HW1 3617   6.312   3.292   6.022
  906SOL    HW2 3618   6.474   3.297   6.002
  907SOL     OW 3619   6.163   2.216   2.754
  907SOL    HW1 3620   6.186   2.294   2.696
  907SOL    HW2 3621   6.182   2.131   2.705
  908SOL     OW 3622   1.877   1.188   4.128
  908SOL    HW1 3623   1.785   1.221   4.107
  908SOL    HW2 3624   1.880   1.088   4.120
  909SOL     OW 3625   3.456   1.521   1.980
  909SOL    HW1 3626   3.490   1.462   1.906
  909SOL    HW2 3627   3.485   1.615   1.964
  910SOL     OW 3628   2.154   2.126   0.597
  910SOL    HW1 3629   2.179   2.206   0.653
  910SOL    HW2 3630   2.236   2.090   0.553
  911SOL     OW 3631   0.324   4.513   1.017
  911SOL    HW1 3632   0.352   4.517   1.112
  911SOL    HW2 3633   0.245   4.573   1.003
  912SOL     OW 3634   0.871   6.709   5.878
  912SOL    HW1 3635   0.918   6.781   5.827
  912SOL    HW2 3636   0.928   6.678   5.953
  913SOL     OW 3637   3.014   0.882   2.289
  913SOL    HW1 3638   2.975   0.951   2.228
  913SOL    HW2 3639   3.028   0.797   2.239
  914SOL     OW 3640   3.086   6.296   3.004
  914SOL    HW1 3641   3.060   6.382   2.960
  914SOL    HW2 3642   3.162   6.254   2.953
  915SOL     OW 3643   0.476   2.849   0.576
  915SOL    HW1 3644   0.392   2.903   0.580
  915SOL    HW2 3645   0.465   2.766   0.631
  916SOL     OW 3646   2.164   3.005   2.713
  916SOL    HW1 3647   2.199   2.922   2.756
  916SOL    HW2 3648   2.223   3.030   2.636
  917SOL     OW 3649   4.017   1.878   0.179
  917SOL    HW1 3650   3.976   1.930   0.254
  917SOL    HW2 3651   3.945   1.844   0.119
  918SOL     OW 3652   1.829   0.356   6.318
  918SOL    HW1 3653   1.766   0.362   6.241
  918SOL    HW2 3654   1.817   0.268   6.364
  919SOL     OW 3655   3.000   5.978   2.508
  919SOL    HW1 3656   2.927   5.909   2.506
  919SOL    HW2 3657   2.974   6.053   2.569
  920SOL     OW 3658   2.227   0.819   3.876
  920SOL    HW1 3659   2.216   0.881   3.798
  920SOL    HW2 3660   2.198   0.864   3.960
  921SOL     OW 3661   5.759   5.256   4.870
  921SOL    HW1 3662   5.806   5.344   4.869
  921SOL    HW2 3663   5.813   5.189   4.820
  922SOL     OW 3664   2.809   3.522   6.510
  922SOL    HW1 3665   2.755   3.567   6.581
  922SOL    HW2 3666   2.902   3.506   6.544
  923SOL     OW 3667   3.783   0.422   6.920
  923SOL    HW1 3668   3.692   0.404   6.883
  923SOL    HW2 3669   3.841   0.341   6.908
  924SOL     OW 3670   5.747   3.119   3.402
  924SOL    HW1 3671   5.678   3.183   3.437
  924SOL    HW2 3672   5.726   3.095   3.307
  925SOL     OW 3673   6.968   1.744   3.556
  925SOL    HW1 3674   6.938   1.806   3.629
  925SOL    HW2 3675   0.034   1.697   3.584
  926SOL     OW 3676   5.254   6.231   0.768
  926SOL    HW1 3677   5.182   6.229   0.838
  926SOL    HW2 3678   5.322   6.300   0.791
  927SOL     OW 3679   3.751   5.006   5.041
  927SOL    HW1 3680   3.658   4.984   5.013
  927SOL    HW2 3681   3.762   4.987   5.139
  928SOL     OW 3682   1.613   1.694   1.238
  928SOL    HW1 3683   1.519   1.671   1.213
  928SOL    HW2 3684   1.614   1.739   1.327
  929SOL     OW 3685   0.477   2.095   2.240
  929SOL    HW1 3686   0.444   2.031   2.308
  929SOL    HW2 3687   0.450   2.188   2.265
  930SOL     OW 3688   5.369   5.563   4.388
  930SOL    HW1 3689   5.339   5.530   4.477
  930SOL    HW2 3690   5.291   5.600   4.338
  931SOL     OW 3691   1.836   2.812   2.608
  931SOL    HW1 3692   1.907   2.867   2.563
  931SOL    HW2 3693   1.870   2.781   2.696
  932SOL     OW 3694   4.613   6.670   0.942
  932SOL    HW1 3695   4.652   6.762   0.935
  932SOL    HW2 3696   4.574   6.643   0.853
  933SOL     OW 3697   1.963   6.003   2.941
  933SOL    HW1 3698   1.956   5.905   2.924
  933SOL    HW2 3699   1.999   6.019   3.033
  934SOL     OW 3700   2.885   1.003   5.344
  934SOL    HW1 3701   2.906   1.069   5.417
  934SOL    HW2 3702   2.883   0.911   5.383
  935SOL     OW 3703   3.715   3.415   6.570
  935SOL    HW1 3704   3.689   3.325   6.532
  935SOL    HW2 3705   3.708   3.412   6.669
  936SOL     OW 3706   1.214   1.642   1.374
  936SOL    HW1 3707   1.245   1.584   1.298
  936SOL    HW2 3708   1.293   1.690   1.413
  937SOL     OW 3709   4.934   2.159   4.674
  937SOL    HW1 3710   4.914   2.143   4.577
  937SOL    HW2 3711   4.910   2.077   4.726
  938SOL     OW 3712   0.355   2.737   6.968
  938SOL    HW1 3713   0.451   2.752   6.991
  938SOL    HW2 3714   0.324   2.650   7.008
  939SOL     OW 3715   6.024   0.932   5.639
  939SOL    HW1 3716   6.055   0.871   5.711
  939SOL    HW2 3717   5.933   0.967   5.662
  940SOL     OW 3718   6.637   1.122   4.277
  940SOL    HW1 3719   6.556   1.097   4.224
  940SOL    HW2 3720   6.619   1.208   4.326
  941SOL     OW 3721   5.548   2.686   4.469
  941SOL    HW1 3722   5.497   2.639   4.397
  941SOL    HW2 3723   5.640   2.646   4.476
  942SOL     OW 3724   5.702   6.544   5.258
  942SOL    HW1 3725   5.740   6.596   5.182
  942SOL    HW2 3726   5.763   6.551   5.337
  943SOL     OW 3727   5.546   2.303   1.229
  943SOL    HW1 3728   5.487   2.376   1.193
  943SOL    HW2 3729   5.522   2.284   1.324
  944SOL     OW 3730   5.477   4.628   4.230
  944SOL    HW1 3731   5.392   4.588   4.263
  944SOL    HW2 3732   5.501   4.706   4.288
  945SOL     OW 3733   5.287   4.291   4.714
  945SOL    HW1 3734   5.299   4.382   4.675
  945SOL    HW2 3735   5.290   4.223   4.641
  946SOL     OW 3736   5.741   2.451   5.427
  946SOL    HW1 3737   5.835   2.475   5.405
  946SOL    HW2 3738   5.681   2.481   5.353
  947SOL     OW 3739   1.957   2.564   6.077
  947SOL    HW1 3740   1.983   2.550   6.173
  947SOL    HW2 3741   1.993   2.652   6.045
  948SOL     OW 3742   3.679   2.321   0.350
  948SOL    HW1 3743   3.596   2.375   0.341
  948SOL    HW2 3744   3.737   2.359   0.423
  949SOL     OW 3745   5.923   5.893   6.246
  949SOL    HW1 3746   5.963   5.804   6.222
  949SOL    HW2 3747   5.842   5.909   6.189
  950SOL     OW 3748   4.211   4.945   1.419
  950SOL    HW1 3749   4.210   4.924   1.517
  950SOL    HW2 3750   4.306   4.951   1.387
  951SOL     OW 3751   0.514   1.666   2.856
  951SOL    HW1 3752   0.488   1.591   2.917
  951SOL    HW2 3753   0.442   1.680   2.788
  952SOL     OW 3754   5.039   1.983   2.590
  952SOL    HW1 3755   4.956   1.933   2.614
  952SOL    HW2 3756   5.103   1.982   2.667
  953SOL     OW 3757   4.489   6.838   6.836
  953SOL    HW1 3758   4.579   6.798   6.847
  953SOL    HW2 3759   4.491   6.905   6.762
  954SOL     OW 3760   6.554   6.417   0.615
  954SOL    HW1 3761   6.586   6.416   0.709
  954SOL    HW2 3762   6.486   6.345   0.602
  955SOL     OW 3763   0.399   6.757   2.840
  955SOL    HW1 3764   0.369   6.662   2.836
  955SOL    HW2 3765   0.407   6.794   2.747
  956SOL     OW 3766   1.258   2.727   1.224
  956SOL    HW1 3767   1.231   2.739   1.319
  956SOL    HW2 3768   1.357   2.717   1.218
  957SOL     OW 3769   2.234   5.917   4.713
  957SOL    HW1 3770   2.259   6.011   4.688
  957SOL    HW2 3771   2.147   5.918   4.764
  958SOL     OW 3772   4.741   2.703   1.179
  958SOL    HW1 3773   4.707   2.730   1.269
  958SOL    HW2 3774   4.665   2.699   1.115
  959SOL     OW 3775   1.784   4.563   2.731
  959SOL    HW1 3776   1.744   4.507   2.803
  959SOL    HW2 3777   1.882   4.545   2.724
  960SOL     OW 3778   1.528   5.199   4.454
  960SOL    HW1 3779   1.485   5.159   4.373
  960SOL    HW2 3780   1.460   5.210   4.526
  961SOL     OW 3781   3.751   0.527   1.919
  961SOL    HW1 3782   3.659   0.516   1.954
  961SOL    HW2 3783   3.786   0.617   1.944
  962SOL     OW 3784   1.612   0.848   3.988
  962SOL    HW1 3785   1.569   0.924   3.940
  962SOL    HW2 3786   1.543   0.797   4.040
  963SOL     OW 3787   7.014   0.200   0.854
  963SOL    HW1 3788   0.026   0.295   0.866
  963SOL    HW2 3789   0.069   0.147   0.811
  964SOL     OW 3790   5.394   3.397   1.970
  964SOL    HW1 3791   5.440   3.465   1.913
  964SOL    HW2 3792   5.458   3.361   2.038
  965SOL     OW 3793   0.665   2.035   0.485
  965SOL    HW1 3794   0.576   2.044   0.530
  965SOL    HW2 3795   0.655   2.050   0.387
  966SOL     OW 3796   6.621   2.487   2.993
  966SOL    HW1 3797   6.533   2.469   3.037
  966SOL    HW2 3798   6.613   2.470   2.895
  967SOL     OW 3799   1.565   6.157   1.770
  967SOL    HW1 3800   1.582   6.155   1.869
  967SOL    HW2 3801   1.650   6.180   1.723
  968SOL     OW 3802   5.208   3.163   2.619
  968SOL    HW1 3803   5.129   3.215   2.586
  968SOL    HW2 3804   5.262   3.132   2.541
  969SOL     OW 3805   4.614   5.924   6.102
  969SOL    HW1 3806   4.598   5.918   6.201
  969SOL    HW2 3807   4.529   5.950   6.056
  970SOL     OW 3808   4.399   2.700   5.234
  970SOL    HW1 3809   4.477   2.722   5.175
  970SOL    HW2 3810   4.354   2.617   5.200
  971SOL     OW 3811   6.655   1.648   1.677
  971SOL    HW1 3812   6.615   1.737   1.696
  971SOL    HW2 3813   6.583   1.579   1.670
  972SOL     OW 3814   6.091   5.559   1.041
  972SOL    HW1 3815   6.152   5.633   1.012
  972SOL    HW2 3816   6.017   5.548   0.975
  973SOL     OW 3817   5.762   4.104   5.799
  973SOL    HW1 3818   5.759   4.117   5.898
  973SOL    HW2 3819   5.729   4.186   5.753
  974SOL     OW 3820   2.513   1.052   3.880
  974SOL    HW1 3821   2.480   1.023   3.790
  974SOL    HW2 3822   2.604   1.013   3.896
  975SOL     OW 3823   3.104   6.608   5.222
  975SOL    HW1 3824   3.016   6.581   5.261
  975SOL    HW2 3825   3.101   6.598   5.123
  976SOL     OW 3826   0.218   4.574   3.690
  976SOL    HW1 3827   0.177   4.658   3.654
  976SOL    HW2 3828   0.221   4.505   3.618
  977SOL     OW 3829   2.182   0.935   3.637
  977SOL    HW1 3830   2.139   0.998   3.573
  977SOL    HW2 3831   2.169   0.841   3.605
  978SOL     OW 3832   5.417   3.408   4.653
  978SOL    HW1 3833   5.322   3.420   4.625
  978SOL    HW2 3834   5.478   3.442   4.582
  979SOL     OW 3835   6.283   0.719   3.160
  979SOL    HW1 3836   6.321   0.626   3.155
  979SOL    HW2 3837   6.356   0.784   3.178
  980SOL     OW 3838   5.959   1.708   4.639
  980SOL    HW1 3839   6.004   1.638   4.584
  980SOL    HW2 3840   5.861   1.707   4.621
  981SOL     OW 3841   0.180   1.935   4.828
  981SOL    HW1 3842   0.155   1.943   4.732
  981SOL    HW2 3843   0.145   2.014   4.879
  982SOL     OW 3844   1.417   3.197   1.713
  982SOL    HW1 3845   1.369   3.136   1.650
  982SOL    HW2 3846   1.508   3.217   1.677
  983SOL     OW 3847   6.108   2.203   3.040
  983SOL    HW1 3848   6.152   2.116   3.061
  983SOL    HW2 3849   6.109   2.218   2.941
  984SOL     OW 3850   4.353   2.045   4.533
  984SOL    HW1 3851   4.397   2.061   4.445
  984SOL    HW2 3852   4.292   2.122   4.555
  985SOL     OW 3853   3.595   5.650   0.655
  985SOL    HW1 3854   3.657   5.674   0.730
  985SOL    HW2 3855   3.645   5.594   0.588
  986SOL     OW 3856   4.522   4.837   6.205
  986SOL    HW1 3857   4.549   4.920   6.157
  986SOL    HW2 3858   4.592   4.813   6.273
  987SOL     OW 3859   4.198   6.806   2.288
  987SOL    HW1 3860   4.176   6.893   2.244
  987SOL    HW2 3861   4.266   6.757   2.233
  988SOL     OW 3862   3.672   3.840   1.658
  988SOL    HW1 3863   3.674   3.757   1.714
  988SOL    HW2 3864   3.763   3.857   1.619
  989SOL     OW 3865   0.591   0.219   5.512
  989SOL    HW1 3866   0.513   0.281   5.506
  989SOL    HW2 3867   0.561   0.125   5.498
  990SOL     OW 3868   4.637   0.229   4.007
  990SOL    HW1 3869   4.685   0.258   4.090
  990SOL    HW2 3870   4.601   0.136   4.021
  991SOL     OW 3871   6.864   1.238   5.122
  991SOL    HW1 3872   6.882   1.305   5.051
  991SOL    HW2 3873   6.800   1.276   5.189
  992SOL     OW 3874   0.520   3.809   0.142
  992SOL    HW1 3875   0.491   3.820   0.237
  992SOL    HW2 3876   0.528   3.712   0.120
  993SOL     OW 3877   3.026   4.949   3.435
  993SOL    HW1 3878   3.009   4.938   3.533
  993SOL    HW2 3879   2.946   4.916   3.384
  994SOL     OW 3880   2.900   3.629   3.039
  994SOL    HW1 3881   2.968   3.566   3.002
  994SOL    HW2 3882   2.820   3.578   3.069
  995SOL     OW 3883   2.237   1.846   5.037
  995SOL    HW1 3884   2.203   1.933   5.073
  995SOL    HW2 3885   2.160   1.790   5.007
  996SOL     OW 3886   2.146   4.024   2.312
  996SOL    HW1 3887   2.194   3.956   2.256
  996SOL    HW2 3888   2.086   3.977   2.376
  997SOL     OW 3889   0.416   1.140   1.635
  997SOL    HW1 3890   0.501   1.125   1.585
  997SOL    HW2 3891   0.358   1.060   1.629
  998SOL     OW 3892   4.403   6.747   2.137
  998SOL    HW1 3893   4.434   6.826   2.084
  998SOL    HW2 3894   4.467   6.671   2.124
  999SOL     OW 3895   6.843   5.462   1.619
  999SOL    HW1 3896   6.789   5.415   1.549
  999SOL    HW2 3897   6.933   5.486   1.582
 1000SOL     OW 3898   3.360   2.059   4.172
 1000SOL    HW1 3899   3.409   2.108   4.101
 1000SOL    HW2 3900   3.398   1.967   4.182
 1001SOL     OW 3901   4.936   0.241   5.383
 1001SOL    HW1 3902   4.971   0.199   5.467
 1001SOL    HW2 3903   4.937   0.340   5.394
 1002SOL     OW 3904   6.283   0.911   0.546
 1002SOL    HW1 3905   6.374   0.951   0.533
 1002SOL    HW2 3906   6.221   0.948   0.477
 1003SOL     OW 3907   3.827   5.895   2.860
 1003SOL    HW1 3908   3.862   5.809   2.896
 1003SOL    HW2 3909   3.863   5.910   2.768
 1004SOL     OW 3910   6.676   6.818   0.441
 1004SOL    HW1 3911   6.612   6.894   0.439
 1004SOL    HW2 3912   6.643   6.745   0.381
 1005SOL     OW 3913   0.672   6.852   2.957
 1005SOL    HW1 3914   0.582   6.821   2.928
 1005SOL    HW2 3915   0.666   6.892   3.049
 1006SOL     OW 3916   2.605   5.172   1.095
 1006SOL    HW1 3917   2.637   5.102   1.159
 1006SOL    HW2 3918   2.507   5.186   1.108
 1007SOL     OW 3919   0.076   1.363   3.582
 1007SOL    HW1 3920   0.078   1.439   3.647
 1007SOL    HW2 3921   0.165   1.355   3.537
 1008SOL     OW 3922   1.847   3.360   3.792
 1008SOL    HW1 3923   1.918   3.360   3.862
 1008SOL    HW2 3924   1.888   3.339   3.703
 1009SOL     OW 3925   0.949   6.266   5.008
 1009SOL    HW1 3926   0.861   6.251   4.963
 1009SOL    HW2 3927   0.934   6.302   5.100
 1010SOL     OW 3928   4.677   2.597   0.413
 1010SOL    HW1 3929   4.667   2.686   0.459
 1010SOL    HW2 3930   4.745   2.605   0.340
 1011SOL     OW 3931   2.578   5.995   3.536
 1011SOL    HW1 3932   2.661   6.026   3.490
 1011SOL    HW2 3933   2.498   6.019   3.481
 1012SOL     OW 3934   4.922   5.010   6.982
 1012SOL    HW1 3935   4.848   4.996   0.030
 1012SOL    HW2 3936   4.887   5.062   6.904
 1013SOL     OW 3937   0.973   0.884   1.001
 1013SOL    HW1 3938   0.949   0.894   0.905
 1013SOL    HW2 3939   0.952   0.792   1.032
 1014SOL     OW 3940   4.991   6.479   5.764
 1014SOL    HW1 3941   5.051   6.425   5.823
 1014SOL    HW2 3942   4.989   6.439   5.672
 1015SOL     OW 3943   3.488   5.873   4.601
 1015SOL    HW1 3944   3.395   5.908   4.615
 1015SOL    HW2 3945   3.499   5.789   4.653
 1016SOL     OW 3946   3.777   2.959   1.327
 1016SOL    HW1 3947   3.842   3.007   1.386
 1016SOL    HW2 3948   3.817   2.947   1.237
 1017SOL     OW 3949   4.345   2.813   0.388
 1017SOL    HW1 3950   4.367   2.717   0.403
 1017SOL    HW2 3951   4.415   2.856   0.331
 1018SOL     OW 3952   1.345   2.644   2.840
 1018SOL    HW1 3953   1.332   2.578   2.767
 1018SOL    HW2 3954   1.442   2.650   2.864
 1019SOL     OW 3955   0.384   1.584   6.579
 1019SOL    HW1 3956   0.432   1.633   6.652
 1019SOL    HW2 3957   0.405   1.625   6.491
 1020SOL     OW 3958   2.557   1.663   1.478
 1020SOL    HW1 3959   2.578   1.748   1.527
 1020SOL    HW2 3960   2.560   1.586   1.541
 1021SOL     OW 3961   6.950   1.006   0.551
 1021SOL    HW1 3962   6.867   1.062   0.550
 1021SOL    HW2 3963   6.982   0.995   0.645
 1022SOL     OW 3964   4.208   3.512   6.200
 1022SOL    HW1 3965   4.217   3.610   6.187
 1022SOL    HW2 3966   4.290   3.476   6.244
 1023SOL     OW 3967   5.387   0.653   2.481
 1023SOL    HW1 3968   5.306   0.667   2.538
 1023SOL    HW2 3969   5.361   0.653   2.385
 1024SOL     OW 3970   6.603   1.434   3.934
 1024SOL    HW1 3971   6.661   1.500   3.884
 1024SOL    HW2 3972   6.583   1.357   3.874
 1025SOL     OW 3973   3.525   4.699   1.191
 1025SOL    HW1 3974   3.513   4.684   1.093
 1025SOL    HW2 3975   3.451   4.757   1.226
 1026SOL     OW 3976   2.122   1.862   0.007
 1026SOL    HW1 3977   2.083   1.806   6.952
 1026SOL    HW2 3978   2.062   1.859   0.087
 1027SOL     OW 3979   2.877   4.902   2.513
 1027SOL    HW1 3980   2.908   4.872   2.603
 1027SOL    HW2 3981   2.949   4.885   2.446
 1028SOL     OW 3982   1.391   6.206   0.581
 1028SOL    HW1 3983   1.371   6.171   0.490
 1028SOL    HW2 3984   1.319   6.177   0.645
 1029SOL     OW 3985   2.570   0.122   6.411
 1029SOL    HW1 3986   2.549   0.207   6.460
 1029SOL    HW2 3987   2.664   0.094   6.432
 1030SOL     OW 3988   4.109   3.745   5.025
 1030SOL    HW1 3989   4.013   3.742   4.999
 1030SOL    HW2 3990   4.116   3.760   5.124
 1031SOL     OW 3991   2.426   5.593   2.040
 1031SOL    HW1 3992   2.448   5.549   2.128
 1031SOL    HW2 3993   2.330   5.620   2.040
 1032SOL     OW 3994   1.313   1.286   4.303
 1032SOL    HW1 3995   1.394   1.329   4.264
 1032SOL    HW2 3996   1.259   1.354   4.352
 1033SOL     OW 3997   2.752   5.553   2.392
 1033SOL    HW1 3998   2.654   5.537   2.379
 1033SOL    HW2 3999   2.769   5.651   2.396
 1034SOL     OW 4000   1.544   4.889   3.897
 1034SOL    HW1 4001   1.619   4.929   3.950
 1034SOL    HW2 4002   1.581   4.819   3.835
 1035SOL     OW 4003   3.055   0.978   4.646
 1035SOL    HW1 4004   2.955   0.986   4.650
 1035SOL    HW2 4005   3.090   0.954   4.736
 1036SOL     OW 4006   4.427   2.798   0.709
 1036SOL    HW1 4007   4.498   2.849   0.661
 1036SOL    HW2 4008   4.341   2.806   0.659
 1037SOL     OW 4009   2.130   1.439   0.084
 1037SOL    HW1 4010   2.198   1.409   0.151
 1037SOL    HW2 4011   2.177   1.472   0.002
 1038SOL     OW 4012   1.934   1.178   5.125
 1038SOL    HW1 4013   1.894   1.260   5.084
 1038SOL    HW2 4014   1.872   1.144   5.196
 1039SOL     OW 4015   3.934   2.154   4.239
 1039SOL    HW1 4016   3.926   2.163   4.139
 1039SOL    HW2 4017   3.845   2.127   4.277
 1040SOL     OW 4018   6.232   4.652   2.846
 1040SOL    HW1 4019   6.329   4.674   2.847
 1040SOL    HW2 4020   6.218   4.561   2.886
 1041SOL     OW 4021   0.603   0.778   4.225
 1041SOL    HW1 4022   0.632   0.790   4.320
 1041SOL    HW2 4023   0.620   0.684   4.196
 1042SOL     OW 4024   5.609   4.954   0.453
 1042SOL    HW1 4025   5.638   5.049   0.438
 1042SOL    HW2 4026   5.686   4.893   0.434
 1043SOL     OW 4027   3.169   2.045   6.314
 1043SOL    HW1 4028   3.262   2.073   6.341
 1043SOL    HW2 4029   3.175   1.962   6.258
 1044SOL     OW 4030   4.231   3.622   1.803
 1044SOL    HW1 4031   4.192   3.705   1.845
 1044SOL    HW2 4032   4.161   3.551   1.799
 1045SOL     OW 4033   3.223   1.469   3.272
 1045SOL    HW1 4034   3.199   1.523   3.353
 1045SOL    HW2 4035   3.163   1.494   3.197
 1046SOL     OW 4036   3.843   0.447   1.444
 1046SOL    HW1 4037   3.911   0.381   1.477
 1046SOL    HW2 4038   3.758   0.435   1.495
 1047SOL     OW 4039   1.025   4.885   2.820
 1047SOL    HW1 4040   1.081   4.950   2.769
 1047SOL    HW2 4041   0.985   4.818   2.756
 1048SOL     OW 4042   4.883   4.465   5.543
 1048SOL    HW1 4043   4.892   4.370   5.571
 1048SOL    HW2 4044   4.807   4.507   5.593
 1049SOL     OW 4045   0.119   3.500   4.727
 1049SOL    HW1 4046   0.053   3.433   4.760
 1049SOL    HW2 4047   0.087   3.538   4.640
 1050SOL     OW 4048   3.680   0.847   0.072
 1050SOL    HW1 4049   3.732   0.849   0.158
 1050SOL    HW2 4050   3.717   0.776   0.013
 1051SOL     OW 4051   4.773   4.706   0.502
 1051SOL    HW1 4052   4.864   4.688   0.538
 1051SOL    HW2 4053   4.781   4.744   0.409
 1052SOL     OW 4054   3.549   0.360   4.845
 1052SOL    HW1 4055   3.487   0.334   4.771
 1052SOL    HW2 4056   3.594   0.446   4.822
 1053SOL     OW 4057   4.774   4.448   4.030
 1053SOL    HW1 4058   4.705   4.455   4.102
 1053SOL    HW2 4059   4.763   4.362   3.981
 1054SOL     OW 4060   3.489   5.599   4.734
 1054SOL    HW1 4061   3.428   5.652   4.792
 1054SOL    HW2 4062   3.579   5.592   4.777
 1055SOL     OW 4063   4.747   6.221   5.148
 1055SOL    HW1 4064   4.686   6.282   5.197
 1055SOL    HW2 4065   4.742   6.238   5.050
 1056SOL     OW 4066   1.527   6.627   5.078
 1056SOL    HW1 4067   1.453   6.562   5.097
 1056SOL    HW2 4068   1.575   6.648   5.164
 1057SOL     OW 4069   3.079   4.046   2.608
 1057SOL    HW1 4070   3.161   3.990   2.613
 1057SOL    HW2 4071   3.046   4.049   2.514
 1058SOL     OW 4072   3.549   1.405   1.761
 1058SOL    HW1 4073   3.538   1.432   1.666
 1058SOL    HW2 4074   3.568   1.306   1.766
 1059SOL     OW 4075   4.092   1.559   1.497
 1059SOL    HW1 4076   4.125   1.593   1.408
 1059SOL    HW2 4077   4.048   1.634   1.546
 1060SOL     OW 4078   1.508   1.850   5.912
 1060SOL    HW1 4079   1.432   1.915   5.921
 1060SOL    HW2 4080   1.572   1.864   5.988
 1061SOL     OW 4081   3.494   5.226   1.521
 1061SOL    HW1 4082   3.574   5.246   1.579
 1061SOL    HW2 4083   3.430   5.169   1.572
 1062SOL     OW 4084   5.945   5.549   5.336
 1062SOL    HW1 4085   6.030   5.496   5.337
 1062SOL    HW2 4086   5.955   5.629   5.396
 1063SOL     OW 4087   1.384   2.786   6.972
 1063SOL    HW1 4088   1.473   2.742   6.976
 1063SOL    HW2 4089   1.373   2.833   6.885
 1064SOL     OW 4090   6.490   2.799   1.899
 1064SOL    HW1 4091   6.585   2.784   1.926
 1064SOL    HW2 4092   6.459   2.724   1.841
 1065SOL     OW 4093   6.316   6.797   4.637
 1065SOL    HW1 4094   6.322   6.764   4.543
 1065SOL    HW2 4095   6.293   6.722   4.698
 1066SOL     OW 4096   4.768   0.757   3.216
 1066SOL    HW1 4097   4.719   0.803   3.142
 1066SOL    HW2 4098   4.728   0.667   3.231
 1067SOL     OW 4099   1.825   3.217   2.126
 1067SOL    HW1 4100   1.812   3.309   2.089
 1067SOL    HW2 4101   1.920   3.204   2.151
 1068SOL     OW 4102   0.481   3.703   2.335
 1068SOL    HW1 4103   0.458   3.786   2.385
 1068SOL    HW2 4104   0.569   3.667   2.367
 1069SOL     OW 4105   4.132   4.135   1.066
 1069SOL    HW1 4106   4.153   4.066   1.135
 1069SOL    HW2 4107   4.072   4.095   0.997
 1070SOL     OW 4108   2.306   0.821   0.324
 1070SOL    HW1 4109   2.232   0.770   0.282
 1070SOL    HW2 4110   2.279   0.917   0.335
 1071SOL     OW 4111   3.765   6.831   3.408
 1071SOL    HW1 4112   3.782   6.870   3.318
 1071SOL    HW2 4113   3.738   6.735   3.398
 1072SOL     OW 4114   3.943   6.080   3.030
 1072SOL    HW1 4115   3.905   6.003   2.981
 1072SOL    HW2 4116   4.026   6.112   2.984
 1073SOL     OW 4117   2.533   4.538   2.569
 1073SOL    HW1 4118   2.626   4.576   2.570
 1073SOL    HW2 4119   2.510   4.504   2.660
 1074SOL     OW 4120   1.091   5.328   1.816
 1074SOL    HW1 4121   1.127   5.365   1.731
 1074SOL    HW2 4122   1.134   5.240   1.835
 1075SOL     OW 4123   6.008   4.447   4.241
 1075SOL    HW1 4124   6.036   4.468   4.147
 1075SOL    HW2 4125   5.920   4.492   4.259
 1076SOL     OW 4126   0.583   4.349   3.647
 1076SOL    HW1 4127   0.547   4.418   3.710
 1076SOL    HW2 4128   0.601   4.391   3.558
 1077SOL     OW 4129   4.337   0.190   0.808
 1077SOL    HW1 4130   4.278   0.251   0.862
 1077SOL    HW2 4131   4.407   0.244   0.762
 1078SOL     OW 4132   1.089   1.960   1.541
 1078SOL    HW1 4133   1.025   1.999   1.608
 1078SOL    HW2 4134   1.060   1.867   1.519
 1079SOL     OW 4135   2.482   5.471   3.698
 1079SOL    HW1 4136   2.432   5.497   3.615
 1079SOL    HW2 4137   2.427   5.406   3.750
 1080SOL     OW 4138   1.840   5.558   4.700
 1080SOL    HW1 4139   1.751   5.602   4.687
 1080SOL    HW2 4140   1.827   5.467   4.740
 1081SOL     OW 4141   1.865   0.668   0.427
 1081SOL    HW1 4142   1.882   0.576   0.462
 1081SOL    HW2 4143   1.804   0.717   0.490
 1082SOL     OW 4144   1.840   6.794   6.241
 1082SOL    HW1 4145   1.859   6.805   6.339
 1082SOL    HW2 4146   1.813   6.699   6.223
 1083SOL     OW 4147   3.457   3.489   1.448
 1083SOL    HW1 4148   3.375   3.512   1.395
 1083SOL    HW2 4149   3.526   3.560   1.435
 1084SOL     OW 4150   6.075   4.026   0.866
 1084SOL    HW1 4151   6.023   3.941   0.860
 1084SOL    HW2 4152   6.068   4.063   0.959
 1085SOL     OW 4153   2.110   3.841   4.208
 1085SOL    HW1 4154   2.099   3.918   4.145
 1085SOL    HW2 4155   2.116   3.756   4.157
 1086SOL     OW 4156   4.337   4.565   2.215
 1086SOL    HW1 4157   4.253   4.513   2.225
 1086SOL    HW2 4158   4.362   4.606   2.302
 1087SOL     OW 4159   4.568   2.898   5.466
 1087SOL    HW1 4160   4.578   2.997   5.464
 1087SOL    HW2 4161   4.594   2.859   5.378
 1088SOL     OW 4162   5.020   4.304   3.945
 1088SOL    HW1 4163   4.923   4.277   3.938
 1088SOL    HW2 4164   5.048   4.303   4.041
 1089SOL     OW 4165   0.390   0.139   3.390
 1089SOL    HW1 4166   0.295   0.114   3.406
 1089SOL    HW2 4167   0.395   0.235   3.363
 1090SOL     OW 4168   1.508   1.154   6.514
 1090SOL    HW1 4169   1.590   1.202   6.545
 1090SOL    HW2 4170   1.524   1.055   6.516
 1091SOL     OW 4171   1.892   1.802   5.171
 1091SOL    HW1 4172   1.956   1.763   5.105
 1091SOL    HW2 4173   1.883   1.900   5.155
 1092SOL     OW 4174   2.380   4.229   1.539
 1092SOL    HW1 4175   2.454   4.205   1.476
 1092SOL    HW2 4176   2.418   4.265   1.624
 1093SOL     OW 4177   0.474   2.125   2.578
 1093SOL    HW1 4178   0.538   2.186   2.532
 1093SOL    HW2 4179   0.446   2.052   2.515
 1094SOL     OW 4180   0.583   6.363   1.290
 1094SOL    HW1 4181   0.517   6.343   1.362
 1094SOL    HW2 4182   0.545   6.337   1.201
 1095SOL     OW 4183   5.674   3.705   6.311
 1095SOL    HW1 4184   5.575   3.706   6.296
 1095SOL    HW2 4185   5.722   3.733   6.228
 1096SOL     OW 4186   3.470   4.407   1.691
 1096SOL    HW1 4187   3.397   4.440   1.631
 1096SOL    HW2 4188   3.499   4.481   1.752
 1097SOL     OW 4189   0.658   5.369   5.302
 1097SOL    HW1 4190   0.568   5.350   5.341
 1097SOL    HW2 4191   0.698   5.284   5.267
 1098SOL     OW 4192   4.195   2.053   2.411
 1098SOL    HW1 4193   4.266   1.986   2.434
 1098SOL    HW2 4194   4.227   2.145   2.434
 1099SOL     OW 4195   4.399   2.098   3.616
 1099SOL    HW1 4196   4.421   2.057   3.705
 1099SOL    HW2 4197   4.437   2.040   3.544
 1100SOL     OW 4198   0.706   0.904   6.619
 1100SOL    HW1 4199   0.787   0.936   6.669
 1100SOL    HW2 4200   0.654   0.983   6.586
 1101SOL     OW 4201   5.494   2.964   0.927
 1101SOL    HW1 4202   5.573   2.914   0.961
 1101SOL    HW2 4203   5.482   3.047   0.981
 1102SOL     OW 4204   0.786   4.602   3.390
 1102SOL    HW1 4205   0.736   4.687   3.372
 1102SOL    HW2 4206   0.722   4.529   3.412
 1103SOL     OW 4207   0.986   2.478   1.674
 1103SOL    HW1 4208   1.024   2.439   1.758
 1103SOL    HW2 4209   0.903   2.429   1.649
 1104SOL     OW 4210   3.198   5.123   6.228
 1104SOL    HW1 4211   3.267   5.185   6.264
 1104SOL    HW2 4212   3.110   5.142   6.273
 1105SOL     OW 4213   4.155   4.269   6.557
 1105SOL    HW1 4214   4.060   4.285   6.532
 1105SOL    HW2 4215   4.159   4.235   6.651
 1106SOL     OW 4216   0.199   2.525   5.981
 1106SOL    HW1 4217   0.197   2.532   6.081
 1106SOL    HW2 4218   0.228   2.613   5.942
 1107SOL     OW 4219   0.774   0.002   0.975
 1107SOL    HW1 4220   0.712   6.964   1.029
 1107SOL    HW2 4221   0.727   0.084   0.942
 1108SOL     OW 4222   1.060   1.338   5.540
 1108SOL    HW1 4223   0.988   1.365   5.604
 1108SOL    HW2 4224   1.022   1.279   5.469
 1109SOL     OW 4225   4.742   0.343   4.248
 1109SOL    HW1 4226   4.764   0.346   4.345
 1109SOL    HW2 4227   4.793   0.415   4.200
 1110SOL     OW 4228   2.838   3.416   2.120
 1110SOL    HW1 4229   2.829   3.318   2.134
 1110SOL    HW2 4230   2.791   3.465   2.194
 1111SOL     OW 4231   5.711   0.085   0.032
 1111SOL    HW1 4232   5.657   0.086   0.115
 1111SOL    HW2 4233   5.712   7.010   7.012
 1112SOL     OW 4234   6.634   0.891   2.286
 1112SOL    HW1 4235   6.668   0.956   2.219
 1112SOL    HW2 4236   6.654   0.798   2.256
 1113SOL     OW 4237   6.598   3.800   2.423
 1113SOL    HW1 4238   6.574   3.705   2.400
 1113SOL    HW2 4239   6.630   3.847   2.341
 1114SOL     OW 4240   4.724   1.732   5.013
 1114SOL    HW1 4241   4.808   1.782   4.992
 1114SOL    HW2 4242   4.746   1.647   5.060
 1115SOL     OW 4243   2.821   3.266   0.897
 1115SOL    HW1 4244   2.791   3.234   0.987
 1115SOL    HW2 4245   2.917   3.241   0.884
 1116SOL     OW 4246   4.307   0.172   4.228
 1116SOL    HW1 4247   4.387   0.232   4.224
 1116SOL    HW2 4248   4.303   0.126   4.317
 1117SOL     OW 4249   2.855   2.671   1.431
 1117SOL    HW1 4250   2.894   2.582   1.452
 1117SOL    HW2 4251   2.802   2.665   1.346
 1118SOL     OW 4252   2.087   3.570   4.019
 1118SOL    HW1 4253   1.991   3.565   4.046
 1118SOL    HW2 4254   2.093   3.598   3.923
 1119SOL     OW 4255   4.243   4.050   1.734
 1119SOL    HW1 4256   4.287   4.105   1.804
 1119SOL    HW2 4257   4.210   4.109   1.661
 1120SOL     OW 4258   3.883   0.529   5.408
 1120SOL    HW1 4259   3.959   0.474   5.373
 1120SOL    HW2 4260   3.820   0.551   5.333
 1121SOL     OW 4261   5.818   3.316   1.693
 1121SOL    HW1 4262   5.730   3.340   1.653
 1121SOL    HW2 4263   5.803   3.280   1.786
 1122SOL     OW 4264   4.831   3.614   6.562
 1122SOL    HW1 4265   4.797   3.678   6.631
 1122SOL    HW2 4266   4.874   3.536   6.607
 1123SOL     OW 4267   3.682   0.369   2.413
 1123SOL    HW1 4268   3.719   0.339   2.501
 1123SOL    HW2 4269   3.582   0.368   2.417
 1124SOL     OW 4270   0.672   4.106   4.821
 1124SOL    HW1 4271   0.720   4.025   4.788
 1124SOL    HW2 4272   0.738   4.167   4.867
 1125SOL     OW 4273   3.419   3.464   5.092
 1125SOL    HW1 4274   3.398   3.517   5.174
 1125SOL    HW2 4275   3.471   3.382   5.117
 1126SOL     OW 4276   5.471   6.241   1.836
 1126SOL    HW1 4277   5.410   6.164   1.822
 1126SOL    HW2 4278   5.538   6.245   1.761
 1127SOL     OW 4279   1.785   4.731   6.685
 1127SOL    HW1 4280   1.738   4.644   6.701
 1127SOL    HW2 4281   1.773   4.791   6.763
 1128SOL     OW 4282   2.791   1.511   4.412
 1128SOL    HW1 4283   2.757   1.480   4.323
 1128SOL    HW2 4284   2.847   1.593   4.400
 1129SOL     OW 4285   5.628   0.832   6.898
 1129SOL    HW1 4286   5.560   0.803   6.966
 1129SOL    HW2 4287   5.617   0.777   6.815
 1130SOL     OW 4288   0.581   4.498   6.824
 1130SOL    HW1 4289   0.585   4.422   6.888
 1130SOL    HW2 4290   0.584   4.463   6.731
 1131SOL     OW 4291   0.294   5.846   5.648
 1131SOL    HW1 4292   0.376   5.864   5.703
 1131SOL    HW2 4293   0.289   5.749   5.627
 1132SOL     OW 4294   5.570   6.821   5.314
 1132SOL    HW1 4295   5.564   6.722   5.322
 1132SOL    HW2 4296   5.589   6.861   5.403
 1133SOL     OW 4297   0.345   3.467   1.483
 1133SOL    HW1 4298   0.254   3.508   1.478
 1133SOL    HW2 4299   0.389   3.493   1.569
 1134SOL     OW 4300   5.459   2.538   6.420
 1134SOL    HW1 4301   5.389   2.507   6.355
 1134SOL    HW2 4302   5.435   2.505   6.512
 1135SOL     OW 4303   3.059   2.193   2.933
 1135SOL    HW1 4304   3.033   2.201   3.029
 1135SOL    HW2 4305   3.158   2.198   2.924
 1136SOL     OW 4306   3.496   5.371   3.813
 1136SOL    HW1 4307   3.447   5.397   3.896
 1136SOL    HW2 4308   3.537   5.452   3.771
 1137SOL     OW 4309   1.481   0.988   5.771
 1137SOL    HW1 4310   1.485   1.043   5.687
 1137SOL    HW2 4311   1.466   1.048   5.850
 1138SOL     OW 4312   0.519   3.617   5.719
 1138SOL    HW1 4313   0.549   3.621   5.624
 1138SOL    HW2 4314   0.446   3.684   5.734
 1139SOL     OW 4315   1.259   5.859   2.349
 1139SOL    HW1 4316   1.268   5.950   2.309
 1139SOL    HW2 4317   1.170   5.821   2.326
 1140SOL     OW 4318   3.687   1.775   4.130
 1140SOL    HW1 4319   3.592   1.751   4.147
 1140SOL    HW2 4320   3.699   1.801   4.034
 1141SOL     OW 4321   6.404   5.595   5.453
 1141SOL    HW1 4322   6.465   5.635   5.521
 1141SOL    HW2 4323   6.458   5.556   5.378
 1142SOL     OW 4324   6.069   0.607   4.157
 1142SOL    HW1 4325   6.011   0.685   4.181
 1142SOL    HW2 4326   6.148   0.604   4.219
 1143SOL     OW 4327   4.378   2.087   2.791
 1143SOL    HW1 4328   4.350   2.069   2.885
 1143SOL    HW2 4329   4.307   2.140   2.744
 1144SOL     OW 4330   0.159   5.642   4.399
 1144SOL    HW1 4331   0.092   5.642   4.325
 1144SOL    HW2 4332   0.116   5.610   4.483
 1145SOL     OW 4333   0.536   5.628   4.618
 1145SOL    HW1 4334   0.616   5.688   4.610
 1145SOL    HW2 4335   0.454   5.682   4.602
 1146SOL     OW 4336   5.776   2.028   0.827
 1146SOL    HW1 4337   5.855   1.971   0.803
 1146SOL    HW2 4338   5.694   1.971   0.831
 1147SOL     OW 4339   0.017   2.918   2.082
 1147SOL    HW1 4340   0.065   2.980   2.020
 1147SOL    HW2 4341   0.034   2.946   2.177
 1148SOL     OW 4342   3.753   6.902   0.885
 1148SOL    HW1 4343   3.661   6.917   0.849
 1148SOL    HW2 4344   3.753   6.916   0.984
 1149SOL     OW 4345   6.468   3.134   2.609
 1149SOL    HW1 4346   6.485   3.151   2.512
 1149SOL    HW2 4347   6.551   3.097   2.651
 1150SOL     OW 4348   1.498   4.768   0.056
 1150SOL    HW1 4349   1.502   4.845   0.118
 1150SOL    HW2 4350   1.450   4.692   0.099
 1151SOL     OW 4351   5.190   5.265   6.345
 1151SOL    HW1 4352   5.268   5.297   6.398
 1151SOL    HW2 4353   5.120   5.230   6.408
 1152SOL     OW 4354   1.193   0.138   4.731
 1152SOL    HW1 4355   1.235   0.224   4.761
 1152SOL    HW2 4356   1.204   0.129   4.632
 1153SOL     OW 4357   2.415   5.281   2.970
 1153SOL    HW1 4358   2.489   5.292   2.905
 1153SOL    HW2 4359   2.440   5.323   3.057
 1154SOL     OW 4360   0.658   3.869   1.718
 1154SOL    HW1 4361   0.600   3.867   1.636
 1154SOL    HW2 4362   0.724   3.944   1.710
 1155SOL     OW 4363   3.836   5.775   2.044
 1155SOL    HW1 4364   3.903   5.791   1.971
 1155SOL    HW2 4365   3.837   5.852   2.107
 1156SOL     OW 4366   2.255   0.446   4.233
 1156SOL    HW1 4367   2.351   0.460   4.210
 1156SOL    HW2 4368   2.245   0.361   4.285
 1157SOL     OW 4369   0.434   2.978   3.954
 1157SOL    HW1 4370   0.364   2.962   3.884
 1157SOL    HW2 4371   0.393   2.972   4.045
 1158SOL     OW 4372   4.826   5.404   5.605
 1158SOL    HW1 4373   4.865   5.340   5.539
 1158SOL    HW2 4374   4.730   5.381   5.620
 1159SOL     OW 4375   4.145   5.224   3.636
 1159SOL    HW1 4376   4.213   5.151   3.624
 1159SOL    HW2 4377   4.056   5.183   3.656
 1160SOL     OW 4378   3.291   3.756   1.101
 1160SOL    HW1 4379   3.257   3.713   1.018
 1160SOL    HW2 4380   3.258   3.850   1.106
 1161SOL     OW 4381   5.315   1.211   3.381
 1161SOL    HW1 4382   5.333   1.129   3.434
 1161SOL    HW2 4383   5.273   1.280   3.440
 1162SOL     OW 4384   3.585   4.133   2.163
 1162SOL    HW1 4385   3.607   4.041   2.130
 1162SOL    HW2 4386   3.580   4.196   2.085
 1163SOL     OW 4387   5.269   1.977   2.777
 1163SOL    HW1 4388   5.280   1.985   2.876
 1163SOL    HW2 4389   5.293   1.885   2.748
 1164SOL     OW 4390   6.072   3.390   3.625
 1164SOL    HW1 4391   6.028   3.394   3.714
 1164SOL    HW2 4392   6.010   3.425   3.555
 1165SOL     OW 4393   1.143   4.857   3.240
 1165SOL    HW1 4394   1.072   4.839   3.173
 1165SOL    HW2 4395   1.226   4.806   3.215
 1166SOL     OW 4396   4.359   2.840   6.341
 1166SOL    HW1 4397   4.345   2.757   6.395
 1166SOL    HW2 4398   4.364   2.816   6.244
 1167SOL     OW 4399   4.763   1.503   5.173
 1167SOL    HW1 4400   4.729   1.437   5.106
 1167SOL    HW2 4401   4.719   1.487   5.262
 1168SOL     OW 4402   5.994   6.547   3.216
 1168SOL    HW1 4403   6.074   6.514   3.166
 1168SOL    HW2 4404   5.966   6.477   3.282
 1169SOL     OW 4405   0.672   3.496   1.877
 1169SOL    HW1 4406   0.768   3.467   1.886
 1169SOL    HW2 4407   0.662   3.588   1.916
 1170SOL     OW 4408   3.079   1.040   1.088
 1170SOL    HW1 4409   3.171   1.038   1.049
 1170SOL    HW2 4410   3.024   1.110   1.041
 1171SOL     OW 4411   2.708   5.663   0.559
 1171SOL    HW1 4412   2.643   5.738   0.567
 1171SOL    HW2 4413   2.658   5.576   0.557
 1172SOL     OW 4414   3.197   3.757   5.202
 1172SOL    HW1 4415   3.112   3.809   5.212
 1172SOL    HW2 4416   3.174   3.661   5.187
 1173SOL     OW 4417   3.733   1.231   6.585
 1173SOL    HW1 4418   3.640   1.247   6.619
 1173SOL    HW2 4419   3.735   1.240   6.486
 1174SOL     OW 4420   2.724   5.896   0.850
 1174SOL    HW1 4421   2.706   5.945   0.764
 1174SOL    HW2 4422   2.818   5.915   0.879
 1175SOL     OW 4423   6.243   4.763   5.727
 1175SOL    HW1 4424   6.227   4.675   5.683
 1175SOL    HW2 4425   6.295   4.822   5.666
 1176SOL     OW 4426   5.401   4.552   0.888
 1176SOL    HW1 4427   5.488   4.601   0.897
 1176SOL    HW2 4428   5.332   4.613   0.850
 1177SOL     OW 4429   6.385   2.449   5.942
 1177SOL    HW1 4430   6.387   2.462   6.041
 1177SOL    HW2 4431   6.469   2.484   5.902
 1178SOL     OW 4432   6.210   3.522   2.016
 1178SOL    HW1 4433   6.257   3.439   2.046
 1178SOL    HW2 4434   6.177   3.571   2.096
 1179SOL     OW 4435   2.191   5.177   6.245
 1179SOL    HW1 4436   2.257   5.227   6.189
 1179SOL    HW2 4437   2.145   5.108   6.189
 1180SOL     OW 4438   2.677   1.522   4.104
 1180SOL    HW1 4439   2.584   1.520   4.139
 1180SOL    HW2 4440   2.685   1.458   4.027
 1181SOL     OW 4441   1.927   4.444   3.016
 1181SOL    HW1 4442   1.994   4.502   2.971
 1181SOL    HW2 4443   1.935   4.455   3.116
 1182SOL     OW 4444   2.037   3.992   3.491
 1182SOL    HW1 4445   1.956   4.040   3.455
 1182SOL    HW2 4446   2.046   4.011   3.588
 1183SOL     OW 4447   4.767   5.755   1.245
 1183SOL    HW1 4448   4.723   5.675   1.285
 1183SOL    HW2 4449   4.716   5.837   1.270
 1184SOL     OW 4450   2.935   2.796   5.645
 1184SOL    HW1 4451   2.879   2.802   5.562
 1184SOL    HW2 4452   3.028   2.826   5.624
 1185SOL     OW 4453   1.879   0.900   6.864
 1185SOL    HW1 4454   1.854   0.857   6.777
 1185SOL    HW2 4455   1.978   0.900   6.875
 1186SOL     OW 4456   4.751   1.368   4.648
 1186SOL    HW1 4457   4.682   1.337   4.583
 1186SOL    HW2 4458   4.757   1.302   4.723
 1187SOL     OW 4459   6.427   0.536   5.271
 1187SOL    HW1 4460   6.422   0.452   5.325
 1187SOL    HW2 4461   6.353   0.597   5.299
 1188SOL     OW 4462   1.590   0.049   5.681
 1188SOL    HW1 4463   1.625   6.987   5.632
 1188SOL    HW2 4464   1.623   0.132   5.637
 1189SOL     OW 4465   5.364   0.794   1.824
 1189SOL    HW1 4466   5.300   0.723   1.795
 1189SOL    HW2 4467   5.349   0.877   1.769
 1190SOL     OW 4468   4.332   4.892   3.030
 1190SOL    HW1 4469   4.420   4.925   2.996
 1190SOL    HW2 4470   4.258   4.947   2.991
 1191SOL     OW 4471   2.912   5.625   6.257
 1191SOL    HW1 4472   2.908   5.702   6.321
 1191SOL    HW2 4473   2.997   5.631   6.204
 1192SOL     OW 4474   5.081   5.291   2.651
 1192SOL    HW1 4475   5.162   5.342   2.680
 1192SOL    HW2 4476   5.110   5.203   2.613
 1193SOL     OW 4477   4.913   0.511   4.116
 1193SOL    HW1 4478   4.987   0.549   4.172
 1193SOL    HW2 4479   4.951   0.443   4.053
 1194SOL     OW 4480   6.070   0.187   0.885
 1194SOL    HW1 4481   6.167   0.210   0.886
 1194SOL    HW2 4482   6.051   0.126   0.808
 1195SOL     OW 4483   4.825   0.716   6.389
 1195SOL    HW1 4484   4.810   0.639   6.450
 1195SOL    HW2 4485   4.740   0.767   6.378
 1196SOL     OW 4486   0.516   5.367   2.447
 1196SOL    HW1 4487   0.540   5.435   2.517
 1196SOL    HW2 4488   0.427   5.390   2.408
 1197SOL     OW 4489   3.780   5.411   6.034
 1197SOL    HW1 4490   3.701   5.409   5.973
 1197SOL    HW2 4491   3.755   5.371   6.122
 1198SOL     OW 4492   2.841   1.892   2.299
 1198SOL    HW1 4493   2.912   1.830   2.333
 1198SOL    HW2 4494   2.761   1.887   2.359
 1199SOL     OW 4495   4.057   3.499   2.451
 1199SOL    HW1 4496   4.007   3.422   2.492
 1199SOL    HW2 4497   4.099   3.469   2.365
 1200SOL     OW 4498   3.850   3.725   6.930
 1200SOL    HW1 4499   3.937   3.770   6.949
 1200SOL    HW2 4500   3.835   3.651   6.996
 1201SOL     OW 4501   1.130   1.007   5.216
 1201SOL    HW1 4502   1.047   1.054   5.246
 1201SOL    HW2 4503   1.182   1.068   5.155
 1202SOL     OW 4504   6.119   0.197   4.504
 1202SOL    HW1 4505   6.056   0.257   4.553
 1202SOL    HW2 4506   6.076   0.166   4.420
 1203SOL     OW 4507   5.542   7.002   1.212
 1203SOL    HW1 4508   5.444   0.002   1.205
 1203SOL    HW2 4509   5.564   6.916   1.167
 1204SOL     OW 4510   3.119   0.790   0.738
 1204SOL    HW1 4511   3.207   0.835   0.724
 1204SOL    HW2 4512   3.116   0.706   0.685
 1205SOL     OW 4513   6.658   2.942   5.127
 1205SOL    HW1 4514   6.757   2.947   5.140
 1205SOL    HW2 4515   6.630   3.005   5.055
 1206SOL     OW 4516   2.316   1.950   4.741
 1206SOL    HW1 4517   2.385   1.962   4.669
 1206SOL    HW2 4518   2.361   1.942   4.829
 1207SOL     OW 4519   5.750   6.921   6.477
 1207SOL    HW1 4520   5.688   6.995   6.455
 1207SOL    HW2 4521   5.707   6.860   6.544
 1208SOL     OW 4522   3.998   3.779   3.374
 1208SOL    HW1 4523   4.009   3.764   3.472
 1208SOL    HW2 4524   3.964   3.872   3.358
 1209SOL     OW 4525   5.982   5.224   4.200
 1209SOL    HW1 4526   5.982   5.126   4.183
 1209SOL    HW2 4527   5.895   5.252   4.239
 1210SOL     OW 4528   3.567   7.010   2.375
 1210SOL    HW1 4529   3.587   0.060   2.445
 1210SOL    HW2 4530   3.570   6.918   2.414
 1211SOL     OW 4531   0.099   4.265   4.572
 1211SOL    HW1 4532   0.142   4.263   4.662
 1211SOL    HW2 4533   0.125   4.184   4.520
 1212SOL     OW 4534   1.698   3.952   4.983
 1212SOL    HW1 4535   1.783   3.996   4.955
 1212SOL    HW2 4536   1.622   4.014   4.967
 1213SOL     OW 4537   5.982   2.049   5.443
 1213SOL    HW1 4538   6.028   1.961   5.438
 1213SOL    HW2 4539   5.883   2.036   5.440
 1214SOL     OW 4540   2.222   3.000   3.279
 1214SOL    HW1 4541   2.169   2.977   3.198
 1214SOL    HW2 4542   2.283   3.077   3.258
 1215SOL     OW 4543   1.263   4.780   1.789
 1215SOL    HW1 4544   1.170   4.808   1.814
 1215SOL    HW2 4545   1.313   4.753   1.872
 1216SOL     OW 4546   2.376   0.477   1.921
 1216SOL    HW1 4547   2.452   0.512   1.976
 1216SOL    HW2 4548   2.293   0.476   1.975
 1217SOL     OW 4549   1.350   6.856   1.922
 1217SOL    HW1 4550   1.361   6.955   1.931
 1217SOL    HW2 4551   1.409   6.809   1.988
 1218SOL     OW 4552   0.613   3.665   3.483
 1218SOL    HW1 4553   0.602   3.576   3.439
 1218SOL    HW2 4554   0.709   3.690   3.484
 1219SOL     OW 4555   3.748   6.207   2.394
 1219SOL    HW1 4556   3.844   6.211   2.364
 1219SOL    HW2 4557   3.743   6.166   2.485
 1220SOL     OW 4558   6.425   3.894   3.493
 1220SOL    HW1 4559   6.390   3.880   3.400
 1220SOL    HW2 4560   6.524   3.910   3.489
 1221SOL     OW 4561   4.737   3.748   0.091
 1221SOL    HW1 4562   4.718   3.841   0.122
 1221SOL    HW2 4563   4.658   3.690   0.111
 1222SOL     OW 4564   0.029   6.375   1.551
 1222SOL    HW1 4565   0.060   6.281   1.563
 1222SOL    HW2 4566   0.079   6.417   1.475
 1223SOL     OW 4567   6.213   6.794   6.101
 1223SOL    HW1 4568   6.220   6.871   6.038
 1223SOL    HW2 4569   6.210   6.828   6.195
 1224SOL     OW 4570   4.841   4.951   2.254
 1224SOL    HW1 4571   4.768   4.889   2.284
 1224SOL    HW2 4572   4.818   4.990   2.165
 1225SOL     OW 4573   4.894   2.297   0.124
 1225SOL    HW1 4574   4.988   2.329   0.136
 1225SOL    HW2 4575   4.888   2.201   0.151
 1226SOL     OW 4576   5.785   5.529   1.221
 1226SOL    HW1 4577   5.808   5.513   1.317
 1226SOL    HW2 4578   5.770   5.442   1.175
 1227SOL     OW 4579   5.288   4.039   6.061
 1227SOL    HW1 4580   5.196   4.020   6.025
 1227SOL    HW2 4581   5.349   3.964   6.035
 1228SOL     OW 4582   3.722   2.934   3.019
 1228SOL    HW1 4583   3.674   2.977   2.943
 1228SOL    HW2 4584   3.731   2.836   3.002
 1229SOL     OW 4585   2.264   5.521   2.782
 1229SOL    HW1 4586   2.282   5.439   2.727
 1229SOL    HW2 4587   2.349   5.550   2.827
 1230SOL     OW 4588   5.208   5.114   1.181
 1230SOL    HW1 4589   5.265   5.196   1.184
 1230SOL    HW2 4590   5.231   5.055   1.259
 1231SOL     OW 4591   1.479   2.185   6.344
 1231SOL    HW1 4592   1.488   2.284   6.358
 1231SOL    HW2 4593   1.492   2.164   6.247
 1232SOL     OW 4594   3.221   0.595   5.559
 1232SOL    HW1 4595   3.320   0.596   5.572
 1232SOL    HW2 4596   3.181   0.678   5.596
 1233SOL     OW 4597   0.063   5.943   5.295
 1233SOL    HW1 4598   0.148   5.956   5.346
 1233SOL    HW2 4599   0.056   5.848   5.265
 1234SOL     OW 4600   6.739   3.276   0.058
 1234SOL    HW1 4601   6.729   3.361   0.109
 1234SOL    HW2 4602   6.760   3.298   6.980
 1235SOL     OW 4603   6.623   5.138   0.549
 1235SOL    HW1 4604   6.533   5.162   0.514
 1235SOL    HW2 4605   6.688   5.133   0.473
 1236SOL     OW 4606   1.321   1.684   2.264
 1236SOL    HW1 4607   1.258   1.676   2.341
 1236SOL    HW2 4608   1.306   1.607   2.201
 1237SOL     OW 4609   0.629   0.000   4.286
 1237SOL    HW1 4610   0.708   0.052   4.255
 1237SOL    HW2 4611   0.569   0.060   4.341
 1238SOL     OW 4612   6.707   0.525   4.459
 1238SOL    HW1 4613   6.657   0.607   4.433
 1238SOL    HW2 4614   6.785   0.550   4.517
 1239SOL     OW 4615   6.326   4.781   4.910
 1239SOL    HW1 4616   6.389   4.703   4.911
 1239SOL    HW2 4617   6.297   4.800   4.817
 1240SOL     OW 4618   6.139   4.353   3.340
 1240SOL    HW1 4619   6.158   4.446   3.370
 1240SOL    HW2 4620   6.097   4.302   3.415
 1241SOL     OW 4621   4.899   4.743   4.945
 1241SOL    HW1 4622   4.979   4.798   4.919
 1241SOL    HW2 4623   4.876   4.681   4.871
 1242SOL     OW 4624   1.172   4.665   6.757
 1242SOL    HW1 4625   1.198   4.728   6.830
 1242SOL    HW2 4626   1.184   4.571   6.790
 1243SOL     OW 4627   1.055   4.648   4.779
 1243SOL    HW1 4628   1.114   4.724   4.753
 1243SOL    HW2 4629   1.111   4.572   4.813
 1244SOL     OW 4630   5.080   0.597   4.864
 1244SOL    HW1 4631   5.049   0.674   4.920
 1244SOL    HW2 4632   5.136   0.535   4.920
 1245SOL     OW 4633   4.839   6.823   1.271
 1245SOL    HW1 4634   4.890   6.895   1.224
 1245SOL    HW2 4635   4.844   6.739   1.217
 1246SOL     OW 4636   4.947   1.468   0.289
 1246SOL    HW1 4637   4.888   1.452   0.368
 1246SOL    HW2 4638   4.977   1.564   0.288
 1247SOL     OW 4639   0.066   0.044   3.479
 1247SOL    HW1 4640   0.079   6.979   3.533
 1247SOL    HW2 4641   0.117   0.119   3.520
 1248SOL     OW 4642   1.140   0.087   4.468
 1248SOL    HW1 4643   1.169   7.009   4.460
 1248SOL    HW2 4644   1.167   0.136   4.385
 1249SOL     OW 4645   5.762   4.624   6.840
 1249SOL    HW1 4646   5.805   4.595   6.926
 1249SOL    HW2 4647   5.753   4.546   6.779
 1250SOL     OW 4648   6.765   3.354   5.206
 1250SOL    HW1 4649   6.749   3.435   5.262
 1250SOL    HW2 4650   6.853   3.361   5.160
 1251SOL     OW 4651   3.166   0.502   2.832
 1251SOL    HW1 4652   3.217   0.466   2.910
 1251SOL    HW2 4653   3.195   0.596   2.814
 1252SOL     OW 4654   1.634   5.479   6.850
 1252SOL    HW1 4655   1.679   5.547   6.909
 1252SOL    HW2 4656   1.565   5.429   6.903
 1253SOL     OW 4657   3.267   1.152   0.660
 1253SOL    HW1 4658   3.282   1.232   0.717
 1253SOL    HW2 4659   3.315   1.074   0.699
 1254SOL     OW 4660   6.788   1.170   1.422
 1254SOL    HW1 4661   6.859   1.231   1.457
 1254SOL    HW2 4662   6.700   1.217   1.424
 1255SOL     OW 4663   5.495   1.312   5.543
 1255SOL    HW1 4664   5.575   1.261   5.511
 1255SOL    HW2 4665   5.513   1.410   5.536
 1256SOL     OW 4666   0.971   5.902   4.293
 1256SOL    HW1 4667   0.965   5.936   4.388
 1256SOL    HW2 4668   0.879   5.900   4.253
 1257SOL     OW 4669   0.386   5.597   3.986
 1257SOL    HW1 4670   0.317   5.669   3.991
 1257SOL    HW2 4671   0.403   5.560   4.077
 1258SOL     OW 4672   4.287   6.672   4.789
 1258SOL    HW1 4673   4.334   6.713   4.710
 1258SOL    HW2 4674   4.272   6.575   4.771
 1259SOL     OW 4675   5.835   0.416   3.792
 1259SOL    HW1 4676   5.747   0.372   3.805
 1259SOL    HW2 4677   5.830   0.481   3.717
 1260SOL     OW 4678   2.018   0.682   1.911
 1260SOL    HW1 4679   1.925   0.666   1.880
 1260SOL    HW2 4680   2.059   0.596   1.941
 1261SOL     OW 4681   6.428   4.292   6.239
 1261SOL    HW1 4682   6.329   4.308   6.240
 1261SOL    HW2 4683   6.470   4.349   6.168
 1262SOL     OW 4684   4.604   5.064   0.517
 1262SOL    HW1 4685   4.685   5.122   0.503
 1262SOL    HW2 4686   4.548   5.103   0.590
 1263SOL     OW 4687   0.013   2.216   1.711
 1263SOL    HW1 4688   0.067   2.212   1.627
 1263SOL    HW2 4689   0.056   2.159   1.781
 1264SOL     OW 4690   0.279   3.309   3.780
 1264SOL    HW1 4691   0.355   3.306   3.715
 1264SOL    HW2 4692   0.233   3.220   3.782
 1265SOL     OW 4693   6.506   4.503   5.430
 1265SOL    HW1 4694   6.512   4.511   5.529
 1265SOL    HW2 4695   6.577   4.442   5.396
 1266SOL     OW 4696   2.920   1.766   4.716
 1266SOL    HW1 4697   2.883   1.802   4.801
 1266SOL    HW2 4698   2.847   1.754   4.649
 1267SOL     OW 4699   6.949   5.065   3.027
 1267SOL    HW1 4700   6.918   5.022   3.112
 1267SOL    HW2 4701   6.925   5.162   3.029
 1268SOL     OW 4702   5.987   2.551   0.528
 1268SOL    HW1 4703   5.889   2.532   0.531
 1268SOL    HW2 4704   6.016   2.558   0.433
 1269SOL     OW 4705   6.811   5.334   5.330
 1269SOL    HW1 4706   6.815   5.373   5.422
 1269SOL    HW2 4707   6.903   5.334   5.290
 1270SOL     OW 4708   1.754   3.036   5.037
 1270SOL    HW1 4709   1.733   3.126   4.998
 1270SOL    HW2 4710   1.670   2.992   5.067
 1271SOL     OW 4711   3.822   1.325   2.719
 1271SOL    HW1 4712   3.844   1.415   2.680
 1271SOL    HW2 4713   3.848   1.324   2.816
 1272SOL     OW 4714   0.640   5.525   1.400
 1272SOL    HW1 4715   0.631   5.427   1.382
 1272SOL    HW2 4716   0.552   5.562   1.428
 1273SOL     OW 4717   2.806   5.647   6.561
 1273SOL    HW1 4718   2.757   5.692   6.486
 1273SOL    HW2 4719   2.881   5.705   6.591
 1274SOL     OW 4720   6.924   2.336   2.076
 1274SOL    HW1 4721   6.886   2.256   2.122
 1274SOL    HW2 4722   6.860   2.369   2.006
 1275SOL     OW 4723   3.580   1.834   4.556
 1275SOL    HW1 4724   3.489   1.813   4.521
 1275SOL    HW2 4725   3.591   1.933   4.562
 1276SOL     OW 4726   6.730   0.236   2.950
 1276SOL    HW1 4727   6.668   0.200   2.881
 1276SOL    HW2 4728   6.680   0.249   3.036
 1277SOL     OW 4729   0.033   0.216   4.578
 1277SOL    HW1 4730   0.042   0.124   4.617
 1277SOL    HW2 4731   0.095   0.225   4.500
 1278SOL     OW 4732   2.102   2.124   6.059
 1278SOL    HW1 4733   2.106   2.088   6.152
 1278SOL    HW2 4734   2.172   2.194   6.046
 1279SOL     OW 4735   2.656   5.884   6.944
 1279SOL    HW1 4736   2.708   5.884   6.859
 1279SOL    HW2 4737   2.719   5.874   0.004
 1280SOL     OW 4738   2.934   6.815   3.801
 1280SOL    HW1 4739   3.032   6.799   3.814
 1280SOL    HW2 4740   2.896   6.741   3.744
 1281SOL     OW 4741   1.167   6.087   3.018
 1281SOL    HW1 4742   1.102   6.154   2.981
 1281SOL    HW2 4743   1.250   6.086   2.961
 1282SOL     OW 4744   0.890   1.128   1.689
 1282SOL    HW1 4745   0.866   1.148   1.594
 1282SOL    HW2 4746   0.845   1.195   1.748
 1283SOL     OW 4747   5.716   5.108   5.183
 1283SOL    HW1 4748   5.730   5.153   5.095
 1283SOL    HW2 4749   5.646   5.037   5.173
 1284SOL     OW 4750   2.643   2.526   1.755
 1284SOL    HW1 4751   2.564   2.505   1.812
 1284SOL    HW2 4752   2.721   2.550   1.813
 1285SOL     OW 4753   4.699   2.894   5.190
 1285SOL    HW1 4754   4.756   2.839   5.250
 1285SOL    HW2 4755   4.754   2.968   5.150
 1286SOL     OW 4756   5.495   4.281   1.700
 1286SOL    HW1 4757   5.497   4.227   1.616
 1286SOL    HW2 4758   5.540   4.230   1.773
 1287SOL     OW 4759   0.018   6.065   6.561
 1287SOL    HW1 4760   0.065   6.014   6.489
 1287SOL    HW2 4761   6.990   6.145   6.521
 1288SOL     OW 4762   6.823   3.208   1.086
 1288SOL    HW1 4763   6.796   3.187   1.180
 1288SOL    HW2 4764   6.865   3.127   1.045
 1289SOL     OW 4765   0.484   5.925   2.699
 1289SOL    HW1 4766   0.455   5.843   2.650
 1289SOL    HW2 4767   0.427   6.002   2.670
 1290SOL     OW 4768   0.650   6.388   0.597
 1290SOL    HW1 4769   0.671   6.312   0.659
 1290SOL    HW2 4770   0.718   6.392   0.525
 1291SOL     OW 4771   1.652   5.876   6.924
 1291SOL    HW1 4772   1.611   5.868   6.833
 1291SOL    HW2 4773   1.713   5.956   6.925
 1292SOL     OW 4774   1.001   5.166   0.745
 1292SOL    HW1 4775   0.956   5.166   0.655
 1292SOL    HW2 4776   1.004   5.259   0.780
 1293SOL     OW 4777   0.542   2.344   6.547
 1293SOL    HW1 4778   0.630   2.382   6.518
 1293SOL    HW2 4779   0.497   2.301   6.469
 1294SOL     OW 4780   0.158   2.404   2.110
 1294SOL    HW1 4781   0.075   2.352   2.088
 1294SOL    HW2 4782   0.140   2.501   2.098
 1295SOL     OW 4783   5.733   2.643   1.793
 1295SOL    HW1 4784   5.787   2.609   1.715
 1295SOL    HW2 4785   5.638   2.616   1.782
 1296SOL     OW 4786   3.435   2.123   6.334
 1296SOL    HW1 4787   3.465   2.139   6.428
 1296SOL    HW2 4788   3.457   2.029   6.307
 1297SOL     OW 4789   6.721   1.409   5.277
 1297SOL    HW1 4790   6.675   1.478   5.221
 1297SOL    HW2 4791   6.776   1.453   5.347
 1298SOL     OW 4792   6.186   2.769   3.198
 1298SOL    HW1 4793   6.271   2.737   3.240
 1298SOL    HW2 4794   6.198   2.776   3.099
 1299SOL     OW 4795   1.223   3.708   4.190
 1299SOL    HW1 4796   1.309   3.659   4.176
 1299SOL    HW2 4797   1.226   3.756   4.278
 1300SOL     OW 4798   3.700   2.982   1.779
 1300SOL    HW1 4799   3.646   2.898   1.770
 1300SOL    HW2 4800   3.691   3.017   1.872
 1301SOL     OW 4801   1.115   6.766   4.011
 1301SOL    HW1 4802   1.032   6.739   3.963
 1301SOL    HW2 4803   1.195   6.734   3.960
 1302SOL     OW 4804   2.965   6.237   4.646
 1302SOL    HW1 4805   2.986   6.325   4.688
 1302SOL    HW2 4806   2.894   6.190   4.699
 1303SOL     OW 4807   3.332   1.945   0.992
 1303SOL    HW1 4808   3.340   1.869   0.928
 1303SOL    HW2 4809   3.377   1.921   1.078
 1304SOL     OW 4810   2.494   0.328   6.573
 1304SOL    HW1 4811   2.505   0.395   6.500
 1304SOL    HW2 4812   2.516   0.371   6.661
 1305SOL     OW 4813   4.545   0.471   4.912
 1305SOL    HW1 4814   4.574   0.420   4.993
 1305SOL    HW2 4815   4.455   0.511   4.928
 1306SOL     OW 4816   1.018   4.667   4.458
 1306SOL    HW1 4817   1.038   4.600   4.529
 1306SOL    HW2 4818   1.043   4.630   4.369
 1307SOL     OW 4819   1.485   2.163   4.191
 1307SOL    HW1 4820   1.523   2.185   4.281
 1307SOL    HW2 4821   1.390   2.136   4.200
 1308SOL     OW 4822   4.791   6.428   3.756
 1308SOL    HW1 4823   4.693   6.444   3.741
 1308SOL    HW2 4824   4.802   6.347   3.814
 1309SOL     OW 4825   6.348   2.282   4.554
 1309SOL    HW1 4826   6.255   2.251   4.531
 1309SOL    HW2 4827   6.352   2.382   4.546
 1310SOL     OW 4828   5.678   3.790   4.417
 1310SOL    HW1 4829   5.742   3.806   4.493
 1310SOL    HW2 4830   5.713   3.835   4.334
 1311SOL     OW 4831   5.904   6.243   5.033
 1311SOL    HW1 4832   5.830   6.249   5.100
 1311SOL    HW2 4833   5.955   6.159   5.047
 1312SOL     OW 4834   0.773   0.232   0.595
 1312SOL    HW1 4835   0.779   0.140   0.633
 1312SOL    HW2 4836   0.703   0.234   0.524
 1313SOL     OW 4837   3.315   5.171   4.707
 1313SOL    HW1 4838   3.374   5.241   4.665
 1313SOL    HW2 4839   3.238   5.216   4.752
 1314SOL     OW 4840   0.728   1.501   5.515
 1314SOL    HW1 4841   0.646   1.446   5.502
 1314SOL    HW2 4842   0.762   1.490   5.609
 1315SOL     OW 4843   2.394   1.539   2.267
 1315SOL    HW1 4844   2.301   1.532   2.303
 1315SOL    HW2 4845   2.431   1.630   2.287
 1316SOL     OW 4846   2.685   6.805   3.964
 1316SOL    HW1 4847   2.636   6.849   3.889
 1316SOL    HW2 4848   2.780   6.787   3.937
 1317SOL     OW 4849   6.826   5.150   4.347
 1317SOL    HW1 4850   6.733   5.117   4.332
 1317SOL    HW2 4851   6.884   5.121   4.271
 1318SOL     OW 4852   0.310   6.842   0.558
 1318SOL    HW1 4853   0.348   6.922   0.511
 1318SOL    HW2 4854   0.215   6.829   0.529
 1319SOL     OW 4855   6.251   1.383   0.114
 1319SOL    HW1 4856   6.294   1.300   0.151
 1319SOL    HW2 4857   6.249   1.378   0.014
 1320SOL     OW 4858   5.510   5.040   5.702
 1320SOL    HW1 4859   5.530   5.131   5.737
 1320SOL    HW2 4860   5.595   4.987   5.697
 1321SOL     OW 4861   3.548   2.804   0.213
 1321SOL    HW1 4862   3.588   2.761   0.133
 1321SOL    HW2 4863   3.568   2.750   0.294
 1322SOL     OW 4864   6.372   1.590   3.970
 1322SOL    HW1 4865   6.323   1.561   4.052
 1322SOL    HW2 4866   6.464   1.551   3.971
 1323SOL     OW 4867   0.037   1.691   4.953
 1323SOL    HW1 4868   0.101   1.768   4.953
 1323SOL    HW2 4869   6.996   1.696   4.872
 1324SOL     OW 4870   1.680   3.732   1.697
 1324SOL    HW1 4871   1.682   3.831   1.710
 1324SOL    HW2 4872   1.594   3.696   1.734
 1325SOL     OW 4873   2.898   6.385   3.455
 1325SOL    HW1 4874   2.955   6.456   3.497
 1325SOL    HW2 4875   2.897   6.398   3.356
 1326SOL     OW 4876   5.461   3.105   4.373
 1326SOL    HW1 4877   5.492   3.180   4.315
 1326SOL    HW2 4878   5.362   3.111   4.385
 1327SOL     OW 4879   4.071   4.995   2.943
 1327SOL    HW1 4880   3.997   4.929   2.929
 1327SOL    HW2 4881   4.044   5.083   2.905
 1328SOL     OW 4882   1.670   2.080   6.781
 1328SOL    HW1 4883   1.611   2.054   6.705
 1328SOL    HW2 4884   1.725   2.159   6.756
 1329SOL     OW 4885   1.034   1.296   0.545
 1329SOL    HW1 4886   1.077   1.368   0.599
 1329SOL    HW2 4887   1.052   1.207   0.587
 1330SOL     OW 4888   0.234   0.172   1.242
 1330SOL    HW1 4889   0.280   0.104   1.183
 1330SOL    HW2 4890   0.165   0.220   1.189
 1331SOL     OW 4891   5.483   0.205   1.823
 1331SOL    HW1 4892   5.576   0.232   1.845
 1331SOL    HW2 4893   5.458   0.241   1.733
 1332SOL     OW 4894   4.272   1.179   1.355
 1332SOL    HW1 4895   4.213   1.131   1.292
 1332SOL    HW2 4896   4.343   1.117   1.389
 1333SOL     OW 4897   3.817   3.813   4.975
 1333SOL    HW1 4898   3.846   3.893   4.923
 1333SOL    HW2 4899   3.755   3.841   5.048
 1334SOL     OW 4900   0.449   3.817   4.633
 1334SOL    HW1 4901   0.538   3.806   4.678
 1334SOL    HW2 4902   0.379   3.770   4.687
 1335SOL     OW 4903   2.392   5.037   3.110
 1335SOL    HW1 4904   2.387   5.112   3.044
 1335SOL    HW2 4905   2.345   5.063   3.194
 1336SOL     OW 4906   0.930   0.527   5.302
 1336SOL    HW1 4907   0.893   0.437   5.327
 1336SOL    HW2 4908   0.862   0.598   5.322
 1337SOL     OW 4909   2.001   2.256   6.509
 1337SOL    HW1 4910   1.967   2.250   6.416
 1337SOL    HW2 4911   2.059   2.337   6.518
 1338SOL     OW 4912   4.467   5.435   6.511
 1338SOL    HW1 4913   4.423   5.503   6.450
 1338SOL    HW2 4914   4.566   5.448   6.508
 1339SOL     OW 4915   6.995   4.143   5.504
 1339SOL    HW1 4916   6.940   4.064   5.532
 1339SOL    HW2 4917   6.977   4.163   5.408
 1340SOL     OW 4918   1.328   2.172   0.662
 1340SOL    HW1 4919   1.370   2.134   0.580
 1340SOL    HW2 4920   1.245   2.121   0.683
 1341SOL     OW 4921   3.512   1.757   3.683
 1341SOL    HW1 4922   3.577   1.827   3.713
 1341SOL    HW2 4923   3.561   1.680   3.644
 1342SOL     OW 4924   0.534   6.370   1.014
 1342SOL    HW1 4925   0.518   6.410   0.923
 1342SOL    HW2 4926   0.592   6.289   1.005
 1343SOL     OW 4927   3.685   6.006   3.585
 1343SOL    HW1 4928   3.676   5.998   3.684
 1343SOL    HW2 4929   3.643   5.926   3.541
 1344SOL     OW 4930   6.429   1.055   2.401
 1344SOL    HW1 4931   6.352   0.992   2.409
 1344SOL    HW2 4932   6.505   1.009   2.356
 1345SOL     OW 4933   0.422   0.426   2.274
 1345SOL    HW1 4934   0.322   0.415   2.267
 1345SOL    HW2 4935   0.459   0.452   2.184
 1346SOL     OW 4936   0.208   0.218   3.640
 1346SOL    HW1 4937   0.264   0.165   3.704
 1346SOL    HW2 4938   0.253   0.304   3.619
 1347SOL     OW 4939   6.338   6.652   3.688
 1347SOL    HW1 4940   6.428   6.655   3.644
 1347SOL    HW2 4941   6.304   6.558   3.688
 1348SOL     OW 4942   5.815   4.223   4.330
 1348SOL    HW1 4943   5.847   4.283   4.256
 1348SOL    HW2 4944   5.717   4.236   4.344
 1349SOL     OW 4945   3.455   3.016   6.919
 1349SOL    HW1 4946   3.484   3.025   7.014
 1349SOL    HW2 4947   3.431   3.106   6.883
 1350SOL     OW 4948   3.032   0.491   6.439
 1350SOL    HW1 4949   3.037   0.588   6.461
 1350SOL    HW2 4950   3.123   0.458   6.412
 1351SOL     OW 4951   0.096   1.306   3.250
 1351SOL    HW1 4952   0.061   1.334   3.339
 1351SOL    HW2 4953   0.141   1.383   3.206
 1352SOL     OW 4954   0.102   0.775   3.219
 1352SOL    HW1 4955   0.160   0.847   3.255
 1352SOL    HW2 4956   0.157   0.693   3.200
 1353SOL     OW 4957   0.710   4.034   4.244
 1353SOL    HW1 4958   0.654   4.110   4.211
 1353SOL    HW2 4959   0.653   3.969   4.294
 1354SOL     OW 4960   0.446   6.848   2.601
 1354SOL    HW1 4961   0.364   6.813   2.556
 1354SOL    HW2 4962   0.526   6.823   2.546
 1355SOL     OW 4963   4.870   3.157   0.004
 1355SOL    HW1 4964   4.786   3.192   0.046
 1355SOL    HW2 4965   4.875   3.187   6.927
 1356SOL     OW 4966   3.377   3.454   2.606
 1356SOL    HW1 4967   3.420   3.364   2.594
 1356SOL    HW2 4968   3.395   3.487   2.699
 1357SOL     OW 4969   2.569   3.014   5.674
 1357SOL    HW1 4970   2.504   2.962   5.618
 1357SOL    HW2 4971   2.641   2.953   5.707
 1358SOL     OW 4972   2.123   2.466   6.586
 1358SOL    HW1 4973   2.164   2.556   6.600
 1358SOL    HW2 4974   2.117   2.418   6.674
 1359SOL     OW 4975   6.419   2.250   0.226
 1359SOL    HW1 4976   6.462   2.285   0.143
 1359SOL    HW2 4977   6.466   2.167   0.255
 1360SOL     OW 4978   4.034   3.763   3.967
 1360SOL    HW1 4979   3.951   3.806   4.002
 1360SOL    HW2 4980   4.083   3.718   4.042
 1361SOL     OW 4981   0.934   5.864   0.182
 1361SOL    HW1 4982   0.928   5.771   0.147
 1361SOL    HW2 4983   0.959   5.927   0.108
 1362SOL     OW 4984   3.084   3.544   5.901
 1362SOL    HW1 4985   3.067   3.621   5.963
 1362SOL    HW2 4986   3.081   3.459   5.953
 1363SOL     OW 4987   6.233   6.240   2.345
 1363SOL    HW1 4988   6.197   6.241   2.252
 1363SOL    HW2 4989   6.171   6.289   2.406
 1364SOL     OW 4990   0.020   3.501   1.292
 1364SOL    HW1 4991   6.948   3.543   1.279
 1364SOL    HW2 4992   0.069   3.549   1.364
 1365SOL     OW 4993   0.302   3.546   6.932
 1365SOL    HW1 4994   0.340   3.639   6.935
 1365SOL    HW2 4995   0.211   3.549   6.891
 1366SOL     OW 4996   6.976   1.499   0.764
 1366SOL    HW1 4997   6.891   1.531   0.808
 1366SOL    HW2 4998   0.019   1.461   0.834
 1367SOL     OW 4999   0.135   6.015   4.235
 1367SOL    HW1 5000   0.075   6.030   4.156
 1367SOL    HW2 5001   0.091   6.050   4.318
 1368SOL     OW 5002   0.262   6.935   4.589
 1368SOL    HW1 5003   0.166   6.960   4.599
 1368SOL    HW2 5004   0.270   6.845   4.546
 1369SOL     OW 5005   2.672   6.566   3.179
 1369SOL    HW1 5006   2.634   6.635   3.239
 1369SOL    HW2 5007   2.603   6.496   3.160
 1370SOL     OW 5008   6.915   2.840   3.073
 1370SOL    HW1 5009   6.990   2.830   3.138
 1370SOL    HW2 5010   6.854   2.914   3.103
 1371SOL     OW 5011   5.545   1.637   5.152
 1371SOL    HW1 5012   5.457   1.666   5.189
 1371SOL    HW2 5013   5.588   1.714   5.106
 1372SOL     OW 5014   6.424   2.476   0.006
 1372SOL    HW1 5015   6.485   2.417   6.971
 1372SOL    HW2 5016   6.348   2.505   6.967
 1373SOL     OW 5017   4.729   2.720   2.113
 1373SOL    HW1 5018   4.740   2.808   2.068
 1373SOL    HW2 5019   4.658   2.667   2.066
 1374SOL     OW 5020   5.123   4.894   0.314
 1374SOL    HW1 5021   5.196   4.827   0.334
 1374SOL    HW2 5022   5.092   4.936   0.400
 1375SOL     OW 5023   5.671   6.025   4.544
 1375SOL    HW1 5024   5.667   5.925   4.544
 1375SOL    HW2 5025   5.623   6.061   4.464
 1376SOL     OW 5026   1.702   4.921   6.429
 1376SOL    HW1 5027   1.650   4.901   6.346
 1376SOL    HW2 5028   1.731   4.836   6.473
 1377SOL     OW 5029   1.731   1.733   2.742
 1377SOL    HW1 5030   1.809   1.790   2.714
 1377SOL    HW2 5031   1.646   1.782   2.722
 1378SOL     OW 5032   4.881   2.610   4.487
 1378SOL    HW1 5033   4.973   2.620   4.451
 1378SOL    HW2 5034   4.815   2.644   4.421
 1379SOL     OW 5035   5.163   5.399   0.950
 1379SOL    HW1 5036   5.197   5.453   1.027
 1379SOL    HW2 5037   5.092   5.336   0.982
 1380SOL     OW 5038   0.088   5.567   1.070
 1380SOL    HW1 5039   0.046   5.644   1.022
 1380SOL    HW2 5040   0.039   5.483   1.046
 1381SOL     OW 5041   5.942   2.561   5.773
 1381SOL    HW1 5042   5.992   2.573   5.687
 1381SOL    HW2 5043   6.004   2.575   5.850
 1382SOL     OW 5044   4.254   2.794   1.027
 1382SOL    HW1 5045   4.270   2.818   1.122
 1382SOL    HW2 5046   4.186   2.857   0.988
 1383SOL     OW 5047   0.540   0.676   1.784
 1383SOL    HW1 5048   0.634   0.690   1.815
 1383SOL    HW2 5049   0.539   0.663   1.685
 1384SOL     OW 5050   5.187   0.691   1.402
 1384SOL    HW1 5051   5.280   0.726   1.416
 1384SOL    HW2 5052   5.180   0.600   1.444
 1385SOL     OW 5053   1.652   5.384   2.468
 1385SOL    HW1 5054   1.552   5.376   2.470
 1385SOL    HW2 5055   1.690   5.309   2.415
 1386SOL     OW 5056   2.984   5.970   4.048
 1386SOL    HW1 5057   2.969   5.891   3.989
 1386SOL    HW2 5058   3.019   6.046   3.994
 1387SOL     OW 5059   4.122   5.886   2.181
 1387SOL    HW1 5060   4.104   5.823   2.105
 1387SOL    HW2 5061   4.066   5.967   2.171
 1388SOL     OW 5062   0.093   0.770   1.331
 1388SOL    HW1 5063   0.059   0.678   1.311
 1388SOL    HW2 5064   0.023   0.837   1.306
 1389SOL     OW 5065   6.470   0.912   3.113
 1389SOL    HW1 5066   6.539   0.880   3.049
 1389SOL    HW2 5067   6.393   0.950   3.063
 1390SOL     OW 5068   0.009   2.456   5.781
 1390SOL    HW1 5069   0.076   2.466   5.854
 1390SOL    HW2 5070   6.983   2.366   5.788
 1391SOL     OW 5071   6.332   1.717   3.285
 1391SOL    HW1 5072   6.347   1.681   3.193
 1391SOL    HW2 5073   6.245   1.682   3.321
 1392SOL     OW 5074   4.651   5.116   5.386
 1392SOL    HW1 5075   4.601   5.052   5.445
 1392SOL    HW2 5076   4.593   5.193   5.361
 1393SOL     OW 5077   4.708   6.780   5.566
 1393SOL    HW1 5078   4.614   6.811   5.552
 1393SOL    HW2 5079   4.709   6.703   5.630
 1394SOL     OW 5080   2.793   5.808   5.371
 1394SOL    HW1 5081   2.790   5.890   5.314
 1394SOL    HW2 5082   2.712   5.752   5.352
 1395SOL     OW 5083   3.330   4.681   5.801
 1395SOL    HW1 5084   3.243   4.703   5.758
 1395SOL    HW2 5085   3.361   4.591   5.771
 1396SOL     OW 5086   6.854   6.401   4.818
 1396SOL    HW1 5087   6.823   6.495   4.823
 1396SOL    HW2 5088   6.802   6.352   4.747
 1397SOL     OW 5089   5.815   0.434   4.360
 1397SOL    HW1 5090   5.848   0.523   4.328
 1397SOL    HW2 5091   5.852   0.415   4.451
 1398SOL     OW 5092   1.294   1.587   5.325
 1398SOL    HW1 5093   1.281   1.676   5.280
 1398SOL    HW2 5094   1.292   1.600   5.424
 1399SOL     OW 5095   3.538   5.711   0.971
 1399SOL    HW1 5096   3.615   5.774   0.959
 1399SOL    HW2 5097   3.464   5.737   0.910
 1400SOL     OW 5098   6.469   1.167   1.964
 1400SOL    HW1 5099   6.446   1.070   1.966
 1400SOL    HW2 5100   6.562   1.178   1.929
 1401SOL     OW 5101   0.441   2.151   5.576
 1401SOL    HW1 5102   0.435   2.075   5.511
 1401SOL    HW2 5103   0.371   2.220   5.553
 1402SOL     OW 5104   0.031   3.248   0.204
 1402SOL    HW1 5105   0.118   3.287   0.173
 1402SOL    HW2 5106   6.976   3.272   0.140
 1403SOL     OW 5107   2.852   6.766   2.018
 1403SOL    HW1 5108   2.910   6.791   1.941
 1403SOL    HW2 5109   2.875   6.822   2.097
 1404SOL     OW 5110   5.691   0.650   0.152
 1404SOL    HW1 5111   5.618   0.695   0.099
 1404SOL    HW2 5112   5.711   0.704   0.234
 1405SOL     OW 5113   2.108   4.076   1.092
 1405SOL    HW1 5114   2.023   4.127   1.102
 1405SOL    HW2 5115   2.091   3.993   1.039
 1406SOL     OW 5116   1.006   4.559   1.624
 1406SOL    HW1 5117   1.077   4.509   1.573
 1406SOL    HW2 5118   1.009   4.531   1.720
 1407SOL     OW 5119   6.190   1.459   2.101
 1407SOL    HW1 5120   6.259   1.506   2.044
 1407SOL    HW2 5121   6.235   1.387   2.153
 1408SOL     OW 5122   5.535   0.746   6.208
 1408SOL    HW1 5123   5.553   0.719   6.302
 1408SOL    HW2 5124   5.492   0.836   6.206
 1409SOL     OW 5125   0.017   0.206   4.163
 1409SOL    HW1 5126   0.017   0.128   4.100
 1409SOL    HW2 5127   0.040   0.175   4.255
 1410SOL     OW 5128   0.952   3.009   6.889
 1410SOL    HW1 5129   1.025   3.032   6.952
 1410SOL    HW2 5130   0.909   2.923   6.918
 1411SOL     OW 5131   2.298   6.401   2.540
 1411SOL    HW1 5132   2.307   6.424   2.443
 1411SOL    HW2 5133   2.321   6.305   2.554
 1412SOL     OW 5134   1.993   2.921   0.630
 1412SOL    HW1 5135   1.929   2.991   0.601
 1412SOL    HW2 5136   1.964   2.884   0.718
 1413SOL     OW 5137   2.470   0.877   4.416
 1413SOL    HW1 5138   2.429   0.967   4.401
 1413SOL    HW2 5139   2.422   0.830   4.491
 1414SOL     OW 5140   2.518   1.789   1.775
 1414SOL    HW1 5141   2.566   1.849   1.838
 1414SOL    HW2 5142   2.428   1.766   1.813
 1415SOL     OW 5143   3.371   6.169   4.635
 1415SOL    HW1 5144   3.298   6.122   4.685
 1415SOL    HW2 5145   3.369   6.140   4.539
 1416SOL     OW 5146   4.573   4.388   2.807
 1416SOL    HW1 5147   4.475   4.401   2.826
 1416SOL    HW2 5148   4.596   4.434   2.722
 1417SOL     OW 5149   2.859   2.588   6.495
 1417SOL    HW1 5150   2.861   2.497   6.453
 1417SOL    HW2 5151   2.948   2.632   6.482
 1418SOL     OW 5152   3.225   4.077   3.156
 1418SOL    HW1 5153   3.220   4.089   3.057
 1418SOL    HW2 5154   3.143   4.030   3.188
 1419SOL     OW 5155   3.076   6.278   4.381
 1419SOL    HW1 5156   3.017   6.244   4.453
 1419SOL    HW2 5157   3.169   6.244   4.395
 1420SOL     OW 5158   1.355   6.240   2.434
 1420SOL    HW1 5159   1.314   6.186   2.508
 1420SOL    HW2 5160   1.312   6.214   2.348
 1421SOL     OW 5161   2.259   2.053   3.073
 1421SOL    HW1 5162   2.304   2.087   3.156
 1421SOL    HW2 5163   2.231   2.130   3.016
 1422SOL     OW 5164   2.474   4.556   2.078
 1422SOL    HW1 5165   2.508   4.583   1.987
 1422SOL    HW2 5166   2.382   4.519   2.069
 1423SOL     OW 5167   5.446   6.180   2.346
 1423SOL    HW1 5168   5.360   6.128   2.344
 1423SOL    HW2 5169   5.470   6.208   2.254
 1424SOL     OW 5170   5.498   4.995   4.790
 1424SOL    HW1 5171   5.461   5.078   4.831
 1424SOL    HW2 5172   5.592   4.981   4.821
 1425SOL     OW 5173   1.701   6.480   3.761
 1425SOL    HW1 5174   1.777   6.420   3.786
 1425SOL    HW2 5175   1.629   6.472   3.830
 1426SOL     OW 5176   1.003   1.985   5.728
 1426SOL    HW1 5177   1.100   2.002   5.707
 1426SOL    HW2 5178   0.997   1.931   5.812
 1427SOL     OW 5179   6.487   0.076   3.088
 1427SOL    HW1 5180   6.410   0.043   3.143
 1427SOL    HW2 5181   6.497   0.175   3.101
 1428SOL     OW 5182   6.239   2.248   0.677
 1428SOL    HW1 5183   6.143   2.224   0.665
 1428SOL    HW2 5184   6.274   2.204   0.759
 1429SOL     OW 5185   6.530   1.046   0.545
 1429SOL    HW1 5186   6.573   1.071   0.459
 1429SOL    HW2 5187   6.590   1.071   0.621
 1430SOL     OW 5188   1.235   3.863   3.799
 1430SOL    HW1 5189   1.175   3.824   3.869
 1430SOL    HW2 5190   1.280   3.790   3.748
 1431SOL     OW 5191   2.304   1.708   1.912
 1431SOL    HW1 5192   2.257   1.683   1.827
 1431SOL    HW2 5193   2.237   1.742   1.978
 1432SOL     OW 5194   2.486   1.193   3.562
 1432SOL    HW1 5195   2.395   1.233   3.557
 1432SOL    HW2 5196   2.540   1.221   3.482
 1433SOL     OW 5197   4.014   0.939   4.048
 1433SOL    HW1 5198   3.992   0.853   4.003
 1433SOL    HW2 5199   4.049   1.004   3.980
 1434SOL     OW 5200   0.474   0.862   5.392
 1434SOL    HW1 5201   0.499   0.886   5.299
 1434SOL    HW2 5202   0.401   0.923   5.425
 1435SOL     OW 5203   5.958   1.211   2.836
 1435SOL    HW1 5204   5.971   1.174   2.928
 1435SOL    HW2 5205   6.039   1.263   2.809
 1436SOL     OW 5206   3.774   4.331   6.754
 1436SOL    HW1 5207   3.682   4.313   6.720
 1436SOL    HW2 5208   3.829   4.247   6.748
 1437SOL     OW 5209   3.046   1.448   3.681
 1437SOL    HW1 5210   3.138   1.487   3.678
 1437SOL    HW2 5211   3.011   1.437   3.588
 1438SOL     OW 5212   3.768   6.547   1.830
 1438SOL    HW1 5213   3.678   6.505   1.820
 1438SOL    HW2 5214   3.773   6.631   1.776
 1439SOL     OW 5215   0.418   6.043   2.129
 1439SOL    HW1 5216   0.322   6.025   2.107
 1439SOL    HW2 5217   0.470   6.055   2.045
 1440SOL     OW 5218   2.691   4.205   0.963
 1440SOL    HW1 5219   2.764   4.179   1.026
 1440SOL    HW2 5220   2.631   4.126   0.946
 1441SOL     OW 5221   6.410   6.881   1.511
 1441SOL    HW1 5222   6.435   6.911   1.603
 1441SOL    HW2 5223   6.343   6.807   1.517
 1442SOL     OW 5224   6.028   6.153   6.723
 1442SOL    HW1 5225   5.985   6.072   6.684
 1442SOL    HW2 5226   6.119   6.165   6.683
 1443SOL     OW 5227   0.864   2.368   2.751
 1443SOL    HW1 5228   0.803   2.445   2.734
 1443SOL    HW2 5229   0.815   2.296   2.800
 1444SOL     OW 5230   5.496   0.014   0.566
 1444SOL    HW1 5231   5.536   0.089   0.617
 1444SOL    HW2 5232   5.560   7.003   0.494
 1445SOL     OW 5233   0.759   3.397   2.824
 1445SOL    HW1 5234   0.843   3.419   2.774
 1445SOL    HW2 5235   0.748   3.459   2.901
 1446SOL     OW 5236   6.014   6.971   6.576
 1446SOL    HW1 5237   6.023   0.037   6.629
 1446SOL    HW2 5238   5.935   6.978   6.515
 1447SOL     OW 5239   5.458   5.375   3.482
 1447SOL    HW1 5240   5.367   5.413   3.501
 1447SOL    HW2 5241   5.520   5.400   3.556
 1448SOL     OW 5242   0.450   3.026   5.054
 1448SOL    HW1 5243   0.405   3.111   5.081
 1448SOL    HW2 5244   0.549   3.041   5.051
 1449SOL     OW 5245   1.404   3.968   4.758
 1449SOL    HW1 5246   1.451   3.967   4.669
 1449SOL    HW2 5247   1.461   4.016   4.825
 1450SOL     OW 5248   0.936   1.580   5.346
 1450SOL    HW1 5249   0.868   1.562   5.417
 1450SOL    HW2 5250   1.002   1.505   5.342
 1451SOL     OW 5251   2.175   6.533   1.893
 1451SOL    HW1 5252   2.209   6.459   1.952
 1451SOL    HW2 5253   2.211   6.520   1.800
 1452SOL     OW 5254   4.316   3.098   6.243
 1452SOL    HW1 5255   4.269   3.012   6.226
 1452SOL    HW2 5256   4.337   3.106   6.340
 1453SOL     OW 5257   0.746   4.431   5.473
 1453SOL    HW1 5258   0.841   4.439   5.443
 1453SOL    HW2 5259   0.707   4.346   5.438
 1454SOL     OW 5260   3.052   2.085   3.477
 1454SOL    HW1 5261   3.070   1.988   3.494
 1454SOL    HW2 5262   2.974   2.115   3.532
 1455SOL     OW 5263   1.573   6.418   2.933
 1455SOL    HW1 5264   1.673   6.411   2.930
 1455SOL    HW2 5265   1.534   6.384   2.848
 1456SOL     OW 5266   6.510   6.075   5.942
 1456SOL    HW1 5267   6.448   6.017   5.889
 1456SOL    HW2 5268   6.460   6.115   6.019
 1457SOL     OW 5269   0.222   3.996   0.121
 1457SOL    HW1 5270   0.282   3.931   0.075
 1457SOL    HW2 5271   0.253   4.008   0.216
 1458SOL     OW 5272   5.577   5.309   5.514
 1458SOL    HW1 5273   5.659   5.275   5.467
 1458SOL    HW2 5274   5.496   5.263   5.478
 1459SOL     OW 5275   5.188   6.527   5.515
 1459SOL    HW1 5276   5.241   6.460   5.463
 1459SOL    HW2 5277   5.174   6.608   5.459
 1460SOL     OW 5278   1.293   6.417   5.684
 1460SOL    HW1 5279   1.322   6.358   5.609
 1460SOL    HW2 5280   1.261   6.504   5.648
 1461SOL     OW 5281   0.323   3.530   2.478
 1461SOL    HW1 5282   0.307   3.443   2.433
 1461SOL    HW2 5283   0.386   3.585   2.424
 1462SOL     OW 5284   0.671   0.622   6.971
 1462SOL    HW1 5285   0.763   0.618   7.011
 1462SOL    HW2 5286   0.645   0.532   6.936
 1463SOL     OW 5287   2.240   5.906   6.332
 1463SOL    HW1 5288   2.252   5.820   6.382
 1463SOL    HW2 5289   2.194   5.973   6.390
 1464SOL     OW 5290   5.955   3.940   4.039
 1464SOL    HW1 5291   6.011   3.980   4.111
 1464SOL    HW2 5292   6.014   3.894   3.972
 1465SOL     OW 5293   1.685   1.565   3.434
 1465SOL    HW1 5294   1.673   1.569   3.533
 1465SOL    HW2 5295   1.660   1.654   3.394
 1466SOL     OW 5296   3.642   2.538   1.683
 1466SOL    HW1 5297   3.570   2.604   1.705
 1466SOL    HW2 5298   3.639   2.463   1.750
 1467SOL     OW 5299   0.500   1.109   3.454
 1467SOL    HW1 5300   0.582   1.165   3.451
 1467SOL    HW2 5301   0.509   1.040   3.526
 1468SOL     OW 5302   3.224   5.560   1.987
 1468SOL    HW1 5303   3.202   5.644   1.938
 1468SOL    HW2 5304   3.264   5.494   1.923
 1469SOL     OW 5305   5.956   6.212   3.655
 1469SOL    HW1 5306   6.007   6.270   3.592
 1469SOL    HW2 5307   5.901   6.269   3.716
 1470SOL     OW 5308   0.039   2.514   0.923
 1470SOL    HW1 5309   6.958   2.508   0.910
 1470SOL    HW2 5310   0.072   2.431   0.968
 1471SOL     OW 5311   6.636   6.818   1.384
 1471SOL    HW1 5312   6.714   6.852   1.437
 1471SOL    HW2 5313   6.552   6.833   1.436
 1472SOL     OW 5314   2.917   0.182   6.138
 1472SOL    HW1 5315   2.925   0.231   6.051
 1472SOL    HW2 5316   2.877   0.242   6.207
 1473SOL     OW 5317   3.702   4.904   4.443
 1473SOL    HW1 5318   3.668   4.978   4.385
 1473SOL    HW2 5319   3.646   4.822   4.428
 1474SOL     OW 5320   4.526   4.846   1.410
 1474SOL    HW1 5321   4.553   4.941   1.394
 1474SOL    HW2 5322   4.463   4.842   1.488
 1475SOL     OW 5323   5.462   0.778   0.075
 1475SOL    HW1 5324   5.411   0.702   0.034
 1475SOL    HW2 5325   5.425   0.798   0.166
 1476SOL     OW 5326   2.982   0.930   1.326
 1476SOL    HW1 5327   2.889   0.899   1.343
 1476SOL    HW2 5328   2.988   0.974   1.236
 1477SOL     OW 5329   4.410   6.246   1.021
 1477SOL    HW1 5330   4.405   6.268   1.118
 1477SOL    HW2 5331   4.446   6.153   1.010
 1478SOL     OW 5332   5.062   6.034   5.041
 1478SOL    HW1 5333   5.088   6.075   4.954
 1478SOL    HW2 5334   5.107   5.945   5.051
 1479SOL     OW 5335   3.885   3.829   1.476
 1479SOL    HW1 5336   3.949   3.774   1.529
 1479SOL    HW2 5337   3.917   3.836   1.381
 1480SOL     OW 5338   2.732   0.592   5.538
 1480SOL    HW1 5339   2.680   0.662   5.588
 1480SOL    HW2 5340   2.708   0.501   5.574
 1481SOL     OW 5341   5.506   2.676   5.217
 1481SOL    HW1 5342   5.505   2.686   5.118
 1481SOL    HW2 5343   5.522   2.765   5.259
 1482SOL     OW 5344   4.795   0.189   0.694
 1482SOL    HW1 5345   4.837   0.179   0.784
 1482SOL    HW2 5346   4.759   0.101   0.663
 1483SOL     OW 5347   4.332   1.209   6.318
 1483SOL    HW1 5348   4.281   1.293   6.305
 1483SOL    HW2 5349   4.369   1.206   6.411
 1484SOL     OW 5350   2.880   4.791   4.141
 1484SOL    HW1 5351   2.940   4.843   4.202
 1484SOL    HW2 5352   2.846   4.711   4.189
 1485SOL     OW 5353   5.320   1.465   2.817
 1485SOL    HW1 5354   5.274   1.409   2.747
 1485SOL    HW2 5355   5.376   1.406   2.875
 1486SOL     OW 5356   5.094   6.836   3.409
 1486SOL    HW1 5357   5.148   6.862   3.329
 1486SOL    HW2 5358   5.151   6.842   3.491
 1487SOL     OW 5359   6.963   0.694   0.166
 1487SOL    HW1 5360   6.903   0.716   0.243
 1487SOL    HW2 5361   0.034   0.739   0.179
 1488SOL     OW 5362   6.429   0.833   2.631
 1488SOL    HW1 5363   6.505   0.768   2.618
 1488SOL    HW2 5364   6.383   0.848   2.544
 1489SOL     OW 5365   4.057   5.110   6.651
 1489SOL    HW1 5366   4.055   5.010   6.658
 1489SOL    HW2 5367   3.965   5.143   6.630
 1490SOL     OW 5368   0.339   2.203   2.019
 1490SOL    HW1 5369   0.402   2.149   2.076
 1490SOL    HW2 5370   0.280   2.258   2.078
 1491SOL     OW 5371   6.741   3.342   1.512
 1491SOL    HW1 5372   6.669   3.310   1.450
 1491SOL    HW2 5373   6.814   3.274   1.517
 1492SOL     OW 5374   6.289   0.832   2.400
 1492SOL    HW1 5375   6.196   0.830   2.436
 1492SOL    HW2 5376   6.306   0.751   2.344
 1493SOL     OW 5377   4.274   1.372   5.947
 1493SOL    HW1 5378   4.271   1.278   5.912
 1493SOL    HW2 5379   4.193   1.389   6.003
 1494SOL     OW 5380   5.561   2.220   5.789
 1494SOL    HW1 5381   5.640   2.275   5.760
 1494SOL    HW2 5382   5.552   2.224   5.889
 1495SOL     OW 5383   5.839   3.433   4.280
 1495SOL    HW1 5384   5.759   3.403   4.227
 1495SOL    HW2 5385   5.813   3.441   4.377
 1496SOL     OW 5386   6.818   6.034   6.990
 1496SOL    HW1 5387   6.809   5.982   0.057
 1496SOL    HW2 5388   6.749   6.106   6.987
 1497SOL     OW 5389   5.027   2.485   2.847
 1497SOL    HW1 5390   5.077   2.466   2.762
 1497SOL    HW2 5391   4.942   2.534   2.826
 1498SOL     OW 5392   3.278   4.735   1.348
 1498SOL    HW1 5393   3.287   4.653   1.404
 1498SOL    HW2 5394   3.189   4.778   1.365
 1499SOL     OW 5395   0.001   4.220   5.763
 1499SOL    HW1 5396   6.997   4.179   5.675
 1499SOL    HW2 5397   6.946   4.200   5.829
 1500SOL     OW 5398   0.854   5.824   0.523
 1500SOL    HW1 5399   0.854   5.911   0.473
 1500SOL    HW2 5400   0.921   5.762   0.481
 1501SOL     OW 5401   5.737   1.168   6.112
 1501SOL    HW1 5402   5.668   1.129   6.051
 1501SOL    HW2 5403   5.716   1.265   6.128
 1502SOL     OW 5404   0.137   1.197   5.963
 1502SOL    HW1 5405   0.074   1.147   5.905
 1502SOL    HW2 5406   0.227   1.153   5.961
 1503SOL     OW 5407   0.811   4.079   1.768
 1503SOL    HW1 5408   0.868   4.160   1.754
 1503SOL    HW2 5409   0.727   4.106   1.815
 1504SOL     OW 5410   0.461   6.930   3.152
 1504SOL    HW1 5411   0.472   6.892   3.244
 1504SOL    HW2 5412   0.366   6.917   3.122
 1505SOL     OW 5413   6.078   6.971   4.940
 1505SOL    HW1 5414   6.145   7.016   4.882
 1505SOL    HW2 5415   6.009   6.926   4.883
 1506SOL     OW 5416   1.870   0.974   1.003
 1506SOL    HW1 5417   1.916   0.943   1.086
 1506SOL    HW2 5418   1.828   1.063   1.020
 1507SOL     OW 5419   0.926   1.984   4.455
 1507SOL    HW1 5420   0.928   1.995   4.356
 1507SOL    HW2 5421   0.841   1.940   4.483
 1508SOL     OW 5422   0.660   0.991   0.459
 1508SOL    HW1 5423   0.730   0.933   0.417
 1508SOL    HW2 5424   0.692   1.085   0.461
 1509SOL     OW 5425   5.259   1.179   5.206
 1509SOL    HW1 5426   5.304   1.097   5.242
 1509SOL    HW2 5427   5.328   1.251   5.192
 1510SOL     OW 5428   3.206   6.898   3.858
 1510SOL    HW1 5429   3.158   6.982   3.832
 1510SOL    HW2 5430   3.305   6.911   3.846
 1511SOL     OW 5431   3.809   3.681   4.201
 1511SOL    HW1 5432   3.814   3.767   4.151
 1511SOL    HW2 5433   3.758   3.694   4.286
 1512SOL     OW 5434   6.529   6.199   1.408
 1512SOL    HW1 5435   6.458   6.237   1.468
 1512SOL    HW2 5436   6.608   6.261   1.407
 1513SOL     OW 5437   2.927   6.890   5.823
 1513SOL    HW1 5438   2.839   6.933   5.803
 1513SOL    HW2 5439   2.957   6.917   5.914
 1514SOL     OW 5440   3.401   2.390   5.569
 1514SOL    HW1 5441   3.358   2.449   5.637
 1514SOL    HW2 5442   3.331   2.332   5.527
 1515SOL     OW 5443   6.407   2.072   2.285
 1515SOL    HW1 5444   6.422   2.170   2.303
 1515SOL    HW2 5445   6.311   2.050   2.301
 1516SOL     OW 5446   6.146   6.140   4.604
 1516SOL    HW1 5447   6.079   6.202   4.564
 1516SOL    HW2 5448   6.184   6.080   4.533
 1517SOL     OW 5449   3.507   6.222   3.563
 1517SOL    HW1 5450   3.559   6.300   3.596
 1517SOL    HW2 5451   3.569   6.145   3.548
 1518SOL     OW 5452   6.772   2.583   0.311
 1518SOL    HW1 5453   6.843   2.653   0.321
 1518SOL    HW2 5454   6.719   2.601   0.228
 1519SOL     OW 5455   0.062   4.270   0.657
 1519SOL    HW1 5456   0.022   4.360   0.673
 1519SOL    HW2 5457   0.138   4.255   0.721
 1520SOL     OW 5458   1.065   5.024   1.528
 1520SOL    HW1 5459   0.982   5.057   1.484
 1520SOL    HW2 5460   1.048   4.937   1.574
 1521SOL     OW 5461   2.082   4.662   6.684
 1521SOL    HW1 5462   1.987   4.691   6.689
 1521SOL    HW2 5463   2.134   4.706   6.757
 1522SOL     OW 5464   4.918   5.684   4.885
 1522SOL    HW1 5465   4.910   5.605   4.945
 1522SOL    HW2 5466   4.828   5.712   4.853
 1523SOL     OW 5467   4.199   6.705   6.764
 1523SOL    HW1 5468   4.283   6.760   6.762
 1523SOL    HW2 5469   4.214   6.620   6.713
 1524SOL     OW 5470   2.638   2.045   2.673
 1524SOL    HW1 5471   2.689   2.086   2.748
 1524SOL    HW2 5472   2.679   1.958   2.648
 1525SOL     OW 5473   6.465   2.353   0.918
 1525SOL    HW1 5474   6.541   2.406   0.955
 1525SOL    HW2 5475   6.488   2.255   0.924
 1526SOL     OW 5476   0.385   1.718   6.909
 1526SOL    HW1 5477   0.322   1.787   6.944
 1526SOL    HW2 5478   0.476   1.758   6.898
 1527SOL     OW 5479   3.553   1.581   4.618
 1527SOL    HW1 5480   3.557   1.679   4.598
 1527SOL    HW2 5481   3.459   1.555   4.638
 1528SOL     OW 5482   4.823   3.794   0.773
 1528SOL    HW1 5483   4.847   3.825   0.865
 1528SOL    HW2 5484   4.747   3.730   0.778
 1529SOL     OW 5485   5.235   0.791   6.402
 1529SOL    HW1 5486   5.205   0.697   6.415
 1529SOL    HW2 5487   5.332   0.799   6.425
 1530SOL     OW 5488   3.169   0.256   1.540
 1530SOL    HW1 5489   3.105   0.195   1.586
 1530SOL    HW2 5490   3.122   0.306   1.468
 1531SOL     OW 5491   4.014   0.361   4.169
 1531SOL    HW1 5492   4.082   0.288   4.163
 1531SOL    HW2 5493   4.021   0.406   4.258
 1532SOL     OW 5494   3.329   5.194   5.911
 1532SOL    HW1 5495   3.345   5.100   5.941
 1532SOL    HW2 5496   3.266   5.239   5.975
 1533SOL     OW 5497   5.269   5.592   1.102
 1533SOL    HW1 5498   5.318   5.653   1.040
 1533SOL    HW2 5499   5.184   5.636   1.132
 1534SOL     OW 5500   3.995   6.151   6.810
 1534SOL    HW1 5501   3.906   6.143   6.765
 1534SOL    HW2 5502   4.027   6.245   6.803
 1535SOL     OW 5503   6.220   6.565   4.779
 1535SOL    HW1 5504   6.150   6.548   4.848
 1535SOL    HW2 5505   6.303   6.513   4.802
 1536SOL     OW 5506   4.024   4.335   0.165
 1536SOL    HW1 5507   4.020   4.325   0.264
 1536SOL    HW2 5508   4.120   4.341   0.136
 1537SOL     OW 5509   3.285   4.974   4.036
 1537SOL    HW1 5510   3.344   4.977   3.954
 1537SOL    HW2 5511   3.220   5.049   4.033
 1538SOL     OW 5512   3.468   1.785   0.324
 1538SOL    HW1 5513   3.412   1.705   0.300
 1538SOL    HW2 5514   3.425   1.868   0.288
 1539SOL     OW 5515   4.864   3.372   1.616
 1539SOL    HW1 5516   4.877   3.279   1.582
 1539SOL    HW2 5517   4.767   3.397   1.608
 1540SOL     OW 5518   2.155   0.240   4.477
 1540SOL    HW1 5519   2.056   0.239   4.487
 1540SOL    HW2 5520   2.191   0.327   4.512
 1541SOL     OW 5521   3.543   3.068   4.514
 1541SOL    HW1 5522   3.447   3.089   4.528
 1541SOL    HW2 5523   3.592   3.078   4.601
 1542SOL     OW 5524   6.417   6.750   2.374
 1542SOL    HW1 5525   6.415   6.848   2.356
 1542SOL    HW2 5526   6.502   6.727   2.421
 1543SOL     OW 5527   2.888   6.089   5.988
 1543SOL    HW1 5528   2.976   6.041   5.981
 1543SOL    HW2 5529   2.834   6.048   6.061
 1544SOL     OW 5530   4.079   3.186   3.872
 1544SOL    HW1 5531   4.032   3.139   3.946
 1544SOL    HW2 5532   4.113   3.120   3.806
 1545SOL     OW 5533   6.206   0.076   1.726
 1545SOL    HW1 5534   6.247   0.162   1.695
 1545SOL    HW2 5535   6.279   0.010   1.746
 1546SOL     OW 5536   5.014   0.060   5.592
 1546SOL    HW1 5537   5.111   0.065   5.616
 1546SOL    HW2 5538   4.998   7.002   5.529
 1547SOL     OW 5539   1.397   4.016   0.587
 1547SOL    HW1 5540   1.432   4.088   0.528
 1547SOL    HW2 5541   1.356   3.944   0.531
 1548SOL     OW 5542   6.476   2.930   0.375
 1548SOL    HW1 5543   6.543   2.897   0.309
 1548SOL    HW2 5544   6.393   2.874   0.370
 1549SOL     OW 5545   3.881   1.702   4.573
 1549SOL    HW1 5546   3.793   1.666   4.540
 1549SOL    HW2 5547   3.911   1.776   4.513
 1550SOL     OW 5548   4.114   3.300   2.688
 1550SOL    HW1 5549   4.047   3.250   2.742
 1550SOL    HW2 5550   4.128   3.391   2.727
 1551SOL     OW 5551   0.994   4.876   0.033
 1551SOL    HW1 5552   1.084   4.832   0.035
 1551SOL    HW2 5553   0.945   4.856   0.117
 1552SOL     OW 5554   2.894   4.675   1.444
 1552SOL    HW1 5555   2.957   4.660   1.521
 1552SOL    HW2 5556   2.802   4.645   1.470
 1553SOL     OW 5557   0.632   1.907   6.027
 1553SOL    HW1 5558   0.557   1.929   6.089
 1553SOL    HW2 5559   0.626   1.965   5.945
 1554SOL     OW 5560   3.256   2.167   3.626
 1554SOL    HW1 5561   3.180   2.143   3.566
 1554SOL    HW2 5562   3.220   2.211   3.709
 1555SOL     OW 5563   5.999   2.430   6.051
 1555SOL    HW1 5564   6.054   2.488   6.110
 1555SOL    HW2 5565   5.920   2.481   6.017
 1556SOL     OW 5566   1.956   1.031   6.506
 1556SOL    HW1 5567   1.935   1.075   6.593
 1556SOL    HW2 5568   1.969   1.100   6.435
 1557SOL     OW 5569   1.657   3.687   6.071
 1557SOL    HW1 5570   1.731   3.631   6.034
 1557SOL    HW2 5571   1.671   3.702   6.168
 1558SOL     OW 5572   6.480   0.434   4.690
 1558SOL    HW1 5573   6.450   0.339   4.695
 1558SOL    HW2 5574   6.551   0.444   4.619
 1559SOL     OW 5575   0.242   2.795   6.354
 1559SOL    HW1 5576   0.323   2.843   6.321
 1559SOL    HW2 5577   0.237   2.804   6.454
 1560SOL     OW 5578   7.003   0.960   6.349
 1560SOL    HW1 5579   0.045   0.885   6.320
 1560SOL    HW2 5580   0.040   1.032   6.391
 1561SOL     OW 5581   4.642   6.187   2.733
 1561SOL    HW1 5582   4.551   6.225   2.715
 1561SOL    HW2 5583   4.633   6.101   2.783
 1562SOL     OW 5584   4.674   6.841   2.337
 1562SOL    HW1 5585   4.625   6.899   2.401
 1562SOL    HW2 5586   4.654   6.870   2.243
 1563SOL     OW 5587   3.335   1.399   6.480
 1563SOL    HW1 5588   3.280   1.457   6.420
 1563SOL    HW2 5589   3.276   1.358   6.549
 1564SOL     OW 5590   1.557   1.227   2.069
 1564SOL    HW1 5591   1.641   1.175   2.086
 1564SOL    HW2 5592   1.580   1.319   2.039
 1565SOL     OW 5593   4.924   3.683   2.354
 1565SOL    HW1 5594   4.873   3.687   2.267
 1565SOL    HW2 5595   4.884   3.612   2.412
 1566SOL     OW 5596   5.274   4.044   3.367
 1566SOL    HW1 5597   5.235   3.973   3.426
 1566SOL    HW2 5598   5.337   4.100   3.420
 1567SOL     OW 5599   5.717   5.818   6.047
 1567SOL    HW1 5600   5.781   5.754   6.005
 1567SOL    HW2 5601   5.686   5.780   6.135
 1568SOL     OW 5602   1.204   0.524   0.616
 1568SOL    HW1 5603   1.236   0.432   0.596
 1568SOL    HW2 5604   1.126   0.520   0.679
 1569SOL     OW 5605   3.821   6.744   4.765
 1569SOL    HW1 5606   3.799   6.825   4.820
 1569SOL    HW2 5607   3.908   6.759   4.717
 1570SOL     OW 5608   2.876   2.072   1.446
 1570SOL    HW1 5609   2.907   2.128   1.522
 1570SOL    HW2 5610   2.810   2.123   1.391
 1571SOL     OW 5611   6.145   3.271   1.880
 1571SOL    HW1 5612   6.148   3.365   1.916
 1571SOL    HW2 5613   6.232   3.249   1.836
 1572SOL     OW 5614   0.559   0.071   2.033
 1572SOL    HW1 5615   0.604   0.158   2.014
 1572SOL    HW2 5616   0.585   0.004   1.964
 1573SOL     OW 5617   5.271   6.742   1.376
 1573SOL    HW1 5618   5.371   6.741   1.380
 1573SOL    HW2 5619   5.241   6.687   1.298
 1574SOL     OW 5620   0.350   2.251   1.728
 1574SOL    HW1 5621   0.277   2.261   1.660
 1574SOL    HW2 5622   0.346   2.328   1.792
 1575SOL     OW 5623   1.866   2.621   0.416
 1575SOL    HW1 5624   1.798   2.685   0.454
 1575SOL    HW2 5625   1.948   2.672   0.391
 1576SOL     OW 5626   5.477   6.073   3.733
 1576SOL    HW1 5627   5.396   6.015   3.722
 1576SOL    HW2 5628   5.479   6.140   3.659
 1577SOL     OW 5629   2.572   0.737   5.725
 1577SOL    HW1 5630   2.509   0.661   5.708
 1577SOL    HW2 5631   2.521   0.815   5.763
 1578SOL     OW 5632   5.979   3.706   5.824
 1578SOL    HW1 5633   6.032   3.653   5.758
 1578SOL    HW2 5634   6.012   3.687   5.917
 1579SOL     OW 5635   0.439   1.473   3.029
 1579SOL    HW1 5636   0.465   1.532   3.105
 1579SOL    HW2 5637   0.341   1.481   3.013
 1580SOL     OW 5638   2.732   4.371   5.303
 1580SOL    HW1 5639   2.634   4.377   5.285
 1580SOL    HW2 5640   2.782   4.418   5.230
 1581SOL     OW 5641   6.233   3.833   4.681
 1581SOL    HW1 5642   6.145   3.882   4.687
 1581SOL    HW2 5643   6.266   3.836   4.586
 1582SOL     OW 5644   0.516   5.118   4.577
 1582SOL    HW1 5645   0.614   5.127   4.592
 1582SOL    HW2 5646   0.492   5.022   4.565
 1583SOL     OW 5647   2.059   3.053   3.795
 1583SOL    HW1 5648   2.123   3.008   3.732
 1583SOL    HW2 5649   2.108   3.123   3.848
 1584SOL     OW 5650   2.115   6.727   5.394
 1584SOL    HW1 5651   2.069   6.641   5.415
 1584SOL    HW2 5652   2.175   6.715   5.315
 1585SOL     OW 5653   5.559   1.946   3.318
 1585SOL    HW1 5654   5.524   2.039   3.303
 1585SOL    HW2 5655   5.614   1.919   3.240
 1586SOL     OW 5656   3.847   3.953   2.299
 1586SOL    HW1 5657   3.780   3.995   2.360
 1586SOL    HW2 5658   3.940   3.971   2.333
 1587SOL     OW 5659   3.543   6.869   0.070
 1587SOL    HW1 5660   3.483   6.792   0.048
 1587SOL    HW2 5661   3.529   6.897   0.165
 1588SOL     OW 5662   5.526   1.644   1.948
 1588SOL    HW1 5663   5.532   1.695   2.034
 1588SOL    HW2 5664   5.456   1.686   1.890
 1589SOL     OW 5665   5.804   4.617   3.961
 1589SOL    HW1 5666   5.899   4.647   3.955
 1589SOL    HW2 5667   5.771   4.595   3.869
 1590SOL     OW 5668   1.949   6.831   0.540
 1590SOL    HW1 5669   1.965   6.906   0.604
 1590SOL    HW2 5670   1.997   6.850   0.455
 1591SOL     OW 5671   1.073   4.482   2.392
 1591SOL    HW1 5672   1.030   4.475   2.481
 1591SOL    HW2 5673   1.105   4.392   2.363
 1592SOL     OW 5674   2.966   3.323   2.419
 1592SOL    HW1 5675   2.918   3.409   2.401
 1592SOL    HW2 5676   2.979   3.273   2.333
 1593SOL     OW 5677   0.647   6.172   4.377
 1593SOL    HW1 5678   0.717   6.155   4.446
 1593SOL    HW2 5679   0.571   6.108   4.389
 1594SOL     OW 5680   6.920   5.219   2.397
 1594SOL    HW1 5681   7.003   5.171   2.370
 1594SOL    HW2 5682   6.867   5.162   2.459
 1595SOL     OW 5683   0.014   4.798   6.510
 1595SOL    HW1 5684   6.945   4.765   6.545
 1595SOL    HW2 5685   0.077   4.721   6.497
 1596SOL     OW 5686   2.016   5.555   5.867
 1596SOL    HW1 5687   1.951   5.596   5.931
 1596SOL    HW2 5688   2.075   5.626   5.829
 1597SOL     OW 5689   2.288   6.328   2.048
 1597SOL    HW1 5690   2.238   6.257   1.998
 1597SOL    HW2 5691   2.308   6.296   2.141
 1598SOL     OW 5692   0.538   4.194   1.160
 1598SOL    HW1 5693   0.465   4.130   1.136
 1598SOL    HW2 5694   0.608   4.193   1.089
 1599SOL     OW 5695   3.658   4.890   6.943
 1599SOL    HW1 5696   3.696   4.869   0.015
 1599SOL    HW2 5697   3.561   4.912   6.951
 1600SOL     OW 5698   5.442   1.386   5.154
 1600SOL    HW1 5699   5.494   1.317   5.104
 1600SOL    HW2 5700   5.476   1.477   5.130
 1601SOL     OW 5701   0.985   4.629   5.127
 1601SOL    HW1 5702   1.081   4.656   5.119
 1601SOL    HW2 5703   0.960   4.572   5.049
 1602SOL     OW 5704   1.609   5.768   3.600
 1602SOL    HW1 5705   1.550   5.713   3.541
 1602SOL    HW2 5706   1.603   5.734   3.694
 1603SOL     OW 5707   0.667   6.673   2.183
 1603SOL    HW1 5708   0.758   6.686   2.143
 1603SOL    HW2 5709   0.670   6.597   2.248
 1604SOL     OW 5710   6.935   5.192   6.747
 1604SOL    HW1 5711   6.868   5.120   6.736
 1604SOL    HW2 5712   6.971   5.191   6.840
 1605SOL     OW 5713   6.546   6.561   2.973
 1605SOL    HW1 5714   6.493   6.614   2.907
 1605SOL    HW2 5715   6.624   6.616   3.004
 1606SOL     OW 5716   4.476   6.897   5.745
 1606SOL    HW1 5717   4.471   6.800   5.769
 1606SOL    HW2 5718   4.571   6.928   5.749
 1607SOL     OW 5719   4.499   2.665   0.952
 1607SOL    HW1 5720   4.508   2.723   0.871
 1607SOL    HW2 5721   4.427   2.701   1.011
 1608SOL     OW 5722   2.270   6.512   0.566
 1608SOL    HW1 5723   2.230   6.504   0.475
 1608SOL    HW2 5724   2.364   6.545   0.558
 1609SOL     OW 5725   5.278   1.954   5.922
 1609SOL    HW1 5726   5.208   1.927   5.988
 1609SOL    HW2 5727   5.246   2.033   5.870
 1610SOL     OW 5728   6.654   6.405   4.606
 1610SOL    HW1 5729   6.647   6.305   4.604
 1610SOL    HW2 5730   6.624   6.439   4.695
 1611SOL     OW 5731   3.972   3.677   1.676
 1611SOL    HW1 5732   3.892   3.631   1.714
 1611SOL    HW2 5733   4.010   3.740   1.744
 1612SOL     OW 5734   2.194   1.462   4.933
 1612SOL    HW1 5735   2.124   1.398   4.903
 1612SOL    HW2 5736   2.279   1.413   4.951
 1613SOL     OW 5737   2.423   5.673   0.716
 1613SOL    HW1 5738   2.373   5.657   0.802
 1613SOL    HW2 5739   2.415   5.769   0.690
 1614SOL     OW 5740   6.270   2.104   0.006
 1614SOL    HW1 5741   6.285   2.018   6.975
 1614SOL    HW2 5742   6.235   2.173   6.960
 1615SOL     OW 5743   6.800   4.450   6.539
 1615SOL    HW1 5744   6.788   4.537   6.491
 1615SOL    HW2 5745   6.721   4.392   6.523
 1616SOL     OW 5746   3.557   1.670   6.286
 1616SOL    HW1 5747   3.509   1.704   6.205
 1616SOL    HW2 5748   3.538   1.732   6.363
 1617SOL     OW 5749   5.413   0.779   2.787
 1617SOL    HW1 5750   5.380   0.852   2.846
 1617SOL    HW2 5751   5.463   0.818   2.709
 1618SOL     OW 5752   6.488   3.317   1.385
 1618SOL    HW1 5753   6.471   3.376   1.306
 1618SOL    HW2 5754   6.417   3.332   1.453
 1619SOL     OW 5755   1.468   3.344   4.288
 1619SOL    HW1 5756   1.544   3.390   4.334
 1619SOL    HW2 5757   1.382   3.371   4.330
 1620SOL     OW 5758   3.015   5.717   1.834
 1620SOL    HW1 5759   3.093   5.728   1.773
 1620SOL    HW2 5760   2.953   5.648   1.796
 1621SOL     OW 5761   1.144   0.166   0.864
 1621SOL    HW1 5762   1.145   0.097   0.792
 1621SOL    HW2 5763   1.237   0.181   0.897
 1622SOL     OW 5764   1.713   1.754   4.895
 1622SOL    HW1 5765   1.679   1.682   4.834
 1622SOL    HW2 5766   1.637   1.792   4.947
 1623SOL     OW 5767   2.595   1.882   6.042
 1623SOL    HW1 5768   2.648   1.941   5.981
 1623SOL    HW2 5769   2.548   1.812   5.988
 1624SOL     OW 5770   3.254   1.625   0.253
 1624SOL    HW1 5771   3.277   1.615   0.156
 1624SOL    HW2 5772   3.156   1.645   0.261
 1625SOL     OW 5773   0.999   4.938   1.827
 1625SOL    HW1 5774   0.974   4.950   1.923
 1625SOL    HW2 5775   1.052   5.017   1.796
 1626SOL     OW 5776   1.863   3.074   6.436
 1626SOL    HW1 5777   1.835   3.073   6.532
 1626SOL    HW2 5778   1.850   3.166   6.398
 1627SOL     OW 5779   6.469   2.673   3.575
 1627SOL    HW1 5780   6.544   2.653   3.640
 1627SOL    HW2 5781   6.508   2.708   3.490
 1628SOL     OW 5782   3.388   4.522   0.550
 1628SOL    HW1 5783   3.357   4.581   0.625
 1628SOL    HW2 5784   3.425   4.437   0.588
 1629SOL     OW 5785   3.559   2.109   4.562
 1629SOL    HW1 5786   3.473   2.148   4.594
 1629SOL    HW2 5787   3.629   2.122   4.633
 1630SOL     OW 5788   0.724   4.858   5.560
 1630SOL    HW1 5789   0.740   4.771   5.606
 1630SOL    HW2 5790   0.812   4.903   5.543
 1631SOL     OW 5791   6.898   6.738   5.277
 1631SOL    HW1 5792   6.979   6.708   5.326
 1631SOL    HW2 5793   6.835   6.661   5.266
 1632SOL     OW 5794   0.155   0.701   0.509
 1632SOL    HW1 5795   0.238   0.673   0.460
 1632SOL    HW2 5796   0.124   0.789   0.474
 1633SOL     OW 5797   6.008   1.845   3.402
 1633SOL    HW1 5798   6.021   1.748   3.381
 1633SOL    HW2 5799   6.096   1.891   3.401
 1634SOL     OW 5800   2.870   0.090   6.471
 1634SOL    HW1 5801   2.964   0.058   6.474
 1634SOL    HW2 5802   2.867   0.185   6.439
 1635SOL     OW 5803   7.016   5.792   4.843
 1635SOL    HW1 5804   6.941   5.852   4.867
 1635SOL    HW2 5805   0.070   5.799   4.913
 1636SOL     OW 5806   2.503   5.804   2.226
 1636SOL    HW1 5807   2.587   5.856   2.212
 1636SOL    HW2 5808   2.492   5.737   2.153
 1637SOL     OW 5809   0.051   3.312   2.146
 1637SOL    HW1 5810   0.057   3.395   2.201
 1637SOL    HW2 5811   6.984   3.313   2.093
 1638SOL     OW 5812   6.981   3.386   4.379
 1638SOL    HW1 5813   6.926   3.453   4.328
 1638SOL    HW2 5814   6.964   3.397   4.477
 1639SOL     OW 5815   4.514   5.566   2.816
 1639SOL    HW1 5816   4.471   5.549   2.905
 1639SOL    HW2 5817   4.505   5.485   2.759
 1640SOL     OW 5818   6.595   0.762   0.632
 1640SOL    HW1 5819   6.571   0.809   0.717
 1640SOL    HW2 5820   6.564   0.817   0.554
 1641SOL     OW 5821   5.691   3.430   5.438
 1641SOL    HW1 5822   5.741   3.498   5.385
 1641SOL    HW2 5823   5.615   3.394   5.383
 1642SOL     OW 5824   6.642   2.455   0.518
 1642SOL    HW1 5825   6.720   2.482   0.574
 1642SOL    HW2 5826   6.653   2.491   0.426
 1643SOL     OW 5827   3.751   6.499   5.178
 1643SOL    HW1 5828   3.827   6.563   5.190
 1643SOL    HW2 5829   3.743   6.475   5.082
 1644SOL     OW 5830   2.579   1.407   1.600
 1644SOL    HW1 5831   2.655   1.376   1.658
 1644SOL    HW2 5832   2.578   1.353   1.516
 1645SOL     OW 5833   3.123   6.728   6.727
 1645SOL    HW1 5834   3.214   6.704   6.693
 1645SOL    HW2 5835   3.127   6.816   6.774
 1646SOL     OW 5836   1.361   4.208   0.772
 1646SOL    HW1 5837   1.460   4.224   0.780
 1646SOL    HW2 5838   1.345   4.116   0.737
 1647SOL     OW 5839   5.881   3.055   3.666
 1647SOL    HW1 5840   5.869   3.144   3.710
 1647SOL    HW2 5841   5.857   3.061   3.570
 1648SOL     OW 5842   4.583   6.969   2.059
 1648SOL    HW1 5843   4.622   0.039   2.084
 1648SOL    HW2 5844   4.624   6.936   1.974
 1649SOL     OW 5845   2.949   1.162   3.244
 1649SOL    HW1 5846   2.930   1.222   3.166
 1649SOL    HW2 5847   3.033   1.110   3.227
 1650SOL     OW 5848   2.645   0.484   3.697
 1650SOL    HW1 5849   2.715   0.412   3.693
 1650SOL    HW2 5850   2.606   0.496   3.605
 1651SOL     OW 5851   0.946   0.483   0.240
 1651SOL    HW1 5852   0.897   0.550   0.295
 1651SOL    HW2 5853   1.044   0.488   0.261
 1652SOL     OW 5854   2.984   2.666   1.697
 1652SOL    HW1 5855   2.965   2.575   1.733
 1652SOL    HW2 5856   2.964   2.668   1.599
 1653SOL     OW 5857   0.201   5.166   1.020
 1653SOL    HW1 5858   0.185   5.116   1.105
 1653SOL    HW2 5859   0.237   5.257   1.040
 1654SOL     OW 5860   6.666   3.481   2.997
 1654SOL    HW1 5861   6.742   3.538   3.029
 1654SOL    HW2 5862   6.691   3.438   2.911
 1655SOL     OW 5863   5.215   3.924   6.592
 1655SOL    HW1 5864   5.212   3.934   6.493
 1655SOL    HW2 5865   5.129   3.956   6.632
 1656SOL     OW 5866   1.626   5.051   3.675
 1656SOL    HW1 5867   1.678   4.984   3.622
 1656SOL    HW2 5868   1.565   5.003   3.738
 1657SOL     OW 5869   0.995   0.481   4.788
 1657SOL    HW1 5870   0.897   0.496   4.779
 1657SOL    HW2 5871   1.012   0.387   4.815
 1658SOL     OW 5872   5.857   5.980   3.254
 1658SOL    HW1 5873   5.876   6.005   3.159
 1658SOL    HW2 5874   5.884   5.885   3.271
 1659SOL     OW 5875   3.564   2.354   6.291
 1659SOL    HW1 5876   3.639   2.327   6.350
 1659SOL    HW2 5877   3.500   2.278   6.281
 1660SOL     OW 5878   1.611   6.023   3.672
 1660SOL    HW1 5879   1.653   6.022   3.763
 1660SOL    HW2 5880   1.601   5.929   3.639
 1661SOL     OW 5881   3.331   0.882   2.237
 1661SOL    HW1 5882   3.255   0.875   2.301
 1661SOL    HW2 5883   3.296   0.901   2.146
 1662SOL     OW 5884   0.144   1.163   3.002
 1662SOL    HW1 5885   0.085   1.206   3.071
 1662SOL    HW2 5886   0.100   1.080   2.969
 1663SOL     OW 5887   3.376   0.083   2.862
 1663SOL    HW1 5888   3.375   7.010   2.822
 1663SOL    HW2 5889   3.459   0.095   2.917
 1664SOL     OW 5890   1.926   6.293   4.355
 1664SOL    HW1 5891   1.869   6.347   4.416
 1664SOL    HW2 5892   1.964   6.352   4.284
 1665SOL     OW 5893   0.075   0.798   2.904
 1665SOL    HW1 5894   0.153   0.822   2.846
 1665SOL    HW2 5895   0.103   0.801   3.000
 1666SOL     OW 5896   5.572   2.608   5.868
 1666SOL    HW1 5897   5.556   2.706   5.853
 1666SOL    HW2 5898   5.607   2.567   5.785
 1667SOL     OW 5899   6.432   6.988   6.399
 1667SOL    HW1 5900   6.500   6.920   6.427
 1667SOL    HW2 5901   6.341   6.946   6.397
 1668SOL     OW 5902   4.009   0.707   4.632
 1668SOL    HW1 5903   3.948   0.734   4.706
 1668SOL    HW2 5904   4.081   0.647   4.667
 1669SOL     OW 5905   5.515   0.277   6.148
 1669SOL    HW1 5906   5.564   0.288   6.062
 1669SOL    HW2 5907   5.488   0.181   6.159
 1670SOL     OW 5908   5.708   4.483   5.449
 1670SOL    HW1 5909   5.799   4.453   5.422
 1670SOL    HW2 5910   5.675   4.551   5.384
 1671SOL     OW 5911   4.801   3.122   0.435
 1671SOL    HW1 5912   4.782   3.102   0.531
 1671SOL    HW2 5913   4.718   3.158   0.392
 1672SOL     OW 5914   2.008   5.014   2.056
 1672SOL    HW1 5915   2.069   4.935   2.054
 1672SOL    HW2 5916   1.959   5.015   2.143
 1673SOL     OW 5917   6.588   3.739   3.968
 1673SOL    HW1 5918   6.665   3.681   3.941
 1673SOL    HW2 5919   6.621   3.831   3.988
 1674SOL     OW 5920   0.731   3.993   0.321
 1674SOL    HW1 5921   0.745   3.922   0.390
 1674SOL    HW2 5922   0.633   4.012   0.313
 1675SOL     OW 5923   4.708   1.563   6.612
 1675SOL    HW1 5924   4.754   1.637   6.562
 1675SOL    HW2 5925   4.639   1.601   6.673
 1676SOL     OW 5926   1.729   0.932   2.890
 1676SOL    HW1 5927   1.728   0.918   2.989
 1676SOL    HW2 5928   1.673   1.012   2.868
 1677SOL     OW 5929   5.866   1.723   5.492
 1677SOL    HW1 5930   5.808   1.710   5.412
 1677SOL    HW2 5931   5.944   1.780   5.468
 1678SOL     OW 5932   5.233   6.388   1.726
 1678SOL    HW1 5933   5.288   6.328   1.785
 1678SOL    HW2 5934   5.243   6.359   1.631
 1679SOL     OW 5935   0.813   3.208   6.104
 1679SOL    HW1 5936   0.742   3.269   6.068
 1679SOL    HW2 5937   0.875   3.260   6.163
 1680SOL     OW 5938   0.369   1.136   4.057
 1680SOL    HW1 5939   0.447   1.199   4.063
 1680SOL    HW2 5940   0.295   1.179   4.006
 1681SOL     OW 5941   6.576   5.520   0.811
 1681SOL    HW1 5942   6.558   5.533   0.909
 1681SOL    HW2 5943   6.491   5.501   0.763
 1682SOL     OW 5944   6.663   3.548   5.368
 1682SOL    HW1 5945   6.586   3.575   5.310
 1682SOL    HW2 5946   6.680   3.619   5.436
 1683SOL     OW 5947   5.031   6.621   1.415
 1683SOL    HW1 5948   4.969   6.689   1.375
 1683SOL    HW2 5949   5.120   6.663   1.430
 1684SOL     OW 5950   0.405   6.675   5.371
 1684SOL    HW1 5951   0.360   6.747   5.423
 1684SOL    HW2 5952   0.417   6.704   5.276
 1685SOL     OW 5953   1.583   1.200   0.405
 1685SOL    HW1 5954   1.653   1.271   0.395
 1685SOL    HW2 5955   1.504   1.224   0.348
 1686SOL     OW 5956   1.143   5.990   5.858
 1686SOL    HW1 5957   1.205   5.961   5.785
 1686SOL    HW2 5958   1.073   6.051   5.820
 1687SOL     OW 5959   1.777   5.123   2.363
 1687SOL    HW1 5960   1.758   5.145   2.267
 1687SOL    HW2 5961   1.729   5.040   2.389
 1688SOL     OW 5962   1.804   1.985   3.070
 1688SOL    HW1 5963   1.710   1.998   3.037
 1688SOL    HW2 5964   1.832   1.890   3.052
 1689SOL     OW 5965   2.464   1.189   2.376
 1689SOL    HW1 5966   2.562   1.197   2.358
 1689SOL    HW2 5967   2.430   1.103   2.338
 1690SOL     OW 5968   1.842   1.682   1.839
 1690SOL    HW1 5969   1.836   1.590   1.878
 1690SOL    HW2 5970   1.807   1.748   1.904
 1691SOL     OW 5971   5.182   3.666   3.012
 1691SOL    HW1 5972   5.203   3.674   2.915
 1691SOL    HW2 5973   5.109   3.598   3.024
 1692SOL     OW 5974   0.824   6.999   2.029
 1692SOL    HW1 5975   0.865   6.908   2.039
 1692SOL    HW2 5976   0.825   0.027   2.118
 1693SOL     OW 5977   2.717   2.375   3.457
 1693SOL    HW1 5978   2.750   2.297   3.510
 1693SOL    HW2 5979   2.717   2.457   3.516
 1694SOL     OW 5980   4.574   6.027   5.271
 1694SOL    HW1 5981   4.549   5.968   5.348
 1694SOL    HW2 5982   4.663   6.071   5.291
 1695SOL     OW 5983   3.038   2.590   5.377
 1695SOL    HW1 5984   3.070   2.681   5.404
 1695SOL    HW2 5985   3.091   2.557   5.300
 1696SOL     OW 5986   5.101   5.547   0.648
 1696SOL    HW1 5987   5.056   5.518   0.732
 1696SOL    HW2 5988   5.146   5.468   0.605
 1697SOL     OW 5989   1.512   0.952   1.382
 1697SOL    HW1 5990   1.599   0.998   1.363
 1697SOL    HW2 5991   1.469   0.925   1.296
 1698SOL     OW 5992   4.437   2.330   1.326
 1698SOL    HW1 5993   4.512   2.328   1.260
 1698SOL    HW2 5994   4.350   2.323   1.278
 1699SOL     OW 5995   2.557   3.495   1.157
 1699SOL    HW1 5996   2.613   3.421   1.194
 1699SOL    HW2 5997   2.508   3.461   1.076
 1700SOL     OW 5998   6.967   2.664   2.889
 1700SOL    HW1 5999   6.952   2.741   2.951
 1700SOL    HW2 6000   6.880   2.622   2.865
 1701SOL     OW 6001   6.433   3.097   3.712
 1701SOL    HW1 6002   6.336   3.080   3.726
 1701SOL    HW2 6003   6.456   3.189   3.743
 1702SOL     OW 6004   5.555   3.826   1.318
 1702SOL    HW1 6005   5.455   3.819   1.318
 1702SOL    HW2 6006   5.592   3.778   1.397
 1703SOL     OW 6007   1.805   3.859   0.607
 1703SOL    HW1 6008   1.876   3.919   0.645
 1703SOL    HW2 6009   1.847   3.773   0.577
 1704SOL     OW 6010   0.402   0.155   1.724
 1704SOL    HW1 6011   0.306   0.167   1.750
 1704SOL    HW2 6012   0.449   0.243   1.732
 1705SOL     OW 6013   4.280   3.155   1.800
 1705SOL    HW1 6014   4.297   3.075   1.742
 1705SOL    HW2 6015   4.341   3.153   1.879
 1706SOL     OW 6016   3.312   0.577   0.899
 1706SOL    HW1 6017   3.251   0.644   0.941
 1706SOL    HW2 6018   3.391   0.562   0.959
 1707SOL     OW 6019   5.701   2.149   3.017
 1707SOL    HW1 6020   5.671   2.225   3.074
 1707SOL    HW2 6021   5.797   2.162   2.991
 1708SOL     OW 6022   6.598   6.074   2.897
 1708SOL    HW1 6023   6.590   6.022   2.982
 1708SOL    HW2 6024   6.680   6.131   2.900
 1709SOL     OW 6025   3.651   6.098   2.689
 1709SOL    HW1 6026   3.715   6.135   2.757
 1709SOL    HW2 6027   3.591   6.031   2.732
 1710SOL     OW 6028   0.394   4.996   4.226
 1710SOL    HW1 6029   0.487   4.999   4.264
 1710SOL    HW2 6030   0.359   5.089   4.217
 1711SOL     OW 6031   0.998   4.165   5.438
 1711SOL    HW1 6032   0.908   4.120   5.437
 1711SOL    HW2 6033   1.060   4.114   5.497
 1712SOL     OW 6034   6.950   4.202   0.262
 1712SOL    HW1 6035   6.862   4.211   0.216
 1712SOL    HW2 6036   6.998   4.289   0.260
 1713SOL     OW 6037   1.356   2.682   1.681
 1713SOL    HW1 6038   1.302   2.729   1.610
 1713SOL    HW2 6039   1.441   2.732   1.696
 1714SOL     OW 6040   3.537   2.047   0.498
 1714SOL    HW1 6041   3.618   1.998   0.468
 1714SOL    HW2 6042   3.472   2.053   0.423
 1715SOL     OW 6043   0.186   3.248   2.849
 1715SOL    HW1 6044   0.147   3.219   2.937
 1715SOL    HW2 6045   0.225   3.169   2.802
 1716SOL     OW 6046   0.217   6.345   6.920
 1716SOL    HW1 6047   0.160   6.283   6.973
 1716SOL    HW2 6048   0.239   6.303   6.832
 1717SOL     OW 6049   2.754   0.057   6.934
 1717SOL    HW1 6050   2.683   0.127   6.933
 1717SOL    HW2 6051   2.749   0.003   6.850
 1718SOL     OW 6052   1.955   4.415   0.336
 1718SOL    HW1 6053   1.965   4.331   0.283
 1718SOL    HW2 6054   1.909   4.484   0.281
 1719SOL     OW 6055   1.946   3.465   1.470
 1719SOL    HW1 6056   1.929   3.368   1.485
 1719SOL    HW2 6057   1.880   3.501   1.403
 1720SOL     OW 6058   6.393   1.363   0.368
 1720SOL    HW1 6059   6.424   1.457   0.359
 1720SOL    HW2 6060   6.390   1.320   0.278
 1721SOL     OW 6061   1.791   6.669   3.159
 1721SOL    HW1 6062   1.752   6.617   3.235
 1721SOL    HW2 6063   1.820   6.606   3.087
 1722SOL     OW 6064   5.744   0.353   1.850
 1722SOL    HW1 6065   5.806   0.311   1.784
 1722SOL    HW2 6066   5.796   0.409   1.915
 1723SOL     OW 6067   6.793   1.928   2.673
 1723SOL    HW1 6068   6.855   1.997   2.636
 1723SOL    HW2 6069   6.727   1.902   2.602
 1724SOL     OW 6070   4.558   1.013   0.380
 1724SOL    HW1 6071   4.596   1.067   0.455
 1724SOL    HW2 6072   4.618   1.019   0.301
 1725SOL     OW 6073   3.554   4.543   1.412
 1725SOL    HW1 6074   3.611   4.590   1.480
 1725SOL    HW2 6075   3.526   4.608   1.341
 1726SOL     OW 6076   0.386   4.062   4.564
 1726SOL    HW1 6077   0.455   4.127   4.598
 1726SOL    HW2 6078   0.403   3.972   4.603
 1727SOL     OW 6079   3.989   3.487   5.157
 1727SOL    HW1 6080   3.891   3.481   5.136
 1727SOL    HW2 6081   4.004   3.558   5.226
 1728SOL     OW 6082   4.457   4.628   3.909
 1728SOL    HW1 6083   4.552   4.635   3.879
 1728SOL    HW2 6084   4.455   4.605   4.007
 1729SOL     OW 6085   1.103   3.541   2.922
 1729SOL    HW1 6086   1.148   3.629   2.912
 1729SOL    HW2 6087   1.044   3.524   2.842
 1730SOL     OW 6088   6.787   2.298   4.860
 1730SOL    HW1 6089   6.735   2.237   4.801
 1730SOL    HW2 6090   6.729   2.334   4.932
 1731SOL     OW 6091   2.147   5.144   0.998
 1731SOL    HW1 6092   2.218   5.214   0.987
 1731SOL    HW2 6093   2.178   5.074   1.062
 1732SOL     OW 6094   1.375   4.535   0.149
 1732SOL    HW1 6095   1.430   4.509   0.228
 1732SOL    HW2 6096   1.278   4.522   0.170
 1733SOL     OW 6097   1.324   3.647   1.494
 1733SOL    HW1 6098   1.335   3.552   1.521
 1733SOL    HW2 6099   1.232   3.661   1.455
 1734SOL     OW 6100   3.896   2.935   1.094
 1734SOL    HW1 6101   3.977   2.982   1.058
 1734SOL    HW2 6102   3.826   2.930   1.022
 1735SOL     OW 6103   5.853   5.072   1.256
 1735SOL    HW1 6104   5.846   4.972   1.244
 1735SOL    HW2 6105   5.866   5.093   1.353
 1736SOL     OW 6106   3.283   3.413   0.315
 1736SOL    HW1 6107   3.251   3.443   0.225
 1736SOL    HW2 6108   3.208   3.419   0.381
 1737SOL     OW 6109   2.286   0.043   3.733
 1737SOL    HW1 6110   2.196   0.068   3.696
 1737SOL    HW2 6111   2.277   0.027   3.832
 1738SOL     OW 6112   2.223   3.071   2.407
 1738SOL    HW1 6113   2.238   2.974   2.424
 1738SOL    HW2 6114   2.213   3.087   2.308
 1739SOL     OW 6115   4.491   2.269   5.178
 1739SOL    HW1 6116   4.549   2.205   5.127
 1739SOL    HW2 6117   4.533   2.360   5.176
 1740SOL     OW 6118   0.200   0.833   5.958
 1740SOL    HW1 6119   0.179   0.806   6.052
 1740SOL    HW2 6120   0.255   0.917   5.960
 1741SOL     OW 6121   1.523   0.796   2.624
 1741SOL    HW1 6122   1.514   0.697   2.636
 1741SOL    HW2 6123   1.618   0.819   2.604
 1742SOL     OW 6124   6.047   0.807   4.518
 1742SOL    HW1 6125   6.143   0.827   4.496
 1742SOL    HW2 6126   6.019   0.724   4.469
 1743SOL     OW 6127   3.319   1.283   1.508
 1743SOL    HW1 6128   3.386   1.240   1.447
 1743SOL    HW2 6129   3.287   1.216   1.575
 1744SOL     OW 6130   2.429   0.875   1.647
 1744SOL    HW1 6131   2.334   0.848   1.658
 1744SOL    HW2 6132   2.481   0.800   1.608
 1745SOL     OW 6133   6.404   2.108   3.000
 1745SOL    HW1 6134   6.345   2.028   2.986
 1745SOL    HW2 6135   6.435   2.109   3.095
 1746SOL     OW 6136   2.504   0.450   6.336
 1746SOL    HW1 6137   2.419   0.468   6.286
 1746SOL    HW2 6138   2.575   0.513   6.304
 1747SOL     OW 6139   3.584   0.511   1.612
 1747SOL    HW1 6140   3.512   0.580   1.622
 1747SOL    HW2 6141   3.640   0.509   1.694
 1748SOL     OW 6142   6.074   1.815   3.849
 1748SOL    HW1 6143   6.093   1.772   3.937
 1748SOL    HW2 6144   6.120   1.763   3.777
 1749SOL     OW 6145   4.556   7.007   6.633
 1749SOL    HW1 6146   4.463   0.026   6.641
 1749SOL    HW2 6147   4.622   0.061   6.655
 1750SOL     OW 6148   4.970   1.576   2.498
 1750SOL    HW1 6149   5.055   1.618   2.468
 1750SOL    HW2 6150   4.907   1.647   2.530
 1751SOL     OW 6151   1.718   5.133   4.696
 1751SOL    HW1 6152   1.669   5.153   4.611
 1751SOL    HW2 6153   1.749   5.219   4.738
 1752SOL     OW 6154   6.737   1.635   0.865
 1752SOL    HW1 6155   6.689   1.560   0.910
 1752SOL    HW2 6156   6.699   1.649   0.773
 1753SOL     OW 6157   0.541   6.617   1.190
 1753SOL    HW1 6158   0.564   6.587   1.097
 1753SOL    HW2 6159   0.548   6.540   1.253
 1754SOL     OW 6160   3.512   3.360   1.191
 1754SOL    HW1 6161   3.486   3.389   1.283
 1754SOL    HW2 6162   3.464   3.416   1.123
 1755SOL     OW 6163   5.156   4.889   1.381
 1755SOL    HW1 6164   5.096   4.967   1.398
 1755SOL    HW2 6165   5.169   4.837   1.465
 1756SOL     OW 6166   6.350   5.391   3.909
 1756SOL    HW1 6167   6.305   5.426   3.991
 1756SOL    HW2 6168   6.281   5.365   3.841
 1757SOL     OW 6169   2.815   6.489   4.286
 1757SOL    HW1 6170   2.791   6.470   4.382
 1757SOL    HW2 6171   2.868   6.574   4.281
 1758SOL     OW 6172   2.397   0.666   3.606
 1758SOL    HW1 6173   2.423   0.761   3.625
 1758SOL    HW2 6174   2.393   0.652   3.507
 1759SOL     OW 6175   7.000   5.166   5.958
 1759SOL    HW1 6176   6.985   5.243   5.896
 1759SOL    HW2 6177   6.937   5.092   5.933
 1760SOL     OW 6178   6.139   1.033   1.501
 1760SOL    HW1 6179   6.099   1.010   1.590
 1760SOL    HW2 6180   6.070   1.077   1.444
 1761SOL     OW 6181   6.000   1.040   1.106
 1761SOL    HW1 6182   6.003   0.965   1.172
 1761SOL    HW2 6183   6.033   1.008   1.017
 1762SOL     OW 6184   6.191   1.892   6.063
 1762SOL    HW1 6185   6.125   1.967   6.058
 1762SOL    HW2 6186   6.271   1.922   6.117
 1763SOL     OW 6187   1.787   3.865   4.487
 1763SOL    HW1 6188   1.753   3.861   4.581
 1763SOL    HW2 6189   1.841   3.948   4.474
 1764SOL     OW 6190   0.927   2.842   3.203
 1764SOL    HW1 6191   0.839   2.873   3.168
 1764SOL    HW2 6192   0.998   2.858   3.134
 1765SOL     OW 6193   2.323   1.472   6.916
 1765SOL    HW1 6194   2.351   1.446   6.824
 1765SOL    HW2 6195   2.405   1.485   6.973
 1766SOL     OW 6196   5.694   3.144   5.249
 1766SOL    HW1 6197   5.790   3.139   5.221
 1766SOL    HW2 6198   5.636   3.110   5.174
 1767SOL     OW 6199   5.590   3.893   1.996
 1767SOL    HW1 6200   5.646   3.855   2.070
 1767SOL    HW2 6201   5.495   3.867   2.008
 1768SOL     OW 6202   4.309   6.627   3.474
 1768SOL    HW1 6203   4.283   6.600   3.567
 1768SOL    HW2 6204   4.338   6.722   3.474
 1769SOL     OW 6205   3.495   1.893   3.391
 1769SOL    HW1 6206   3.509   1.911   3.489
 1769SOL    HW2 6207   3.570   1.835   3.357
 1770SOL     OW 6208   2.129   5.953   5.489
 1770SOL    HW1 6209   2.152   5.895   5.411
 1770SOL    HW2 6210   2.191   6.032   5.492
 1771SOL     OW 6211   3.235   6.295   6.980
 1771SOL    HW1 6212   3.302   6.284   0.035
 1771SOL    HW2 6213   3.199   6.388   6.982
 1772SOL     OW 6214   3.418   6.819   3.288
 1772SOL    HW1 6215   3.354   6.749   3.321
 1772SOL    HW2 6216   3.373   6.908   3.289
 1773SOL     OW 6217   1.869   5.012   6.220
 1773SOL    HW1 6218   1.885   5.110   6.213
 1773SOL    HW2 6219   1.810   4.993   6.299
 1774SOL     OW 6220   4.257   5.394   1.545
 1774SOL    HW1 6221   4.222   5.455   1.616
 1774SOL    HW2 6222   4.187   5.381   1.475
 1775SOL     OW 6223   1.268   3.742   2.060
 1775SOL    HW1 6224   1.317   3.686   2.127
 1775SOL    HW2 6225   1.330   3.808   2.019
 1776SOL     OW 6226   4.060   6.169   4.112
 1776SOL    HW1 6227   3.984   6.127   4.161
 1776SOL    HW2 6228   4.025   6.231   4.042
 1777SOL     OW 6229   4.179   6.028   6.978
 1777SOL    HW1 6230   4.191   5.932   6.953
 1777SOL    HW2 6231   4.119   6.072   6.911
 1778SOL     OW 6232   4.374   3.293   5.747
 1778SOL    HW1 6233   4.312   3.313   5.823
 1778SOL    HW2 6234   4.374   3.194   5.730
 1779SOL     OW 6235   3.569   0.733   5.408
 1779SOL    HW1 6236   3.593   0.820   5.364
 1779SOL    HW2 6237   3.602   0.658   5.352
 1780SOL     OW 6238   3.373   3.313   5.908
 1780SOL    HW1 6239   3.366   3.400   5.858
 1780SOL    HW2 6240   3.456   3.314   5.964
 1781SOL     OW 6241   3.800   6.308   3.207
 1781SOL    HW1 6242   3.777   6.388   3.152
 1781SOL    HW2 6243   3.835   6.236   3.147
 1782SOL     OW 6244   3.311   1.272   3.108
 1782SOL    HW1 6245   3.359   1.200   3.158
 1782SOL    HW2 6246   3.278   1.341   3.173
 1783SOL     OW 6247   2.635   4.960   6.459
 1783SOL    HW1 6248   2.585   5.044   6.479
 1783SOL    HW2 6249   2.594   4.884   6.508
 1784SOL     OW 6250   3.629   0.207   5.897
 1784SOL    HW1 6251   3.629   0.255   5.985
 1784SOL    HW2 6252   3.542   0.224   5.850
 1785SOL     OW 6253   6.370   3.871   2.555
 1785SOL    HW1 6254   6.341   3.937   2.486
 1785SOL    HW2 6255   6.443   3.813   2.517
 1786SOL     OW 6256   2.342   2.424   6.998
 1786SOL    HW1 6257   2.385   2.334   7.009
 1786SOL    HW2 6258   2.334   2.468   0.069
 1787SOL     OW 6259   2.952   1.394   5.650
 1787SOL    HW1 6260   2.960   1.331   5.727
 1787SOL    HW2 6261   3.043   1.427   5.625
 1788SOL     OW 6262   1.953   4.773   6.176
 1788SOL    HW1 6263   1.942   4.766   6.077
 1788SOL    HW2 6264   1.948   4.868   6.204
 1789SOL     OW 6265   5.505   2.299   0.891
 1789SOL    HW1 6266   5.553   2.381   0.861
 1789SOL    HW2 6267   5.495   2.237   0.813
 1790SOL     OW 6268   3.724   6.573   3.360
 1790SOL    HW1 6269   3.726   6.573   3.260
 1790SOL    HW2 6270   3.646   6.519   3.393
 1791SOL     OW 6271   6.802   0.382   2.351
 1791SOL    HW1 6272   6.822   0.379   2.449
 1791SOL    HW2 6273   6.712   0.342   2.334
 1792SOL     OW 6274   0.265   3.697   5.075
 1792SOL    HW1 6275   0.312   3.769   5.126
 1792SOL    HW2 6276   0.181   3.672   5.123
 1793SOL     OW 6277   6.677   0.486   3.960
 1793SOL    HW1 6278   6.720   0.472   3.871
 1793SOL    HW2 6279   6.741   0.460   4.033
 1794SOL     OW 6280   5.214   5.971   5.670
 1794SOL    HW1 6281   5.164   5.955   5.585
 1794SOL    HW2 6282   5.258   6.061   5.666
 1795SOL     OW 6283   0.343   2.822   1.033
 1795SOL    HW1 6284   0.279   2.792   0.963
 1795SOL    HW2 6285   0.325   2.918   1.057
 1796SOL     OW 6286   2.887   1.113   6.232
 1796SOL    HW1 6287   2.927   1.077   6.147
 1796SOL    HW2 6288   2.806   1.168   6.210
 1797SOL     OW 6289   0.948   0.198   0.366
 1797SOL    HW1 6290   0.971   0.292   0.339
 1797SOL    HW2 6291   0.877   0.200   0.436
 1798SOL     OW 6292   4.588   2.493   4.148
 1798SOL    HW1 6293   4.544   2.432   4.213
 1798SOL    HW2 6294   4.544   2.484   4.059
 1799SOL     OW 6295   0.070   2.808   4.691
 1799SOL    HW1 6296   6.994   2.804   4.726
 1799SOL    HW2 6297   0.126   2.740   4.738
 1800SOL     OW 6298   4.275   4.398   1.649
 1800SOL    HW1 6299   4.261   4.493   1.677
 1800SOL    HW2 6300   4.312   4.346   1.725
 1801SOL     OW 6301   6.951   0.823   2.049
 1801SOL    HW1 6302   7.005   0.904   2.072
 1801SOL    HW2 6303   7.007   0.741   2.057
 1802SOL     OW 6304   5.927   5.934   3.897
 1802SOL    HW1 6305   5.845   5.919   3.842
 1802SOL    HW2 6306   6.008   5.931   3.839
 1803SOL     OW 6307   0.702   5.187   6.827
 1803SOL    HW1 6308   0.703   5.089   6.846
 1803SOL    HW2 6309   0.617   5.227   6.860
 1804SOL     OW 6310   2.516   4.117   5.366
 1804SOL    HW1 6311   2.578   4.076   5.433
 1804SOL    HW2 6312   2.491   4.049   5.297
 1805SOL     OW 6313   4.853   3.570   6.238
 1805SOL    HW1 6314   4.875   3.610   6.326
 1805SOL    HW2 6315   4.806   3.482   6.252
 1806SOL     OW 6316   0.613   0.537   0.532
 1806SOL    HW1 6317   0.570   0.627   0.545
 1806SOL    HW2 6318   0.562   0.468   0.584
 1807SOL     OW 6319   6.140   2.568   4.776
 1807SOL    HW1 6320   6.171   2.536   4.686
 1807SOL    HW2 6321   6.048   2.533   4.793
 1808SOL     OW 6322   0.061   5.274   5.242
 1808SOL    HW1 6323   0.133   5.318   5.189
 1808SOL    HW2 6324   0.079   5.176   5.248
 1809SOL     OW 6325   2.585   1.711   5.751
 1809SOL    HW1 6326   2.513   1.714   5.682
 1809SOL    HW2 6327   2.672   1.689   5.707
 1810SOL     OW 6328   3.409   6.695   3.649
 1810SOL    HW1 6329   3.416   6.665   3.554
 1810SOL    HW2 6330   3.333   6.758   3.659
 1811SOL     OW 6331   5.595   5.997   3.454
 1811SOL    HW1 6332   5.667   6.006   3.386
 1811SOL    HW2 6333   5.603   5.909   3.501
 1812SOL     OW 6334   4.202   6.143   5.406
 1812SOL    HW1 6335   4.274   6.173   5.343
 1812SOL    HW2 6336   4.112   6.163   5.366
 1813SOL     OW 6337   5.231   4.003   0.523
 1813SOL    HW1 6338   5.303   4.005   0.453
 1813SOL    HW2 6339   5.273   4.017   0.613
 1814SOL     OW 6340   4.792   6.775   1.917
 1814SOL    HW1 6341   4.792   6.690   1.969
 1814SOL    HW2 6342   4.844   6.764   1.833
 1815SOL     OW 6343   0.076   1.527   2.639
 1815SOL    HW1 6344   0.158   1.573   2.674
 1815SOL    HW2 6345   0.055   1.448   2.696
 1816SOL     OW 6346   2.070   2.975   1.144
 1816SOL    HW1 6347   2.069   2.875   1.134
 1816SOL    HW2 6348   1.976   3.008   1.150
 1817SOL     OW 6349   2.026   6.453   2.332
 1817SOL    HW1 6350   2.120   6.487   2.322
 1817SOL    HW2 6351   2.008   6.434   2.428
 1818SOL     OW 6352   1.682   0.386   3.316
 1818SOL    HW1 6353   1.670   0.299   3.365
 1818SOL    HW2 6354   1.777   0.394   3.285
 1819SOL     OW 6355   1.212   4.319   1.458
 1819SOL    HW1 6356   1.283   4.289   1.522
 1819SOL    HW2 6357   1.251   4.382   1.392
 1820SOL     OW 6358   4.518   1.531   2.851
 1820SOL    HW1 6359   4.598   1.590   2.862
 1820SOL    HW2 6360   4.488   1.534   2.755
 1821SOL     OW 6361   1.911   1.225   2.960
 1821SOL    HW1 6362   1.954   1.195   3.045
 1821SOL    HW2 6363   1.957   1.182   2.882
 1822SOL     OW 6364   3.476   2.718   1.784
 1822SOL    HW1 6365   3.394   2.675   1.746
 1822SOL    HW2 6366   3.451   2.772   1.864
 1823SOL     OW 6367   4.014   6.320   2.634
 1823SOL    HW1 6368   4.079   6.392   2.608
 1823SOL    HW2 6369   4.039   6.235   2.589
 1824SOL     OW 6370   3.791   2.318   1.473
 1824SOL    HW1 6371   3.849   2.388   1.516
 1824SOL    HW2 6372   3.798   2.326   1.373
 1825SOL     OW 6373   1.225   0.580   1.430
 1825SOL    HW1 6374   1.318   0.614   1.439
 1825SOL    HW2 6375   1.196   0.585   1.335
 1826SOL     OW 6376   2.819   1.225   1.296
 1826SOL    HW1 6377   2.778   1.141   1.262
 1826SOL    HW2 6378   2.795   1.301   1.235
 1827SOL     OW 6379   0.080   5.510   1.925
 1827SOL    HW1 6380   0.166   5.506   1.976
 1827SOL    HW2 6381   0.009   5.549   1.983
 1828SOL     OW 6382   1.116   3.208   0.292
 1828SOL    HW1 6383   1.027   3.229   0.332
 1828SOL    HW2 6384   1.132   3.109   0.294
 1829SOL     OW 6385   5.075   6.550   3.179
 1829SOL    HW1 6386   5.083   6.459   3.139
 1829SOL    HW2 6387   4.999   6.599   3.136
 1830SOL     OW 6388   4.201   6.879   3.628
 1830SOL    HW1 6389   4.205   6.857   3.725
 1830SOL    HW2 6390   4.126   6.828   3.586
 1831SOL     OW 6391   5.729   6.611   2.195
 1831SOL    HW1 6392   5.813   6.631   2.245
 1831SOL    HW2 6393   5.659   6.579   2.259
 1832SOL     OW 6394   4.353   2.669   1.754
 1832SOL    HW1 6395   4.443   2.691   1.792
 1832SOL    HW2 6396   4.346   2.570   1.739
 1833SOL     OW 6397   4.921   0.569   4.591
 1833SOL    HW1 6398   4.843   0.616   4.633
 1833SOL    HW2 6399   4.978   0.529   4.662
 1834SOL     OW 6400   2.938   3.848   0.605
 1834SOL    HW1 6401   3.022   3.898   0.629
 1834SOL    HW2 6402   2.871   3.859   0.679
 1835SOL     OW 6403   2.250   4.943   1.182
 1835SOL    HW1 6404   2.221   4.982   1.269
 1835SOL    HW2 6405   2.326   4.880   1.198
 1836SOL     OW 6406   0.177   1.063   0.396
 1836SOL    HW1 6407   0.108   1.071   0.325
 1836SOL    HW2 6408   0.133   1.046   0.484
 1837SOL     OW 6409   1.007   2.015   4.182
 1837SOL    HW1 6410   1.054   1.942   4.133
 1837SOL    HW2 6411   1.055   2.101   4.168
 1838SOL     OW 6412   0.236   2.492   4.334
 1838SOL    HW1 6413   0.204   2.583   4.305
 1838SOL    HW2 6414   0.158   2.435   4.359
 1839SOL     OW 6415   6.330   3.416   4.675
 1839SOL    HW1 6416   6.305   3.388   4.582
 1839SOL    HW2 6417   6.265   3.485   4.707
 1840SOL     OW 6418   2.986   5.549   0.805
 1840SOL    HW1 6419   2.997   5.454   0.833
 1840SOL    HW2 6420   2.890   5.575   0.809
 1841SOL     OW 6421   2.062   3.416   4.278
 1841SOL    HW1 6422   2.089   3.478   4.204
 1841SOL    HW2 6423   2.033   3.469   4.357
 1842SOL     OW 6424   0.584   4.951   0.725
 1842SOL    HW1 6425   0.495   4.946   0.771
 1842SOL    HW2 6426   0.646   5.008   0.779
 1843SOL     OW 6427   2.338   1.759   5.615
 1843SOL    HW1 6428   2.323   1.832   5.682
 1843SOL    HW2 6429   2.272   1.685   5.633
 1844SOL     OW 6430   4.025   2.183   5.026
 1844SOL    HW1 6431   3.995   2.099   4.980
 1844SOL    HW2 6432   3.956   2.254   5.013
 1845SOL     OW 6433   3.321   0.343   6.972
 1845SOL    HW1 6434   3.264   0.389   0.022
 1845SOL    HW2 6435   3.365   0.413   6.914
 1846SOL     OW 6436   4.001   2.131   0.055
 1846SOL    HW1 6437   3.993   2.087   6.983
 1846SOL    HW2 6438   3.910   2.133   0.098
 1847SOL     OW 6439   0.950   6.877   0.815
 1847SOL    HW1 6440   1.038   6.918   0.794
 1847SOL    HW2 6441   0.901   6.934   0.881
 1848SOL     OW 6442   3.248   5.886   2.810
 1848SOL    HW1 6443   3.292   5.900   2.721
 1848SOL    HW2 6444   3.220   5.790   2.819
 1849SOL     OW 6445   3.868   0.751   0.354
 1849SOL    HW1 6446   3.942   0.816   0.333
 1849SOL    HW2 6447   3.885   0.708   0.442
 1850SOL     OW 6448   6.217   1.882   3.071
 1850SOL    HW1 6449   6.125   1.851   3.045
 1850SOL    HW2 6450   6.238   1.849   3.163
 1851SOL     OW 6451   0.613   1.295   2.346
 1851SOL    HW1 6452   0.522   1.269   2.377
 1851SOL    HW2 6453   0.621   1.277   2.248
 1852SOL     OW 6454   3.846   3.548   0.143
 1852SOL    HW1 6455   3.757   3.581   0.173
 1852SOL    HW2 6456   3.840   3.450   0.120
 1853SOL     OW 6457   1.040   3.917   1.260
 1853SOL    HW1 6458   1.046   3.921   1.160
 1853SOL    HW2 6459   1.119   3.964   1.300
 1854SOL     OW 6460   3.145   5.846   4.272
 1854SOL    HW1 6461   3.074   5.912   4.244
 1854SOL    HW2 6462   3.231   5.869   4.226
 1855SOL     OW 6463   4.913   5.150   0.524
 1855SOL    HW1 6464   4.915   5.220   0.595
 1855SOL    HW2 6465   4.956   5.066   0.558
 1856SOL     OW 6466   5.364   2.609   5.443
 1856SOL    HW1 6467   5.377   2.535   5.510
 1856SOL    HW2 6468   5.430   2.599   5.369
 1857SOL     OW 6469   3.770   0.931   4.708
 1857SOL    HW1 6470   3.830   0.960   4.633
 1857SOL    HW2 6471   3.680   0.905   4.671
 1858SOL     OW 6472   5.232   3.437   4.270
 1858SOL    HW1 6473   5.318   3.471   4.233
 1858SOL    HW2 6474   5.161   3.441   4.200
 1859SOL     OW 6475   4.539   2.308   3.692
 1859SOL    HW1 6476   4.518   2.347   3.782
 1859SOL    HW2 6477   4.463   2.250   3.663
 1860SOL     OW 6478   6.180   1.075   4.279
 1860SOL    HW1 6479   6.088   1.049   4.250
 1860SOL    HW2 6480   6.238   1.090   4.199
 1861SOL     OW 6481   4.892   6.290   2.726
 1861SOL    HW1 6482   4.798   6.257   2.726
 1861SOL    HW2 6483   4.929   6.286   2.633
 1862SOL     OW 6484   2.038   0.631   6.944
 1862SOL    HW1 6485   1.961   0.691   6.920
 1862SOL    HW2 6486   2.012   0.575   0.004
 1863SOL     OW 6487   2.660   2.571   1.263
 1863SOL    HW1 6488   2.566   2.554   1.231
 1863SOL    HW2 6489   2.668   2.540   1.358
 1864SOL     OW 6490   0.743   6.617   4.243
 1864SOL    HW1 6491   0.669   6.551   4.228
 1864SOL    HW2 6492   0.824   6.570   4.278
 1865SOL     OW 6493   3.916   1.681   5.757
 1865SOL    HW1 6494   3.816   1.682   5.751
 1865SOL    HW2 6495   3.951   1.592   5.728
 1866SOL     OW 6496   4.566   4.413   2.266
 1866SOL    HW1 6497   4.556   4.335   2.205
 1866SOL    HW2 6498   4.498   4.483   2.242
 1867SOL     OW 6499   0.132   4.154   6.936
 1867SOL    HW1 6500   0.160   4.089   7.007
 1867SOL    HW2 6501   0.083   4.230   6.979
 1868SOL     OW 6502   5.396   4.662   6.565
 1868SOL    HW1 6503   5.354   4.661   6.656
 1868SOL    HW2 6504   5.330   4.699   6.499
 1869SOL     OW 6505   6.479   1.892   5.316
 1869SOL    HW1 6506   6.568   1.921   5.280
 1869SOL    HW2 6507   6.414   1.880   5.241
 1870SOL     OW 6508   1.358   4.363   5.694
 1870SOL    HW1 6509   1.454   4.383   5.673
 1870SOL    HW2 6510   1.308   4.345   5.610
 1871SOL     OW 6511   2.367   6.984   0.350
 1871SOL    HW1 6512   2.465   6.992   0.331
 1871SOL    HW2 6513   2.321   6.948   0.269
 1872SOL     OW 6514   2.638   4.617   0.383
 1872SOL    HW1 6515   2.654   4.713   0.406
 1872SOL    HW2 6516   2.665   4.559   0.460
 1873SOL     OW 6517   3.912   1.193   5.851
 1873SOL    HW1 6518   3.952   1.267   5.904
 1873SOL    HW2 6519   3.920   1.213   5.754
 1874SOL     OW 6520   2.064   1.805   2.040
 1874SOL    HW1 6521   2.053   1.869   2.116
 1874SOL    HW2 6522   1.975   1.789   1.997
 1875SOL     OW 6523   0.537   0.115   6.237
 1875SOL    HW1 6524   0.575   0.030   6.275
 1875SOL    HW2 6525   0.546   0.114   6.138
 1876SOL     OW 6526   2.767   0.023   4.357
 1876SOL    HW1 6527   2.725   6.951   4.353
 1876SOL    HW2 6528   2.696   0.094   4.362
 1877SOL     OW 6529   0.915   0.269   3.836
 1877SOL    HW1 6530   0.859   0.338   3.790
 1877SOL    HW2 6531   0.866   0.182   3.836
 1878SOL     OW 6532   0.033   1.629   3.882
 1878SOL    HW1 6533   0.035   1.727   3.863
 1878SOL    HW2 6534   6.956   1.598   3.887
 1879SOL     OW 6535   1.013   3.322   4.997
 1879SOL    HW1 6536   0.936   3.382   4.975
 1879SOL    HW2 6537   1.007   3.240   4.941
 1880SOL     OW 6538   6.561   1.869   4.819
 1880SOL    HW1 6539   6.496   1.940   4.790
 1880SOL    HW2 6540   6.643   1.913   4.855
 1881SOL     OW 6541   6.423   1.808   1.140
 1881SOL    HW1 6542   6.517   1.837   1.159
 1881SOL    HW2 6543   6.363   1.844   1.211
 1882SOL     OW 6544   1.027   3.773   6.347
 1882SOL    HW1 6545   1.106   3.777   6.409
 1882SOL    HW2 6546   1.059   3.753   6.254
 1883SOL     OW 6547   6.423   2.348   2.337
 1883SOL    HW1 6548   6.510   2.394   2.353
 1883SOL    HW2 6549   6.361   2.368   2.413
 1884SOL     OW 6550   0.803   1.705   1.555
 1884SOL    HW1 6551   0.758   1.757   1.627
 1884SOL    HW2 6552   0.746   1.703   1.473
 1885SOL     OW 6553   1.916   1.817   5.672
 1885SOL    HW1 6554   1.986   1.876   5.713
 1885SOL    HW2 6555   1.944   1.792   5.579
 1886SOL     OW 6556   2.245   0.434   2.483
 1886SOL    HW1 6557   2.283   0.345   2.458
 1886SOL    HW2 6558   2.201   0.427   2.573
 1887SOL     OW 6559   1.166   5.438   5.875
 1887SOL    HW1 6560   1.207   5.359   5.920
 1887SOL    HW2 6561   1.159   5.514   5.939
 1888SOL     OW 6562   3.137   2.307   0.605
 1888SOL    HW1 6563   3.122   2.297   0.507
 1888SOL    HW2 6564   3.218   2.255   0.632
 1889SOL     OW 6565   1.139   3.414   3.998
 1889SOL    HW1 6566   1.114   3.388   3.905
 1889SOL    HW2 6567   1.159   3.332   4.052
 1890SOL     OW 6568   0.735   5.958   4.175
 1890SOL    HW1 6569   0.647   6.006   4.168
 1890SOL    HW2 6570   0.732   5.874   4.121
 1891SOL     OW 6571   3.851   3.450   2.219
 1891SOL    HW1 6572   3.893   3.497   2.296
 1891SOL    HW2 6573   3.827   3.517   2.148
 1892SOL     OW 6574   6.961   0.034   2.168
 1892SOL    HW1 6575   0.031   0.081   2.166
 1892SOL    HW2 6576   6.888   0.098   2.142
 1893SOL     OW 6577   3.550   3.304   3.034
 1893SOL    HW1 6578   3.494   3.256   3.102
 1893SOL    HW2 6579   3.607   3.238   2.985
 1894SOL     OW 6580   3.441   3.608   4.347
 1894SOL    HW1 6581   3.348   3.587   4.317
 1894SOL    HW2 6582   3.484   3.524   4.382
 1895SOL     OW 6583   4.390   0.497   0.888
 1895SOL    HW1 6584   4.392   0.584   0.937
 1895SOL    HW2 6585   4.483   0.471   0.862
 1896SOL     OW 6586   5.436   1.693   0.794
 1896SOL    HW1 6587   5.445   1.593   0.792
 1896SOL    HW2 6588   5.395   1.724   0.709
 1897SOL     OW 6589   2.078   4.928   2.924
 1897SOL    HW1 6590   1.981   4.946   2.910
 1897SOL    HW2 6591   2.091   4.833   2.951
 1898SOL     OW 6592   1.514   5.248   3.167
 1898SOL    HW1 6593   1.611   5.257   3.143
 1898SOL    HW2 6594   1.467   5.193   3.098
 1899SOL     OW 6595   0.562   0.372   1.744
 1899SOL    HW1 6596   0.561   0.426   1.829
 1899SOL    HW2 6597   0.657   0.360   1.714
 1900SOL     OW 6598   2.974   0.115   0.065
 1900SOL    HW1 6599   2.930   0.165   0.140
 1900SOL    HW2 6600   2.903   0.074   0.007
 1901SOL     OW 6601   2.701   3.321   1.320
 1901SOL    HW1 6602   2.774   3.327   1.388
 1901SOL    HW2 6603   2.723   3.250   1.254
 1902SOL     OW 6604   2.486   6.984   4.462
 1902SOL    HW1 6605   2.460   6.949   4.372
 1902SOL    HW2 6606   2.519   0.060   4.453
 1903SOL     OW 6607   0.663   2.575   3.562
 1903SOL    HW1 6608   0.729   2.620   3.502
 1903SOL    HW2 6609   0.713   2.514   3.624
 1904SOL     OW 6610   5.635   5.429   2.801
 1904SOL    HW1 6611   5.662   5.428   2.897
 1904SOL    HW2 6612   5.639   5.336   2.765
 1905SOL     OW 6613   0.719   0.776   3.647
 1905SOL    HW1 6614   0.817   0.763   3.661
 1905SOL    HW2 6615   0.678   0.690   3.614
 1906SOL     OW 6616   2.744   0.502   5.972
 1906SOL    HW1 6617   2.681   0.459   5.907
 1906SOL    HW2 6618   2.700   0.581   6.013
 1907SOL     OW 6619   5.112   2.461   0.228
 1907SOL    HW1 6620   5.209   2.484   0.236
 1907SOL    HW2 6621   5.066   2.481   0.314
 1908SOL     OW 6622   4.103   7.015   0.440
 1908SOL    HW1 6623   4.128   0.032   0.530
 1908SOL    HW2 6624   4.004   0.002   0.428
 1909SOL     OW 6625   0.033   3.949   4.655
 1909SOL    HW1 6626   6.955   3.974   4.650
 1909SOL    HW2 6627   0.058   3.927   4.749
 1910SOL     OW 6628   6.284   5.810   6.041
 1910SOL    HW1 6629   6.281   5.886   5.976
 1910SOL    HW2 6630   6.300   5.846   6.133
 1911SOL     OW 6631   0.161   4.793   4.218
 1911SOL    HW1 6632   0.144   4.771   4.121
 1911SOL    HW2 6633   0.191   4.888   4.226
 1912SOL     OW 6634   2.705   4.707   2.800
 1912SOL    HW1 6635   2.780   4.770   2.778
 1912SOL    HW2 6636   2.631   4.758   2.844
 1913SOL     OW 6637   2.551   5.233   4.805
 1913SOL    HW1 6638   2.523   5.262   4.896
 1913SOL    HW2 6639   2.601   5.147   4.811
 1914SOL     OW 6640   2.893   4.179   6.359
 1914SOL    HW1 6641   2.899   4.081   6.337
 1914SOL    HW2 6642   2.886   4.232   6.275
 1915SOL     OW 6643   5.083   2.736   6.021
 1915SOL    HW1 6644   5.001   2.776   5.980
 1915SOL    HW2 6645   5.164   2.775   5.977
 1916SOL     OW 6646   3.693   7.008   1.944
 1916SOL    HW1 6647   3.629   0.065   1.928
 1916SOL    HW2 6648   3.765   0.019   2.007
 1917SOL     OW 6649   2.597   4.433   0.812
 1917SOL    HW1 6650   2.541   4.491   0.870
 1917SOL    HW2 6651   2.607   4.343   0.854
 1918SOL     OW 6652   0.722   1.264   4.916
 1918SOL    HW1 6653   0.738   1.291   5.011
 1918SOL    HW2 6654   0.747   1.168   4.904
 1919SOL     OW 6655   1.308   2.514   1.877
 1919SOL    HW1 6656   1.370   2.436   1.876
 1919SOL    HW2 6657   1.314   2.562   1.790
 1920SOL     OW 6658   5.258   2.422   1.575
 1920SOL    HW1 6659   5.205   2.379   1.649
 1920SOL    HW2 6660   5.222   2.514   1.558
 1921SOL     OW 6661   1.437   3.010   0.267
 1921SOL    HW1 6662   1.485   2.922   0.268
 1921SOL    HW2 6663   1.341   2.994   0.245
 1922SOL     OW 6664   3.335   3.570   2.149
 1922SOL    HW1 6665   3.310   3.488   2.096
 1922SOL    HW2 6666   3.360   3.643   2.086
 1923SOL     OW 6667   4.459   0.339   6.043
 1923SOL    HW1 6668   4.549   0.345   6.000
 1923SOL    HW2 6669   4.395   0.399   5.994
 1924SOL     OW 6670   4.457   0.004   0.993
 1924SOL    HW1 6671   4.408   0.068   0.935
 1924SOL    HW2 6672   4.393   6.962   1.040
 1925SOL     OW 6673   1.198   4.426   0.735
 1925SOL    HW1 6674   1.286   4.377   0.731
 1925SOL    HW2 6675   1.195   4.481   0.818
 1926SOL     OW 6676   4.027   0.252   1.590
 1926SOL    HW1 6677   3.968   0.266   1.670
 1926SOL    HW2 6678   4.122   0.269   1.617
 1927SOL     OW 6679   2.450   4.752   1.261
 1927SOL    HW1 6680   2.400   4.714   1.338
 1927SOL    HW2 6681   2.539   4.707   1.253
 1928SOL     OW 6682   4.574   4.424   3.499
 1928SOL    HW1 6683   4.658   4.475   3.514
 1928SOL    HW2 6684   4.540   4.441   3.406
 1929SOL     OW 6685   3.039   0.988   2.935
 1929SOL    HW1 6686   3.098   0.933   2.994
 1929SOL    HW2 6687   2.956   1.013   2.985
 1930SOL     OW 6688   4.675   3.258   6.679
 1930SOL    HW1 6689   4.766   3.297   6.691
 1930SOL    HW2 6690   4.675   3.162   6.708
 1931SOL     OW 6691   0.881   1.474   5.738
 1931SOL    HW1 6692   0.861   1.387   5.784
 1931SOL    HW2 6693   0.860   1.550   5.800
 1932SOL     OW 6694   4.298   2.075   3.050
 1932SOL    HW1 6695   4.307   2.142   3.123
 1932SOL    HW2 6696   4.201   2.059   3.030
 1933SOL     OW 6697   0.569   1.674   0.440
 1933SOL    HW1 6698   0.500   1.736   0.478
 1933SOL    HW2 6699   0.606   1.617   0.513
 1934SOL     OW 6700   0.167   0.343   5.662
 1934SOL    HW1 6701   0.194   0.298   5.577
 1934SOL    HW2 6702   0.248   0.378   5.709
 1935SOL     OW 6703   5.553   4.765   3.811
 1935SOL    HW1 6704   5.551   4.685   3.872
 1935SOL    HW2 6705   5.592   4.738   3.723
 1936SOL     OW 6706   5.655   3.346   4.868
 1936SOL    HW1 6707   5.611   3.379   4.952
 1936SOL    HW2 6708   5.585   3.325   4.800
 1937SOL     OW 6709   4.663   4.925   6.680
 1937SOL    HW1 6710   4.650   4.923   6.581
 1937SOL    HW2 6711   4.722   5.001   6.704
 1938SOL     OW 6712   1.283   2.534   6.936
 1938SOL    HW1 6713   1.320   2.624   6.959
 1938SOL    HW2 6714   1.275   2.479   0.001
 1939SOL     OW 6715   1.136   6.410   5.307
 1939SOL    HW1 6716   1.226   6.391   5.267
 1939SOL    HW2 6717   1.072   6.338   5.283
 1940SOL     OW 6718   6.023   4.796   1.621
 1940SOL    HW1 6719   5.997   4.750   1.706
 1940SOL    HW2 6720   6.113   4.765   1.592
 1941SOL     OW 6721   0.678   3.055   4.103
 1941SOL    HW1 6722   0.621   2.998   4.162
 1941SOL    HW2 6723   0.626   3.079   4.021
 1942SOL     OW 6724   5.542   3.233   2.156
 1942SOL    HW1 6725   5.577   3.171   2.226
 1942SOL    HW2 6726   5.480   3.182   2.095
 1943SOL     OW 6727   1.219   0.896   2.130
 1943SOL    HW1 6728   1.280   0.960   2.176
 1943SOL    HW2 6729   1.149   0.946   2.080
 1944SOL     OW 6730   6.912   2.957   1.109
 1944SOL    HW1 6731   6.823   2.926   1.141
 1944SOL    HW2 6732   6.928   2.923   1.016
 1945SOL     OW 6733   4.541   6.811   1.276
 1945SOL    HW1 6734   4.620   6.862   1.241
 1945SOL    HW2 6735   4.457   6.853   1.243
 1946SOL     OW 6736   6.358   6.504   1.734
 1946SOL    HW1 6737   6.293   6.433   1.759
 1946SOL    HW2 6738   6.401   6.481   1.646
 1947SOL     OW 6739   5.582   4.262   2.914
 1947SOL    HW1 6740   5.557   4.302   2.825
 1947SOL    HW2 6741   5.644   4.185   2.899
 1948SOL     OW 6742   5.205   3.235   3.190
 1948SOL    HW1 6743   5.262   3.156   3.212
 1948SOL    HW2 6744   5.241   3.281   3.109
 1949SOL     OW 6745   3.576   5.075   6.450
 1949SOL    HW1 6746   3.552   4.982   6.479
 1949SOL    HW2 6747   3.494   5.133   6.453
 1950SOL     OW 6748   3.866   4.063   4.269
 1950SOL    HW1 6749   3.934   4.000   4.307
 1950SOL    HW2 6750   3.837   4.127   4.340
 1951SOL     OW 6751   6.498   4.982   5.759
 1951SOL    HW1 6752   6.476   5.075   5.790
 1951SOL    HW2 6753   6.462   4.967   5.667
 1952SOL     OW 6754   5.590   4.298   0.041
 1952SOL    HW1 6755   5.633   4.275   6.972
 1952SOL    HW2 6756   5.539   4.384   0.031
 1953SOL     OW 6757   0.768   1.217   6.383
 1953SOL    HW1 6758   0.862   1.188   6.398
 1953SOL    HW2 6759   0.752   1.228   6.285
 1954SOL     OW 6760   3.621   0.131   1.662
 1954SOL    HW1 6761   3.664   0.095   1.579
 1954SOL    HW2 6762   3.521   0.123   1.654
 1955SOL     OW 6763   0.999   1.700   1.921
 1955SOL    HW1 6764   1.022   1.638   1.847
 1955SOL    HW2 6765   0.900   1.714   1.923
 1956SOL     OW 6766   5.990   0.769   2.141
 1956SOL    HW1 6767   5.894   0.739   2.142
 1956SOL    HW2 6768   6.015   0.803   2.232
 1957SOL     OW 6769   5.602   2.271   3.955
 1957SOL    HW1 6770   5.552   2.245   3.872
 1957SOL    HW2 6771   5.669   2.341   3.933
 1958SOL     OW 6772   4.441   1.952   0.893
 1958SOL    HW1 6773   4.517   1.951   0.957
 1958SOL    HW2 6774   4.467   1.901   0.810
 1959SOL     OW 6775   0.201   6.993   4.152
 1959SOL    HW1 6776   0.111   6.955   4.130
 1959SOL    HW2 6777   0.256   6.924   4.199
 1960SOL     OW 6778   5.780   3.945   3.114
 1960SOL    HW1 6779   5.825   3.861   3.085
 1960SOL    HW2 6780   5.683   3.940   3.092
 1961SOL     OW 6781   6.726   4.034   4.995
 1961SOL    HW1 6782   6.818   4.063   4.968
 1961SOL    HW2 6783   6.690   3.971   4.926
 1962SOL     OW 6784   1.036   6.996   2.967
 1962SOL    HW1 6785   1.058   6.955   2.878
 1962SOL    HW2 6786   0.944   0.017   2.963
 1963SOL     OW 6787   0.727   2.000   2.108
 1963SOL    HW1 6788   0.643   2.005   2.161
 1963SOL    HW2 6789   0.805   1.994   2.170
 1964SOL     OW 6790   5.200   4.441   1.833
 1964SOL    HW1 6791   5.184   4.362   1.774
 1964SOL    HW2 6792   5.133   4.512   1.811
 1965SOL     OW 6793   0.591   4.150   3.857
 1965SOL    HW1 6794   0.638   4.210   3.923
 1965SOL    HW2 6795   0.583   4.198   3.770
 1966SOL     OW 6796   1.735   4.761   0.390
 1966SOL    HW1 6797   1.653   4.721   0.432
 1966SOL    HW2 6798   1.768   4.702   0.317
 1967SOL     OW 6799   5.777   2.669   3.550
 1967SOL    HW1 6800   5.703   2.694   3.488
 1967SOL    HW2 6801   5.863   2.663   3.499
 1968SOL     OW 6802   2.212   1.643   5.269
 1968SOL    HW1 6803   2.218   1.702   5.189
 1968SOL    HW2 6804   2.152   1.685   5.338
 1969SOL     OW 6805   3.070   6.067   0.711
 1969SOL    HW1 6806   3.027   6.002   0.648
 1969SOL    HW2 6807   3.000   6.125   0.752
 1970SOL     OW 6808   6.394   5.617   5.007
 1970SOL    HW1 6809   6.310   5.667   4.986
 1970SOL    HW2 6810   6.430   5.576   4.923
 1971SOL     OW 6811   0.909   6.355   5.518
 1971SOL    HW1 6812   0.902   6.276   5.580
 1971SOL    HW2 6813   0.955   6.327   5.434
 1972SOL     OW 6814   6.001   2.711   2.075
 1972SOL    HW1 6815   5.918   2.748   2.033
 1972SOL    HW2 6816   6.046   2.650   2.010
 1973SOL     OW 6817   1.894   4.325   0.585
 1973SOL    HW1 6818   1.895   4.372   0.497
 1973SOL    HW2 6819   1.948   4.376   0.651
 1974SOL     OW 6820   3.698   5.937   4.771
 1974SOL    HW1 6821   3.751   5.852   4.772
 1974SOL    HW2 6822   3.605   5.918   4.739
 1975SOL     OW 6823   1.359   2.942   2.838
 1975SOL    HW1 6824   1.315   2.853   2.831
 1975SOL    HW2 6825   1.447   2.932   2.886
 1976SOL     OW 6826   0.246   7.002   5.995
 1976SOL    HW1 6827   0.340   6.969   5.982
 1976SOL    HW2 6828   0.234   0.015   6.089
 1977SOL     OW 6829   1.994   4.257   6.165
 1977SOL    HW1 6830   2.079   4.310   6.171
 1977SOL    HW2 6831   2.014   4.169   6.121
 1978SOL     OW 6832   2.704   0.316   2.108
 1978SOL    HW1 6833   2.651   0.322   2.192
 1978SOL    HW2 6834   2.697   0.401   2.057
 1979SOL     OW 6835   6.426   5.538   6.808
 1979SOL    HW1 6836   6.484   5.550   6.727
 1979SOL    HW2 6837   6.460   5.461   6.862
 1980SOL     OW 6838   2.861   1.735   1.396
 1980SOL    HW1 6839   2.781   1.705   1.344
 1980SOL    HW2 6840   2.877   1.832   1.379
 1981SOL     OW 6841   4.552   2.408   3.295
 1981SOL    HW1 6842   4.533   2.443   3.386
 1981SOL    HW2 6843   4.647   2.374   3.291
 1982SOL     OW 6844   6.716   2.434   4.214
 1982SOL    HW1 6845   6.726   2.396   4.306
 1982SOL    HW2 6846   6.633   2.397   4.172
 1983SOL     OW 6847   0.595   0.239   0.956
 1983SOL    HW1 6848   0.598   0.285   1.045
 1983SOL    HW2 6849   0.587   0.307   0.883
 1984SOL     OW 6850   5.731   3.253   5.643
 1984SOL    HW1 6851   5.695   3.313   5.573
 1984SOL    HW2 6852   5.820   3.217   5.614
 1985SOL     OW 6853   6.489   4.204   2.078
 1985SOL    HW1 6854   6.418   4.207   2.007
 1985SOL    HW2 6855   6.553   4.130   2.057
 1986SOL     OW 6856   3.134   1.992   0.710
 1986SOL    HW1 6857   3.216   2.042   0.683
 1986SOL    HW2 6858   3.128   1.990   0.810
 1987SOL     OW 6859   2.188   0.258   2.774
 1987SOL    HW1 6860   2.269   0.304   2.811
 1987SOL    HW2 6861   2.158   0.188   2.839
 1988SOL     OW 6862   0.382   1.543   1.372
 1988SOL    HW1 6863   0.473   1.572   1.402
 1988SOL    HW2 6864   0.391   1.487   1.290
 1989SOL     OW 6865   3.184   4.926   4.896
 1989SOL    HW1 6866   3.143   4.853   4.950
 1989SOL    HW2 6867   3.150   4.921   4.802
 1990SOL     OW 6868   4.000   0.388   0.622
 1990SOL    HW1 6869   4.089   0.434   0.628
 1990SOL    HW2 6870   3.961   0.378   0.714
 1991SOL     OW 6871   3.307   5.603   0.240
 1991SOL    HW1 6872   3.382   5.570   0.183
 1991SOL    HW2 6873   3.320   5.701   0.257
 1992SOL     OW 6874   0.802   5.611   1.173
 1992SOL    HW1 6875   0.854   5.528   1.153
 1992SOL    HW2 6876   0.740   5.594   1.250
 1993SOL     OW 6877   2.141   3.231   4.545
 1993SOL    HW1 6878   2.183   3.292   4.612
 1993SOL    HW2 6879   2.100   3.287   4.472
 1994SOL     OW 6880   3.228   3.771   0.551
 1994SOL    HW1 6881   3.146   3.718   0.527
 1994SOL    HW2 6882   3.238   3.847   0.486
 1995SOL     OW 6883   5.465   2.545   4.240
 1995SOL    HW1 6884   5.375   2.518   4.208
 1995SOL    HW2 6885   5.535   2.494   4.190
 1996SOL     OW 6886   4.002   1.582   0.549
 1996SOL    HW1 6887   4.085   1.611   0.501
 1996SOL    HW2 6888   3.982   1.646   0.623
 1997SOL     OW 6889   3.977   1.510   3.481
 1997SOL    HW1 6890   4.013   1.562   3.403
 1997SOL    HW2 6891   4.031   1.530   3.562
 1998SOL     OW 6892   1.800   3.557   1.211
 1998SOL    HW1 6893   1.731   3.599   1.152
 1998SOL    HW2 6894   1.884   3.543   1.159
 1999SOL     OW 6895   1.316   6.779   5.179
 1999SOL    HW1 6896   1.228   6.733   5.181
 1999SOL    HW2 6897   1.366   6.751   5.097
 2000SOL     OW 6898   3.352   3.726   6.163
 2000SOL    HW1 6899   3.306   3.639   6.180
 2000SOL    HW2 6900   3.445   3.722   6.199
 2001SOL     OW 6901   2.784   1.450   6.402
 2001SOL    HW1 6902   2.737   1.457   6.314
 2001SOL    HW2 6903   2.811   1.541   6.432
 2002SOL     OW 6904   6.868   5.005   0.776
 2002SOL    HW1 6905   6.940   5.063   0.739
 2002SOL    HW2 6906   6.830   5.046   0.858
 2003SOL     OW 6907   6.827   5.540   2.180
 2003SOL    HW1 6908   6.784   5.578   2.098
 2003SOL    HW2 6909   6.822   5.606   2.254
 2004SOL     OW 6910   3.880   0.433   3.394
 2004SOL    HW1 6911   3.971   0.470   3.377
 2004SOL    HW2 6912   3.824   0.502   3.440
 2005SOL     OW 6913   1.179   6.128   0.738
 2005SOL    HW1 6914   1.192   6.094   0.831
 2005SOL    HW2 6915   1.081   6.138   0.720
 2006SOL     OW 6916   5.403   6.827   2.991
 2006SOL    HW1 6917   5.324   6.882   2.965
 2006SOL    HW2 6918   5.442   6.784   2.909
 2007SOL     OW 6919   5.664   4.677   0.237
 2007SOL    HW1 6920   5.709   4.623   0.166
 2007SOL    HW2 6921   5.731   4.700   0.308
 2008SOL     OW 6922   2.006   3.670   3.768
 2008SOL    HW1 6923   2.046   3.678   3.676
 2008SOL    HW2 6924   1.913   3.634   3.760
 2009SOL     OW 6925   6.406   6.543   1.991
 2009SOL    HW1 6926   6.365   6.536   1.900
 2009SOL    HW2 6927   6.350   6.601   2.050
 2010SOL     OW 6928   1.538   2.359   1.752
 2010SOL    HW1 6929   1.476   2.282   1.739
 2010SOL    HW2 6930   1.621   2.327   1.798
 2011SOL     OW 6931   0.513   6.012   5.761
 2011SOL    HW1 6932   0.603   5.982   5.791
 2011SOL    HW2 6933   0.514   6.110   5.744
 2012SOL     OW 6934   1.313   3.195   2.474
 2012SOL    HW1 6935   1.340   3.102   2.498
 2012SOL    HW2 6936   1.381   3.259   2.510
 2013SOL     OW 6937   0.215   2.994   2.752
 2013SOL    HW1 6938   0.126   3.018   2.714
 2013SOL    HW2 6939   0.202   2.931   2.829
 2014SOL     OW 6940   3.024   0.577   3.842
 2014SOL    HW1 6941   2.928   0.606   3.838
 2014SOL    HW2 6942   3.030   0.491   3.894
 2015SOL     OW 6943   4.158   1.032   1.962
 2015SOL    HW1 6944   4.144   0.959   2.029
 2015SOL    HW2 6945   4.213   0.998   1.886
 2016SOL     OW 6946   2.043   0.020   5.333
 2016SOL    HW1 6947   1.999   6.950   5.317
 2016SOL    HW2 6948   2.040   0.041   5.431
 2017SOL     OW 6949   3.365   6.866   2.755
 2017SOL    HW1 6950   3.338   6.802   2.828
 2017SOL    HW2 6951   3.441   6.826   2.704
 2018SOL     OW 6952   0.474   0.912   3.058
 2018SOL    HW1 6953   0.561   0.958   3.077
 2018SOL    HW2 6954   0.451   0.924   2.961
 2019SOL     OW 6955   6.031   4.965   6.567
 2019SOL    HW1 6956   6.122   4.939   6.534
 2019SOL    HW2 6957   5.962   4.945   6.498
 2020SOL     OW 6958   2.129   6.279   6.188
 2020SOL    HW1 6959   2.178   6.364   6.169
 2020SOL    HW2 6960   2.032   6.290   6.166
 2021SOL     OW 6961   6.280   5.709   3.794
 2021SOL    HW1 6962   6.218   5.784   3.770
 2021SOL    HW2 6963   6.284   5.700   3.894
 2022SOL     OW 6964   2.156   3.894   5.247
 2022SOL    HW1 6965   2.239   3.914   5.194
 2022SOL    HW2 6966   2.127   3.977   5.296
 2023SOL     OW 6967   0.411   0.155   0.027
 2023SOL    HW1 6968   0.383   0.075   0.080
 2023SOL    HW2 6969   0.474   0.128   6.972
 2024SOL     OW 6970   0.757   5.814   4.714
 2024SOL    HW1 6971   0.818   5.769   4.779
 2024SOL    HW2 6972   0.679   5.853   4.763
 2025SOL     OW 6973   2.324   0.623   4.888
 2025SOL    HW1 6974   2.413   0.581   4.873
 2025SOL    HW2 6975   2.334   0.723   4.889
 2026SOL     OW 6976   6.225   1.045   5.863
 2026SOL    HW1 6977   6.286   0.966   5.862
 2026SOL    HW2 6978   6.137   1.019   5.903
 2027SOL     OW 6979   0.366   6.204   2.922
 2027SOL    HW1 6980   0.278   6.252   2.917
 2027SOL    HW2 6981   0.396   6.199   3.017
 2028SOL     OW 6982   4.197   5.491   3.612
 2028SOL    HW1 6983   4.164   5.399   3.632
 2028SOL    HW2 6984   4.125   5.543   3.567
 2029SOL     OW 6985   5.975   2.489   6.432
 2029SOL    HW1 6986   6.053   2.462   6.489
 2029SOL    HW2 6987   6.005   2.501   6.338
 2030SOL     OW 6988   2.548   6.204   3.285
 2030SOL    HW1 6989   2.525   6.283   3.229
 2030SOL    HW2 6990   2.585   6.234   3.373
 2031SOL     OW 6991   6.514   5.662   3.667
 2031SOL    HW1 6992   6.429   5.685   3.715
 2031SOL    HW2 6993   6.553   5.579   3.705
 2032SOL     OW 6994   3.199   1.835   5.673
 2032SOL    HW1 6995   3.151   1.803   5.591
 2032SOL    HW2 6996   3.134   1.883   5.732
 2033SOL     OW 6997   2.050   1.560   1.069
 2033SOL    HW1 6998   2.076   1.526   0.978
 2033SOL    HW2 6999   2.103   1.510   1.138
 2034SOL     OW 7000   0.146   4.767   5.600
 2034SOL    HW1 7001   0.140   4.721   5.511
 2034SOL    HW2 7002   0.055   4.772   5.641
 2035SOL     OW 7003   5.549   6.971   2.377
 2035SOL    HW1 7004   5.472   6.921   2.336
 2035SOL    HW2 7005   5.532   0.051   2.372
 2036SOL     OW 7006   1.522   4.454   1.856
 2036SOL    HW1 7007   1.532   4.393   1.935
 2036SOL    HW2 7008   1.537   4.549   1.884
 2037SOL     OW 7009   0.276   3.313   6.653
 2037SOL    HW1 7010   0.315   3.318   6.561
 2037SOL    HW2 7011   0.210   3.388   6.665
 2038SOL     OW 7012   1.957   1.242   6.703
 2038SOL    HW1 7013   2.012   1.300   6.643
 2038SOL    HW2 7014   1.986   1.256   6.797
 2039SOL     OW 7015   6.596   5.970   2.646
 2039SOL    HW1 7016   6.518   5.994   2.589
 2039SOL    HW2 7017   6.587   6.014   2.736
 2040SOL     OW 7018   1.759   2.864   6.964
 2040SOL    HW1 7019   1.702   2.927   6.912
 2040SOL    HW2 7020   1.822   2.817   6.902
 2041SOL     OW 7021   1.726   0.846   6.230
 2041SOL    HW1 7022   1.770   0.871   6.144
 2041SOL    HW2 7023   1.726   0.746   6.240
 2042SOL     OW 7024   4.982   1.319   5.523
 2042SOL    HW1 7025   5.079   1.337   5.536
 2042SOL    HW2 7026   4.932   1.406   5.518
 2043SOL     OW 7027   6.366   4.015   0.886
 2043SOL    HW1 7028   6.416   4.055   0.809
 2043SOL    HW2 7029   6.271   4.046   0.884
 2044SOL     OW 7030   4.560   0.344   0.716
 2044SOL    HW1 7031   4.544   0.404   0.638
 2044SOL    HW2 7032   4.644   0.292   0.701
 2045SOL     OW 7033   2.150   6.675   6.506
 2045SOL    HW1 7034   2.162   6.692   6.408
 2045SOL    HW2 7035   2.240   6.671   6.550
 2046SOL     OW 7036   1.038   2.230   4.515
 2046SOL    HW1 7037   1.042   2.251   4.417
 2046SOL    HW2 7038   1.001   2.139   4.528
 2047SOL     OW 7039   6.901   0.855   6.915
 2047SOL    HW1 7040   6.919   0.798   6.995
 2047SOL    HW2 7041   6.987   0.895   6.882
 2048SOL     OW 7042   0.800   1.825   4.785
 2048SOL    HW1 7043   0.799   1.823   4.685
 2048SOL    HW2 7044   0.718   1.780   4.820
 2049SOL     OW 7045   4.587   1.960   4.966
 2049SOL    HW1 7046   4.638   1.874   4.970
 2049SOL    HW2 7047   4.631   2.027   5.026
 2050SOL     OW 7048   0.495   0.768   3.933
 2050SOL    HW1 7049   0.405   0.786   3.972
 2050SOL    HW2 7050   0.556   0.845   3.950
 2051SOL     OW 7051   3.261   6.060   0.482
 2051SOL    HW1 7052   3.342   6.006   0.505
 2051SOL    HW2 7053   3.191   6.048   0.552
 2052SOL     OW 7054   1.761   4.074   6.386
 2052SOL    HW1 7055   1.681   4.044   6.439
 2052SOL    HW2 7056   1.779   4.171   6.404
 2053SOL     OW 7057   1.291   5.349   3.985
 2053SOL    HW1 7058   1.292   5.402   4.070
 2053SOL    HW2 7059   1.275   5.252   4.006
 2054SOL     OW 7060   3.243   3.348   3.683
 2054SOL    HW1 7061   3.316   3.390   3.628
 2054SOL    HW2 7062   3.279   3.326   3.774
 2055SOL     OW 7063   2.537   2.120   5.871
 2055SOL    HW1 7064   2.571   2.133   5.778
 2055SOL    HW2 7065   2.597   2.165   5.936
 2056SOL     OW 7066   3.978   4.836   0.929
 2056SOL    HW1 7067   3.917   4.798   0.998
 2056SOL    HW2 7068   3.924   4.887   0.861
 2057SOL     OW 7069   5.896   2.363   4.514
 2057SOL    HW1 7070   5.984   2.351   4.469
 2057SOL    HW2 7071   5.909   2.360   4.613
 2058SOL     OW 7072   0.290   5.663   2.862
 2058SOL    HW1 7073   0.369   5.601   2.870
 2058SOL    HW2 7074   0.238   5.662   2.947
 2059SOL     OW 7075   1.432   0.097   6.367
 2059SOL    HW1 7076   1.478   0.023   6.318
 2059SOL    HW2 7077   1.493   0.132   6.439
 2060SOL     OW 7078   1.240   3.663   6.812
 2060SOL    HW1 7079   1.148   3.624   6.817
 2060SOL    HW2 7080   1.303   3.606   6.864
 2061SOL     OW 7081   2.274   1.983   2.620
 2061SOL    HW1 7082   2.357   2.020   2.662
 2061SOL    HW2 7083   2.202   2.053   2.620
 2062SOL     OW 7084   6.756   5.133   4.810
 2062SOL    HW1 7085   6.842   5.182   4.801
 2062SOL    HW2 7086   6.774   5.040   4.843
 2063SOL     OW 7087   0.793   0.709   4.982
 2063SOL    HW1 7088   0.829   0.646   4.913
 2063SOL    HW2 7089   0.765   0.657   5.063
 2064SOL     OW 7090   0.685   3.182   3.533
 2064SOL    HW1 7091   0.657   3.092   3.500
 2064SOL    HW2 7092   0.728   3.233   3.459
 2065SOL     OW 7093   4.568   3.071   5.847
 2065SOL    HW1 7094   4.566   3.002   5.919
 2065SOL    HW2 7095   4.474   3.093   5.820
 2066SOL     OW 7096   6.571   3.472   5.027
 2066SOL    HW1 7097   6.514   3.400   4.987
 2066SOL    HW2 7098   6.633   3.431   5.095
 2067SOL     OW 7099   6.299   5.336   1.032
 2067SOL    HW1 7100   6.232   5.273   1.070
 2067SOL    HW2 7101   6.254   5.423   1.011
 2068SOL     OW 7102   3.776   0.542   4.776
 2068SOL    HW1 7103   3.783   0.557   4.677
 2068SOL    HW2 7104   3.792   0.629   4.823
 2069SOL     OW 7105   0.102   2.278   3.856
 2069SOL    HW1 7106   0.169   2.266   3.929
 2069SOL    HW2 7107   0.147   2.316   3.775
 2070SOL     OW 7108   0.633   4.506   1.063
 2070SOL    HW1 7109   0.657   4.452   0.983
 2070SOL    HW2 7110   0.548   4.470   1.103
 2071SOL     OW 7111   6.741   1.489   5.805
 2071SOL    HW1 7112   6.670   1.422   5.825
 2071SOL    HW2 7113   6.812   1.486   5.876
 2072SOL     OW 7114   4.133   4.109   5.828
 2072SOL    HW1 7115   4.121   4.080   5.733
 2072SOL    HW2 7116   4.210   4.172   5.834
 2073SOL     OW 7117   2.988   6.143   6.947
 2073SOL    HW1 7118   3.079   6.182   6.952
 2073SOL    HW2 7119   2.992   6.045   6.966
 2074SOL     OW 7120   0.777   3.740   5.425
 2074SOL    HW1 7121   0.860   3.695   5.392
 2074SOL    HW2 7122   0.704   3.672   5.435
 2075SOL     OW 7123   6.594   1.513   1.328
 2075SOL    HW1 7124   6.536   1.575   1.380
 2075SOL    HW2 7125   6.577   1.418   1.356
 2076SOL     OW 7126   5.342   6.848   4.679
 2076SOL    HW1 7127   5.440   6.865   4.672
 2076SOL    HW2 7128   5.305   6.825   4.588
 2077SOL     OW 7129   6.558   4.134   0.739
 2077SOL    HW1 7130   6.571   4.115   0.641
 2077SOL    HW2 7131   6.643   4.117   0.788
 2078SOL     OW 7132   0.464   3.131   5.936
 2078SOL    HW1 7133   0.550   3.147   5.984
 2078SOL    HW2 7134   0.409   3.064   5.987
 2079SOL     OW 7135   4.735   2.271   2.634
 2079SOL    HW1 7136   4.656   2.218   2.605
 2079SOL    HW2 7137   4.797   2.213   2.687
 2080SOL     OW 7138   2.547   3.192   5.924
 2080SOL    HW1 7139   2.633   3.244   5.922
 2080SOL    HW2 7140   2.542   3.133   5.844
 2081SOL     OW 7141   6.044   6.928   2.630
 2081SOL    HW1 7142   6.085   6.843   2.598
 2081SOL    HW2 7143   6.104   6.971   2.698
 2082SOL     OW 7144   6.879   6.178   3.154
 2082SOL    HW1 7145   6.928   6.204   3.237
 2082SOL    HW2 7146   6.924   6.100   3.112
 2083SOL     OW 7147   0.286   6.293   3.681
 2083SOL    HW1 7148   0.299   6.388   3.709
 2083SOL    HW2 7149   0.295   6.233   3.760
 2084SOL     OW 7150   6.937   1.944   1.787
 2084SOL    HW1 7151   6.906   2.026   1.739
 2084SOL    HW2 7152   6.998   1.971   1.862
 2085SOL     OW 7153   4.972   5.866   0.913
 2085SOL    HW1 7154   5.041   5.856   0.841
 2085SOL    HW2 7155   4.913   5.944   0.892
 2086SOL     OW 7156   4.655   0.250   6.855
 2086SOL    HW1 7157   4.655   0.285   6.949
 2086SOL    HW2 7158   4.696   0.318   6.794
 2087SOL     OW 7159   4.199   1.975   6.546
 2087SOL    HW1 7160   4.219   1.906   6.476
 2087SOL    HW2 7161   4.204   2.066   6.505
 2088SOL     OW 7162   0.645   5.634   5.572
 2088SOL    HW1 7163   0.700   5.617   5.653
 2088SOL    HW2 7164   0.652   5.556   5.509
 2089SOL     OW 7165   2.822   3.630   6.990
 2089SOL    HW1 7166   2.763   3.709   7.005
 2089SOL    HW2 7167   2.871   3.608   0.056
 2090SOL     OW 7168   4.774   3.245   5.278
 2090SOL    HW1 7169   4.728   3.330   5.253
 2090SOL    HW2 7170   4.867   3.265   5.308
 2091SOL     OW 7171   5.753   5.778   1.395
 2091SOL    HW1 7172   5.656   5.756   1.407
 2091SOL    HW2 7173   5.789   5.731   1.314
 2092SOL     OW 7174   4.553   3.757   1.455
 2092SOL    HW1 7175   4.513   3.734   1.544
 2092SOL    HW2 7176   4.516   3.696   1.385
 2093SOL     OW 7177   3.885   1.581   2.616
 2093SOL    HW1 7178   3.842   1.558   2.529
 2093SOL    HW2 7179   3.906   1.679   2.618
 2094SOL     OW 7180   5.649   2.057   6.841
 2094SOL    HW1 7181   5.629   2.117   6.763
 2094SOL    HW2 7182   5.633   2.106   6.926
 2095SOL     OW 7183   5.058   6.772   2.863
 2095SOL    HW1 7184   4.994   6.720   2.920
 2095SOL    HW2 7185   5.080   6.859   2.908
 2096SOL     OW 7186   5.052   6.659   2.154
 2096SOL    HW1 7187   5.015   6.713   2.230
 2096SOL    HW2 7188   4.979   6.643   2.087
 2097SOL     OW 7189   1.185   5.161   5.981
 2097SOL    HW1 7190   1.142   5.148   6.070
 2097SOL    HW2 7191   1.203   5.071   5.939
 2098SOL     OW 7192   3.090   5.738   3.280
 2098SOL    HW1 7193   3.056   5.658   3.329
 2098SOL    HW2 7194   3.097   5.716   3.182
 2099SOL     OW 7195   4.921   1.015   6.785
 2099SOL    HW1 7196   4.929   0.960   6.702
 2099SOL    HW2 7197   5.012   1.026   6.826
 2100SOL     OW 7198   5.752   0.307   1.103
 2100SOL    HW1 7199   5.702   0.298   1.189
 2100SOL    HW2 7200   5.809   0.226   1.091
 2101SOL     OW 7201   0.075   6.523   1.977
 2101SOL    HW1 7202   0.076   6.614   2.017
 2101SOL    HW2 7203   0.013   6.521   1.898
 2102SOL     OW 7204   3.480   3.072   0.676
 2102SOL    HW1 7205   3.544   3.135   0.719
 2102SOL    HW2 7206   3.478   3.089   0.577
 2103SOL     OW 7207   2.914   5.889   0.592
 2103SOL    HW1 7208   2.824   5.851   0.611
 2103SOL    HW2 7209   2.979   5.814   0.577
 2104SOL     OW 7210   1.433   4.858   3.194
 2104SOL    HW1 7211   1.461   4.934   3.251
 2104SOL    HW2 7212   1.504   4.839   3.126
 2105SOL     OW 7213   6.546   4.387   6.004
 2105SOL    HW1 7214   6.497   4.381   5.917
 2105SOL    HW2 7215   6.643   4.408   5.986
 2106SOL     OW 7216   4.617   4.033   1.400
 2106SOL    HW1 7217   4.588   3.943   1.430
 2106SOL    HW2 7218   4.544   4.074   1.344
 2107SOL     OW 7219   5.139   4.330   5.916
 2107SOL    HW1 7220   5.062   4.280   5.876
 2107SOL    HW2 7221   5.224   4.300   5.874
 2108SOL     OW 7222   5.809   0.428   5.758
 2108SOL    HW1 7223   5.861   0.459   5.838
 2108SOL    HW2 7224   5.871   0.417   5.681
 2109SOL     OW 7225   2.630   6.349   3.505
 2109SOL    HW1 7226   2.636   6.303   3.593
 2109SOL    HW2 7227   2.718   6.391   3.482
 2110SOL     OW 7228   4.089   0.615   0.199
 2110SOL    HW1 7229   4.011   0.617   0.136
 2110SOL    HW2 7230   4.114   0.519   0.217
 2111SOL     OW 7231   0.937   2.490   5.581
 2111SOL    HW1 7232   0.884   2.405   5.581
 2111SOL    HW2 7233   1.023   2.476   5.534
 2112SOL     OW 7234   0.294   0.662   6.920
 2112SOL    HW1 7235   0.307   0.593   6.991
 2112SOL    HW2 7236   0.383   0.696   6.890
 2113SOL     OW 7237   1.249   0.527   4.410
 2113SOL    HW1 7238   1.305   0.599   4.450
 2113SOL    HW2 7239   1.159   0.563   4.386
 2114SOL     OW 7240   1.781   1.573   6.354
 2114SOL    HW1 7241   1.862   1.627   6.378
 2114SOL    HW2 7242   1.798   1.477   6.376
 2115SOL     OW 7243   6.801   5.660   3.058
 2115SOL    HW1 7244   6.882   5.662   3.000
 2115SOL    HW2 7245   6.728   5.714   3.015
 2116SOL     OW 7246   0.630   2.059   0.196
 2116SOL    HW1 7247   0.595   1.966   0.209
 2116SOL    HW2 7248   0.729   2.055   0.183
 2117SOL     OW 7249   6.226   1.704   2.377
 2117SOL    HW1 7250   6.175   1.618   2.373
 2117SOL    HW2 7251   6.320   1.688   2.347
 2118SOL     OW 7252   6.042   2.918   2.268
 2118SOL    HW1 7253   5.983   2.908   2.349
 2118SOL    HW2 7254   6.039   2.833   2.215
 2119SOL     OW 7255   2.787   1.113   7.015
 2119SOL    HW1 7256   2.784   1.094   0.095
 2119SOL    HW2 7257   2.846   1.046   6.970
 2120SOL     OW 7258   5.479   1.212   0.693
 2120SOL    HW1 7259   5.569   1.176   0.718
 2120SOL    HW2 7260   5.408   1.164   0.745
 2121SOL     OW 7261   1.127   0.351   6.917
 2121SOL    HW1 7262   1.099   0.317   6.827
 2121SOL    HW2 7263   1.096   0.287   6.988
 2122SOL     OW 7264   5.717   1.114   3.936
 2122SOL    HW1 7265   5.767   1.200   3.934
 2122SOL    HW2 7266   5.705   1.084   4.031
 2123SOL     OW 7267   1.799   5.864   3.402
 2123SOL    HW1 7268   1.712   5.833   3.440
 2123SOL    HW2 7269   1.856   5.900   3.475
 2124SOL     OW 7270   3.941   3.663   5.958
 2124SOL    HW1 7271   3.950   3.573   5.999
 2124SOL    HW2 7272   3.989   3.665   5.870
 2125SOL     OW 7273   1.557   5.643   3.859
 2125SOL    HW1 7274   1.460   5.666   3.846
 2125SOL    HW2 7275   1.570   5.603   3.950
 2126SOL     OW 7276   3.233   4.664   0.117
 2126SOL    HW1 7277   3.272   4.613   0.041
 2126SOL    HW2 7278   3.146   4.622   0.144
 2127SOL     OW 7279   0.525   2.149   4.150
 2127SOL    HW1 7280   0.474   2.114   4.228
 2127SOL    HW2 7281   0.604   2.090   4.132
 2128SOL     OW 7282   5.228   2.716   1.819
 2128SOL    HW1 7283   5.194   2.666   1.740
 2128SOL    HW2 7284   5.207   2.664   1.902
 2129SOL     OW 7285   4.969   4.604   3.904
 2129SOL    HW1 7286   4.996   4.564   3.817
 2129SOL    HW2 7287   4.887   4.558   3.939
 2130SOL     OW 7288   2.459   0.367   2.807
 2130SOL    HW1 7289   2.498   0.348   2.717
 2130SOL    HW2 7290   2.403   0.450   2.804
 2131SOL     OW 7291   5.571   1.169   5.071
 2131SOL    HW1 7292   5.663   1.166   5.032
 2131SOL    HW2 7293   5.536   1.076   5.080
 2132SOL     OW 7294   3.024   2.480   0.299
 2132SOL    HW1 7295   3.036   2.578   0.312
 2132SOL    HW2 7296   2.962   2.444   0.368
 2133SOL     OW 7297   2.860   2.073   2.052
 2133SOL    HW1 7298   2.858   2.173   2.056
 2133SOL    HW2 7299   2.810   2.036   2.131
 2134SOL     OW 7300   1.107   6.703   4.859
 2134SOL    HW1 7301   1.105   6.710   4.959
 2134SOL    HW2 7302   1.188   6.752   4.824
 2135SOL     OW 7303   0.739   1.213   3.464
 2135SOL    HW1 7304   0.777   1.140   3.521
 2135SOL    HW2 7305   0.782   1.300   3.489
 2136SOL     OW 7306   0.424   4.405   3.177
 2136SOL    HW1 7307   0.350   4.341   3.155
 2136SOL    HW2 7308   0.385   4.497   3.189
 2137SOL     OW 7309   1.101   0.431   5.096
 2137SOL    HW1 7310   1.015   0.421   5.145
 2137SOL    HW2 7311   1.115   0.528   5.073
 2138SOL     OW 7312   0.937   2.652   0.202
 2138SOL    HW1 7313   0.941   2.729   0.266
 2138SOL    HW2 7314   0.884   2.577   0.243
 2139SOL     OW 7315   2.466   0.972   5.809
 2139SOL    HW1 7316   2.385   0.983   5.866
 2139SOL    HW2 7317   2.454   1.022   5.723
 2140SOL     OW 7318   2.475   5.894   2.856
 2140SOL    HW1 7319   2.393   5.921   2.906
 2140SOL    HW2 7320   2.499   5.966   2.791
 2141SOL     OW 7321   5.054   2.138   0.383
 2141SOL    HW1 7322   5.118   2.210   0.408
 2141SOL    HW2 7323   4.974   2.143   0.442
 2142SOL     OW 7324   2.458   1.859   3.378
 2142SOL    HW1 7325   2.478   1.947   3.335
 2142SOL    HW2 7326   2.360   1.842   3.376
 2143SOL     OW 7327   3.437   6.888   0.716
 2143SOL    HW1 7328   3.398   6.975   0.683
 2143SOL    HW2 7329   3.514   6.863   0.658
 2144SOL     OW 7330   6.845   1.019   3.076
 2144SOL    HW1 7331   6.808   1.111   3.066
 2144SOL    HW2 7332   6.886   1.009   3.167
 2145SOL     OW 7333   4.161   5.619   2.728
 2145SOL    HW1 7334   4.117   5.572   2.652
 2145SOL    HW2 7335   4.239   5.672   2.694
 2146SOL     OW 7336   3.475   2.903   2.362
 2146SOL    HW1 7337   3.449   2.813   2.328
 2146SOL    HW2 7338   3.550   2.939   2.306
 2147SOL     OW 7339   1.502   0.636   5.330
 2147SOL    HW1 7340   1.414   0.618   5.372
 2147SOL    HW2 7341   1.500   0.726   5.285
 2148SOL     OW 7342   5.263   2.846   3.032
 2148SOL    HW1 7343   5.298   2.898   2.955
 2148SOL    HW2 7344   5.163   2.848   3.031
 2149SOL     OW 7345   3.709   0.958   2.827
 2149SOL    HW1 7346   3.720   1.051   2.793
 2149SOL    HW2 7347   3.612   0.940   2.845
 2150SOL     OW 7348   3.528   2.123   3.257
 2150SOL    HW1 7349   3.551   2.063   3.334
 2150SOL    HW2 7350   3.610   2.142   3.204
 2151SOL     OW 7351   3.883   2.977   5.592
 2151SOL    HW1 7352   3.903   2.892   5.639
 2151SOL    HW2 7353   3.888   3.053   5.657
 2152SOL     OW 7354   6.264   5.786   1.701
 2152SOL    HW1 7355   6.221   5.876   1.694
 2152SOL    HW2 7356   6.363   5.795   1.688
 2153SOL     OW 7357   4.835   2.549   3.307
 2153SOL    HW1 7358   4.833   2.477   3.237
 2153SOL    HW2 7359   4.880   2.514   3.389
 2154SOL     OW 7360   4.111   6.415   5.442
 2154SOL    HW1 7361   4.057   6.413   5.527
 2154SOL    HW2 7362   4.113   6.323   5.402
 2155SOL     OW 7363   0.056   4.088   0.448
 2155SOL    HW1 7364   0.089   4.166   0.501
 2155SOL    HW2 7365   0.002   4.121   0.371
 2156SOL     OW 7366   1.236   0.908   1.776
 2156SOL    HW1 7367   1.214   0.989   1.831
 2156SOL    HW2 7368   1.326   0.874   1.801
 2157SOL     OW 7369   0.904   1.362   5.110
 2157SOL    HW1 7370   0.952   1.400   5.031
 2157SOL    HW2 7371   0.837   1.428   5.144
 2158SOL     OW 7372   3.688   6.467   2.090
 2158SOL    HW1 7373   3.751   6.447   2.015
 2158SOL    HW2 7374   3.638   6.551   2.070
 2159SOL     OW 7375   2.099   6.591   4.447
 2159SOL    HW1 7376   2.164   6.517   4.461
 2159SOL    HW2 7377   2.037   6.597   4.525
 2160SOL     OW 7378   3.218   4.014   1.054
 2160SOL    HW1 7379   3.306   4.036   1.012
 2160SOL    HW2 7380   3.145   4.066   1.010
 2161SOL     OW 7381   5.375   2.617   3.627
 2161SOL    HW1 7382   5.430   2.606   3.709
 2161SOL    HW2 7383   5.436   2.632   3.548
 2162SOL     OW 7384   1.120   0.818   0.044
 2162SOL    HW1 7385   1.127   0.905   0.092
 2162SOL    HW2 7386   1.200   0.805   7.003
 2163SOL     OW 7387   1.736   2.068   0.684
 2163SOL    HW1 7388   1.654   2.125   0.696
 2163SOL    HW2 7389   1.716   1.975   0.714
 2164SOL     OW 7390   1.358   0.418   1.165
 2164SOL    HW1 7391   1.431   0.440   1.229
 2164SOL    HW2 7392   1.300   0.499   1.152
 2165SOL     OW 7393   2.361   6.530   2.311
 2165SOL    HW1 7394   2.307   6.575   2.241
 2165SOL    HW2 7395   2.439   6.587   2.335
 2166SOL     OW 7396   0.125   2.328   6.423
 2166SOL    HW1 7397   0.160   2.373   6.341
 2166SOL    HW2 7398   0.025   2.319   6.416
 2167SOL     OW 7399   2.940   0.318   2.906
 2167SOL    HW1 7400   2.995   0.237   2.888
 2167SOL    HW2 7401   2.996   0.400   2.895
 2168SOL     OW 7402   5.940   5.414   4.597
 2168SOL    HW1 7403   5.914   5.448   4.507
 2168SOL    HW2 7404   5.997   5.482   4.643
 2169SOL     OW 7405   4.872   1.569   5.924
 2169SOL    HW1 7406   4.773   1.574   5.919
 2169SOL    HW2 7407   4.898   1.498   5.989
 2170SOL     OW 7408   4.423   4.679   4.220
 2170SOL    HW1 7409   4.481   4.745   4.268
 2170SOL    HW2 7410   4.327   4.695   4.244
 2171SOL     OW 7411   0.282   2.492   0.075
 2171SOL    HW1 7412   0.356   2.427   0.095
 2171SOL    HW2 7413   0.212   2.484   0.146
 2172SOL     OW 7414   2.670   0.964   0.707
 2172SOL    HW1 7415   2.757   0.943   0.753
 2172SOL    HW2 7416   2.651   0.894   0.639
 2173SOL     OW 7417   5.795   1.629   5.251
 2173SOL    HW1 7418   5.700   1.617   5.223
 2173SOL    HW2 7419   5.856   1.596   5.179
 2174SOL     OW 7420   0.547   5.955   4.873
 2174SOL    HW1 7421   0.502   6.044   4.878
 2174SOL    HW2 7422   0.581   5.929   4.964
 2175SOL     OW 7423   2.282   6.360   4.902
 2175SOL    HW1 7424   2.194   6.387   4.942
 2175SOL    HW2 7425   2.338   6.315   4.972
 2176SOL     OW 7426   1.658   2.222   2.556
 2176SOL    HW1 7427   1.620   2.315   2.563
 2176SOL    HW2 7428   1.734   2.212   2.620
 2177SOL     OW 7429   0.005   1.676   1.621
 2177SOL    HW1 7430   6.946   1.663   1.683
 2177SOL    HW2 7431   0.078   1.611   1.643
 2178SOL     OW 7432   0.530   4.673   0.071
 2178SOL    HW1 7433   0.465   4.740   0.037
 2178SOL    HW2 7434   0.572   4.625   7.012
 2179SOL     OW 7435   1.230   5.015   3.996
 2179SOL    HW1 7436   1.282   4.993   3.913
 2179SOL    HW2 7437   1.146   4.962   3.999
 2180SOL     OW 7438   3.524   2.912   2.657
 2180SOL    HW1 7439   3.443   2.942   2.607
 2180SOL    HW2 7440   3.597   2.890   2.592
 2181SOL     OW 7441   5.092   4.996   5.997
 2181SOL    HW1 7442   5.103   5.033   5.905
 2181SOL    HW2 7443   5.171   5.020   6.053
 2182SOL     OW 7444   6.287   2.820   6.996
 2182SOL    HW1 7445   6.367   2.837   6.938
 2182SOL    HW2 7446   6.228   2.752   6.953
 2183SOL     OW 7447   3.003   3.160   1.206
 2183SOL    HW1 7448   3.067   3.084   1.192
 2183SOL    HW2 7449   2.910   3.130   1.186
 2184SOL     OW 7450   3.784   2.574   6.080
 2184SOL    HW1 7451   3.784   2.555   5.982
 2184SOL    HW2 7452   3.733   2.503   6.129
 2185SOL     OW 7453   1.928   1.458   1.510
 2185SOL    HW1 7454   1.846   1.515   1.502
 2185SOL    HW2 7455   1.918   1.396   1.587
 2186SOL     OW 7456   0.896   5.945   3.114
 2186SOL    HW1 7457   0.978   5.984   3.072
 2186SOL    HW2 7458   0.819   6.007   3.101
 2187SOL     OW 7459   6.781   0.984   6.528
 2187SOL    HW1 7460   6.864   0.954   6.481
 2187SOL    HW2 7461   6.775   1.084   6.523
 2188SOL     OW 7462   5.385   0.311   2.671
 2188SOL    HW1 7463   5.411   0.216   2.657
 2188SOL    HW2 7464   5.286   0.321   2.660
 2189SOL     OW 7465   2.044   0.227   6.653
 2189SOL    HW1 7466   2.093   0.189   6.574
 2189SOL    HW2 7467   2.082   0.317   6.675
 2190SOL     OW 7468   4.983   1.999   1.595
 2190SOL    HW1 7469   5.015   2.035   1.508
 2190SOL    HW2 7470   4.917   2.062   1.635
 2191SOL     OW 7471   3.335   2.305   0.218
 2191SOL    HW1 7472   3.264   2.365   0.254
 2191SOL    HW2 7473   3.372   2.343   0.134
 2192SOL     OW 7474   4.884   5.645   5.206
 2192SOL    HW1 7475   4.800   5.592   5.217
 2192SOL    HW2 7476   4.864   5.742   5.215
 2193SOL     OW 7477   0.333   4.754   6.018
 2193SOL    HW1 7478   0.429   4.763   5.989
 2193SOL    HW2 7479   0.298   4.844   6.043
 2194SOL     OW 7480   2.837   6.976   1.269
 2194SOL    HW1 7481   2.792   0.010   1.342
 2194SOL    HW2 7482   2.773   6.908   1.233
 2195SOL     OW 7483   1.148   4.133   2.776
 2195SOL    HW1 7484   1.104   4.055   2.732
 2195SOL    HW2 7485   1.086   4.211   2.778
 2196SOL     OW 7486   3.573   2.790   6.321
 2196SOL    HW1 7487   3.496   2.843   6.354
 2196SOL    HW2 7488   3.638   2.850   6.275
 2197SOL     OW 7489   4.510   4.935   0.288
 2197SOL    HW1 7490   4.508   4.989   0.373
 2197SOL    HW2 7491   4.583   4.970   0.229
 2198SOL     OW 7492   6.208   4.043   0.219
 2198SOL    HW1 7493   6.226   3.964   0.160
 2198SOL    HW2 7494   6.290   4.064   0.272
 2199SOL     OW 7495   4.484   0.655   1.714
 2199SOL    HW1 7496   4.567   0.692   1.672
 2199SOL    HW2 7497   4.410   0.654   1.646
 2200SOL     OW 7498   2.898   0.705   5.057
 2200SOL    HW1 7499   2.980   0.666   5.016
 2200SOL    HW2 7500   2.866   0.782   5.002
 2201SOL     OW 7501   4.882   3.960   2.065
 2201SOL    HW1 7502   4.959   4.023   2.057
 2201SOL    HW2 7503   4.817   3.978   1.991
 2202SOL     OW 7504   4.525   6.208   3.897
 2202SOL    HW1 7505   4.601   6.236   3.956
 2202SOL    HW2 7506   4.512   6.276   3.825
 2203SOL     OW 7507   3.766   1.755   3.390
 2203SOL    HW1 7508   3.731   1.680   3.334
 2203SOL    HW2 7509   3.864   1.764   3.375
 2204SOL     OW 7510   2.719   2.700   1.002
 2204SOL    HW1 7511   2.805   2.751   1.002
 2204SOL    HW2 7512   2.700   2.667   1.095
 2205SOL     OW 7513   2.008   7.007   0.329
 2205SOL    HW1 7514   2.049   0.071   0.369
 2205SOL    HW2 7515   2.072   6.965   0.264
 2206SOL     OW 7516   1.938   2.595   6.845
 2206SOL    HW1 7517   1.884   2.592   6.929
 2206SOL    HW2 7518   2.000   2.516   6.842
 2207SOL     OW 7519   0.861   4.377   4.987
 2207SOL    HW1 7520   0.953   4.339   4.986
 2207SOL    HW2 7521   0.795   4.305   5.008
 2208SOL     OW 7522   0.649   4.194   1.441
 2208SOL    HW1 7523   0.740   4.154   1.454
 2208SOL    HW2 7524   0.639   4.224   1.346
 2209SOL     OW 7525   1.243   5.686   0.735
 2209SOL    HW1 7526   1.243   5.597   0.781
 2209SOL    HW2 7527   1.199   5.677   0.646
 2210SOL     OW 7528   0.706   6.240   3.748
 2210SOL    HW1 7529   0.660   6.305   3.687
 2210SOL    HW2 7530   0.693   6.147   3.714
 2211SOL     OW 7531   6.133   1.320   5.668
 2211SOL    HW1 7532   6.173   1.242   5.621
 2211SOL    HW2 7533   6.180   1.333   5.756
 2212SOL     OW 7534   1.415   0.192   6.048
 2212SOL    HW1 7535   1.424   0.144   6.136
 2212SOL    HW2 7536   1.493   0.253   6.036
 2213SOL     OW 7537   3.706   1.100   3.391
 2213SOL    HW1 7538   3.659   1.048   3.463
 2213SOL    HW2 7539   3.740   1.037   3.322
 2214SOL     OW 7540   3.966   6.964   5.065
 2214SOL    HW1 7541   4.065   6.970   5.074
 2214SOL    HW2 7542   3.925   0.034   5.090
 2215SOL     OW 7543   5.526   2.920   5.303
 2215SOL    HW1 7544   5.503   2.929   5.400
 2215SOL    HW2 7545   5.573   3.003   5.273
 2216SOL     OW 7546   2.369   0.594   1.675
 2216SOL    HW1 7547   2.272   0.588   1.650
 2216SOL    HW2 7548   2.386   0.541   1.758
 2217SOL     OW 7549   4.264   0.647   1.535
 2217SOL    HW1 7550   4.175   0.614   1.568
 2217SOL    HW2 7551   4.272   0.629   1.437
 2218SOL     OW 7552   1.274   5.747   1.197
 2218SOL    HW1 7553   1.290   5.815   1.268
 2218SOL    HW2 7554   1.358   5.697   1.179
 2219SOL     OW 7555   1.117   3.110   2.856
 2219SOL    HW1 7556   1.199   3.053   2.854
 2219SOL    HW2 7557   1.046   3.064   2.909
 2220SOL     OW 7558   0.590   0.320   0.173
 2220SOL    HW1 7559   0.528   0.256   0.127
 2220SOL    HW2 7560   0.681   0.313   0.132
 2221SOL     OW 7561   0.380   2.126   0.486
 2221SOL    HW1 7562   0.332   2.117   0.399
 2221SOL    HW2 7563   0.317   2.106   0.561
 2222SOL     OW 7564   5.764   6.180   2.709
 2222SOL    HW1 7565   5.733   6.235   2.632
 2222SOL    HW2 7566   5.807   6.239   2.778
 2223SOL     OW 7567   5.417   5.219   1.781
 2223SOL    HW1 7568   5.484   5.292   1.796
 2223SOL    HW2 7569   5.450   5.158   1.709
 2224SOL     OW 7570   1.180   5.126   1.054
 2224SOL    HW1 7571   1.090   5.099   1.091
 2224SOL    HW2 7572   1.220   5.196   1.113
 2225SOL     OW 7573   6.773   5.077   1.356
 2225SOL    HW1 7574   6.768   5.164   1.308
 2225SOL    HW2 7575   6.738   5.004   1.298
 2226SOL     OW 7576   4.285   3.981   1.253
 2226SOL    HW1 7577   4.341   4.064   1.247
 2226SOL    HW2 7578   4.302   3.923   1.173
 2227SOL     OW 7579   0.957   3.508   4.178
 2227SOL    HW1 7580   1.025   3.488   4.108
 2227SOL    HW2 7581   0.873   3.540   4.135
 2228SOL     OW 7582   2.330   4.826   5.837
 2228SOL    HW1 7583   2.357   4.904   5.894
 2228SOL    HW2 7584   2.411   4.770   5.816
 2229SOL     OW 7585   4.956   0.949   3.310
 2229SOL    HW1 7586   5.039   0.895   3.324
 2229SOL    HW2 7587   4.880   0.889   3.286
 2230SOL     OW 7588   1.568   5.649   0.183
 2230SOL    HW1 7589   1.631   5.727   0.194
 2230SOL    HW2 7590   1.501   5.671   0.113
 2231SOL     OW 7591   2.879   6.708   1.646
 2231SOL    HW1 7592   2.946   6.771   1.685
 2231SOL    HW2 7593   2.926   6.634   1.599
 2232SOL     OW 7594   6.641   3.329   2.776
 2232SOL    HW1 7595   6.654   3.339   2.677
 2232SOL    HW2 7596   6.664   3.236   2.803
 2233SOL     OW 7597   3.720   1.697   0.323
 2233SOL    HW1 7598   3.628   1.731   0.300
 2233SOL    HW2 7599   3.713   1.603   0.357
 2234SOL     OW 7600   2.899   2.127   0.637
 2234SOL    HW1 7601   2.915   2.126   0.538
 2234SOL    HW2 7602   2.976   2.083   0.683
 2235SOL     OW 7603   2.045   0.211   1.386
 2235SOL    HW1 7604   2.072   0.127   1.338
 2235SOL    HW2 7605   2.127   0.255   1.423
 2236SOL     OW 7606   6.281   3.908   6.991
 2236SOL    HW1 7607   6.279   3.810   7.013
 2236SOL    HW2 7608   6.355   3.951   0.025
 2237SOL     OW 7609   6.733   2.090   4.234
 2237SOL    HW1 7610   6.721   2.086   4.135
 2237SOL    HW2 7611   6.660   2.145   4.274
 2238SOL     OW 7612   0.582   5.734   2.245
 2238SOL    HW1 7613   0.644   5.742   2.323
 2238SOL    HW2 7614   0.494   5.773   2.269
 2239SOL     OW 7615   5.217   4.983   3.185
 2239SOL    HW1 7616   5.218   5.005   3.087
 2239SOL    HW2 7617   5.289   4.917   3.205
 2240SOL     OW 7618   5.539   3.580   2.372
 2240SOL    HW1 7619   5.638   3.593   2.371
 2240SOL    HW2 7620   5.516   3.499   2.425
 2241SOL     OW 7621   0.779   0.222   2.376
 2241SOL    HW1 7622   0.713   0.148   2.359
 2241SOL    HW2 7623   0.730   0.302   2.411
 2242SOL     OW 7624   4.788   2.784   2.821
 2242SOL    HW1 7625   4.755   2.702   2.774
 2242SOL    HW2 7626   4.747   2.790   2.912
 2243SOL     OW 7627   2.570   5.974   4.954
 2243SOL    HW1 7628   2.586   5.884   4.996
 2243SOL    HW2 7629   2.638   5.991   4.883
 2244SOL     OW 7630   2.324   0.902   4.879
 2244SOL    HW1 7631   2.382   0.956   4.940
 2244SOL    HW2 7632   2.342   0.927   4.784
 2245SOL     OW 7633   0.690   1.710   1.994
 2245SOL    HW1 7634   0.671   1.792   2.048
 2245SOL    HW2 7635   0.622   1.639   2.015
 2246SOL     OW 7636   0.987   3.754   4.881
 2246SOL    HW1 7637   1.006   3.702   4.798
 2246SOL    HW2 7638   1.061   3.819   4.897
 2247SOL     OW 7639   1.999   1.848   6.068
 2247SOL    HW1 7640   2.034   1.930   6.021
 2247SOL    HW2 7641   2.044   1.767   6.030
 2248SOL     OW 7642   4.960   4.196   5.581
 2248SOL    HW1 7643   5.058   4.193   5.559
 2248SOL    HW2 7644   4.948   4.199   5.680
 2249SOL     OW 7645   4.677   5.805   4.824
 2249SOL    HW1 7646   4.639   5.715   4.802
 2249SOL    HW2 7647   4.640   5.835   4.912
 2250SOL     OW 7648   5.929   5.249   0.238
 2250SOL    HW1 7649   5.835   5.237   0.271
 2250SOL    HW2 7650   5.926   5.284   0.144
 2251SOL     OW 7651   0.149   0.944   6.671
 2251SOL    HW1 7652   0.087   1.001   6.617
 2251SOL    HW2 7653   0.103   0.859   6.697
 2252SOL     OW 7654   3.446   1.755   5.602
 2252SOL    HW1 7655   3.427   1.723   5.509
 2252SOL    HW2 7656   3.362   1.791   5.642
 2253SOL     OW 7657   1.657   2.775   6.334
 2253SOL    HW1 7658   1.668   2.746   6.239
 2253SOL    HW2 7659   1.741   2.818   6.365
 2254SOL     OW 7660   1.743   3.764   6.308
 2254SOL    HW1 7661   1.834   3.783   6.271
 2254SOL    HW2 7662   1.752   3.728   6.401
 2255SOL     OW 7663   5.725   2.280   1.637
 2255SOL    HW1 7664   5.824   2.287   1.622
 2255SOL    HW2 7665   5.693   2.363   1.683
 2256SOL     OW 7666   4.043   5.077   1.866
 2256SOL    HW1 7667   3.957   5.094   1.915
 2256SOL    HW2 7668   4.112   5.045   1.931
 2257SOL     OW 7669   1.631   3.808   3.532
 2257SOL    HW1 7670   1.676   3.732   3.485
 2257SOL    HW2 7671   1.637   3.794   3.631
 2258SOL     OW 7672   1.947   5.872   4.724
 2258SOL    HW1 7673   1.918   5.820   4.643
 2258SOL    HW2 7674   1.989   5.810   4.790
 2259SOL     OW 7675   5.455   3.034   6.651
 2259SOL    HW1 7676   5.464   2.993   6.560
 2259SOL    HW2 7677   5.513   2.984   6.716
 2260SOL     OW 7678   5.371   4.977   0.608
 2260SOL    HW1 7679   5.458   4.955   0.565
 2260SOL    HW2 7680   5.382   4.976   0.707
 2261SOL     OW 7681   4.210   6.689   6.166
 2261SOL    HW1 7682   4.177   6.729   6.081
 2261SOL    HW2 7683   4.156   6.724   6.243
 2262SOL     OW 7684   4.000   1.389   3.001
 2262SOL    HW1 7685   4.099   1.379   2.990
 2262SOL    HW2 7686   3.975   1.486   2.994
 2263SOL     OW 7687   0.026   4.459   6.674
 2263SOL    HW1 7688   6.951   4.465   6.636
 2263SOL    HW2 7689   0.044   4.365   6.703
 2264SOL     OW 7690   3.801   3.997   3.787
 2264SOL    HW1 7691   3.737   4.001   3.710
 2264SOL    HW2 7692   3.891   3.969   3.754
 2265SOL     OW 7693   6.853   0.521   1.815
 2265SOL    HW1 7694   6.771   0.494   1.864
 2265SOL    HW2 7695   6.865   0.463   1.735
 2266SOL     OW 7696   6.072   0.029   0.669
 2266SOL    HW1 7697   6.075   6.952   0.697
 2266SOL    HW2 7698   6.117   0.039   0.580
 2267SOL     OW 7699   5.265   1.545   5.706
 2267SOL    HW1 7700   5.225   1.637   5.703
 2267SOL    HW2 7701   5.302   1.522   5.617
 2268SOL     OW 7702   6.582   5.329   0.298
 2268SOL    HW1 7703   6.670   5.284   0.316
 2268SOL    HW2 7704   6.591   5.427   0.313
 2269SOL     OW 7705   6.936   5.350   4.701
 2269SOL    HW1 7706   6.941   5.357   4.801
 2269SOL    HW2 7707   7.011   5.292   4.668
 2270SOL     OW 7708   4.411   3.413   1.650
 2270SOL    HW1 7709   4.350   3.344   1.687
 2270SOL    HW2 7710   4.387   3.503   1.688
 2271SOL     OW 7711   6.259   4.403   2.949
 2271SOL    HW1 7712   6.330   4.381   2.883
 2271SOL    HW2 7713   6.215   4.319   2.980
 2272SOL     OW 7714   5.073   1.963   6.590
 2272SOL    HW1 7715   5.160   2.011   6.586
 2272SOL    HW2 7716   5.073   1.899   6.667
 2273SOL     OW 7717   0.907   1.709   3.556
 2273SOL    HW1 7718   0.933   1.748   3.644
 2273SOL    HW2 7719   0.977   1.731   3.488
 2274SOL     OW 7720   1.659   3.180   3.408
 2274SOL    HW1 7721   1.614   3.096   3.439
 2274SOL    HW2 7722   1.601   3.259   3.431
 2275SOL     OW 7723   4.761   0.180   3.363
 2275SOL    HW1 7724   4.845   0.223   3.396
 2275SOL    HW2 7725   4.715   0.241   3.299
 2276SOL     OW 7726   4.604   5.140   1.454
 2276SOL    HW1 7727   4.588   5.174   1.361
 2276SOL    HW2 7728   4.518   5.140   1.505
 2277SOL     OW 7729   3.340   3.980   0.308
 2277SOL    HW1 7730   3.439   3.998   0.309
 2277SOL    HW2 7731   3.291   4.066   0.295
 2278SOL     OW 7732   5.808   6.855   0.975
 2278SOL    HW1 7733   5.903   6.846   0.943
 2278SOL    HW2 7734   5.747   6.857   0.896
 2279SOL     OW 7735   5.014   4.271   4.736
 2279SOL    HW1 7736   5.111   4.292   4.746
 2279SOL    HW2 7737   4.982   4.218   4.814
 2280SOL     OW 7738   5.220   6.962   5.854
 2280SOL    HW1 7739   5.172   6.882   5.818
 2280SOL    HW2 7740   5.191   6.979   5.948
 2281SOL     OW 7741   2.731   3.109   1.096
 2281SOL    HW1 7742   2.722   3.034   1.161
 2281SOL    HW2 7743   2.697   3.081   1.007
 2282SOL     OW 7744   3.989   5.206   2.815
 2282SOL    HW1 7745   3.943   5.238   2.898
 2282SOL    HW2 7746   4.065   5.268   2.793
 2283SOL     OW 7747   0.218   3.777   2.998
 2283SOL    HW1 7748   0.184   3.742   3.086
 2283SOL    HW2 7749   0.314   3.752   2.988
 2284SOL     OW 7750   2.340   2.678   2.241
 2284SOL    HW1 7751   2.321   2.735   2.162
 2284SOL    HW2 7752   2.425   2.627   2.226
 2285SOL     OW 7753   1.713   4.301   0.135
 2285SOL    HW1 7754   1.801   4.256   0.120
 2285SOL    HW2 7755   1.651   4.238   0.181
 2286SOL     OW 7756   5.915   6.608   4.428
 2286SOL    HW1 7757   5.816   6.602   4.441
 2286SOL    HW2 7758   5.950   6.690   4.473
 2287SOL     OW 7759   2.008   2.752   1.862
 2287SOL    HW1 7760   2.009   2.852   1.860
 2287SOL    HW2 7761   1.926   2.720   1.910
 2288SOL     OW 7762   0.780   6.567   4.585
 2288SOL    HW1 7763   0.839   6.569   4.505
 2288SOL    HW2 7764   0.836   6.560   4.668
 2289SOL     OW 7765   4.573   2.404   1.545
 2289SOL    HW1 7766   4.504   2.380   1.476
 2289SOL    HW2 7767   4.652   2.445   1.500
 2290SOL     OW 7768   3.426   3.521   2.880
 2290SOL    HW1 7769   3.451   3.449   2.945
 2290SOL    HW2 7770   3.349   3.573   2.916
 2291SOL     OW 7771   1.112   2.419   0.183
 2291SOL    HW1 7772   1.120   2.411   0.282
 2291SOL    HW2 7773   1.067   2.506   0.161
 2292SOL     OW 7774   4.577   1.883   2.725
 2292SOL    HW1 7775   4.508   1.938   2.773
 2292SOL    HW2 7776   4.585   1.794   2.770
 2293SOL     OW 7777   6.782   1.420   6.724
 2293SOL    HW1 7778   6.811   1.514   6.704
 2293SOL    HW2 7779   6.725   1.419   6.806
 2294SOL     OW 7780   0.164   2.051   5.664
 2294SOL    HW1 7781   0.093   2.109   5.703
 2294SOL    HW2 7782   0.122   1.980   5.607
 2295SOL     OW 7783   5.812   6.527   1.153
 2295SOL    HW1 7784   5.753   6.606   1.133
 2295SOL    HW2 7785   5.759   6.443   1.143
 2296SOL     OW 7786   3.765   5.585   4.322
 2296SOL    HW1 7787   3.773   5.682   4.342
 2296SOL    HW2 7788   3.795   5.531   4.402
 2297SOL     OW 7789   4.363   4.172   5.499
 2297SOL    HW1 7790   4.263   4.177   5.501
 2297SOL    HW2 7791   4.399   4.245   5.441
 2298SOL     OW 7792   3.837   3.568   4.854
 2298SOL    HW1 7793   3.840   3.656   4.902
 2298SOL    HW2 7794   3.912   3.563   4.788
 2299SOL     OW 7795   5.955   3.327   4.820
 2299SOL    HW1 7796   5.883   3.395   4.805
 2299SOL    HW2 7797   5.916   3.248   4.869
 2300SOL     OW 7798   4.615   6.319   2.418
 2300SOL    HW1 7799   4.672   6.398   2.441
 2300SOL    HW2 7800   4.576   6.280   2.501
 2301SOL     OW 7801   3.804   3.140   4.398
 2301SOL    HW1 7802   3.781   3.201   4.323
 2301SOL    HW2 7803   3.729   3.138   4.464
 2302SOL     OW 7804   5.075   2.486   0.516
 2302SOL    HW1 7805   5.131   2.550   0.569
 2302SOL    HW2 7806   4.980   2.491   0.547
 2303SOL     OW 7807   3.760   1.980   6.903
 2303SOL    HW1 7808   3.669   2.008   6.933
 2303SOL    HW2 7809   3.800   1.920   6.972
 2304SOL     OW 7810   5.255   6.006   2.280
 2304SOL    HW1 7811   5.201   5.989   2.363
 2304SOL    HW2 7812   5.309   5.924   2.258
 2305SOL     OW 7813   2.800   0.435   4.784
 2305SOL    HW1 7814   2.891   0.400   4.803
 2305SOL    HW2 7815   2.800   0.534   4.789
 2306SOL     OW 7816   1.060   5.229   4.380
 2306SOL    HW1 7817   1.067   5.134   4.350
 2306SOL    HW2 7818   1.120   5.243   4.459
 2307SOL     OW 7819   6.580   3.359   6.129
 2307SOL    HW1 7820   6.565   3.383   6.225
 2307SOL    HW2 7821   6.664   3.404   6.098
 2308SOL     OW 7822   1.762   5.579   1.772
 2308SOL    HW1 7823   1.853   5.551   1.803
 2308SOL    HW2 7824   1.698   5.575   1.848
 2309SOL     OW 7825   2.053   6.440   5.419
 2309SOL    HW1 7826   1.984   6.410   5.354
 2309SOL    HW2 7827   2.143   6.441   5.374
 2310SOL     OW 7828   4.711   6.781   1.530
 2310SOL    HW1 7829   4.745   6.809   1.440
 2310SOL    HW2 7830   4.616   6.751   1.522
 2311SOL     OW 7831   3.343   5.498   1.300
 2311SOL    HW1 7832   3.423   5.440   1.285
 2311SOL    HW2 7833   3.299   5.472   1.386
 2312SOL     OW 7834   3.018   4.807   2.758
 2312SOL    HW1 7835   3.062   4.718   2.760
 2312SOL    HW2 7836   3.031   4.853   2.846
 2313SOL     OW 7837   5.189   5.744   1.435
 2313SOL    HW1 7838   5.238   5.690   1.503
 2313SOL    HW2 7839   5.114   5.690   1.397
 2314SOL     OW 7840   1.551   5.508   4.393
 2314SOL    HW1 7841   1.551   5.412   4.418
 2314SOL    HW2 7842   1.550   5.517   4.293
 2315SOL     OW 7843   4.287   2.345   6.657
 2315SOL    HW1 7844   4.231   2.325   6.577
 2315SOL    HW2 7845   4.348   2.267   6.676
 2316SOL     OW 7846   5.084   4.140   2.060
 2316SOL    HW1 7847   5.101   4.232   2.095
 2316SOL    HW2 7848   5.143   4.123   1.982
 2317SOL     OW 7849   0.568   4.802   3.768
 2317SOL    HW1 7850   0.519   4.843   3.844
 2317SOL    HW2 7851   0.555   4.703   3.770
 2318SOL     OW 7852   0.032   0.604   4.258
 2318SOL    HW1 7853   0.044   0.627   4.354
 2318SOL    HW2 7854   0.116   0.560   4.224
 2319SOL     OW 7855   0.810   4.140   3.398
 2319SOL    HW1 7856   0.831   4.140   3.495
 2319SOL    HW2 7857   0.878   4.086   3.348
 2320SOL     OW 7858   6.337   4.257   4.752
 2320SOL    HW1 7859   6.326   4.339   4.697
 2320SOL    HW2 7860   6.262   4.194   4.733
 2321SOL     OW 7861   2.483   5.181   5.193
 2321SOL    HW1 7862   2.519   5.203   5.283
 2321SOL    HW2 7863   2.530   5.101   5.157
 2322SOL     OW 7864   2.290   0.450   6.182
 2322SOL    HW1 7865   2.274   0.539   6.138
 2322SOL    HW2 7866   2.210   0.392   6.169
 2323SOL     OW 7867   5.106   4.735   1.618
 2323SOL    HW1 7868   5.027   4.724   1.558
 2323SOL    HW2 7869   5.080   4.714   1.712
 2324SOL     OW 7870   6.722   4.791   3.628
 2324SOL    HW1 7871   6.750   4.805   3.723
 2324SOL    HW2 7872   6.792   4.738   3.580
 2325SOL     OW 7873   6.854   2.554   0.655
 2325SOL    HW1 7874   6.914   2.476   0.637
 2325SOL    HW2 7875   6.905   2.639   0.650
 2326SOL     OW 7876   2.047   4.926   0.306
 2326SOL    HW1 7877   2.002   4.992   0.367
 2326SOL    HW2 7878   2.076   4.847   0.359
 2327SOL     OW 7879   5.732   2.480   5.135
 2327SOL    HW1 7880   5.795   2.456   5.208
 2327SOL    HW2 7881   5.732   2.407   5.066
 2328SOL     OW 7882   5.591   6.858   3.219
 2328SOL    HW1 7883   5.659   6.800   3.175
 2328SOL    HW2 7884   5.499   6.828   3.192
 2329SOL     OW 7885   0.047   6.168   3.589
 2329SOL    HW1 7886   0.045   6.069   3.574
 2329SOL    HW2 7887   0.138   6.196   3.618
 2330SOL     OW 7888   0.424   3.858   2.034
 2330SOL    HW1 7889   0.344   3.826   2.086
 2330SOL    HW2 7890   0.507   3.820   2.075
 2331SOL     OW 7891   0.671   4.049   5.842
 2331SOL    HW1 7892   0.635   4.049   5.749
 2331SOL    HW2 7893   0.695   4.143   5.868
 2332SOL     OW 7894   5.959   2.286   5.009
 2332SOL    HW1 7895   6.017   2.361   5.041
 2332SOL    HW2 7896   6.017   2.212   4.973
 2333SOL     OW 7897   1.461   4.629   3.632
 2333SOL    HW1 7898   1.407   4.630   3.548
 2333SOL    HW2 7899   1.399   4.621   3.711
 2334SOL     OW 7900   2.180   0.238   0.703
 2334SOL    HW1 7901   2.272   0.271   0.683
 2334SOL    HW2 7902   2.125   0.313   0.739
 2335SOL     OW 7903   4.509   6.644   3.830
 2335SOL    HW1 7904   4.554   6.614   3.914
 2335SOL    HW2 7905   4.551   6.729   3.798
 2336SOL     OW 7906   4.719   1.981   5.866
 2336SOL    HW1 7907   4.650   1.929   5.917
 2336SOL    HW2 7908   4.692   2.077   5.861
 2337SOL     OW 7909   5.806   0.409   2.763
 2337SOL    HW1 7910   5.719   0.367   2.791
 2337SOL    HW2 7911   5.801   0.434   2.667
 2338SOL     OW 7912   1.559   6.660   6.194
 2338SOL    HW1 7913   1.548   6.712   6.278
 2338SOL    HW2 7914   1.478   6.671   6.137
 2339SOL     OW 7915   4.096   4.673   6.943
 2339SOL    HW1 7916   4.033   4.595   6.932
 2339SOL    HW2 7917   4.190   4.641   6.938
 2340SOL     OW 7918   4.176   4.905   4.187
 2340SOL    HW1 7919   4.090   4.892   4.237
 2340SOL    HW2 7920   4.172   4.855   4.101
 2341SOL     OW 7921   6.298   5.238   6.910
 2341SOL    HW1 7922   6.348   5.194   6.985
 2341SOL    HW2 7923   6.224   5.179   6.879
 2342SOL     OW 7924   6.440   0.168   4.774
 2342SOL    HW1 7925   6.362   0.121   4.732
 2342SOL    HW2 7926   6.409   0.218   4.855
 2343SOL     OW 7927   1.491   6.705   0.361
 2343SOL    HW1 7928   1.471   6.609   0.378
 2343SOL    HW2 7929   1.549   6.741   0.434
 2344SOL     OW 7930   2.414   1.274   3.213
 2344SOL    HW1 7931   2.400   1.372   3.225
 2344SOL    HW2 7932   2.336   1.224   3.252
 2345SOL     OW 7933   2.126   1.357   3.783
 2345SOL    HW1 7934   2.065   1.279   3.770
 2345SOL    HW2 7935   2.205   1.330   3.837
 2346SOL     OW 7936   4.755   3.855   5.830
 2346SOL    HW1 7937   4.839   3.871   5.777
 2346SOL    HW2 7938   4.775   3.859   5.927
 2347SOL     OW 7939   1.337   3.374   1.229
 2347SOL    HW1 7940   1.378   3.293   1.186
 2347SOL    HW2 7941   1.259   3.346   1.284
 2348SOL     OW 7942   2.606   6.409   1.686
 2348SOL    HW1 7943   2.644   6.481   1.744
 2348SOL    HW2 7944   2.678   6.372   1.628
 2349SOL     OW 7945   4.994   5.357   5.827
 2349SOL    HW1 7946   5.045   5.440   5.851
 2349SOL    HW2 7947   4.918   5.380   5.768
 2350SOL     OW 7948   2.839   6.475   5.564
 2350SOL    HW1 7949   2.798   6.387   5.540
 2350SOL    HW2 7950   2.868   6.522   5.481
 2351SOL     OW 7951   2.473   5.580   4.406
 2351SOL    HW1 7952   2.386   5.629   4.405
 2351SOL    HW2 7953   2.470   5.507   4.338
 2352SOL     OW 7954   0.181   3.743   2.141
 2352SOL    HW1 7955   0.166   3.786   2.230
 2352SOL    HW2 7956   0.148   3.648   2.144
 2353SOL     OW 7957   2.568   4.250   5.967
 2353SOL    HW1 7958   2.517   4.325   5.925
 2353SOL    HW2 7959   2.542   4.164   5.923
 2354SOL     OW 7960   3.728   3.220   1.123
 2354SOL    HW1 7961   3.703   3.123   1.114
 2354SOL    HW2 7962   3.648   3.273   1.152
 2355SOL     OW 7963   0.374   0.044   1.014
 2355SOL    HW1 7964   0.461   0.093   1.012
 2355SOL    HW2 7965   0.323   0.062   0.931
 2356SOL     OW 7966   2.794   4.832   3.266
 2356SOL    HW1 7967   2.758   4.803   3.354
 2356SOL    HW2 7968   2.770   4.928   3.249
 2357SOL     OW 7969   6.135   4.850   1.005
 2357SOL    HW1 7970   6.229   4.815   1.011
 2357SOL    HW2 7971   6.073   4.783   1.046
 2358SOL     OW 7972   4.122   1.715   6.033
 2358SOL    HW1 7973   4.061   1.647   5.991
 2358SOL    HW2 7974   4.083   1.746   6.120
 2359SOL     OW 7975   1.574   1.489   5.769
 2359SOL    HW1 7976   1.615   1.577   5.745
 2359SOL    HW2 7977   1.539   1.493   5.863
 2360SOL     OW 7978   4.063   4.002   0.465
 2360SOL    HW1 7979   4.079   3.903   0.462
 2360SOL    HW2 7980   3.966   4.020   0.450
 2361SOL     OW 7981   4.434   5.821   1.782
 2361SOL    HW1 7982   4.385   5.908   1.783
 2361SOL    HW2 7983   4.475   5.807   1.692
 2362SOL     OW 7984   4.257   5.649   3.347
 2362SOL    HW1 7985   4.212   5.690   3.426
 2362SOL    HW2 7986   4.338   5.703   3.323
 2363SOL     OW 7987   2.615   4.055   0.641
 2363SOL    HW1 7988   2.638   4.054   0.544
 2363SOL    HW2 7989   2.538   4.117   0.657
 2364SOL     OW 7990   3.968   1.439   2.335
 2364SOL    HW1 7991   3.956   1.437   2.236
 2364SOL    HW2 7992   3.880   1.462   2.379
 2365SOL     OW 7993   4.959   3.499   3.095
 2365SOL    HW1 7994   4.931   3.411   3.133
 2365SOL    HW2 7995   4.915   3.573   3.147
 2366SOL     OW 7996   2.523   4.713   5.012
 2366SOL    HW1 7997   2.539   4.810   5.027
 2366SOL    HW2 7998   2.611   4.665   5.008
 2367SOL     OW 7999   5.817   4.548   6.338
 2367SOL    HW1 8000   5.758   4.546   6.257
 2367SOL    HW2 8001   5.779   4.612   6.405
 2368SOL     OW 8002   5.227   6.485   4.468
 2368SOL    HW1 8003   5.213   6.424   4.390
 2368SOL    HW2 8004   5.161   6.463   4.540
 2369SOL     OW 8005   3.305   1.824   4.472
 2369SOL    HW1 8006   3.273   1.913   4.440
 2369SOL    HW2 8007   3.271   1.808   4.565
 2370SOL     OW 8008   5.822   3.021   1.774
 2370SOL    HW1 8009   5.763   3.087   1.728
 2370SOL    HW2 8010   5.918   3.040   1.752
 2371SOL     OW 8011   0.531   6.496   3.103
 2371SOL    HW1 8012   0.550   6.510   3.006
 2371SOL    HW2 8013   0.611   6.524   3.156
 2372SOL     OW 8014   6.370   0.359   6.165
 2372SOL    HW1 8015   6.353   0.349   6.067
 2372SOL    HW2 8016   6.425   0.282   6.197
 2373SOL     OW 8017   5.683   5.081   7.005
 2373SOL    HW1 8018   5.610   5.075   0.055
 2373SOL    HW2 8019   5.675   5.005   6.941
 2374SOL     OW 8020   6.597   6.013   2.242
 2374SOL    HW1 8021   6.516   6.024   2.300
 2374SOL    HW2 8022   6.611   6.097   2.190
 2375SOL     OW 8023   1.186   0.120   4.179
 2375SOL    HW1 8024   1.259   0.122   4.111
 2375SOL    HW2 8025   1.117   0.052   4.152
 2376SOL     OW 8026   5.801   1.551   3.535
 2376SOL    HW1 8027   5.857   1.593   3.464
 2376SOL    HW2 8028   5.821   1.594   3.624
 2377SOL     OW 8029   4.180   4.601   5.683
 2377SOL    HW1 8030   4.195   4.663   5.760
 2377SOL    HW2 8031   4.111   4.534   5.708
 2378SOL     OW 8032   6.780   1.030   0.080
 2378SOL    HW1 8033   6.836   1.004   0.002
 2378SOL    HW2 8034   6.701   0.969   0.087
 2379SOL     OW 8035   6.265   4.515   1.049
 2379SOL    HW1 8036   6.288   4.550   0.958
 2379SOL    HW2 8037   6.165   4.510   1.059
 2380SOL     OW 8038   4.672   5.072   5.126
 2380SOL    HW1 8039   4.674   5.078   5.225
 2380SOL    HW2 8040   4.765   5.072   5.090
 2381SOL     OW 8041   1.760   4.496   4.744
 2381SOL    HW1 8042   1.694   4.477   4.672
 2381SOL    HW2 8043   1.845   4.528   4.704
 2382SOL     OW 8044   0.585   6.235   2.740
 2382SOL    HW1 8045   0.511   6.206   2.801
 2382SOL    HW2 8046   0.616   6.327   2.766
 2383SOL     OW 8047   5.742   5.550   5.593
 2383SOL    HW1 8048   5.836   5.520   5.604
 2383SOL    HW2 8049   5.693   5.487   5.532
 2384SOL     OW 8050   0.546   1.510   2.111
 2384SOL    HW1 8051   0.638   1.471   2.119
 2384SOL    HW2 8052   0.498   1.503   2.198
 2385SOL     OW 8053   0.634   1.748   0.867
 2385SOL    HW1 8054   0.563   1.810   0.899
 2385SOL    HW2 8055   0.691   1.720   0.944
 2386SOL     OW 8056   5.158   5.657   3.690
 2386SOL    HW1 8057   5.169   5.676   3.787
 2386SOL    HW2 8058   5.161   5.558   3.674
 2387SOL     OW 8059   2.067   2.152   4.300
 2387SOL    HW1 8060   2.103   2.242   4.323
 2387SOL    HW2 8061   2.128   2.108   4.234
 2388SOL     OW 8062   6.276   2.311   5.163
 2388SOL    HW1 8063   6.203   2.244   5.176
 2388SOL    HW2 8064   6.344   2.301   5.235
 2389SOL     OW 8065   5.239   4.808   4.371
 2389SOL    HW1 8066   5.158   4.772   4.419
 2389SOL    HW2 8067   5.218   4.817   4.274
 2390SOL     OW 8068   4.259   3.511   5.551
 2390SOL    HW1 8069   4.296   3.437   5.608
 2390SOL    HW2 8070   4.290   3.498   5.457
 2391SOL     OW 8071   2.963   4.956   6.198
 2391SOL    HW1 8072   2.985   4.874   6.251
 2391SOL    HW2 8073   2.871   4.946   6.159
 2392SOL     OW 8074   3.847   5.364   5.282
 2392SOL    HW1 8075   3.765   5.376   5.225
 2392SOL    HW2 8076   3.827   5.299   5.355
 2393SOL     OW 8077   3.816   4.760   1.143
 2393SOL    HW1 8078   3.717   4.749   1.143
 2393SOL    HW2 8079   3.854   4.717   1.225
 2394SOL     OW 8080   0.601   2.093   3.310
 2394SOL    HW1 8081   0.552   2.039   3.378
 2394SOL    HW2 8082   0.690   2.053   3.293
 2395SOL     OW 8083   0.383   2.524   4.610
 2395SOL    HW1 8084   0.434   2.608   4.588
 2395SOL    HW2 8085   0.359   2.477   4.525
 2396SOL     OW 8086   0.107   0.251   5.162
 2396SOL    HW1 8087   0.087   0.345   5.190
 2396SOL    HW2 8088   0.052   0.228   5.081
 2397SOL     OW 8089   0.142   4.364   5.456
 2397SOL    HW1 8090   0.242   4.359   5.455
 2397SOL    HW2 8091   0.105   4.278   5.490
 2398SOL     OW 8092   3.825   6.395   4.183
 2398SOL    HW1 8093   3.764   6.316   4.181
 2398SOL    HW2 8094   3.894   6.385   4.111
 2399SOL     OW 8095   3.684   2.138   4.045
 2399SOL    HW1 8096   3.666   2.100   4.136
 2399SOL    HW2 8097   3.599   2.145   3.994
 2400SOL     OW 8098   0.880   4.070   0.601
 2400SOL    HW1 8099   0.838   3.979   0.596
 2400SOL    HW2 8100   0.873   4.115   0.512
 2401SOL     OW 8101   2.597   0.409   5.762
 2401SOL    HW1 8102   2.635   0.332   5.711
 2401SOL    HW2 8103   2.504   0.387   5.791
 2402SOL     OW 8104   1.336   4.103   2.129
 2402SOL    HW1 8105   1.330   4.039   2.053
 2402SOL    HW2 8106   1.422   4.154   2.124
 2403SOL     OW 8107   4.119   3.531   3.003
 2403SOL    HW1 8108   4.064   3.606   3.039
 2403SOL    HW2 8109   4.164   3.560   2.919
 2404SOL     OW 8110   6.296   1.141   0.964
 2404SOL    HW1 8111   6.212   1.105   0.924
 2404SOL    HW2 8112   6.296   1.240   0.960
 2405SOL     OW 8113   1.916   3.247   0.792
 2405SOL    HW1 8114   1.857   3.320   0.826
 2405SOL    HW2 8115   1.896   3.162   0.842
 2406SOL     OW 8116   2.865   5.903   4.478
 2406SOL    HW1 8117   2.876   5.981   4.539
 2406SOL    HW2 8118   2.840   5.936   4.387
 2407SOL     OW 8119   3.171   1.120   4.066
 2407SOL    HW1 8120   3.140   1.028   4.045
 2407SOL    HW2 8121   3.123   1.186   4.009
 2408SOL     OW 8122   3.002   5.655   4.443
 2408SOL    HW1 8123   2.951   5.718   4.501
 2408SOL    HW2 8124   3.054   5.707   4.375
 2409SOL     OW 8125   1.629   3.236   1.547
 2409SOL    HW1 8126   1.606   3.300   1.473
 2409SOL    HW2 8127   1.713   3.187   1.523
 2410SOL     OW 8128   1.157   3.441   5.175
 2410SOL    HW1 8129   1.206   3.361   5.210
 2410SOL    HW2 8130   1.079   3.412   5.121
 2411SOL     OW 8131   2.869   4.002   0.336
 2411SOL    HW1 8132   2.880   3.939   0.413
 2411SOL    HW2 8133   2.925   3.971   0.259
 2412SOL     OW 8134   3.511   2.097   6.600
 2412SOL    HW1 8135   3.436   2.107   6.666
 2412SOL    HW2 8136   3.565   2.017   6.623
 2413SOL     OW 8137   0.167   3.060   6.785
 2413SOL    HW1 8138   0.209   3.133   6.732
 2413SOL    HW2 8139   0.188   3.073   6.882
 2414SOL     OW 8140   6.782   2.440   5.170
 2414SOL    HW1 8141   6.725   2.457   5.250
 2414SOL    HW2 8142   6.808   2.343   5.167
 2415SOL     OW 8143   2.645   5.361   0.279
 2415SOL    HW1 8144   2.742   5.336   0.273
 2415SOL    HW2 8145   2.637   5.461   0.280
 2416SOL     OW 8146   6.958   3.930   2.124
 2416SOL    HW1 8147   6.993   3.998   2.189
 2416SOL    HW2 8148   0.018   3.887   2.077
 2417SOL     OW 8149   3.084   2.882   1.812
 2417SOL    HW1 8150   3.160   2.891   1.747
 2417SOL    HW2 8151   3.038   2.794   1.798
 2418SOL     OW 8152   4.390   4.154   6.524
 2418SOL    HW1 8153   4.317   4.221   6.520
 2418SOL    HW2 8154   4.408   4.118   6.433
 2419SOL     OW 8155   2.067   6.501   3.703
 2419SOL    HW1 8156   2.038   6.531   3.612
 2419SOL    HW2 8157   2.054   6.402   3.712
 2420SOL     OW 8158   1.419   4.083   2.748
 2420SOL    HW1 8159   1.326   4.117   2.762
 2420SOL    HW2 8160   1.416   4.001   2.690
 2421SOL     OW 8161   2.413   6.184   4.151
 2421SOL    HW1 8162   2.419   6.249   4.227
 2421SOL    HW2 8163   2.505   6.163   4.118
 2422SOL     OW 8164   4.791   6.500   0.505
 2422SOL    HW1 8165   4.822   6.594   0.516
 2422SOL    HW2 8166   4.861   6.437   0.538
 2423SOL     OW 8167   2.611   5.367   2.768
 2423SOL    HW1 8168   2.576   5.457   2.795
 2423SOL    HW2 8169   2.545   5.323   2.706
 2424SOL     OW 8170   5.750   0.680   6.053
 2424SOL    HW1 8171   5.653   0.692   6.075
 2424SOL    HW2 8172   5.785   0.764   6.011
 2425SOL     OW 8173   5.253   5.840   5.040
 2425SOL    HW1 8174   5.330   5.893   5.077
 2425SOL    HW2 8175   5.226   5.770   5.105
 2426SOL     OW 8176   2.506   4.019   5.810
 2426SOL    HW1 8177   2.571   3.942   5.815
 2426SOL    HW2 8178   2.485   4.038   5.714
 2427SOL     OW 8179   5.041   1.128   0.267
 2427SOL    HW1 8180   5.075   1.127   0.361
 2427SOL    HW2 8181   5.069   1.213   0.222
 2428SOL     OW 8182   0.712   0.298   3.147
 2428SOL    HW1 8183   0.802   0.336   3.125
 2428SOL    HW2 8184   0.677   0.247   3.068
 2429SOL     OW 8185   5.730   5.037   1.668
 2429SOL    HW1 8186   5.651   5.061   1.611
 2429SOL    HW2 8187   5.814   5.055   1.617
 2430SOL     OW 8188   6.502   1.602   0.034
 2430SOL    HW1 8189   6.415   1.630   0.075
 2430SOL    HW2 8190   6.576   1.616   0.099
 2431SOL     OW 8191   6.711   2.887   1.705
 2431SOL    HW1 8192   6.773   2.964   1.688
 2431SOL    HW2 8193   6.722   2.857   1.800
 2432SOL     OW 8194   3.309   5.085   2.438
 2432SOL    HW1 8195   3.312   5.175   2.483
 2432SOL    HW2 8196   3.214   5.059   2.421
 2433SOL     OW 8197   6.133   4.346   5.935
 2433SOL    HW1 8198   6.109   4.257   5.972
 2433SOL    HW2 8199   6.152   4.410   6.010
 2434SOL     OW 8200   5.073   1.269   2.918
 2434SOL    HW1 8201   5.101   1.173   2.920
 2434SOL    HW2 8202   5.039   1.296   3.008
 2435SOL     OW 8203   5.881   6.701   6.963
 2435SOL    HW1 8204   5.825   6.632   7.009
 2435SOL    HW2 8205   5.973   6.666   6.951
 2436SOL     OW 8206   2.021   2.045   2.214
 2436SOL    HW1 8207   1.958   2.099   2.158
 2436SOL    HW2 8208   2.042   2.096   2.298
 2437SOL     OW 8209   6.997   4.566   2.386
 2437SOL    HW1 8210   6.960   4.611   2.468
 2437SOL    HW2 8211   6.944   4.595   2.306
 2438SOL     OW 8212   3.068   1.166   5.060
 2438SOL    HW1 8213   2.981   1.212   5.077
 2438SOL    HW2 8214   3.113   1.146   5.147
 2439SOL     OW 8215   1.239   6.581   1.455
 2439SOL    HW1 8216   1.310   6.537   1.510
 2439SOL    HW2 8217   1.156   6.526   1.457
 2440SOL     OW 8218   5.832   1.019   4.941
 2440SOL    HW1 8219   5.908   0.970   4.897
 2440SOL    HW2 8220   5.832   0.998   5.039
 2441SOL     OW 8221   6.301   0.018   6.927
 2441SOL    HW1 8222   6.344   0.090   6.873
 2441SOL    HW2 8223   6.319   6.947   6.885
 2442SOL     OW 8224   4.940   3.284   1.929
 2442SOL    HW1 8225   4.942   3.323   2.021
 2442SOL    HW2 8226   4.845   3.264   1.904
 2443SOL     OW 8227   0.540   2.028   1.460
 2443SOL    HW1 8228   0.511   2.022   1.555
 2443SOL    HW2 8229   0.541   2.124   1.432
 2444SOL     OW 8230   3.734   6.103   1.788
 2444SOL    HW1 8231   3.668   6.121   1.860
 2444SOL    HW2 8232   3.807   6.171   1.792
 2445SOL     OW 8233   6.708   2.185   0.497
 2445SOL    HW1 8234   6.673   2.279   0.498
 2445SOL    HW2 8235   6.806   2.186   0.515
 2446SOL     OW 8236   2.002   4.742   1.425
 2446SOL    HW1 8237   1.955   4.681   1.361
 2446SOL    HW2 8238   2.101   4.724   1.421
 2447SOL     OW 8239   3.011   0.050   0.391
 2447SOL    HW1 8240   2.992   6.979   0.349
 2447SOL    HW2 8241   2.977   0.123   0.330
 2448SOL     OW 8242   6.435   1.860   4.475
 2448SOL    HW1 8243   6.534   1.851   4.486
 2448SOL    HW2 8244   6.415   1.889   4.382
 2449SOL     OW 8245   1.774   4.620   1.668
 2449SOL    HW1 8246   1.732   4.638   1.579
 2449SOL    HW2 8247   1.716   4.658   1.740
 2450SOL     OW 8248   1.737   6.518   6.052
 2450SOL    HW1 8249   1.666   6.540   6.119
 2450SOL    HW2 8250   1.773   6.426   6.071
 2451SOL     OW 8251   0.985   6.925   5.023
 2451SOL    HW1 8252   0.906   6.983   5.045
 2451SOL    HW2 8253   0.967   6.874   4.939
 2452SOL     OW 8254   3.038   1.311   3.925
 2452SOL    HW1 8255   3.058   1.367   3.844
 2452SOL    HW2 8256   2.939   1.298   3.931
 2453SOL     OW 8257   1.103   1.549   6.868
 2453SOL    HW1 8258   1.185   1.585   6.823
 2453SOL    HW2 8259   1.022   1.597   6.832
 2454SOL     OW 8260   3.304   5.350   1.034
 2454SOL    HW1 8261   3.226   5.344   1.095
 2454SOL    HW2 8262   3.387   5.368   1.087
 2455SOL     OW 8263   3.348   2.126   0.673
 2455SOL    HW1 8264   3.378   2.192   0.742
 2455SOL    HW2 8265   3.427   2.093   0.622
 2456SOL     OW 8266   1.020   4.485   6.063
 2456SOL    HW1 8267   0.982   4.393   6.057
 2456SOL    HW2 8268   1.048   4.516   5.972
 2457SOL     OW 8269   5.466   2.053   5.588
 2457SOL    HW1 8270   5.499   2.088   5.676
 2457SOL    HW2 8271   5.377   2.094   5.567
 2458SOL     OW 8272   1.865   6.990   1.595
 2458SOL    HW1 8273   1.960   6.961   1.584
 2458SOL    HW2 8274   1.862   0.061   1.639
 2459SOL     OW 8275   3.049   5.943   1.057
 2459SOL    HW1 8276   2.984   5.925   1.131
 2459SOL    HW2 8277   3.077   5.857   1.015
 2460SOL     OW 8278   1.329   0.950   5.390
 2460SOL    HW1 8279   1.404   0.927   5.328
 2460SOL    HW2 8280   1.245   0.964   5.337
 2461SOL     OW 8281   3.919   1.419   3.982
 2461SOL    HW1 8282   3.943   1.490   4.047
 2461SOL    HW2 8283   3.820   1.419   3.967
 2462SOL     OW 8284   6.994   4.271   1.011
 2462SOL    HW1 8285   6.968   4.351   1.066
 2462SOL    HW2 8286   0.031   4.301   0.933
 2463SOL     OW 8287   6.648   1.097   6.310
 2463SOL    HW1 8288   6.554   1.075   6.284
 2463SOL    HW2 8289   6.686   1.020   6.362
 2464SOL     OW 8290   0.062   1.836   3.118
 2464SOL    HW1 8291   0.018   1.910   3.067
 2464SOL    HW2 8292   0.158   1.858   3.131
 2465SOL     OW 8293   0.739   4.601   5.686
 2465SOL    HW1 8294   0.678   4.554   5.750
 2465SOL    HW2 8295   0.754   4.543   5.606
 2466SOL     OW 8296   0.510   2.479   2.018
 2466SOL    HW1 8297   0.557   2.469   1.930
 2466SOL    HW2 8298   0.526   2.398   2.074
 2467SOL     OW 8299   5.124   1.190   6.020
 2467SOL    HW1 8300   5.116   1.222   5.925
 2467SOL    HW2 8301   5.167   1.100   6.021
 2468SOL     OW 8302   3.323   6.725   5.582
 2468SOL    HW1 8303   3.272   6.810   5.599
 2468SOL    HW2 8304   3.418   6.738   5.611
 2469SOL     OW 8305   3.294   2.747   5.720
 2469SOL    HW1 8306   3.273   2.650   5.725
 2469SOL    HW2 8307   3.265   2.782   5.630
 2470SOL     OW 8308   3.160   4.918   6.544
 2470SOL    HW1 8309   3.239   4.957   6.592
 2470SOL    HW2 8310   3.081   4.977   6.556
 2471SOL     OW 8311   4.614   5.813   1.561
 2471SOL    HW1 8312   4.689   5.857   1.611
 2471SOL    HW2 8313   4.649   5.731   1.516
 2472SOL     OW 8314   4.707   1.491   4.303
 2472SOL    HW1 8315   4.772   1.420   4.333
 2472SOL    HW2 8316   4.616   1.452   4.296
 2473SOL     OW 8317   0.400   4.095   4.896
 2473SOL    HW1 8318   0.365   4.187   4.878
 2473SOL    HW2 8319   0.499   4.094   4.882
 2474SOL     OW 8320   1.357   5.742   1.530
 2474SOL    HW1 8321   1.374   5.662   1.588
 2474SOL    HW2 8322   1.442   5.793   1.517
 2475SOL     OW 8323   4.744   0.696   0.984
 2475SOL    HW1 8324   4.798   0.659   0.908
 2475SOL    HW2 8325   4.800   0.698   1.067
 2476SOL     OW 8326   5.950   0.356   0.211
 2476SOL    HW1 8327   5.954   0.423   0.285
 2476SOL    HW2 8328   5.924   0.403   0.126
 2477SOL     OW 8329   4.076   0.334   3.163
 2477SOL    HW1 8330   3.978   0.353   3.163
 2477SOL    HW2 8331   4.121   0.385   3.236
 2478SOL     OW 8332   4.412   1.051   3.186
 2478SOL    HW1 8333   4.324   1.072   3.230
 2478SOL    HW2 8334   4.402   1.059   3.087
 2479SOL     OW 8335   0.493   3.658   0.699
 2479SOL    HW1 8336   0.508   3.606   0.784
 2479SOL    HW2 8337   0.500   3.597   0.621
 2480SOL     OW 8338   3.513   2.528   1.370
 2480SOL    HW1 8339   3.509   2.430   1.390
 2480SOL    HW2 8340   3.600   2.565   1.403
 2481SOL     OW 8341   2.893   0.869   0.858
 2481SOL    HW1 8342   2.978   0.838   0.816
 2481SOL    HW2 8343   2.886   0.831   0.951
 2482SOL     OW 8344   5.159   3.689   6.880
 2482SOL    HW1 8345   5.224   3.763   6.869
 2482SOL    HW2 8346   5.068   3.726   6.898
 2483SOL     OW 8347   0.778   2.230   0.893
 2483SOL    HW1 8348   0.688   2.261   0.862
 2483SOL    HW2 8349   0.767   2.162   0.965
 2484SOL     OW 8350   5.030   1.692   2.159
 2484SOL    HW1 8351   5.085   1.609   2.146
 2484SOL    HW2 8352   5.078   1.755   2.220
 2485SOL     OW 8353   4.844   2.276   6.092
 2485SOL    HW1 8354   4.891   2.338   6.155
 2485SOL    HW2 8355   4.802   2.201   6.143
 2486SOL     OW 8356   0.569   3.715   5.072
 2486SOL    HW1 8357   0.536   3.628   5.109
 2486SOL    HW2 8358   0.500   3.786   5.088
 2487SOL     OW 8359   4.931   5.983   0.311
 2487SOL    HW1 8360   4.911   5.962   0.407
 2487SOL    HW2 8361   4.969   5.901   0.267
 2488SOL     OW 8362   6.781   4.635   1.534
 2488SOL    HW1 8363   6.746   4.579   1.459
 2488SOL    HW2 8364   6.881   4.638   1.530
 2489SOL     OW 8365   0.413   5.940   3.979
 2489SOL    HW1 8366   0.331   5.887   4.000
 2489SOL    HW2 8367   0.477   5.883   3.927
 2490SOL     OW 8368   3.260   5.940   2.540
 2490SOL    HW1 8369   3.303   6.028   2.517
 2490SOL    HW2 8370   3.161   5.948   2.531
 2491SOL     OW 8371   4.378   4.870   1.688
 2491SOL    HW1 8372   4.467   4.838   1.720
 2491SOL    HW2 8373   4.378   4.970   1.683
 2492SOL     OW 8374   5.586   3.851   0.499
 2492SOL    HW1 8375   5.536   3.914   0.440
 2492SOL    HW2 8376   5.664   3.899   0.541
 2493SOL     OW 8377   0.197   6.652   1.621
 2493SOL    HW1 8378   0.286   6.645   1.577
 2493SOL    HW2 8379   0.198   6.599   1.706
 2494SOL     OW 8380   5.896   2.565   1.580
 2494SOL    HW1 8381   5.965   2.497   1.602
 2494SOL    HW2 8382   5.913   2.601   1.488
 2495SOL     OW 8383   5.355   5.719   3.445
 2495SOL    HW1 8384   5.324   5.708   3.351
 2495SOL    HW2 8385   5.298   5.665   3.506
 2496SOL     OW 8386   6.493   4.634   6.614
 2496SOL    HW1 8387   6.409   4.656   6.665
 2496SOL    HW2 8388   6.538   4.556   6.656
 2497SOL     OW 8389   0.539   6.924   1.812
 2497SOL    HW1 8390   0.514   6.850   1.874
 2497SOL    HW2 8391   0.460   6.982   1.794
 2498SOL     OW 8392   2.771   3.340   5.877
 2498SOL    HW1 8393   2.788   3.399   5.798
 2498SOL    HW2 8394   2.779   3.393   5.961
 2499SOL     OW 8395   6.241   3.622   1.772
 2499SOL    HW1 8396   6.242   3.602   1.870
 2499SOL    HW2 8397   6.186   3.553   1.725
 2500SOL     OW 8398   3.684   4.089   6.549
 2500SOL    HW1 8399   3.748   4.032   6.599
 2500SOL    HW2 8400   3.682   4.061   6.453
 2501SOL     OW 8401   5.724   6.048   0.217
 2501SOL    HW1 8402   5.799   6.055   0.282
 2501SOL    HW2 8403   5.759   6.017   0.128
 2502SOL     OW 8404   2.724   5.643   4.726
 2502SOL    HW1 8405   2.691   5.568   4.670
 2502SOL    HW2 8406   2.647   5.692   4.767
 2503SOL     OW 8407   2.777   6.827   5.229
 2503SOL    HW1 8408   2.756   6.851   5.135
 2503SOL    HW2 8409   2.829   6.902   5.271
 2504SOL     OW 8410   3.176   5.672   3.008
 2504SOL    HW1 8411   3.199   5.632   2.919
 2504SOL    HW2 8412   3.256   5.719   3.045
 2505SOL     OW 8413   0.817   5.732   2.412
 2505SOL    HW1 8414   0.816   5.649   2.467
 2505SOL    HW2 8415   0.867   5.715   2.327
 2506SOL     OW 8416   6.180   4.381   6.213
 2506SOL    HW1 8417   6.098   4.324   6.219
 2506SOL    HW2 8418   6.172   4.458   6.276
 2507SOL     OW 8419   6.847   3.036   0.183
 2507SOL    HW1 8420   6.909   3.068   0.256
 2507SOL    HW2 8421   6.811   3.115   0.133
 2508SOL     OW 8422   3.126   2.270   5.419
 2508SOL    HW1 8423   3.184   2.320   5.355
 2508SOL    HW2 8424   3.030   2.292   5.401
 2509SOL     OW 8425   6.319   3.926   6.710
 2509SOL    HW1 8426   6.315   3.905   6.808
 2509SOL    HW2 8427   6.231   3.964   6.681
 2510SOL     OW 8428   3.550   4.197   1.863
 2510SOL    HW1 8429   3.525   4.261   1.790
 2510SOL    HW2 8430   3.649   4.185   1.864
 2511SOL     OW 8431   2.151   0.696   5.128
 2511SOL    HW1 8432   2.242   0.692   5.085
 2511SOL    HW2 8433   2.128   0.791   5.149
 2512SOL     OW 8434   3.428   4.550   5.279
 2512SOL    HW1 8435   3.494   4.617   5.314
 2512SOL    HW2 8436   3.407   4.484   5.351
 2513SOL     OW 8437   1.935   6.863   5.710
 2513SOL    HW1 8438   1.854   6.820   5.749
 2513SOL    HW2 8439   1.999   6.793   5.680
 2514SOL     OW 8440   1.246   2.990   3.635
 2514SOL    HW1 8441   1.215   3.080   3.666
 2514SOL    HW2 8442   1.169   2.941   3.594
 2515SOL     OW 8443   1.895   0.569   1.267
 2515SOL    HW1 8444   1.909   0.647   1.328
 2515SOL    HW2 8445   1.967   0.566   1.198
 2516SOL     OW 8446   4.940   1.624   3.751
 2516SOL    HW1 8447   4.919   1.721   3.763
 2516SOL    HW2 8448   4.883   1.587   3.678
 2517SOL     OW 8449   1.203   0.632   4.865
 2517SOL    HW1 8450   1.169   0.670   4.951
 2517SOL    HW2 8451   1.132   0.574   4.825
 2518SOL     OW 8452   2.315   5.331   1.263
 2518SOL    HW1 8453   2.278   5.257   1.319
 2518SOL    HW2 8454   2.401   5.363   1.304
 2519SOL     OW 8455   2.455   1.261   1.854
 2519SOL    HW1 8456   2.492   1.311   1.775
 2519SOL    HW2 8457   2.471   1.314   1.937
 2520SOL     OW 8458   3.443   2.384   0.735
 2520SOL    HW1 8459   3.398   2.435   0.661
 2520SOL    HW2 8460   3.460   2.445   0.812
 2521SOL     OW 8461   4.139   1.429   5.048
 2521SOL    HW1 8462   4.192   1.414   4.964
 2521SOL    HW2 8463   4.118   1.341   5.091
 2522SOL     OW 8464   0.884   1.852   5.363
 2522SOL    HW1 8465   0.969   1.905   5.359
 2522SOL    HW2 8466   0.902   1.758   5.333
 2523SOL     OW 8467   2.061   4.388   0.819
 2523SOL    HW1 8468   2.129   4.320   0.846
 2523SOL    HW2 8469   2.062   4.464   0.884
 2524SOL     OW 8470   1.022   6.881   4.233
 2524SOL    HW1 8471   1.011   6.805   4.169
 2524SOL    HW2 8472   1.111   6.876   4.278
 2525SOL     OW 8473   1.100   2.661   4.593
 2525SOL    HW1 8474   1.152   2.745   4.586
 2525SOL    HW2 8475   1.018   2.667   4.535
 2526SOL     OW 8476   1.879   5.016   0.103
 2526SOL    HW1 8477   1.957   4.974   0.150
 2526SOL    HW2 8478   1.912   5.079   0.032
 2527SOL     OW 8479   5.438   5.631   5.352
 2527SOL    HW1 8480   5.340   5.619   5.342
 2527SOL    HW2 8481   5.459   5.655   5.447
 2528SOL     OW 8482   5.516   4.365   5.209
 2528SOL    HW1 8483   5.467   4.350   5.295
 2528SOL    HW2 8484   5.462   4.327   5.133
 2529SOL     OW 8485   0.872   0.404   6.234
 2529SOL    HW1 8486   0.930   0.324   6.241
 2529SOL    HW2 8487   0.780   0.381   6.266
 2530SOL     OW 8488   2.780   6.274   5.814
 2530SOL    HW1 8489   2.818   6.199   5.867
 2530SOL    HW2 8490   2.812   6.361   5.852
 2531SOL     OW 8491   5.651   5.875   5.612
 2531SOL    HW1 8492   5.649   5.776   5.629
 2531SOL    HW2 8493   5.632   5.892   5.516
 2532SOL     OW 8494   0.951   6.094   1.455
 2532SOL    HW1 8495   0.944   5.997   1.429
 2532SOL    HW2 8496   0.919   6.150   1.379
 2533SOL     OW 8497   4.972   1.136   3.517
 2533SOL    HW1 8498   4.972   1.096   3.426
 2533SOL    HW2 8499   4.934   1.071   3.582
 2534SOL     OW 8500   4.766   1.775   1.761
 2534SOL    HW1 8501   4.789   1.708   1.831
 2534SOL    HW2 8502   4.850   1.809   1.718
 2535SOL     OW 8503   3.584   2.844   6.742
 2535SOL    HW1 8504   3.581   2.745   6.727
 2535SOL    HW2 8505   3.530   2.867   6.824
 2536SOL     OW 8506   1.790   0.608   6.399
 2536SOL    HW1 8507   1.695   0.604   6.431
 2536SOL    HW2 8508   1.818   0.518   6.367
 2537SOL     OW 8509   3.431   0.717   6.590
 2537SOL    HW1 8510   3.380   0.748   6.510
 2537SOL    HW2 8511   3.515   0.672   6.559
 2538SOL     OW 8512   0.025   3.814   3.620
 2538SOL    HW1 8513   0.095   3.767   3.566
 2538SOL    HW2 8514   0.034   3.788   3.716
 2539SOL     OW 8515   5.905   0.935   3.342
 2539SOL    HW1 8516   5.930   0.839   3.337
 2539SOL    HW2 8517   5.806   0.944   3.330
 2540SOL     OW 8518   3.761   2.103   3.092
 2540SOL    HW1 8519   3.736   2.128   2.999
 2540SOL    HW2 8520   3.743   2.006   3.107
 2541SOL     OW 8521   2.639   0.021   4.725
 2541SOL    HW1 8522   2.601   0.073   4.648
 2541SOL    HW2 8523   2.720   0.068   4.760
 2542SOL     OW 8524   2.031   3.726   6.514
 2542SOL    HW1 8525   2.075   3.812   6.539
 2542SOL    HW2 8526   2.062   3.698   6.423
 2543SOL     OW 8527   0.911   1.277   3.864
 2543SOL    HW1 8528   0.847   1.334   3.813
 2543SOL    HW2 8529   0.885   1.181   3.854
 2544SOL     OW 8530   1.191   5.439   0.836
 2544SOL    HW1 8531   1.095   5.434   0.863
 2544SOL    HW2 8532   1.243   5.370   0.885
 2545SOL     OW 8533   1.842   6.868   2.429
 2545SOL    HW1 8534   1.899   6.798   2.387
 2545SOL    HW2 8535   1.862   6.874   2.527
 2546SOL     OW 8536   6.456   1.408   0.680
 2546SOL    HW1 8537   6.446   1.506   0.662
 2546SOL    HW2 8538   6.462   1.359   0.594
 2547SOL     OW 8539   0.376   4.113   6.399
 2547SOL    HW1 8540   0.408   4.068   6.315
 2547SOL    HW2 8541   0.429   4.080   6.477
 2548SOL     OW 8542   0.393   6.571   4.346
 2548SOL    HW1 8543   0.439   6.618   4.421
 2548SOL    HW2 8544   0.382   6.474   4.368
 2549SOL     OW 8545   0.540   0.597   1.494
 2549SOL    HW1 8546   0.443   0.619   1.486
 2549SOL    HW2 8547   0.551   0.506   1.534
 2550SOL     OW 8548   6.368   0.010   0.829
 2550SOL    HW1 8549   6.352   0.092   0.885
 2550SOL    HW2 8550   6.445   0.026   0.767
 2551SOL     OW 8551   2.624   4.447   6.667
 2551SOL    HW1 8552   2.544   4.395   6.695
 2551SOL    HW2 8553   2.637   4.525   6.729
 2552SOL     OW 8554   2.417   4.375   4.508
 2552SOL    HW1 8555   2.397   4.294   4.453
 2552SOL    HW2 8556   2.359   4.376   4.588
 2553SOL     OW 8557   3.845   3.838   6.150
 2553SOL    HW1 8558   3.927   3.870   6.198
 2553SOL    HW2 8559   3.871   3.769   6.083
 2554SOL     OW 8560   2.332   1.781   0.396
 2554SOL    HW1 8561   2.425   1.752   0.377
 2554SOL    HW2 8562   2.332   1.874   0.431
 2555SOL     OW 8563   4.879   3.144   4.330
 2555SOL    HW1 8564   4.890   3.117   4.234
 2555SOL    HW2 8565   4.844   3.066   4.382
 2556SOL     OW 8566   3.635   6.096   0.604
 2556SOL    HW1 8567   3.586   6.021   0.561
 2556SOL    HW2 8568   3.617   6.096   0.702
 2557SOL     OW 8569   1.891   3.333   6.308
 2557SOL    HW1 8570   1.977   3.338   6.359
 2557SOL    HW2 8571   1.895   3.397   6.231
 2558SOL     OW 8572   5.073   1.054   5.703
 2558SOL    HW1 8573   5.067   1.154   5.707
 2558SOL    HW2 8574   5.104   1.026   5.612
 2559SOL     OW 8575   0.779   4.306   5.924
 2559SOL    HW1 8576   0.798   4.265   6.013
 2559SOL    HW2 8577   0.729   4.392   5.937
 2560SOL     OW 8578   6.435   2.228   6.309
 2560SOL    HW1 8579   6.434   2.128   6.304
 2560SOL    HW2 8580   6.485   2.258   6.390
 2561SOL     OW 8581   3.244   4.929   4.500
 2561SOL    HW1 8582   3.287   4.978   4.576
 2561SOL    HW2 8583   3.309   4.920   4.425
 2562SOL     OW 8584   2.410   4.234   0.706
 2562SOL    HW1 8585   2.403   4.326   0.668
 2562SOL    HW2 8586   2.366   4.231   0.796
 2563SOL     OW 8587   2.869   0.435   0.411
 2563SOL    HW1 8588   2.817   0.437   0.496
 2563SOL    HW2 8589   2.836   0.506   0.349
 2564SOL     OW 8590   1.847   5.538   1.115
 2564SOL    HW1 8591   1.937   5.499   1.097
 2564SOL    HW2 8592   1.842   5.630   1.075
 2565SOL     OW 8593   1.067   0.455   1.023
 2565SOL    HW1 8594   1.041   0.371   1.071
 2565SOL    HW2 8595   1.015   0.462   0.938
 2566SOL     OW 8596   2.467   6.284   0.927
 2566SOL    HW1 8597   2.533   6.258   0.998
 2566SOL    HW2 8598   2.413   6.362   0.959
 2567SOL     OW 8599   1.653   6.806   0.577
 2567SOL    HW1 8600   1.622   6.868   0.650
 2567SOL    HW2 8601   1.747   6.828   0.552
 2568SOL     OW 8602   4.516   2.510   6.955
 2568SOL    HW1 8603   4.571   2.438   6.913
 2568SOL    HW2 8604   4.459   2.470   0.009
 2569SOL     OW 8605   3.718   1.524   3.599
 2569SOL    HW1 8606   3.806   1.519   3.552
 2569SOL    HW2 8607   3.654   1.462   3.554
 2570SOL     OW 8608   5.463   1.031   5.398
 2570SOL    HW1 8609   5.461   0.950   5.340
 2570SOL    HW2 8610   5.548   1.032   5.451
 2571SOL     OW 8611   1.544   4.868   4.334
 2571SOL    HW1 8612   1.623   4.838   4.279
 2571SOL    HW2 8613   1.550   4.827   4.425
 2572SOL     OW 8614   2.353   4.747   3.132
 2572SOL    HW1 8615   2.447   4.715   3.132
 2572SOL    HW2 8616   2.350   4.845   3.113
 2573SOL     OW 8617   0.744   1.576   1.065
 2573SOL    HW1 8618   0.740   1.478   1.045
 2573SOL    HW2 8619   0.839   1.603   1.079
 2574SOL     OW 8620   6.050   3.024   0.855
 2574SOL    HW1 8621   6.018   3.066   0.940
 2574SOL    HW2 8622   6.130   2.967   0.874
 2575SOL     OW 8623   5.891   5.991   7.002
 2575SOL    HW1 8624   5.969   6.053   7.005
 2575SOL    HW2 8625   5.898   5.931   6.923
 2576SOL     OW 8626   4.423   6.724   4.217
 2576SOL    HW1 8627   4.360   6.786   4.171
 2576SOL    HW2 8628   4.394   6.712   4.312
 2577SOL     OW 8629   3.039   4.827   2.287
 2577SOL    HW1 8630   3.068   4.732   2.281
 2577SOL    HW2 8631   3.095   4.883   2.226
 2578SOL     OW 8632   3.730   1.490   4.439
 2578SOL    HW1 8633   3.690   1.455   4.354
 2578SOL    HW2 8634   3.657   1.519   4.501
 2579SOL     OW 8635   0.824   6.339   3.357
 2579SOL    HW1 8636   0.893   6.405   3.388
 2579SOL    HW2 8637   0.836   6.252   3.405
 2580SOL     OW 8638   2.410   4.236   0.244
 2580SOL    HW1 8639   2.331   4.285   0.280
 2580SOL    HW2 8640   2.379   4.154   0.195
 2581SOL     OW 8641   2.777   6.649   5.891
 2581SOL    HW1 8642   2.698   6.639   5.831
 2581SOL    HW2 8643   2.823   6.736   5.873
 2582SOL     OW 8644   6.633   3.686   1.220
 2582SOL    HW1 8645   6.660   3.681   1.316
 2582SOL    HW2 8646   6.545   3.639   1.208
 2583SOL     OW 8647   0.104   6.632   0.719
 2583SOL    HW1 8648   0.173   6.573   0.679
 2583SOL    HW2 8649   0.076   6.701   0.652
 2584SOL     OW 8650   3.774   4.857   5.874
 2584SOL    HW1 8651   3.737   4.950   5.868
 2584SOL    HW2 8652   3.862   4.859   5.922
 2585SOL     OW 8653   2.871   5.385   6.146
 2585SOL    HW1 8654   2.891   5.314   6.213
 2585SOL    HW2 8655   2.879   5.475   6.190
 2586SOL     OW 8656   2.142   1.030   5.713
 2586SOL    HW1 8657   2.103   1.122   5.711
 2586SOL    HW2 8658   2.110   0.979   5.632
 2587SOL     OW 8659   0.269   0.852   2.722
 2587SOL    HW1 8660   0.283   0.907   2.640
 2587SOL    HW2 8661   0.349   0.794   2.737
 2588SOL     OW 8662   4.641   2.047   5.591
 2588SOL    HW1 8663   4.650   1.986   5.512
 2588SOL    HW2 8664   4.686   2.006   5.670
 2589SOL     OW 8665   1.182   6.695   0.029
 2589SOL    HW1 8666   1.189   6.724   6.952
 2589SOL    HW2 8667   1.270   6.711   0.075
 2590SOL     OW 8668   2.629   4.932   0.207
 2590SOL    HW1 8669   2.722   4.903   0.185
 2590SOL    HW2 8670   2.611   4.914   0.303
 2591SOL     OW 8671   6.231   5.716   4.084
 2591SOL    HW1 8672   6.144   5.763   4.102
 2591SOL    HW2 8673   6.224   5.621   4.114
 2592SOL     OW 8674   2.040   4.127   7.012
 2592SOL    HW1 8675   2.041   4.225   6.991
 2592SOL    HW2 8676   1.964   4.083   6.964
 2593SOL     OW 8677   3.369   5.850   0.812
 2593SOL    HW1 8678   3.358   5.940   0.852
 2593SOL    HW2 8679   3.404   5.859   0.718
 2594SOL     OW 8680   1.784   4.083   5.394
 2594SOL    HW1 8681   1.821   4.159   5.341
 2594SOL    HW2 8682   1.849   4.056   5.465
 2595SOL     OW 8683   1.120   1.773   4.415
 2595SOL    HW1 8684   1.076   1.857   4.449
 2595SOL    HW2 8685   1.217   1.790   4.402
 2596SOL     OW 8686   1.893   3.183   1.233
 2596SOL    HW1 8687   1.836   3.102   1.249
 2596SOL    HW2 8688   1.906   3.232   1.319
 2597SOL     OW 8689   0.702   5.669   6.191
 2597SOL    HW1 8690   0.661   5.617   6.265
 2597SOL    HW2 8691   0.799   5.645   6.182
 2598SOL     OW 8692   5.946   1.362   2.043
 2598SOL    HW1 8693   5.919   1.278   2.090
 2598SOL    HW2 8694   6.043   1.380   2.060
 2599SOL     OW 8695   3.227   6.844   1.596
 2599SOL    HW1 8696   3.192   6.754   1.570
 2599SOL    HW2 8697   3.264   6.839   1.689
 2600SOL     OW 8698   6.740   3.927   4.353
 2600SOL    HW1 8699   6.824   3.977   4.328
 2600SOL    HW2 8700   6.707   3.958   4.441
 2601SOL     OW 8701   1.050   1.465   2.360
 2601SOL    HW1 8702   1.048   1.518   2.275
 2601SOL    HW2 8703   1.069   1.525   2.437
 2602SOL     OW 8704   1.380   5.077   4.226
 2602SOL    HW1 8705   1.309   5.054   4.160
 2602SOL    HW2 8706   1.422   4.992   4.260
 2603SOL     OW 8707   2.913   1.230   2.452
 2603SOL    HW1 8708   2.914   1.326   2.482
 2603SOL    HW2 8709   2.955   1.172   2.521
 2604SOL     OW 8710   5.817   1.358   1.804
 2604SOL    HW1 8711   5.723   1.388   1.824
 2604SOL    HW2 8712   5.874   1.371   1.885
 2605SOL     OW 8713   1.439   3.899   1.430
 2605SOL    HW1 8714   1.350   3.946   1.434
 2605SOL    HW2 8715   1.425   3.801   1.443
 2606SOL     OW 8716   5.028   4.810   1.142
 2606SOL    HW1 8717   5.015   4.886   1.077
 2606SOL    HW2 8718   5.093   4.837   1.213
 2607SOL     OW 8719   2.001   2.420   1.194
 2607SOL    HW1 8720   1.963   2.384   1.280
 2607SOL    HW2 8721   2.024   2.344   1.133
 2608SOL     OW 8722   2.748   6.036   6.240
 2608SOL    HW1 8723   2.722   6.119   6.191
 2608SOL    HW2 8724   2.788   6.061   6.328
 2609SOL     OW 8725   1.187   0.627   1.165
 2609SOL    HW1 8726   1.146   0.717   1.173
 2609SOL    HW2 8727   1.123   0.565   1.118
 2610SOL     OW 8728   1.080   4.942   4.325
 2610SOL    HW1 8729   1.063   4.921   4.421
 2610SOL    HW2 8730   1.144   4.875   4.287
 2611SOL     OW 8731   4.923   6.334   6.864
 2611SOL    HW1 8732   4.858   6.258   6.864
 2611SOL    HW2 8733   4.903   6.394   6.942
 2612SOL     OW 8734   5.525   0.568   4.619
 2612SOL    HW1 8735   5.554   0.585   4.713
 2612SOL    HW2 8736   5.518   0.470   4.603
 2613SOL     OW 8737   0.721   5.780   6.580
 2613SOL    HW1 8738   0.681   5.700   6.535
 2613SOL    HW2 8739   0.698   5.862   6.528
 2614SOL     OW 8740   6.575   0.560   5.957
 2614SOL    HW1 8741   6.540   0.466   5.954
 2614SOL    HW2 8742   6.586   0.594   5.863
 2615SOL     OW 8743   1.122   3.876   0.971
 2615SOL    HW1 8744   1.113   3.864   0.873
 2615SOL    HW2 8745   1.216   3.855   0.999
 2616SOL     OW 8746   1.625   0.291   5.550
 2616SOL    HW1 8747   1.538   0.329   5.520
 2616SOL    HW2 8748   1.681   0.268   5.470
 2617SOL     OW 8749   5.556   0.420   0.225
 2617SOL    HW1 8750   5.615   0.491   0.187
 2617SOL    HW2 8751   5.607   0.364   0.290
 2618SOL     OW 8752   1.416   6.398   5.931
 2618SOL    HW1 8753   1.511   6.429   5.935
 2618SOL    HW2 8754   1.389   6.384   5.836
 2619SOL     OW 8755   4.314   1.581   2.093
 2619SOL    HW1 8756   4.301   1.634   2.177
 2619SOL    HW2 8757   4.380   1.508   2.109
 2620SOL     OW 8758   6.857   6.268   1.880
 2620SOL    HW1 8759   6.878   6.211   1.801
 2620SOL    HW2 8760   6.869   6.364   1.857
 2621SOL     OW 8761   1.355   5.711   2.976
 2621SOL    HW1 8762   1.388   5.618   2.958
 2621SOL    HW2 8763   1.359   5.729   3.074
 2622SOL     OW 8764   2.819   3.238   6.477
 2622SOL    HW1 8765   2.815   3.336   6.459
 2622SOL    HW2 8766   2.905   3.201   6.441
 2623SOL     OW 8767   0.802   7.007   3.862
 2623SOL    HW1 8768   0.816   6.969   3.771
 2623SOL    HW2 8769   0.789   6.932   3.927
 2624SOL     OW 8770   0.236   2.193   4.517
 2624SOL    HW1 8771   0.150   2.217   4.472
 2624SOL    HW2 8772   0.237   2.231   4.610
 2625SOL     OW 8773   1.880   5.328   5.362
 2625SOL    HW1 8774   1.963   5.271   5.362
 2625SOL    HW2 8775   1.897   5.411   5.414
 2626SOL     OW 8776   6.278   5.602   5.848
 2626SOL    HW1 8777   6.230   5.519   5.877
 2626SOL    HW2 8778   6.271   5.672   5.920
 2627SOL     OW 8779   1.209   6.856   6.248
 2627SOL    HW1 8780   1.183   6.851   6.152
 2627SOL    HW2 8781   1.173   6.939   6.289
 2628SOL     OW 8782   1.789   3.854   2.827
 2628SOL    HW1 8783   1.739   3.788   2.770
 2628SOL    HW2 8784   1.727   3.928   2.852
 2629SOL     OW 8785   3.841   3.997   3.362
 2629SOL    HW1 8786   3.789   4.037   3.286
 2629SOL    HW2 8787   3.795   4.019   3.448
 2630SOL     OW 8788   3.837   1.194   3.845
 2630SOL    HW1 8789   3.747   1.174   3.885
 2630SOL    HW2 8790   3.884   1.261   3.902
 2631SOL     OW 8791   5.887   0.873   6.832
 2631SOL    HW1 8792   5.892   0.968   6.802
 2631SOL    HW2 8793   5.793   0.852   6.859
 2632SOL     OW 8794   5.551   4.781   1.626
 2632SOL    HW1 8795   5.510   4.729   1.700
 2632SOL    HW2 8796   5.591   4.866   1.662
 2633SOL     OW 8797   6.943   3.462   5.921
 2633SOL    HW1 8798   6.906   3.472   6.013
 2633SOL    HW2 8799   6.898   3.528   5.860
 2634SOL     OW 8800   6.043   0.437   5.189
 2634SOL    HW1 8801   6.121   0.432   5.127
 2634SOL    HW2 8802   6.015   0.345   5.216
 2635SOL     OW 8803   5.685   5.450   3.867
 2635SOL    HW1 8804   5.697   5.367   3.921
 2635SOL    HW2 8805   5.589   5.476   3.867
 2636SOL     OW 8806   4.022   6.755   6.348
 2636SOL    HW1 8807   3.945   6.792   6.296
 2636SOL    HW2 8808   3.992   6.730   6.440
 2637SOL     OW 8809   1.532   1.239   3.274
 2637SOL    HW1 8810   1.442   1.211   3.242
 2637SOL    HW2 8811   1.601   1.220   3.204
 2638SOL     OW 8812   0.912   0.314   4.321
 2638SOL    HW1 8813   0.921   0.253   4.243
 2638SOL    HW2 8814   0.894   0.261   4.404
 2639SOL     OW 8815   4.497   5.324   4.725
 2639SOL    HW1 8816   4.399   5.307   4.737
 2639SOL    HW2 8817   4.529   5.275   4.644
 2640SOL     OW 8818   0.875   0.128   4.512
 2640SOL    HW1 8819   0.826   0.047   4.480
 2640SOL    HW2 8820   0.970   0.104   4.532
 2641SOL     OW 8821   5.530   2.178   0.038
 2641SOL    HW1 8822   5.550   2.198   0.134
 2641SOL    HW2 8823   5.431   2.174   0.024
 2642SOL     OW 8824   7.006   1.240   4.237
 2642SOL    HW1 8825   6.939   1.305   4.202
 2642SOL    HW2 8826   6.992   1.227   4.335
 2643SOL     OW 8827   1.058   4.036   3.324
 2643SOL    HW1 8828   1.131   4.015   3.259
 2643SOL    HW2 8829   1.074   3.986   3.409
 2644SOL     OW 8830   4.884   5.408   5.050
 2644SOL    HW1 8831   4.903   5.472   5.125
 2644SOL    HW2 8832   4.786   5.389   5.047
 2645SOL     OW 8833   5.087   4.757   3.292
 2645SOL    HW1 8834   5.107   4.854   3.283
 2645SOL    HW2 8835   5.006   4.734   3.239
 2646SOL     OW 8836   0.128   3.769   5.898
 2646SOL    HW1 8837   0.031   3.792   5.909
 2646SOL    HW2 8838   0.137   3.699   5.827
 2647SOL     OW 8839   4.962   6.396   1.751
 2647SOL    HW1 8840   4.935   6.488   1.722
 2647SOL    HW2 8841   5.061   6.387   1.745
 2648SOL     OW 8842   0.216   0.263   4.377
 2648SOL    HW1 8843   0.221   0.325   4.299
 2648SOL    HW2 8844   0.309   0.237   4.405
 2649SOL     OW 8845   5.068   2.553   1.998
 2649SOL    HW1 8846   5.058   2.556   2.098
 2649SOL    HW2 8847   5.104   2.463   1.972
 2650SOL     OW 8848   3.758   6.136   5.134
 2650SOL    HW1 8849   3.742   6.060   5.198
 2650SOL    HW2 8850   3.673   6.187   5.123
 2651SOL     OW 8851   3.951   1.794   5.195
 2651SOL    HW1 8852   3.941   1.864   5.124
 2651SOL    HW2 8853   4.048   1.777   5.210
 2652SOL     OW 8854   5.282   4.118   5.630
 2652SOL    HW1 8855   5.361   4.057   5.629
 2652SOL    HW2 8856   5.310   4.209   5.660
 2653SOL     OW 8857   3.021   6.541   0.106
 2653SOL    HW1 8858   3.062   6.631   0.090
 2653SOL    HW2 8859   2.929   6.540   0.069
 2654SOL     OW 8860   5.660   0.818   0.377
 2654SOL    HW1 8861   5.637   0.803   0.473
 2654SOL    HW2 8862   5.636   0.911   0.351
 2655SOL     OW 8863   5.002   5.866   3.098
 2655SOL    HW1 8864   5.066   5.927   3.051
 2655SOL    HW2 8865   4.969   5.911   3.182
 2656SOL     OW 8866   3.719   5.197   3.838
 2656SOL    HW1 8867   3.672   5.286   3.831
 2656SOL    HW2 8868   3.655   5.129   3.873
 2657SOL     OW 8869   1.877   3.587   0.161
 2657SOL    HW1 8870   1.882   3.687   0.159
 2657SOL    HW2 8871   1.926   3.549   0.083
 2658SOL     OW 8872   4.339   4.745   6.463
 2658SOL    HW1 8873   4.398   4.665   6.454
 2658SOL    HW2 8874   4.349   4.804   6.383
 2659SOL     OW 8875   6.609   2.571   4.580
 2659SOL    HW1 8876   6.657   2.634   4.519
 2659SOL    HW2 8877   6.649   2.576   4.672
 2660SOL     OW 8878   0.480   2.012   1.752
 2660SOL    HW1 8879   0.401   1.951   1.740
 2660SOL    HW2 8880   0.449   2.107   1.751
 2661SOL     OW 8881   1.779   1.493   1.157
 2661SOL    HW1 8882   1.719   1.568   1.184
 2661SOL    HW2 8883   1.866   1.530   1.126
 2662SOL     OW 8884   3.254   0.727   2.715
 2662SOL    HW1 8885   3.233   0.810   2.664
 2662SOL    HW2 8886   3.344   0.693   2.688
 2663SOL     OW 8887   4.332   6.467   6.934
 2663SOL    HW1 8888   4.366   6.478   6.841
 2663SOL    HW2 8889   4.348   6.551   6.986
 2664SOL     OW 8890   4.172   2.721   5.831
 2664SOL    HW1 8891   4.108   2.692   5.902
 2664SOL    HW2 8892   4.127   2.713   5.741
 2665SOL     OW 8893   1.899   3.777   5.403
 2665SOL    HW1 8894   1.805   3.794   5.433
 2665SOL    HW2 8895   1.913   3.815   5.311
 2666SOL     OW 8896   2.051   4.137   2.089
 2666SOL    HW1 8897   2.117   4.107   2.021
 2666SOL    HW2 8898   2.082   4.111   2.180
 2667SOL     OW 8899   6.233   3.580   4.086
 2667SOL    HW1 8900   6.200   3.551   4.176
 2667SOL    HW2 8901   6.248   3.679   4.087
 2668SOL     OW 8902   5.800   1.400   4.129
 2668SOL    HW1 8903   5.722   1.371   4.184
 2668SOL    HW2 8904   5.774   1.402   4.032
 2669SOL     OW 8905   2.530   0.833   0.178
 2669SOL    HW1 8906   2.507   0.807   0.085
 2669SOL    HW2 8907   2.449   0.825   0.237
 2670SOL     OW 8908   0.441   0.602   5.990
 2670SOL    HW1 8909   0.517   0.538   6.001
 2670SOL    HW2 8910   0.424   0.650   6.076
 2671SOL     OW 8911   3.838   5.252   5.749
 2671SOL    HW1 8912   3.800   5.345   5.748
 2671SOL    HW2 8913   3.858   5.224   5.843
 2672SOL     OW 8914   3.386   1.111   1.856
 2672SOL    HW1 8915   3.393   1.047   1.933
 2672SOL    HW2 8916   3.478   1.137   1.826
 2673SOL     OW 8917   4.829   0.368   2.413
 2673SOL    HW1 8918   4.803   0.341   2.506
 2673SOL    HW2 8919   4.819   0.467   2.405
 2674SOL     OW 8920   0.823   4.979   2.535
 2674SOL    HW1 8921   0.817   4.882   2.560
 2674SOL    HW2 8922   0.836   5.034   2.617
 2675SOL     OW 8923   5.993   0.124   4.204
 2675SOL    HW1 8924   6.070   0.075   4.163
 2675SOL    HW2 8925   5.984   0.213   4.161
 2676SOL     OW 8926   3.332   3.843   3.200
 2676SOL    HW1 8927   3.328   3.815   3.296
 2676SOL    HW2 8928   3.293   3.934   3.190
 2677SOL     OW 8929   2.322   4.992   1.634
 2677SOL    HW1 8930   2.399   4.953   1.582
 2677SOL    HW2 8931   2.357   5.035   1.716
 2678SOL     OW 8932   5.383   2.135   2.268
 2678SOL    HW1 8933   5.303   2.128   2.327
 2678SOL    HW2 8934   5.414   2.043   2.243
 2679SOL     OW 8935   1.922   4.453   3.859
 2679SOL    HW1 8936   1.847   4.499   3.811
 2679SOL    HW2 8937   2.005   4.457   3.803
 2680SOL     OW 8938   0.907   1.748   6.959
 2680SOL    HW1 8939   0.901   1.825   0.005
 2680SOL    HW2 8940   0.974   1.769   6.888
 2681SOL     OW 8941   1.771   2.525   5.258
 2681SOL    HW1 8942   1.725   2.614   5.259
 2681SOL    HW2 8943   1.776   2.490   5.352
 2682SOL     OW 8944   4.469   4.404   1.439
 2682SOL    HW1 8945   4.384   4.400   1.492
 2682SOL    HW2 8946   4.544   4.367   1.493
 2683SOL     OW 8947   2.443   4.419   2.318
 2683SOL    HW1 8948   2.498   4.429   2.401
 2683SOL    HW2 8949   2.499   4.435   2.237
 2684SOL     OW 8950   5.942   6.805   2.290
 2684SOL    HW1 8951   5.919   6.902   2.280
 2684SOL    HW2 8952   5.896   6.768   2.371
 2685SOL     OW 8953   0.809   5.907   5.018
 2685SOL    HW1 8954   0.835   5.810   5.016
 2685SOL    HW2 8955   0.881   5.962   4.975
 2686SOL     OW 8956   1.167   1.493   4.399
 2686SOL    HW1 8957   1.104   1.445   4.460
 2686SOL    HW2 8958   1.165   1.591   4.420
 2687SOL     OW 8959   3.587   1.454   1.387
 2687SOL    HW1 8960   3.543   1.427   1.302
 2687SOL    HW2 8961   3.611   1.551   1.384
 2688SOL     OW 8962   3.556   3.505   5.872
 2688SOL    HW1 8963   3.626   3.468   5.811
 2688SOL    HW2 8964   3.590   3.506   5.966
 2689SOL     OW 8965   0.972   3.687   3.186
 2689SOL    HW1 8966   1.063   3.700   3.226
 2689SOL    HW2 8967   0.956   3.759   3.118
 2690SOL     OW 8968   3.586   1.432   6.412
 2690SOL    HW1 8969   3.496   1.395   6.436
 2690SOL    HW2 8970   3.576   1.498   6.338
 2691SOL     OW 8971   0.481   4.548   3.788
 2691SOL    HW1 8972   0.490   4.540   3.887
 2691SOL    HW2 8973   0.384   4.553   3.763
 2692SOL     OW 8974   2.927   5.760   2.704
 2692SOL    HW1 8975   3.008   5.702   2.721
 2692SOL    HW2 8976   2.892   5.794   2.792
 2693SOL     OW 8977   1.643   5.315   3.685
 2693SOL    HW1 8978   1.621   5.218   3.681
 2693SOL    HW2 8979   1.600   5.363   3.608
 2694SOL     OW 8980   3.518   6.690   4.237
 2694SOL    HW1 8981   3.462   6.717   4.159
 2694SOL    HW2 8982   3.608   6.658   4.205
 2695SOL     OW 8983   0.061   5.424   3.526
 2695SOL    HW1 8984   0.034   5.385   3.438
 2695SOL    HW2 8985   6.997   5.435   3.583
 2696SOL     OW 8986   5.016   4.254   6.415
 2696SOL    HW1 8987   4.928   4.224   6.453
 2696SOL    HW2 8988   4.999   4.309   6.333
 2697SOL     OW 8989   4.063   2.629   0.843
 2697SOL    HW1 8990   4.138   2.692   0.863
 2697SOL    HW2 8991   4.099   2.539   0.821
 2698SOL     OW 8992   1.508   3.916   6.219
 2698SOL    HW1 8993   1.576   3.866   6.273
 2698SOL    HW2 8994   1.551   3.949   6.135
 2699SOL     OW 8995   3.511   5.824   2.258
 2699SOL    HW1 8996   3.521   5.897   2.189
 2699SOL    HW2 8997   3.428   5.771   2.238
 2700SOL     OW 8998   2.914   2.232   1.710
 2700SOL    HW1 8999   2.831   2.179   1.728
 2700SOL    HW2 9000   2.915   2.313   1.770
 2701SOL     OW 9001   5.284   2.690   4.612
 2701SOL    HW1 9002   5.294   2.754   4.688
 2701SOL    HW2 9003   5.370   2.685   4.561
 2702SOL     OW 9004   2.650   1.752   4.654
 2702SOL    HW1 9005   2.618   1.720   4.743
 2702SOL    HW2 9006   2.594   1.710   4.582
 2703SOL     OW 9007   1.556   6.674   1.998
 2703SOL    HW1 9008   1.590   6.677   2.092
 2703SOL    HW2 9009   1.620   6.722   1.938
 2704SOL     OW 9010   5.624   0.029   3.836
 2704SOL    HW1 9011   5.628   6.966   3.895
 2704SOL    HW2 9012   5.717   0.059   3.815
 2705SOL     OW 9013   6.930   6.980   5.111
 2705SOL    HW1 9014   6.967   6.956   5.021
 2705SOL    HW2 9015   6.937   6.900   5.171
 2706SOL     OW 9016   6.751   3.913   3.618
 2706SOL    HW1 9017   6.846   3.883   3.613
 2706SOL    HW2 9018   6.707   3.872   3.698
 2707SOL     OW 9019   4.163   0.525   3.370
 2707SOL    HW1 9020   4.199   0.546   3.461
 2707SOL    HW2 9021   4.238   0.518   3.305
 2708SOL     OW 9022   6.151   2.773   0.499
 2708SOL    HW1 9023   6.176   2.766   0.402
 2708SOL    HW2 9024   6.101   2.692   0.527
 2709SOL     OW 9025   4.606   1.161   4.967
 2709SOL    HW1 9026   4.605   1.183   5.065
 2709SOL    HW2 9027   4.696   1.182   4.929
 2710SOL     OW 9028   1.215   2.499   3.832
 2710SOL    HW1 9029   1.303   2.454   3.813
 2710SOL    HW2 9030   1.157   2.495   3.751
 2711SOL     OW 9031   3.525   2.093   2.584
 2711SOL    HW1 9032   3.460   2.057   2.517
 2711SOL    HW2 9033   3.610   2.118   2.537
 2712SOL     OW 9034   4.463   5.637   2.172
 2712SOL    HW1 9035   4.443   5.564   2.237
 2712SOL    HW2 9036   4.457   5.600   2.079
 2713SOL     OW 9037   3.600   4.833   6.240
 2713SOL    HW1 9038   3.571   4.828   6.336
 2713SOL    HW2 9039   3.542   4.774   6.185
 2714SOL     OW 9040   2.838   4.398   7.000
 2714SOL    HW1 9041   2.882   4.319   0.026
 2714SOL    HW2 9042   2.745   4.407   0.016
 2715SOL     OW 9043   4.136   0.965   1.225
 2715SOL    HW1 9044   4.127   1.013   1.138
 2715SOL    HW2 9045   4.186   0.879   1.211
 2716SOL     OW 9046   3.754   2.088   2.831
 2716SOL    HW1 9047   3.708   2.012   2.785
 2716SOL    HW2 9048   3.837   2.112   2.780
 2717SOL     OW 9049   0.594   1.151   2.745
 2717SOL    HW1 9050   0.624   1.064   2.707
 2717SOL    HW2 9051   0.508   1.138   2.794
 2718SOL     OW 9052   0.085   6.807   5.759
 2718SOL    HW1 9053   0.054   6.801   5.854
 2718SOL    HW2 9054   0.037   6.881   5.712
 2719SOL     OW 9055   1.971   3.820   2.470
 2719SOL    HW1 9056   1.975   3.799   2.372
 2719SOL    HW2 9057   2.009   3.743   2.522
 2720SOL     OW 9058   1.282   5.861   5.626
 2720SOL    HW1 9059   1.347   5.789   5.650
 2720SOL    HW2 9060   1.275   5.867   5.526
 2721SOL     OW 9061   3.472   5.577   1.612
 2721SOL    HW1 9062   3.532   5.612   1.541
 2721SOL    HW2 9063   3.522   5.573   1.699
 2722SOL     OW 9064   4.565   5.249   6.691
 2722SOL    HW1 9065   4.482   5.237   6.746
 2722SOL    HW2 9066   4.542   5.293   6.605
 2723SOL     OW 9067   3.129   6.721   0.591
 2723SOL    HW1 9068   3.210   6.662   0.590
 2723SOL    HW2 9069   3.100   6.739   0.497
 2724SOL     OW 9070   1.702   5.892   1.151
 2724SOL    HW1 9071   1.627   5.827   1.143
 2724SOL    HW2 9072   1.673   5.970   1.206
 2725SOL     OW 9073   5.442   3.773   5.021
 2725SOL    HW1 9074   5.536   3.754   5.051
 2725SOL    HW2 9075   5.404   3.848   5.075
 2726SOL     OW 9076   0.265   1.283   1.790
 2726SOL    HW1 9077   0.195   1.220   1.822
 2726SOL    HW2 9078   0.326   1.235   1.726
 2727SOL     OW 9079   2.117   3.883   4.486
 2727SOL    HW1 9080   2.109   3.857   4.390
 2727SOL    HW2 9081   2.030   3.921   4.517
 2728SOL     OW 9082   5.335   5.790   5.868
 2728SOL    HW1 9083   5.405   5.735   5.822
 2728SOL    HW2 9084   5.294   5.853   5.802
 2729SOL     OW 9085   5.384   5.596   6.086
 2729SOL    HW1 9086   5.358   5.657   6.012
 2729SOL    HW2 9087   5.432   5.648   6.157
 2730SOL     OW 9088   1.025   5.415   2.240
 2730SOL    HW1 9089   1.064   5.441   2.328
 2730SOL    HW2 9090   0.928   5.395   2.252
 2731SOL     OW 9091   3.221   2.962   3.928
 2731SOL    HW1 9092   3.179   3.012   4.004
 2731SOL    HW2 9093   3.157   2.893   3.894
 2732SOL     OW 9094   5.469   1.172   1.906
 2732SOL    HW1 9095   5.513   1.238   1.845
 2732SOL    HW2 9096   5.504   1.184   1.998
 2733SOL     OW 9097   0.842   0.447   5.870
 2733SOL    HW1 9098   0.823   0.523   5.808
 2733SOL    HW2 9099   0.816   0.361   5.826
 2734SOL     OW 9100   3.554   5.777   1.877
 2734SOL    HW1 9101   3.614   5.697   1.877
 2734SOL    HW2 9102   3.609   5.860   1.870
 2735SOL     OW 9103   0.688   1.426   1.504
 2735SOL    HW1 9104   0.609   1.474   1.543
 2735SOL    HW2 9105   0.763   1.491   1.490
 2736SOL     OW 9106   4.563   5.353   3.478
 2736SOL    HW1 9107   4.656   5.374   3.448
 2736SOL    HW2 9108   4.523   5.435   3.519
 2737SOL     OW 9109   2.534   1.806   6.694
 2737SOL    HW1 9110   2.501   1.900   6.689
 2737SOL    HW2 9111   2.491   1.760   6.772
 2738SOL     OW 9112   5.631   0.546   1.668
 2738SOL    HW1 9113   5.645   0.456   1.710
 2738SOL    HW2 9114   5.637   0.617   1.738
 2739SOL     OW 9115   1.161   5.176   2.191
 2739SOL    HW1 9116   1.122   5.268   2.204
 2739SOL    HW2 9117   1.179   5.135   2.280
 2740SOL     OW 9118   6.594   6.241   3.288
 2740SOL    HW1 9119   6.685   6.198   3.290
 2740SOL    HW2 9120   6.603   6.337   3.263
 2741SOL     OW 9121   0.847   2.084   4.821
 2741SOL    HW1 9122   0.833   1.985   4.822
 2741SOL    HW2 9123   0.769   2.129   4.865
 2742SOL     OW 9124   3.583   5.271   1.987
 2742SOL    HW1 9125   3.533   5.357   1.984
 2742SOL    HW2 9126   3.559   5.221   2.070
 2743SOL     OW 9127   5.876   4.254   2.305
 2743SOL    HW1 9128   5.783   4.286   2.284
 2743SOL    HW2 9129   5.876   4.213   2.396
 2744SOL     OW 9130   3.585   3.876   3.091
 2744SOL    HW1 9131   3.586   3.826   3.005
 2744SOL    HW2 9132   3.494   3.870   3.132
 2745SOL     OW 9133   6.840   0.267   5.821
 2745SOL    HW1 9134   6.905   0.199   5.855
 2745SOL    HW2 9135   6.851   0.278   5.723
 2746SOL     OW 9136   1.362   1.089   3.569
 2746SOL    HW1 9137   1.264   1.088   3.551
 2746SOL    HW2 9138   1.397   1.183   3.558
 2747SOL     OW 9139   3.901   6.094   0.499
 2747SOL    HW1 9140   3.910   6.160   0.424
 2747SOL    HW2 9141   3.810   6.102   0.540
 2748SOL     OW 9142   4.480   6.559   1.553
 2748SOL    HW1 9143   4.508   6.511   1.470
 2748SOL    HW2 9144   4.382   6.546   1.569
 2749SOL     OW 9145   1.901   3.565   0.440
 2749SOL    HW1 9146   1.975   3.497   0.441
 2749SOL    HW2 9147   1.889   3.600   0.347
 2750SOL     OW 9148   2.454   5.427   2.257
 2750SOL    HW1 9149   2.402   5.388   2.332
 2750SOL    HW2 9150   2.463   5.359   2.184
 2751SOL     OW 9151   0.849   3.363   1.125
 2751SOL    HW1 9152   0.913   3.411   1.065
 2751SOL    HW2 9153   0.813   3.282   1.078
 2752SOL     OW 9154   3.572   4.809   6.508
 2752SOL    HW1 9155   3.668   4.783   6.516
 2752SOL    HW2 9156   3.514   4.733   6.539
 2753SOL     OW 9157   6.128   5.764   5.141
 2753SOL    HW1 9158   6.055   5.715   5.188
 2753SOL    HW2 9159   6.196   5.794   5.208
 2754SOL     OW 9160   0.725   6.718   6.636
 2754SOL    HW1 9161   0.766   6.776   6.706
 2754SOL    HW2 9162   0.796   6.670   6.586
 2755SOL     OW 9163   2.749   6.824   3.284
 2755SOL    HW1 9164   2.835   6.786   3.318
 2755SOL    HW2 9165   2.765   6.917   3.251
 2756SOL     OW 9166   4.798   6.131   0.109
 2756SOL    HW1 9167   4.841   6.075   0.179
 2756SOL    HW2 9168   4.824   6.227   0.121
 2757SOL     OW 9169   0.795   5.004   1.444
 2757SOL    HW1 9170   0.773   5.042   1.534
 2757SOL    HW2 9171   0.713   5.002   1.388
 2758SOL     OW 9172   4.549   0.272   5.730
 2758SOL    HW1 9173   4.599   0.345   5.777
 2758SOL    HW2 9174   4.605   0.189   5.728
 2759SOL     OW 9175   5.663   6.759   4.273
 2759SOL    HW1 9176   5.715   6.838   4.307
 2759SOL    HW2 9177   5.590   6.737   4.337
 2760SOL     OW 9178   2.455   5.027   2.443
 2760SOL    HW1 9179   2.419   4.985   2.526
 2760SOL    HW2 9180   2.445   4.963   2.366
 2761SOL     OW 9181   2.021   5.394   2.741
 2761SOL    HW1 9182   2.076   5.320   2.779
 2761SOL    HW2 9183   2.073   5.480   2.745
 2762SOL     OW 9184   0.968   6.782   5.560
 2762SOL    HW1 9185   0.975   6.807   5.464
 2762SOL    HW2 9186   1.038   6.831   5.613
 2763SOL     OW 9187   5.457   1.805   3.914
 2763SOL    HW1 9188   5.521   1.882   3.911
 2763SOL    HW2 9189   5.506   1.720   3.893
 2764SOL     OW 9190   5.693   0.706   1.245
 2764SOL    HW1 9191   5.687   0.692   1.147
 2764SOL    HW2 9192   5.705   0.618   1.291
 2765SOL     OW 9193   5.783   1.083   1.795
 2765SOL    HW1 9194   5.807   1.074   1.892
 2765SOL    HW2 9195   5.778   1.180   1.770
 2766SOL     OW 9196   5.906   1.632   1.515
 2766SOL    HW1 9197   5.963   1.632   1.432
 2766SOL    HW2 9198   5.847   1.552   1.516
 2767SOL     OW 9199   5.412   3.409   6.227
 2767SOL    HW1 9200   5.411   3.373   6.320
 2767SOL    HW2 9201   5.387   3.506   6.229
 2768SOL     OW 9202   5.161   1.333   6.905
 2768SOL    HW1 9203   5.170   1.315   7.003
 2768SOL    HW2 9204   5.064   1.334   6.880
 2769SOL     OW 9205   7.003   4.365   1.451
 2769SOL    HW1 9206   0.037   4.280   1.455
 2769SOL    HW2 9207   6.912   4.348   1.414
 2770SOL     OW 9208   1.302   5.100   1.429
 2770SOL    HW1 9209   1.338   5.027   1.371
 2770SOL    HW2 9210   1.217   5.070   1.472
 2771SOL     OW 9211   5.679   2.092   1.102
 2771SOL    HW1 9212   5.645   2.173   1.150
 2771SOL    HW2 9213   5.677   2.109   1.003
 2772SOL     OW 9214   4.091   2.349   6.853
 2772SOL    HW1 9215   4.165   2.331   6.789
 2772SOL    HW2 9216   4.095   2.283   6.928
 2773SOL     OW 9217   3.926   4.404   6.523
 2773SOL    HW1 9218   3.869   4.407   6.605
 2773SOL    HW2 9219   4.001   4.469   6.533
 2774SOL     OW 9220   5.397   3.027   2.045
 2774SOL    HW1 9221   5.305   3.002   2.014
 2774SOL    HW2 9222   5.448   2.945   2.067
 2775SOL     OW 9223   0.314   5.408   1.099
 2775SOL    HW1 9224   0.396   5.461   1.077
 2775SOL    HW2 9225   0.233   5.466   1.096
 2776SOL     OW 9226   3.646   6.723   6.477
 2776SOL    HW1 9227   3.740   6.702   6.505
 2776SOL    HW2 9228   3.644   6.741   6.379
 2777SOL     OW 9229   3.222   1.470   2.684
 2777SOL    HW1 9230   3.208   1.478   2.586
 2777SOL    HW2 9231   3.174   1.390   2.719
 2778SOL     OW 9232   2.332   1.903   5.883
 2778SOL    HW1 9233   2.399   1.967   5.920
 2778SOL    HW2 9234   2.337   1.816   5.932
 2779SOL     OW 9235   5.216   0.261   6.574
 2779SOL    HW1 9236   5.282   0.191   6.548
 2779SOL    HW2 9237   5.127   0.241   6.533
 2780SOL     OW 9238   4.818   5.009   5.986
 2780SOL    HW1 9239   4.915   5.028   5.967
 2780SOL    HW2 9240   4.802   4.911   5.980
 2781SOL     OW 9241   5.814   4.382   1.376
 2781SOL    HW1 9242   5.761   4.430   1.446
 2781SOL    HW2 9243   5.882   4.322   1.420
 2782SOL     OW 9244   3.176   2.746   6.363
 2782SOL    HW1 9245   3.103   2.760   6.296
 2782SOL    HW2 9246   3.237   2.674   6.330
 2783SOL     OW 9247   0.124   4.629   5.358
 2783SOL    HW1 9248   0.157   4.641   5.264
 2783SOL    HW2 9249   0.139   4.535   5.387
 2784SOL     OW 9250   2.020   2.662   1.086
 2784SOL    HW1 9251   2.109   2.638   1.047
 2784SOL    HW2 9252   1.976   2.579   1.121
 2785SOL     OW 9253   6.599   0.837   0.148
 2785SOL    HW1 9254   6.649   0.788   0.076
 2785SOL    HW2 9255   6.505   0.803   0.152
 2786SOL     OW 9256   4.193   6.022   1.128
 2786SOL    HW1 9257   4.290   6.001   1.114
 2786SOL    HW2 9258   4.184   6.090   1.200
 2787SOL     OW 9259   1.927   2.829   6.356
 2787SOL    HW1 9260   1.911   2.917   6.401
 2787SOL    HW2 9261   2.023   2.803   6.368
 2788SOL     OW 9262   2.875   4.493   0.896
 2788SOL    HW1 9263   2.777   4.486   0.882
 2788SOL    HW2 9264   2.899   4.458   0.986
 2789SOL     OW 9265   0.920   1.644   4.290
 2789SOL    HW1 9266   0.886   1.697   4.213
 2789SOL    HW2 9267   1.008   1.681   4.319
 2790SOL     OW 9268   3.663   4.934   2.996
 2790SOL    HW1 9269   3.568   4.904   2.992
 2790SOL    HW2 9270   3.694   4.933   3.092
 2791SOL     OW 9271   1.647   3.653   4.760
 2791SOL    HW1 9272   1.588   3.652   4.841
 2791SOL    HW2 9273   1.594   3.683   4.680
 2792SOL     OW 9274   0.464   0.970   5.156
 2792SOL    HW1 9275   0.458   1.069   5.153
 2792SOL    HW2 9276   0.501   0.937   5.069
 2793SOL     OW 9277   5.540   1.255   2.589
 2793SOL    HW1 9278   5.472   1.185   2.568
 2793SOL    HW2 9279   5.527   1.333   2.527
 2794SOL     OW 9280   0.161   1.490   0.208
 2794SOL    HW1 9281   0.194   1.432   0.133
 2794SOL    HW2 9282   0.224   1.485   0.285
 2795SOL     OW 9283   2.962   3.943   1.423
 2795SOL    HW1 9284   3.059   3.929   1.441
 2795SOL    HW2 9285   2.915   3.854   1.419
 2796SOL     OW 9286   5.810   4.072   2.869
 2796SOL    HW1 9287   5.776   4.022   2.949
 2796SOL    HW2 9288   5.892   4.026   2.834
 2797SOL     OW 9289   4.617   5.358   4.989
 2797SOL    HW1 9290   4.578   5.354   4.897
 2797SOL    HW2 9291   4.604   5.269   5.034
 2798SOL     OW 9292   1.102   3.306   3.744
 2798SOL    HW1 9293   1.095   3.208   3.762
 2798SOL    HW2 9294   1.074   3.326   3.650
 2799SOL     OW 9295   6.755   5.188   6.380
 2799SOL    HW1 9296   6.713   5.231   6.300
 2799SOL    HW2 9297   6.840   5.234   6.402
 2800SOL     OW 9298   3.156   5.397   6.419
 2800SOL    HW1 9299   3.167   5.392   6.518
 2800SOL    HW2 9300   3.076   5.344   6.392
 2801SOL     OW 9301   4.841   5.322   2.516
 2801SOL    HW1 9302   4.828   5.417   2.487
 2801SOL    HW2 9303   4.930   5.313   2.560
 2802SOL     OW 9304   4.209   2.020   5.773
 2802SOL    HW1 9305   4.112   2.043   5.773
 2802SOL    HW2 9306   4.256   2.076   5.704
 2803SOL     OW 9307   2.504   6.921   6.211
 2803SOL    HW1 9308   2.503   7.011   6.254
 2803SOL    HW2 9309   2.596   6.883   6.217
 2804SOL     OW 9310   6.313   4.740   3.880
 2804SOL    HW1 9311   6.358   4.829   3.884
 2804SOL    HW2 9312   6.383   4.668   3.877
 2805SOL     OW 9313   4.976   3.058   0.981
 2805SOL    HW1 9314   4.923   3.117   1.042
 2805SOL    HW2 9315   4.914   2.996   0.933
 2806SOL     OW 9316   5.945   5.314   2.908
 2806SOL    HW1 9317   5.963   5.340   3.003
 2806SOL    HW2 9318   6.013   5.246   2.879
 2807SOL     OW 9319   4.084   4.871   3.737
 2807SOL    HW1 9320   4.155   4.843   3.673
 2807SOL    HW2 9321   4.024   4.938   3.692
 2808SOL     OW 9322   5.571   1.261   3.312
 2808SOL    HW1 9323   5.486   1.226   3.350
 2808SOL    HW2 9324   5.644   1.253   3.381
 2809SOL     OW 9325   6.200   2.386   1.013
 2809SOL    HW1 9326   6.298   2.380   0.991
 2809SOL    HW2 9327   6.153   2.438   0.942
 2810SOL     OW 9328   2.812   0.225   5.425
 2810SOL    HW1 9329   2.714   0.205   5.416
 2810SOL    HW2 9330   2.832   0.248   5.520
 2811SOL     OW 9331   0.694   1.110   3.109
 2811SOL    HW1 9332   0.760   1.036   3.121
 2811SOL    HW2 9333   0.714   1.184   3.173
 2812SOL     OW 9334   5.311   3.656   2.771
 2812SOL    HW1 9335   5.370   3.577   2.786
 2812SOL    HW2 9336   5.268   3.649   2.681
 2813SOL     OW 9337   5.739   6.685   5.891
 2813SOL    HW1 9338   5.783   6.773   5.903
 2813SOL    HW2 9339   5.800   6.612   5.921
 2814SOL     OW 9340   4.221   3.890   5.544
 2814SOL    HW1 9341   4.307   3.839   5.547
 2814SOL    HW2 9342   4.239   3.985   5.518
 2815SOL     OW 9343   6.500   1.260   4.721
 2815SOL    HW1 9344   6.439   1.336   4.743
 2815SOL    HW2 9345   6.554   1.236   4.801
 2816SOL     OW 9346   5.873   0.106   3.767
 2816SOL    HW1 9347   5.860   0.121   3.669
 2816SOL    HW2 9348   5.948   0.163   3.800
 2817SOL     OW 9349   1.758   1.001   1.925
 2817SOL    HW1 9350   1.749   1.002   2.025
 2817SOL    HW2 9351   1.848   1.036   1.900
 2818SOL     OW 9352   6.737   4.811   6.085
 2818SOL    HW1 9353   6.724   4.852   6.176
 2818SOL    HW2 9354   6.824   4.762   6.082
 2819SOL     OW 9355   0.217   3.297   0.435
 2819SOL    HW1 9356   0.135   3.317   0.487
 2819SOL    HW2 9357   0.192   3.254   0.348
 2820SOL     OW 9358   0.194   2.665   2.646
 2820SOL    HW1 9359   0.176   2.702   2.737
 2820SOL    HW2 9360   0.161   2.729   2.577
 2821SOL     OW 9361   1.464   4.510   5.318
 2821SOL    HW1 9362   1.533   4.528   5.387
 2821SOL    HW2 9363   1.459   4.412   5.300
 2822SOL     OW 9364   4.992   2.007   0.146
 2822SOL    HW1 9365   5.067   2.016   0.080
 2822SOL    HW2 9366   5.016   2.057   0.230
 2823SOL     OW 9367   2.573   6.993   2.433
 2823SOL    HW1 9368   2.643   0.008   2.495
 2823SOL    HW2 9369   2.608   6.915   2.380
 2824SOL     OW 9370   2.325   1.362   5.288
 2824SOL    HW1 9371   2.263   1.439   5.272
 2824SOL    HW2 9372   2.377   1.344   5.204
 2825SOL     OW 9373   6.960   6.490   1.050
 2825SOL    HW1 9374   6.912   6.568   1.010
 2825SOL    HW2 9375   6.977   6.421   0.980
 2826SOL     OW 9376   5.109   2.026   5.354
 2826SOL    HW1 9377   5.121   2.065   5.262
 2826SOL    HW2 9378   5.035   1.959   5.353
 2827SOL     OW 9379   6.488   1.063   5.108
 2827SOL    HW1 9380   6.400   1.089   5.067
 2827SOL    HW2 9381   6.481   1.072   5.207
 2828SOL     OW 9382   4.058   0.872   6.479
 2828SOL    HW1 9383   4.059   0.933   6.559
 2828SOL    HW2 9384   4.128   0.901   6.414
 2829SOL     OW 9385   3.888   5.960   6.114
 2829SOL    HW1 9386   3.798   5.955   6.071
 2829SOL    HW2 9387   3.889   5.901   6.196
 2830SOL     OW 9388   4.831   3.306   6.300
 2830SOL    HW1 9389   4.923   3.326   6.333
 2830SOL    HW2 9390   4.806   3.213   6.326
 2831SOL     OW 9391   5.735   6.500   4.197
 2831SOL    HW1 9392   5.729   6.598   4.215
 2831SOL    HW2 9393   5.700   6.480   4.106
 2832SOL     OW 9394   0.320   1.256   1.016
 2832SOL    HW1 9395   0.370   1.213   1.091
 2832SOL    HW2 9396   0.342   1.354   1.013
 2833SOL     OW 9397   6.132   2.524   1.901
 2833SOL    HW1 9398   6.159   2.437   1.942
 2833SOL    HW2 9399   6.108   2.509   1.805
 2834SOL     OW 9400   3.751   1.470   6.081
 2834SOL    HW1 9401   3.665   1.458   6.032
 2834SOL    HW2 9402   3.767   1.568   6.097
 2835SOL     OW 9403   0.668   6.413   2.304
 2835SOL    HW1 9404   0.619   6.412   2.391
 2835SOL    HW2 9405   0.766   6.402   2.321
 2836SOL     OW 9406   0.160   0.129   1.836
 2836SOL    HW1 9407   0.170   0.044   1.783
 2836SOL    HW2 9408   0.066   0.161   1.828
 2837SOL     OW 9409   5.440   3.655   3.420
 2837SOL    HW1 9410   5.382   3.695   3.350
 2837SOL    HW2 9411   5.387   3.640   3.503
 2838SOL     OW 9412   2.619   4.714   1.835
 2838SOL    HW1 9413   2.595   4.792   1.893
 2838SOL    HW2 9414   2.710   4.681   1.859
 2839SOL     OW 9415   5.858   1.839   1.665
 2839SOL    HW1 9416   5.858   1.842   1.764
 2839SOL    HW2 9417   5.883   1.747   1.634
 2840SOL     OW 9418   0.094   1.550   5.521
 2840SOL    HW1 9419   0.148   1.583   5.443
 2840SOL    HW2 9420   0.118   1.455   5.540
 2841SOL     OW 9421   1.113   5.787   0.992
 2841SOL    HW1 9422   1.174   5.779   0.912
 2841SOL    HW2 9423   1.161   5.756   1.074
 2842SOL     OW 9424   6.854   3.395   3.699
 2842SOL    HW1 9425   6.755   3.387   3.690
 2842SOL    HW2 9426   6.896   3.305   3.689
 2843SOL     OW 9427   3.421   0.904   5.046
 2843SOL    HW1 9428   3.337   0.918   4.994
 2843SOL    HW2 9429   3.496   0.954   5.003
 2844SOL     OW 9430   1.052   4.248   7.014
 2844SOL    HW1 9431   1.000   4.172   0.036
 2844SOL    HW2 9432   1.111   4.213   6.941
 2845SOL     OW 9433   0.660   3.992   7.006
 2845SOL    HW1 9434   0.705   3.917   6.958
 2845SOL    HW2 9435   0.596   3.955   0.056
 2846SOL     OW 9436   4.818   1.323   0.095
 2846SOL    HW1 9437   4.875   1.368   0.163
 2846SOL    HW2 9438   4.847   1.351   0.003
 2847SOL     OW 9439   6.045   4.219   3.564
 2847SOL    HW1 9440   5.947   4.223   3.580
 2847SOL    HW2 9441   6.089   4.301   3.600
 2848SOL     OW 9442   0.517   4.975   5.445
 2848SOL    HW1 9443   0.536   4.972   5.347
 2848SOL    HW2 9444   0.599   4.950   5.496
 2849SOL     OW 9445   3.208   1.662   0.532
 2849SOL    HW1 9446   3.245   1.622   0.448
 2849SOL    HW2 9447   3.181   1.757   0.514
 2850SOL     OW 9448   3.387   0.370   1.431
 2850SOL    HW1 9449   3.451   0.396   1.503
 2850SOL    HW2 9450   3.301   0.340   1.471
 2851SOL     OW 9451   0.989   4.551   5.406
 2851SOL    HW1 9452   1.062   4.603   5.452
 2851SOL    HW2 9453   0.997   4.563   5.308
 2852SOL     OW 9454   6.122   3.227   6.813
 2852SOL    HW1 9455   6.095   3.189   6.902
 2852SOL    HW2 9456   6.115   3.327   6.817
 2853SOL     OW 9457   3.337   2.564   0.975
 2853SOL    HW1 9458   3.380   2.489   1.025
 2853SOL    HW2 9459   3.382   2.650   0.999
 2854SOL     OW 9460   2.549   0.625   4.463
 2854SOL    HW1 9461   2.571   0.562   4.389
 2854SOL    HW2 9462   2.508   0.709   4.425
 2855SOL     OW 9463   2.033   0.605   5.431
 2855SOL    HW1 9464   1.980   0.649   5.358
 2855SOL    HW2 9465   2.015   0.651   5.518
 2856SOL     OW 9466   2.540   2.435   5.247
 2856SOL    HW1 9467   2.604   2.493   5.297
 2856SOL    HW2 9468   2.447   2.456   5.275
 2857SOL     OW 9469   2.660   2.223   1.291
 2857SOL    HW1 9470   2.646   2.261   1.382
 2857SOL    HW2 9471   2.595   2.264   1.227
 2858SOL     OW 9472   6.381   2.598   2.506
 2858SOL    HW1 9473   6.327   2.637   2.431
 2858SOL    HW2 9474   6.478   2.612   2.489
 2859SOL     OW 9475   4.979   0.989   0.750
 2859SOL    HW1 9476   4.961   0.898   0.711
 2859SOL    HW2 9477   5.015   0.979   0.842
 2860SOL     OW 9478   3.927   1.719   1.646
 2860SOL    HW1 9479   3.859   1.770   1.594
 2860SOL    HW2 9480   3.936   1.758   1.737
 2861SOL     OW 9481   4.261   6.016   5.642
 2861SOL    HW1 9482   4.302   6.080   5.706
 2861SOL    HW2 9483   4.251   6.059   5.552
 2862SOL     OW 9484   5.169   1.480   3.756
 2862SOL    HW1 9485   5.082   1.522   3.780
 2862SOL    HW2 9486   5.166   1.448   3.661
 2863SOL     OW 9487   6.194   1.934   0.193
 2863SOL    HW1 9488   6.225   2.000   0.125
 2863SOL    HW2 9489   6.237   1.953   0.281
 2864SOL     OW 9490   3.997   0.611   1.621
 2864SOL    HW1 9491   3.934   0.687   1.636
 2864SOL    HW2 9492   3.955   0.543   1.561
 2865SOL     OW 9493   4.441   4.409   5.343
 2865SOL    HW1 9494   4.360   4.396   5.286
 2865SOL    HW2 9495   4.519   4.434   5.285
 2866SOL     OW 9496   6.960   5.724   6.866
 2866SOL    HW1 9497   6.913   5.727   6.954
 2866SOL    HW2 9498   6.927   5.797   6.807
 2867SOL     OW 9499   6.323   5.276   2.629
 2867SOL    HW1 9500   6.259   5.234   2.565
 2867SOL    HW2 9501   6.285   5.363   2.661
 2868SOL     OW 9502   0.392   3.961   5.156
 2868SOL    HW1 9503   0.364   4.015   5.236
 2868SOL    HW2 9504   0.409   4.022   5.079
 2869SOL     OW 9505   5.885   0.427   2.076
 2869SOL    HW1 9506   5.928   0.367   2.144
 2869SOL    HW2 9507   5.841   0.504   2.123
 2870SOL     OW 9508   6.347   2.289   3.330
 2870SOL    HW1 9509   6.319   2.280   3.426
 2870SOL    HW2 9510   6.276   2.338   3.280
 2871SOL     OW 9511   2.104   2.032   6.662
 2871SOL    HW1 9512   2.074   2.118   6.620
 2871SOL    HW2 9513   2.025   1.975   6.681
 2872SOL     OW 9514   2.524   0.434   4.191
 2872SOL    HW1 9515   2.547   0.526   4.158
 2872SOL    HW2 9516   2.574   0.366   4.137
 2873SOL     OW 9517   1.088   5.767   2.913
 2873SOL    HW1 9518   1.186   5.759   2.930
 2873SOL    HW2 9519   1.068   5.858   2.877
 2874SOL     OW 9520   5.423   4.081   2.404
 2874SOL    HW1 9521   5.358   4.136   2.351
 2874SOL    HW2 9522   5.372   4.023   2.468
 2875SOL     OW 9523   3.443   6.265   6.056
 2875SOL    HW1 9524   3.425   6.224   5.966
 2875SOL    HW2 9525   3.415   6.200   6.127
 2876SOL     OW 9526   0.790   1.185   1.403
 2876SOL    HW1 9527   0.836   1.198   1.315
 2876SOL    HW2 9528   0.737   1.266   1.426
 2877SOL     OW 9529   2.855   2.855   5.378
 2877SOL    HW1 9530   2.930   2.900   5.330
 2877SOL    HW2 9531   2.778   2.919   5.388
 2878SOL     OW 9532   2.403   4.699   4.726
 2878SOL    HW1 9533   2.458   4.692   4.809
 2878SOL    HW2 9534   2.461   4.680   4.647
 2879SOL     OW 9535   4.781   5.202   6.845
 2879SOL    HW1 9536   4.699   5.226   6.793
 2879SOL    HW2 9537   4.792   5.267   6.921
 2880SOL     OW 9538   0.735   5.988   1.235
 2880SOL    HW1 9539   0.808   5.921   1.248
 2880SOL    HW2 9540   0.769   6.079   1.259
 2881SOL     OW 9541   6.331   6.229   0.621
 2881SOL    HW1 9542   6.270   6.209   0.544
 2881SOL    HW2 9543   6.310   6.167   0.697
 2882SOL     OW 9544   7.015   3.097   2.310
 2882SOL    HW1 9545   0.043   3.166   2.252
 2882SOL    HW2 9546   6.916   3.110   2.304
 2883SOL     OW 9547   3.781   6.921   2.875
 2883SOL    HW1 9548   3.873   6.894   2.901
 2883SOL    HW2 9549   3.778   6.940   2.777
 2884SOL     OW 9550   0.950   6.221   2.933
 2884SOL    HW1 9551   0.876   6.200   2.998
 2884SOL    HW2 9552   0.924   6.300   2.877
 2885SOL     OW 9553   0.609   2.170   2.801
 2885SOL    HW1 9554   0.545   2.151   2.726
 2885SOL    HW2 9555   0.690   2.113   2.790
 2886SOL     OW 9556   1.608   2.373   0.157
 2886SOL    HW1 9557   1.633   2.277   0.142
 2886SOL    HW2 9558   1.614   2.423   0.071
 2887SOL     OW 9559   2.144   0.422   4.864
 2887SOL    HW1 9560   2.209   0.497   4.870
 2887SOL    HW2 9561   2.193   0.335   4.858
 2888SOL     OW 9562   6.568   4.428   6.800
 2888SOL    HW1 9563   6.654   4.384   6.825
 2888SOL    HW2 9564   6.496   4.359   6.790
 2889SOL     OW 9565   0.765   0.903   1.768
 2889SOL    HW1 9566   0.839   0.958   1.730
 2889SOL    HW2 9567   0.804   0.826   1.819
 2890SOL     OW 9568   3.347   0.697   1.575
 2890SOL    HW1 9569   3.264   0.640   1.572
 2890SOL    HW2 9570   3.378   0.715   1.482
 2891SOL     OW 9571   1.969   4.307   3.511
 2891SOL    HW1 9572   1.884   4.335   3.554
 2891SOL    HW2 9573   1.950   4.237   3.441
 2892SOL     OW 9574   3.426   4.388   6.443
 2892SOL    HW1 9575   3.471   4.342   6.520
 2892SOL    HW2 9576   3.465   4.353   6.357
 2893SOL     OW 9577   2.701   6.865   4.962
 2893SOL    HW1 9578   2.788   6.831   4.926
 2893SOL    HW2 9579   2.649   6.908   4.889
 2894SOL     OW 9580   2.867   2.833   0.114
 2894SOL    HW1 9581   2.777   2.824   0.157
 2894SOL    HW2 9582   2.860   2.804   0.018
 2895SOL     OW 9583   3.963   3.279   6.379
 2895SOL    HW1 9584   3.992   3.221   6.303
 2895SOL    HW2 9585   4.043   3.323   6.420
 2896SOL     OW 9586   2.301   5.452   6.863
 2896SOL    HW1 9587   2.248   5.516   6.917
 2896SOL    HW2 9588   2.319   5.369   6.917
 2897SOL     OW 9589   2.461   6.544   3.406
 2897SOL    HW1 9590   2.528   6.485   3.451
 2897SOL    HW2 9591   2.375   6.494   3.395
 2898SOL     OW 9592   4.313   5.252   2.553
 2898SOL    HW1 9593   4.252   5.176   2.532
 2898SOL    HW2 9594   4.307   5.275   2.650
 2899SOL     OW 9595   0.186   0.088   6.584
 2899SOL    HW1 9596   0.100   0.139   6.579
 2899SOL    HW2 9597   0.193   0.044   6.674
 2900SOL     OW 9598   0.960   4.971   5.533
 2900SOL    HW1 9599   0.981   5.031   5.611
 2900SOL    HW2 9600   1.038   4.912   5.515
 2901SOL     OW 9601   2.796   0.706   2.715
 2901SOL    HW1 9602   2.702   0.728   2.740
 2901SOL    HW2 9603   2.849   0.790   2.705
 2902SOL     OW 9604   5.442   6.583   0.694
 2902SOL    HW1 9605   5.476   6.650   0.628
 2902SOL    HW2 9606   5.342   6.581   0.691
 2903SOL     OW 9607   2.368   1.106   2.039
 2903SOL    HW1 9608   2.408   1.141   2.124
 2903SOL    HW2 9609   2.398   1.162   1.962
 2904SOL     OW 9610   2.261   3.429   5.195
 2904SOL    HW1 9611   2.280   3.522   5.167
 2904SOL    HW2 9612   2.255   3.370   5.115
 2905SOL     OW 9613   1.499   0.869   2.333
 2905SOL    HW1 9614   1.446   0.946   2.297
 2905SOL    HW2 9615   1.564   0.902   2.402
 2906SOL     OW 9616   5.599   5.106   2.337
 2906SOL    HW1 9617   5.627   5.066   2.424
 2906SOL    HW2 9618   5.646   5.060   2.262
 2907SOL     OW 9619   0.110   2.164   5.349
 2907SOL    HW1 9620   0.056   2.085   5.374
 2907SOL    HW2 9621   0.166   2.193   5.427
 2908SOL     OW 9622   4.051   6.815   4.170
 2908SOL    HW1 9623   4.045   6.752   4.248
 2908SOL    HW2 9624   3.983   6.887   4.180
 2909SOL     OW 9625   1.071   5.651   4.287
 2909SOL    HW1 9626   1.038   5.743   4.308
 2909SOL    HW2 9627   1.024   5.585   4.346
 2910SOL     OW 9628   3.803   6.498   4.909
 2910SOL    HW1 9629   3.818   6.576   4.848
 2910SOL    HW2 9630   3.767   6.421   4.857
 2911SOL     OW 9631   2.216   4.672   3.354
 2911SOL    HW1 9632   2.181   4.580   3.335
 2911SOL    HW2 9633   2.258   4.709   3.271
 2912SOL     OW 9634   2.845   6.019   0.355
 2912SOL    HW1 9635   2.782   6.085   0.396
 2912SOL    HW2 9636   2.878   5.956   0.425
 2913SOL     OW 9637   1.432   3.601   2.216
 2913SOL    HW1 9638   1.483   3.588   2.131
 2913SOL    HW2 9639   1.496   3.627   2.289
 2914SOL     OW 9640   5.570   4.509   6.145
 2914SOL    HW1 9641   5.502   4.443   6.112
 2914SOL    HW2 9642   5.639   4.523   6.074
 2915SOL     OW 9643   4.268   1.136   4.415
 2915SOL    HW1 9644   4.193   1.189   4.373
 2915SOL    HW2 9645   4.313   1.082   4.345
 2916SOL     OW 9646   6.231   4.315   5.246
 2916SOL    HW1 9647   6.273   4.367   5.172
 2916SOL    HW2 9648   6.300   4.294   5.316
 2917SOL     OW 9649   4.119   0.075   1.140
 2917SOL    HW1 9650   4.164   0.164   1.141
 2917SOL    HW2 9651   4.038   0.078   1.198
 2918SOL     OW 9652   0.556   3.747   3.206
 2918SOL    HW1 9653   0.458   3.730   3.192
 2918SOL    HW2 9654   0.589   3.689   3.281
 2919SOL     OW 9655   6.653   6.481   0.340
 2919SOL    HW1 9656   6.591   6.441   0.407
 2919SOL    HW2 9657   6.739   6.506   0.384
 2920SOL     OW 9658   3.920   2.125   2.627
 2920SOL    HW1 9659   3.907   2.142   2.530
 2920SOL    HW2 9660   3.962   2.035   2.640
 2921SOL     OW 9661   0.040   1.309   2.761
 2921SOL    HW1 9662   0.099   1.259   2.825
 2921SOL    HW2 9663   6.986   1.248   2.727
 2922SOL     OW 9664   4.739   0.041   5.716
 2922SOL    HW1 9665   4.707   0.026   5.622
 2922SOL    HW2 9666   4.834   0.070   5.714
 2923SOL     OW 9667   6.852   4.844   2.355
 2923SOL    HW1 9668   6.769   4.788   2.355
 2923SOL    HW2 9669   6.840   4.922   2.416
 2924SOL     OW 9670   0.642   1.162   5.824
 2924SOL    HW1 9671   0.700   1.207   5.892
 2924SOL    HW2 9672   0.677   1.181   5.733
 2925SOL     OW 9673   5.259   2.976   1.661
 2925SOL    HW1 9674   5.219   2.972   1.753
 2925SOL    HW2 9675   5.263   2.884   1.623
 2926SOL     OW 9676   6.817   1.931   4.923
 2926SOL    HW1 9677   6.902   1.979   4.903
 2926SOL    HW2 9678   6.802   1.861   4.853
 2927SOL     OW 9679   1.124   2.599   2.589
 2927SOL    HW1 9680   1.085   2.551   2.511
 2927SOL    HW2 9681   1.167   2.533   2.651
 2928SOL     OW 9682   6.757   0.224   6.682
 2928SOL    HW1 9683   6.818   0.145   6.668
 2928SOL    HW2 9684   6.726   0.258   6.593
 2929SOL     OW 9685   0.899   0.511   6.727
 2929SOL    HW1 9686   0.904   0.557   6.815
 2929SOL    HW2 9687   0.927   0.416   6.738
 2930SOL     OW 9688   5.277   0.229   4.600
 2930SOL    HW1 9689   5.347   0.270   4.659
 2930SOL    HW2 9690   5.240   0.147   4.644
 2931SOL     OW 9691   4.745   6.246   6.546
 2931SOL    HW1 9692   4.788   6.165   6.586
 2931SOL    HW2 9693   4.691   6.218   6.465
 2932SOL     OW 9694   1.212   4.027   1.481
 2932SOL    HW1 9695   1.150   4.005   1.556
 2932SOL    HW2 9696   1.191   4.118   1.445
 2933SOL     OW 9697   5.391   3.325   3.960
 2933SOL    HW1 9698   5.417   3.233   3.932
 2933SOL    HW2 9699   5.296   3.325   3.992
 2934SOL     OW 9700   3.270   0.183   0.318
 2934SOL    HW1 9701   3.199   0.130   0.363
 2934SOL    HW2 9702   3.335   0.122   0.274
 2935SOL     OW 9703   6.304   3.794   1.226
 2935SOL    HW1 9704   6.349   3.787   1.137
 2935SOL    HW2 9705   6.321   3.710   1.278
 2936SOL     OW 9706   4.831   5.588   0.786
 2936SOL    HW1 9707   4.758   5.624   0.845
 2936SOL    HW2 9708   4.815   5.616   0.692
 2937SOL     OW 9709   3.628   5.171   0.835
 2937SOL    HW1 9710   3.620   5.253   0.891
 2937SOL    HW2 9711   3.560   5.103   0.865
 2938SOL     OW 9712   4.833   5.677   5.563
 2938SOL    HW1 9713   4.771   5.725   5.625
 2938SOL    HW2 9714   4.842   5.582   5.593
 2939SOL     OW 9715   6.111   0.147   5.242
 2939SOL    HW1 9716   6.190   0.088   5.227
 2939SOL    HW2 9717   6.033   0.111   5.191
 2940SOL     OW 9718   5.602   0.135   5.164
 2940SOL    HW1 9719   5.611   0.190   5.081
 2940SOL    HW2 9720   5.612   0.038   5.141
 2941SOL     OW 9721   0.715   1.952   5.104
 2941SOL    HW1 9722   0.664   2.037   5.120
 2941SOL    HW2 9723   0.671   1.900   5.031
 2942SOL     OW 9724   3.317   0.499   2.131
 2942SOL    HW1 9725   3.223   0.480   2.101
 2942SOL    HW2 9726   3.369   0.414   2.135
 2943SOL     OW 9727   6.087   3.241   2.774
 2943SOL    HW1 9728   6.117   3.177   2.703
 2943SOL    HW2 9729   6.158   3.250   2.843
 2944SOL     OW 9730   3.490   4.949   4.957
 2944SOL    HW1 9731   3.415   4.885   4.945
 2944SOL    HW2 9732   3.504   5.001   4.873
 2945SOL     OW 9733   3.338   3.224   3.225
 2945SOL    HW1 9734   3.292   3.196   3.141
 2945SOL    HW2 9735   3.349   3.146   3.285
 2946SOL     OW 9736   6.702   5.896   5.989
 2946SOL    HW1 9737   6.638   5.969   5.966
 2946SOL    HW2 9738   6.691   5.820   5.925
 2947SOL     OW 9739   6.650   3.750   6.374
 2947SOL    HW1 9740   6.581   3.805   6.326
 2947SOL    HW2 9741   6.731   3.807   6.391
 2948SOL     OW 9742   6.271   3.893   4.999
 2948SOL    HW1 9743   6.257   3.865   4.904
 2948SOL    HW2 9744   6.298   3.814   5.054
 2949SOL     OW 9745   1.957   6.626   0.782
 2949SOL    HW1 9746   1.874   6.663   0.826
 2949SOL    HW2 9747   1.951   6.640   0.684
 2950SOL     OW 9748   6.089   3.539   4.321
 2950SOL    HW1 9749   6.002   3.510   4.280
 2950SOL    HW2 9750   6.079   3.541   4.420
 2951SOL     OW 9751   0.314   1.805   0.172
 2951SOL    HW1 9752   0.261   1.730   0.132
 2951SOL    HW2 9753   0.411   1.794   0.151
 2952SOL     OW 9754   1.294   4.164   3.173
 2952SOL    HW1 9755   1.312   4.078   3.222
 2952SOL    HW2 9756   1.277   4.144   3.077
 2953SOL     OW 9757   4.666   2.047   2.366
 2953SOL    HW1 9758   4.678   2.009   2.274
 2953SOL    HW2 9759   4.728   2.124   2.379
 2954SOL     OW 9760   0.418   6.569   2.381
 2954SOL    HW1 9761   0.397   6.601   2.289
 2954SOL    HW2 9762   0.348   6.504   2.411
 2955SOL     OW 9763   0.363   3.283   0.871
 2955SOL    HW1 9764   0.436   3.257   0.809
 2955SOL    HW2 9765   0.400   3.341   0.944
 2956SOL     OW 9766   0.254   4.986   3.116
 2956SOL    HW1 9767   0.220   5.022   3.028
 2956SOL    HW2 9768   0.344   5.023   3.135
 2957SOL     OW 9769   0.096   3.885   1.337
 2957SOL    HW1 9770   0.099   3.983   1.357
 2957SOL    HW2 9771   0.003   3.851   1.351
 2958SOL     OW 9772   1.342   4.600   5.858
 2958SOL    HW1 9773   1.412   4.665   5.828
 2958SOL    HW2 9774   1.348   4.517   5.802
 2959SOL     OW 9775   5.196   4.700   6.055
 2959SOL    HW1 9776   5.255   4.751   5.993
 2959SOL    HW2 9777   5.101   4.730   6.043
 2960SOL     OW 9778   2.810   1.895   0.034
 2960SOL    HW1 9779   2.806   1.975   6.992
 2960SOL    HW2 9780   2.838   1.923   0.126
 2961SOL     OW 9781   5.521   3.549   4.450
 2961SOL    HW1 9782   5.584   3.626   4.461
 2961SOL    HW2 9783   5.491   3.544   4.355
 2962SOL     OW 9784   4.469   1.297   3.641
 2962SOL    HW1 9785   4.563   1.263   3.635
 2962SOL    HW2 9786   4.465   1.371   3.708
 2963SOL     OW 9787   1.787   0.994   5.589
 2963SOL    HW1 9788   1.802   1.091   5.609
 2963SOL    HW2 9789   1.692   0.980   5.562
 2964SOL     OW 9790   1.752   6.467   1.707
 2964SOL    HW1 9791   1.790   6.560   1.704
 2964SOL    HW2 9792   1.669   6.467   1.763
 2965SOL     OW 9793   0.313   1.086   5.505
 2965SOL    HW1 9794   0.237   1.148   5.523
 2965SOL    HW2 9795   0.317   1.017   5.578
 2966SOL     OW 9796   5.522   4.479   3.980
 2966SOL    HW1 9797   5.442   4.463   3.923
 2966SOL    HW2 9798   5.499   4.542   4.053
 2967SOL     OW 9799   5.484   2.260   3.720
 2967SOL    HW1 9800   5.427   2.219   3.649
 2967SOL    HW2 9801   5.552   2.320   3.677
 2968SOL     OW 9802   0.565   3.833   4.388
 2968SOL    HW1 9803   0.510   3.838   4.471
 2968SOL    HW2 9804   0.510   3.794   4.313
 2969SOL     OW 9805   5.892   2.452   4.783
 2969SOL    HW1 9806   5.899   2.389   4.860
 2969SOL    HW2 9807   5.802   2.494   4.781
 2970SOL     OW 9808   0.811   4.552   6.299
 2970SOL    HW1 9809   0.833   4.608   6.219
 2970SOL    HW2 9810   0.892   4.542   6.356
 2971SOL     OW 9811   6.013   3.235   3.328
 2971SOL    HW1 9812   5.915   3.212   3.330
 2971SOL    HW2 9813   6.026   3.327   3.364
 2972SOL     OW 9814   6.260   3.395   6.424
 2972SOL    HW1 9815   6.334   3.449   6.464
 2972SOL    HW2 9816   6.261   3.303   6.464
 2973SOL     OW 9817   5.263   0.561   3.564
 2973SOL    HW1 9818   5.174   0.546   3.521
 2973SOL    HW2 9819   5.335   0.523   3.506
 2974SOL     OW 9820   6.639   4.540   2.650
 2974SOL    HW1 9821   6.586   4.601   2.709
 2974SOL    HW2 9822   6.646   4.449   2.692
 2975SOL     OW 9823   0.508   1.300   5.196
 2975SOL    HW1 9824   0.527   1.299   5.294
 2975SOL    HW2 9825   0.412   1.325   5.180
 2976SOL     OW 9826   4.280   1.402   2.979
 2976SOL    HW1 9827   4.318   1.484   2.935
 2976SOL    HW2 9828   4.333   1.322   2.952
 2977SOL     OW 9829   2.680   6.783   4.362
 2977SOL    HW1 9830   2.596   6.812   4.407
 2977SOL    HW2 9831   2.659   6.743   4.273
 2978SOL     OW 9832   4.859   4.810   0.249
 2978SOL    HW1 9833   4.805   4.895   0.250
 2978SOL    HW2 9834   4.956   4.832   0.262
 2979SOL     OW 9835   3.596   0.112   3.011
 2979SOL    HW1 9836   3.674   0.051   2.995
 2979SOL    HW2 9837   3.624   0.186   3.072
 2980SOL     OW 9838   0.770   6.323   3.990
 2980SOL    HW1 9839   0.750   6.259   3.916
 2980SOL    HW2 9840   0.824   6.399   3.955
 2981SOL     OW 9841   1.550   1.114   5.533
 2981SOL    HW1 9842   1.515   1.098   5.441
 2981SOL    HW2 9843   1.544   1.211   5.555
 2982SOL     OW 9844   4.345   5.983   2.558
 2982SOL    HW1 9845   4.384   5.892   2.540
 2982SOL    HW2 9846   4.362   6.042   2.479
 2983SOL     OW 9847   6.920   1.030   4.581
 2983SOL    HW1 9848   6.921   1.130   4.571
 2983SOL    HW2 9849   6.886   0.988   4.497
 2984SOL     OW 9850   6.163   5.379   1.813
 2984SOL    HW1 9851   6.141   5.444   1.886
 2984SOL    HW2 9852   6.248   5.405   1.769
 2985SOL     OW 9853   0.374   2.013   4.337
 2985SOL    HW1 9854   0.450   1.972   4.389
 2985SOL    HW2 9855   0.328   2.081   4.393
 2986SOL     OW 9856   1.638   3.481   5.146
 2986SOL    HW1 9857   1.608   3.389   5.120
 2986SOL    HW2 9858   1.566   3.547   5.123
 2987SOL     OW 9859   4.066   1.381   4.756
 2987SOL    HW1 9860   4.044   1.285   4.742
 2987SOL    HW2 9861   3.998   1.437   4.709
 2988SOL     OW 9862   0.983   0.467   1.492
 2988SOL    HW1 9863   0.924   0.547   1.497
 2988SOL    HW2 9864   1.073   0.493   1.457
 2989SOL     OW 9865   6.650   4.877   1.198
 2989SOL    HW1 9866   6.616   4.865   1.291
 2989SOL    HW2 9867   6.657   4.787   1.154
 2990SOL     OW 9868   3.155   0.965   2.532
 2990SOL    HW1 9869   3.098   0.955   2.450
 2990SOL    HW2 9870   3.249   0.990   2.504
 2991SOL     OW 9871   0.162   3.833   0.475
 2991SOL    HW1 9872   0.148   3.798   0.568
 2991SOL    HW2 9873   0.117   3.921   0.466
 2992SOL     OW 9874   3.153   5.855   6.408
 2992SOL    HW1 9875   3.084   5.877   6.477
 2992SOL    HW2 9876   3.198   5.939   6.378
 2993SOL     OW 9877   1.807   4.960   1.471
 2993SOL    HW1 9878   1.863   4.882   1.444
 2993SOL    HW2 9879   1.829   4.987   1.565
 2994SOL     OW 9880   4.980   0.548   0.283
 2994SOL    HW1 9881   5.035   0.629   0.265
 2994SOL    HW2 9882   5.017   0.470   0.232
 2995SOL     OW 9883   1.101   2.143   0.099
 2995SOL    HW1 9884   1.186   2.101   0.068
 2995SOL    HW2 9885   1.121   2.234   0.137
 2996SOL     OW 9886   3.089   5.009   5.538
 2996SOL    HW1 9887   3.051   4.937   5.481
 2996SOL    HW2 9888   3.033   5.020   5.620
 2997SOL     OW 9889   5.580   6.097   1.344
 2997SOL    HW1 9890   5.670   6.139   1.356
 2997SOL    HW2 9891   5.585   6.027   1.272
 2998SOL     OW 9892   5.582   6.178   3.997
 2998SOL    HW1 9893   5.667   6.146   4.038
 2998SOL    HW2 9894   5.550   6.111   3.929
 2999SOL     OW 9895   3.635   6.780   3.086
 2999SOL    HW1 9896   3.588   6.840   3.152
 2999SOL    HW2 9897   3.677   6.836   3.015
 3000SOL     OW 9898   1.322   3.120   5.632
 3000SOL    HW1 9899   1.270   3.048   5.678
 3000SOL    HW2 9900   1.339   3.194   5.697
 3001SOL     OW 9901   4.770   0.534   5.510
 3001SOL    HW1 9902   4.754   0.632   5.523
 3001SOL    HW2 9903   4.868   0.516   5.507
 3002SOL     OW 9904   4.432   0.032   5.267
 3002SOL    HW1 9905   4.352   0.060   5.321
 3002SOL    HW2 9906   4.516   0.059   5.315
 3003SOL     OW 9907   2.601   6.569   5.692
 3003SOL    HW1 9908   2.516   6.521   5.669
 3003SOL    HW2 9909   2.674   6.537   5.632
 3004SOL     OW 9910   6.258   4.083   3.995
 3004SOL    HW1 9911   6.214   4.092   3.906
 3004SOL    HW2 9912   6.356   4.103   3.986
 3005SOL     OW 9913   3.371   3.079   1.250
 3005SOL    HW1 9914   3.402   3.173   1.265
 3005SOL    HW2 9915   3.392   3.023   1.330
 3006SOL     OW 9916   5.530   1.256   1.206
 3006SOL    HW1 9917   5.627   1.246   1.182
 3006SOL    HW2 9918   5.504   1.352   1.200
 3007SOL     OW 9919   6.136   4.913   2.901
 3007SOL    HW1 9920   6.171   4.820   2.900
 3007SOL    HW2 9921   6.042   4.914   2.936
 3008SOL     OW 9922   3.160   6.714   6.396
 3008SOL    HW1 9923   3.175   6.795   6.453
 3008SOL    HW2 9924   3.163   6.741   6.300
 3009SOL     OW 9925   1.231   0.292   2.132
 3009SOL    HW1 9926   1.219   0.391   2.138
 3009SOL    HW2 9927   1.271   0.258   2.217
 3010SOL     OW 9928   3.781   5.307   2.957
 3010SOL    HW1 9929   3.748   5.340   3.046
 3010SOL    HW2 9930   3.727   5.349   2.885
 3011SOL     OW 9931   6.222   0.366   6.873
 3011SOL    HW1 9932   6.272   0.354   6.787
 3011SOL    HW2 9933   6.283   0.347   6.950
 3012SOL     OW 9934   0.279   3.629   3.532
 3012SOL    HW1 9935   0.365   3.610   3.579
 3012SOL    HW2 9936   0.203   3.589   3.585
 3013SOL     OW 9937   6.154   5.791   2.535
 3013SOL    HW1 9938   6.249   5.823   2.536
 3013SOL    HW2 9939   6.113   5.807   2.625
 3014SOL     OW 9940   5.101   1.407   4.182
 3014SOL    HW1 9941   5.167   1.448   4.245
 3014SOL    HW2 9942   5.145   1.335   4.129
 3015SOL     OW 9943   2.350   2.644   0.475
 3015SOL    HW1 9944   2.378   2.608   0.564
 3015SOL    HW2 9945   2.423   2.702   0.438
 3016SOL     OW 9946   3.604   6.199   4.163
 3016SOL    HW1 9947   3.540   6.261   4.208
 3016SOL    HW2 9948   3.560   6.157   4.084
 3017SOL     OW 9949   1.350   6.011   1.675
 3017SOL    HW1 9950   1.341   5.912   1.685
 3017SOL    HW2 9951   1.443   6.039   1.700
 3018SOL     OW 9952   4.162   0.038   6.954
 3018SOL    HW1 9953   4.242   0.092   6.982
 3018SOL    HW2 9954   4.136   6.996   0.011
 3019SOL     OW 9955   3.304   6.064   0.969
 3019SOL    HW1 9956   3.309   6.109   1.058
 3019SOL    HW2 9957   3.212   6.028   0.954
 3020SOL     OW 9958   3.092   3.550   1.967
 3020SOL    HW1 9959   3.084   3.643   1.931
 3020SOL    HW2 9960   3.027   3.538   2.042
 3021SOL     OW 9961   1.470   1.800   6.786
 3021SOL    HW1 9962   1.559   1.796   6.740
 3021SOL    HW2 9963   1.447   1.894   6.807
 3022SOL     OW 9964   4.120   5.972   3.202
 3022SOL    HW1 9965   4.145   5.879   3.177
 3022SOL    HW2 9966   4.044   6.003   3.144
 3023SOL     OW 9967   3.762   5.669   3.762
 3023SOL    HW1 9968   3.718   5.633   3.680
 3023SOL    HW2 9969   3.823   5.600   3.801
 3024SOL     OW 9970   3.352   1.554   7.016
 3024SOL    HW1 9971   3.309   1.466   0.019
 3024SOL    HW2 9972   3.362   1.563   6.917
 3025SOL     OW 9973   2.623   2.989   1.359
 3025SOL    HW1 9974   2.542   3.047   1.348
 3025SOL    HW2 9975   2.597   2.893   1.350
 3026SOL     OW 9976   1.488   3.164   1.138
 3026SOL    HW1 9977   1.473   3.069   1.108
 3026SOL    HW2 9978   1.568   3.201   1.091
 3027SOL     OW 9979   3.015   1.315   1.961
 3027SOL    HW1 9980   3.052   1.405   1.981
 3027SOL    HW2 9981   3.082   1.263   1.906
 3028SOL     OW 9982   1.367   5.329   6.317
 3028SOL    HW1 9983   1.419   5.327   6.231
 3028SOL    HW2 9984   1.382   5.417   6.362
 3029SOL     OW 9985   6.156   5.490   4.853
 3029SOL    HW1 9986   6.215   5.536   4.919
 3029SOL    HW2 9987   6.204   5.411   4.815
 3030SOL     OW 9988   0.945   0.975   5.520
 3030SOL    HW1 9989   0.957   0.885   5.563
 3030SOL    HW2 9990   1.025   1.032   5.539
 3031SOL     OW 9991   0.652   3.909   6.585
 3031SOL    HW1 9992   0.653   3.963   6.501
 3031SOL    HW2 9993   0.560   3.908   6.623
 3032SOL     OW 9994   5.024   0.385   0.036
 3032SOL    HW1 9995   4.997   0.336   6.971
 3032SOL    HW2 9996   5.121   0.367   0.055
 3033SOL     OW 9997   0.229   3.802   6.944
 3033SOL    HW1 9998   0.159   3.813   7.015
 3033SOL    HW2 9999   0.206   3.861   6.866
 3034SOL     OW10000   3.067   6.552   3.842
 3034SOL    HW110001   2.969   6.550   3.825
 3034SOL    HW210002   3.094   6.469   3.891
 3035SOL     OW10003   6.254   1.021   0.223
 3035SOL    HW110004   6.173   1.061   0.181
 3035SOL    HW210005   6.262   0.925   0.196
 3036SOL     OW10006   1.238   3.950   6.939
 3036SOL    HW110007   1.198   3.865   6.905
 3036SOL    HW210008   1.245   4.017   6.865
 3037SOL     OW10009   6.581   6.202   4.947
 3037SOL    HW110010   6.671   6.243   4.959
 3037SOL    HW210011   6.575   6.118   5.001
 3038SOL     OW10012   5.283   0.436   6.077
 3038SOL    HW110013   5.269   0.411   5.981
 3038SOL    HW210014   5.362   0.387   6.114
 3039SOL     OW10015   6.837   4.421   1.870
 3039SOL    HW110016   6.865   4.515   1.852
 3039SOL    HW210017   6.908   4.358   1.837
 3040SOL     OW10018   3.068   3.572   6.602
 3040SOL    HW110019   3.082   3.565   6.701
 3040SOL    HW210020   3.120   3.650   6.567
 3041SOL     OW10021   1.978   2.129   5.480
 3041SOL    HW110022   2.026   2.134   5.568
 3041SOL    HW210023   2.038   2.162   5.407
 3042SOL     OW10024   5.163   0.214   1.643
 3042SOL    HW110025   5.260   0.226   1.622
 3042SOL    HW210026   5.135   0.120   1.623
 3043SOL     OW10027   0.948   5.610   0.395
 3043SOL    HW110028   0.874   5.555   0.433
 3043SOL    HW210029   0.934   5.623   0.297
 3044SOL     OW10030   3.294   4.138   5.472
 3044SOL    HW110031   3.379   4.187   5.453
 3044SOL    HW210032   3.227   4.157   5.400
 3045SOL     OW10033   4.234   1.758   2.839
 3045SOL    HW110034   4.269   1.680   2.787
 3045SOL    HW210035   4.310   1.817   2.865
 3046SOL     OW10036   1.245   2.830   5.714
 3046SOL    HW110037   1.289   2.785   5.791
 3046SOL    HW210038   1.156   2.867   5.743
 3047SOL     OW10039   6.436   5.596   2.102
 3047SOL    HW110040   6.370   5.534   2.144
 3047SOL    HW210041   6.494   5.636   2.173
 3048SOL     OW10042   3.846   3.705   1.118
 3048SOL    HW110043   3.892   3.788   1.149
 3048SOL    HW210044   3.748   3.722   1.109
 3049SOL     OW10045   1.184   0.124   1.705
 3049SOL    HW110046   1.219   0.102   1.614
 3049SOL    HW210047   1.214   0.216   1.731
 3050SOL     OW10048   3.499   5.759   3.515
 3050SOL    HW110049   3.434   5.757   3.591
 3050SOL    HW210050   3.523   5.666   3.489
 3051SOL     OW10051   2.485   5.180   6.550
 3051SOL    HW110052   2.410   5.113   6.552
 3051SOL    HW210053   2.446   5.273   6.551
 3052SOL     OW10054   3.965   0.280   2.889
 3052SOL    HW110055   3.998   0.189   2.866
 3052SOL    HW210056   4.002   0.309   2.977
 3053SOL     OW10057   6.269   0.353   0.320
 3053SOL    HW110058   6.253   0.432   0.380
 3053SOL    HW210059   6.189   0.293   0.323
 3054SOL     OW10060   6.971   3.428   0.432
 3054SOL    HW110061   7.015   3.362   0.371
 3054SOL    HW210062   6.973   3.518   0.390
 3055SOL     OW10063   5.807   0.198   3.492
 3055SOL    HW110064   5.768   0.228   3.405
 3055SOL    HW210065   5.734   0.162   3.550
 3056SOL     OW10066   6.931   0.241   6.992
 3056SOL    HW110067   6.904   0.331   0.008
 3056SOL    HW210068   0.012   0.239   6.979
 3057SOL     OW10069   5.999   4.684   2.421
 3057SOL    HW110070   5.927   4.744   2.456
 3057SOL    HW210071   6.054   4.736   2.355
 3058SOL     OW10072   6.213   6.076   0.810
 3058SOL    HW110073   6.224   6.073   0.910
 3058SOL    HW210074   6.192   5.985   0.776
 3059SOL     OW10075   0.552   2.628   4.837
 3059SOL    HW110076   0.626   2.682   4.877
 3059SOL    HW210077   0.492   2.688   4.783
 3060SOL     OW10078   0.455   6.652   1.463
 3060SOL    HW110079   0.401   6.667   1.381
 3060SOL    HW210080   0.544   6.696   1.453
 3061SOL     OW10081   0.147   1.157   4.859
 3061SOL    HW110082   0.125   1.062   4.839
 3061SOL    HW210083   0.169   1.167   4.956
 3062SOL     OW10084   2.783   6.249   1.555
 3062SOL    HW110085   2.760   6.180   1.487
 3062SOL    HW210086   2.869   6.223   1.601
 3063SOL     OW10087   1.969   4.765   1.802
 3063SOL    HW110088   1.906   4.714   1.743
 3063SOL    HW210089   1.940   4.757   1.897
 3064SOL     OW10090   6.330   3.729   3.234
 3064SOL    HW110091   6.234   3.710   3.257
 3064SOL    HW210092   6.366   3.655   3.177
 3065SOL     OW10093   1.580   0.495   0.113
 3065SOL    HW110094   1.561   0.527   0.206
 3065SOL    HW210095   1.500   0.509   0.055
 3066SOL     OW10096   5.832   4.669   0.718
 3066SOL    HW110097   5.867   4.575   0.715
 3066SOL    HW210098   5.906   4.732   0.740
 3067SOL     OW10099   4.310   0.594   4.983
 3067SOL    HW110100   4.305   0.693   5.001
 3067SOL    HW210101   4.243   0.547   5.040
 3068SOL     OW10102   5.985   6.248   1.225
 3068SOL    HW110103   6.077   6.281   1.204
 3068SOL    HW210104   5.948   6.202   1.145
 3069SOL     OW10105   0.612   5.740   1.954
 3069SOL    HW110106   0.622   5.643   1.933
 3069SOL    HW210107   0.608   5.753   2.054
 3070SOL     OW10108   2.048   1.500   3.306
 3070SOL    HW110109   2.055   1.466   3.212
 3070SOL    HW210110   2.010   1.428   3.364
 3071SOL     OW10111   6.114   0.225   3.880
 3071SOL    HW110112   6.210   0.251   3.878
 3071SOL    HW210113   6.069   0.268   3.959
 3072SOL     OW10114   0.454   6.118   2.378
 3072SOL    HW110115   0.437   6.092   2.283
 3072SOL    HW210116   0.470   6.035   2.432
 3073SOL     OW10117   0.815   3.153   5.289
 3073SOL    HW110118   0.896   3.095   5.284
 3073SOL    HW210119   0.843   3.249   5.290
 3074SOL     OW10120   4.569   3.323   0.553
 3074SOL    HW110121   4.592   3.298   0.647
 3074SOL    HW210122   4.627   3.399   0.524
 3075SOL     OW10123   1.863   6.448   1.308
 3075SOL    HW110124   1.823   6.526   1.259
 3075SOL    HW210125   1.808   6.366   1.292
 3076SOL     OW10126   6.698   0.545   4.869
 3076SOL    HW110127   6.692   0.613   4.942
 3076SOL    HW210128   6.607   0.507   4.850
 3077SOL     OW10129   6.177   4.210   4.213
 3077SOL    HW110130   6.131   4.297   4.196
 3077SOL    HW210131   6.206   4.170   4.127
 3078SOL     OW10132   1.914   3.802   1.953
 3078SOL    HW110133   1.995   3.833   2.003
 3078SOL    HW210134   1.941   3.733   1.886
 3079SOL     OW10135   0.591   2.346   4.806
 3079SOL    HW110136   0.584   2.444   4.823
 3079SOL    HW210137   0.571   2.296   4.890
 3080SOL     OW10138   6.104   5.167   1.110
 3080SOL    HW110139   6.128   5.078   1.072
 3080SOL    HW210140   6.031   5.156   1.177
 3081SOL     OW10141   0.446   4.099   6.013
 3081SOL    HW110142   0.518   4.067   5.952
 3081SOL    HW210143   0.391   4.168   5.966
 3082SOL     OW10144   3.896   6.932   2.601
 3082SOL    HW110145   3.983   6.971   2.633
 3082SOL    HW210146   3.914   6.865   2.529
 3083SOL     OW10147   3.519   0.734   2.031
 3083SOL    HW110148   3.499   0.649   1.982
 3083SOL    HW210149   3.435   0.769   2.072
 3084SOL     OW10150   4.972   5.284   4.144
 3084SOL    HW110151   4.990   5.186   4.153
 3084SOL    HW210152   4.898   5.309   4.207
 3085SOL     OW10153   6.726   5.466   2.698
 3085SOL    HW110154   6.804   5.490   2.641
 3085SOL    HW210155   6.672   5.548   2.718
 3086SOL     OW10156   4.514   1.079   2.353
 3086SOL    HW110157   4.508   1.111   2.259
 3086SOL    HW210158   4.426   1.040   2.381
 3087SOL     OW10159   6.125   4.170   3.023
 3087SOL    HW110160   6.205   4.110   3.032
 3087SOL    HW210161   6.069   4.164   3.105
 3088SOL     OW10162   2.199   4.470   5.032
 3088SOL    HW110163   2.228   4.377   5.053
 3088SOL    HW210164   2.158   4.511   5.113
 3089SOL     OW10165   1.050   2.597   6.812
 3089SOL    HW110166   1.130   2.567   6.864
 3089SOL    HW210167   1.058   2.566   6.718
 3090SOL     OW10168   1.981   1.962   1.553
 3090SOL    HW110169   1.950   1.944   1.459
 3090SOL    HW210170   2.073   1.926   1.565
 3091SOL     OW10171   2.623   0.217   0.594
 3091SOL    HW110172   2.706   0.189   0.642
 3091SOL    HW210173   2.609   0.156   0.516
 3092SOL     OW10174   6.550   6.361   0.124
 3092SOL    HW110175   6.612   6.417   0.178
 3092SOL    HW210176   6.466   6.343   0.176
 3093SOL     OW10177   6.101   5.017   5.477
 3093SOL    HW110178   6.028   4.955   5.447
 3093SOL    HW210179   6.061   5.102   5.510
 3094SOL     OW10180   3.226   5.549   5.185
 3094SOL    HW110181   3.309   5.543   5.131
 3094SOL    HW210182   3.180   5.460   5.185
 3095SOL     OW10183   2.282   4.618   4.269
 3095SOL    HW110184   2.222   4.546   4.304
 3095SOL    HW210185   2.288   4.692   4.336
 3096SOL     OW10186   6.698   6.515   5.256
 3096SOL    HW110187   6.606   6.525   5.292
 3096SOL    HW210188   6.723   6.418   5.253
 3097SOL     OW10189   0.594   2.980   0.834
 3097SOL    HW110190   0.551   2.940   0.753
 3097SOL    HW210191   0.652   3.057   0.807
 3098SOL     OW10192   2.724   3.888   0.790
 3098SOL    HW110193   2.691   3.949   0.718
 3098SOL    HW210194   2.672   3.905   0.874
 3099SOL     OW10195   0.403   6.181   4.861
 3099SOL    HW110196   0.394   6.166   4.763
 3099SOL    HW210197   0.320   6.225   4.895
 3100SOL     OW10198   6.534   6.128   5.519
 3100SOL    HW110199   6.542   6.030   5.539
 3100SOL    HW210200   6.439   6.149   5.493
 3101SOL     OW10201   4.789   6.364   5.914
 3101SOL    HW110202   4.867   6.407   5.870
 3101SOL    HW210203   4.796   6.264   5.904
 3102SOL     OW10204   1.862   4.378   1.341
 3102SOL    HW110205   1.855   4.465   1.294
 3102SOL    HW210206   1.776   4.357   1.388
 3103SOL     OW10207   3.606   2.797   0.974
 3103SOL    HW110208   3.684   2.741   0.947
 3103SOL    HW210209   3.555   2.752   1.047
 3104SOL     OW10210   5.203   6.366   4.236
 3104SOL    HW110211   5.233   6.351   4.142
 3104SOL    HW210212   5.161   6.282   4.271
 3105SOL     OW10213   5.670   6.259   3.601
 3105SOL    HW110214   5.750   6.317   3.582
 3105SOL    HW210215   5.699   6.164   3.603
 3106SOL     OW10216   5.968   2.445   2.581
 3106SOL    HW110217   5.901   2.463   2.509
 3106SOL    HW210218   5.921   2.425   2.667
 3107SOL     OW10219   3.260   0.743   3.750
 3107SOL    HW110220   3.183   0.680   3.760
 3107SOL    HW210221   3.226   0.834   3.725
 3108SOL     OW10222   1.827   0.906   4.156
 3108SOL    HW110223   1.746   0.895   4.100
 3108SOL    HW210224   1.805   0.886   4.252
 3109SOL     OW10225   5.009   6.245   2.491
 3109SOL    HW110226   4.971   6.253   2.399
 3109SOL    HW210227   5.102   6.209   2.485
 3110SOL     OW10228   0.345   3.358   3.271
 3110SOL    HW110229   0.370   3.290   3.202
 3110SOL    HW210230   0.252   3.342   3.302
 3111SOL     OW10231   6.623   5.093   3.821
 3111SOL    HW110232   6.542   5.036   3.835
 3111SOL    HW210233   6.605   5.186   3.853
 3112SOL     OW10234   4.538   3.673   6.044
 3112SOL    HW110235   4.458   3.630   6.084
 3112SOL    HW210236   4.591   3.605   5.993
 3113SOL     OW10237   2.199   6.972   3.977
 3113SOL    HW110238   2.137   6.993   4.052
 3113SOL    HW210239   2.224   6.875   3.979
 3114SOL     OW10240   4.642   3.983   6.961
 3114SOL    HW110241   4.604   4.020   6.876
 3114SOL    HW210242   4.657   4.058   0.008
 3115SOL     OW10243   3.825   4.023   0.658
 3115SOL    HW110244   3.906   3.964   0.655
 3115SOL    HW210245   3.811   4.056   0.751
 3116SOL     OW10246   6.165   2.451   6.639
 3116SOL    HW110247   6.093   2.401   6.687
 3116SOL    HW210248   6.224   2.387   6.591
 3117SOL     OW10249   4.453   3.334   5.324
 3117SOL    HW110250   4.510   3.273   5.378
 3117SOL    HW210251   4.376   3.282   5.286
 3118SOL     OW10252   0.052   5.141   0.575
 3118SOL    HW110253   7.012   5.061   0.561
 3118SOL    HW210254   7.013   5.220   0.598
 3119SOL     OW10255   1.389   4.219   5.303
 3119SOL    HW110256   1.319   4.148   5.295
 3119SOL    HW210257   1.479   4.179   5.283
 3120SOL     OW10258   2.364   5.284   4.337
 3120SOL    HW110259   2.333   5.274   4.432
 3120SOL    HW210260   2.284   5.291   4.277
 3121SOL     OW10261   0.173   1.408   2.396
 3121SOL    HW110262   0.081   1.431   2.363
 3121SOL    HW210263   0.177   1.423   2.495
 3122SOL     OW10264   2.400   5.588   6.256
 3122SOL    HW110265   2.338   5.615   6.329
 3122SOL    HW210266   2.465   5.520   6.291
 3123SOL     OW10267   3.731   6.653   4.076
 3123SOL    HW110268   3.764   6.562   4.104
 3123SOL    HW210269   3.801   6.699   4.022
 3124SOL     OW10270   4.609   1.183   5.235
 3124SOL    HW110271   4.629   1.264   5.290
 3124SOL    HW210272   4.588   1.106   5.295
 3125SOL     OW10273   6.327   1.941   5.546
 3125SOL    HW110274   6.398   1.932   5.475
 3125SOL    HW210275   6.340   2.028   5.594
 3126SOL     OW10276   4.575   5.086   6.094
 3126SOL    HW110277   4.667   5.062   6.065
 3126SOL    HW210278   4.547   5.171   6.048
 3127SOL     OW10279   1.298   1.836   4.093
 3127SOL    HW110280   1.262   1.923   4.058
 3127SOL    HW210281   1.364   1.855   4.165
 3128SOL     OW10282   2.215   1.546   0.516
 3128SOL    HW110283   2.266   1.460   0.522
 3128SOL    HW210284   2.263   1.609   0.455
 3129SOL     OW10285   6.973   4.404   5.030
 3129SOL    HW110286   0.019   4.477   5.056
 3129SOL    HW210287   6.911   4.438   4.959
 3130SOL     OW10288   2.257   4.598   2.554
 3130SOL    HW110289   2.344   4.579   2.598
 3130SOL    HW210290   2.257   4.560   2.462
 3131SOL     OW10291   0.285   3.839   2.684
 3131SOL    HW110292   0.269   3.792   2.772
 3131SOL    HW210293   0.324   3.929   2.702
 3132SOL     OW10294   5.662   6.167   5.762
 3132SOL    HW110295   5.657   6.089   5.699
 3132SOL    HW210296   5.587   6.230   5.742
 3133SOL     OW10297   2.366   1.779   3.801
 3133SOL    HW110298   2.360   1.856   3.737
 3133SOL    HW210299   2.454   1.780   3.847
 3134SOL     OW10300   4.960   2.921   1.584
 3134SOL    HW110301   4.955   2.888   1.679
 3134SOL    HW210302   5.030   2.870   1.535
 3135SOL     OW10303   4.127   1.980   3.951
 3135SOL    HW110304   4.149   1.943   3.861
 3135SOL    HW210305   4.061   2.054   3.940
 3136SOL     OW10306   5.800   5.393   6.027
 3136SOL    HW110307   5.803   5.298   6.055
 3136SOL    HW210308   5.857   5.448   6.088
 3137SOL     OW10309   5.620   1.992   4.409
 3137SOL    HW110310   5.532   2.033   4.387
 3137SOL    HW210311   5.681   2.001   4.330
 3138SOL     OW10312   6.164   1.269   4.750
 3138SOL    HW110313   6.201   1.176   4.758
 3138SOL    HW210314   6.131   1.283   4.657
 3139SOL     OW10315   4.993   5.940   5.504
 3139SOL    HW110316   4.988   6.011   5.434
 3139SOL    HW210317   4.913   5.881   5.497
 3140SOL     OW10318   6.919   6.365   6.841
 3140SOL    HW110319   6.904   6.334   6.935
 3140SOL    HW210320   6.877   6.454   6.828
 3141SOL     OW10321   1.375   6.112   0.336
 3141SOL    HW110322   1.423   6.121   0.249
 3141SOL    HW210323   1.291   6.060   0.323
 3142SOL     OW10324   4.815   6.540   6.531
 3142SOL    HW110325   4.777   6.448   6.520
 3142SOL    HW210326   4.871   6.543   6.614
 3143SOL     OW10327   7.001   2.087   6.504
 3143SOL    HW110328   0.073   2.105   6.464
 3143SOL    HW210329   7.007   2.099   6.603
 3144SOL     OW10330   1.624   3.790   6.819
 3144SOL    HW110331   1.604   3.693   6.804
 3144SOL    HW210332   1.580   3.821   6.903
 3145SOL     OW10333   2.886   5.586   2.981
 3145SOL    HW110334   2.828   5.643   3.039
 3145SOL    HW210335   2.979   5.623   2.981
 3146SOL     OW10336   1.466   0.451   3.133
 3146SOL    HW110337   1.546   0.415   3.181
 3146SOL    HW210338   1.405   0.376   3.108
 3147SOL     OW10339   4.446   3.796   0.422
 3147SOL    HW110340   4.433   3.839   0.511
 3147SOL    HW210341   4.513   3.847   0.368
 3148SOL     OW10342   4.134   5.498   4.264
 3148SOL    HW110343   4.045   5.541   4.250
 3148SOL    HW210344   4.157   5.443   4.184
 3149SOL     OW10345   3.148   0.352   5.687
 3149SOL    HW110346   3.183   0.274   5.635
 3149SOL    HW210347   3.175   0.437   5.642
 3150SOL     OW10348   5.740   0.091   4.673
 3150SOL    HW110349   5.693   0.006   4.648
 3150SOL    HW210350   5.816   0.069   4.734
 3151SOL     OW10351   4.561   1.693   6.329
 3151SOL    HW110352   4.536   1.631   6.255
 3151SOL    HW210353   4.661   1.693   6.340
 3152SOL     OW10354   0.924   5.816   1.292
 3152SOL    HW110355   0.898   5.722   1.271
 3152SOL    HW210356   1.009   5.817   1.344
 3153SOL     OW10357   5.939   4.007   2.186
 3153SOL    HW110358   5.925   4.100   2.217
 3153SOL    HW210359   5.885   3.944   2.242
 3154SOL     OW10360   6.153   2.680   5.903
 3154SOL    HW110361   6.185   2.756   5.847
 3154SOL    HW210362   6.221   2.607   5.903
 3155SOL     OW10363   6.010   5.462   0.665
 3155SOL    HW110364   6.022   5.453   0.566
 3155SOL    HW210365   6.048   5.381   0.711
 3156SOL     OW10366   3.564   3.627   3.353
 3156SOL    HW110367   3.572   3.678   3.267
 3156SOL    HW210368   3.652   3.586   3.376
 3157SOL     OW10369   2.126   3.474   4.703
 3157SOL    HW110370   2.042   3.465   4.756
 3157SOL    HW210371   2.168   3.563   4.721
 3158SOL     OW10372   4.915   6.392   1.311
 3158SOL    HW110373   4.947   6.319   1.371
 3158SOL    HW210374   4.948   6.480   1.345
 3159SOL     OW10375   4.261   5.560   0.057
 3159SOL    HW110376   4.310   5.509   0.128
 3159SOL    HW210377   4.261   5.506   6.991
 3160SOL     OW10378   4.806   4.131   6.542
 3160SOL    HW110379   4.733   4.161   6.603
 3160SOL    HW210380   4.782   4.043   6.501
 3161SOL     OW10381   1.663   1.154   2.607
 3161SOL    HW110382   1.584   1.160   2.667
 3161SOL    HW210383   1.742   1.120   2.659
 3162SOL     OW10384   0.597   5.568   6.437
 3162SOL    HW110385   0.503   5.593   6.414
 3162SOL    HW210386   0.597   5.489   6.497
 3163SOL     OW10387   3.673   3.078   6.637
 3163SOL    HW110388   3.665   3.133   6.720
 3163SOL    HW210389   3.629   2.989   6.652
 3164SOL     OW10390   5.409   4.008   0.332
 3164SOL    HW110391   5.411   4.101   0.295
 3164SOL    HW210392   5.356   3.949   0.271
 3165SOL     OW10393   0.838   0.553   2.164
 3165SOL    HW110394   0.903   0.477   2.172
 3165SOL    HW210395   0.800   0.573   2.254
 3166SOL     OW10396   4.775   3.802   6.119
 3166SOL    HW110397   4.809   3.721   6.167
 3166SOL    HW210398   4.681   3.786   6.088
 3167SOL     OW10399   0.380   4.441   1.268
 3167SOL    HW110400   0.398   4.343   1.272
 3167SOL    HW210401   0.452   4.491   1.316
 3168SOL     OW10402   5.422   3.172   1.103
 3168SOL    HW110403   5.353   3.228   1.058
 3168SOL    HW210404   5.500   3.230   1.128
 3169SOL     OW10405   1.218   2.389   5.019
 3169SOL    HW110406   1.312   2.380   4.988
 3169SOL    HW210407   1.157   2.340   4.956
 3170SOL     OW10408   4.300   1.133   0.041
 3170SOL    HW110409   4.285   1.153   0.137
 3170SOL    HW210410   4.248   1.050   0.016
 3171SOL     OW10411   6.205   6.609   2.653
 3171SOL    HW110412   6.156   6.522   2.648
 3171SOL    HW210413   6.189   6.661   2.569
 3172SOL     OW10414   6.141   6.654   5.523
 3172SOL    HW110415   6.170   6.568   5.565
 3172SOL    HW210416   6.221   6.704   5.489
 3173SOL     OW10417   1.895   0.737   1.505
 3173SOL    HW110418   1.911   0.809   1.438
 3173SOL    HW210419   1.974   0.728   1.565
 3174SOL     OW10420   2.887   2.602   6.078
 3174SOL    HW110421   2.922   2.694   6.098
 3174SOL    HW210422   2.943   2.534   6.126
 3175SOL     OW10423   1.428   6.446   0.421
 3175SOL    HW110424   1.492   6.439   0.344
 3175SOL    HW210425   1.445   6.370   0.484
 3176SOL     OW10426   1.577   4.237   6.572
 3176SOL    HW110427   1.567   4.170   6.646
 3176SOL    HW210428   1.544   4.197   6.487
 3177SOL     OW10429   5.401   5.351   5.960
 3177SOL    HW110430   5.491   5.368   5.919
 3177SOL    HW210431   5.380   5.424   6.025
 3178SOL     OW10432   0.524   4.342   1.629
 3178SOL    HW110433   0.568   4.302   1.548
 3178SOL    HW210434   0.546   4.287   1.709
 3179SOL     OW10435   1.463   1.388   2.544
 3179SOL    HW110436   1.398   1.351   2.478
 3179SOL    HW210437   1.556   1.382   2.507
 3180SOL     OW10438   5.617   0.615   5.748
 3180SOL    HW110439   5.573   0.640   5.834
 3180SOL    HW210440   5.695   0.556   5.766
 3181SOL     OW10441   1.003   0.615   3.357
 3181SOL    HW110442   1.062   0.585   3.431
 3181SOL    HW210443   1.001   0.715   3.354
 3182SOL     OW10444   1.500   5.777   5.282
 3182SOL    HW110445   1.431   5.820   5.340
 3182SOL    HW210446   1.516   5.683   5.312
 3183SOL     OW10447   4.442   4.197   1.247
 3183SOL    HW110448   4.462   4.268   1.314
 3183SOL    HW210449   4.414   4.239   1.161
 3184SOL     OW10450   2.838   1.698   1.933
 3184SOL    HW110451   2.819   1.665   1.840
 3184SOL    HW210452   2.778   1.775   1.954
 3185SOL     OW10453   6.946   0.029   5.654
 3185SOL    HW110454   6.958   0.106   5.591
 3185SOL    HW210455   7.003   0.043   5.735
 3186SOL     OW10456   3.378   1.482   2.920
 3186SOL    HW110457   3.336   1.417   2.984
 3186SOL    HW210458   3.332   1.476   2.831
 3187SOL     OW10459   3.611   4.941   0.426
 3187SOL    HW110460   3.606   4.885   0.509
 3187SOL    HW210461   3.555   4.899   0.355
 3188SOL     OW10462   4.000   6.122   3.718
 3188SOL    HW110463   3.934   6.055   3.753
 3188SOL    HW210464   3.985   6.134   3.620
 3189SOL     OW10465   1.840   0.057   3.335
 3189SOL    HW110466   1.744   0.033   3.342
 3189SOL    HW210467   1.857   0.099   3.246
 3190SOL     OW10468   1.705   6.251   2.752
 3190SOL    HW110469   1.667   6.289   2.668
 3190SOL    HW210470   1.789   6.201   2.730
 3191SOL     OW10471   3.770   0.522   1.161
 3191SOL    HW110472   3.801   0.434   1.124
 3191SOL    HW210473   3.796   0.529   1.257
 3192SOL     OW10474   0.131   2.667   2.090
 3192SOL    HW110475   0.213   2.693   2.039
 3192SOL    HW210476   0.069   2.745   2.096
 3193SOL     OW10477   4.834   2.976   5.607
 3193SOL    HW110478   4.745   2.955   5.568
 3193SOL    HW210479   4.905   2.926   5.557
 3194SOL     OW10480   1.015   2.919   5.837
 3194SOL    HW110481   1.027   3.002   5.891
 3194SOL    HW210482   0.954   2.856   5.885
 3195SOL     OW10483   0.464   2.787   3.600
 3195SOL    HW110484   0.506   2.710   3.552
 3195SOL    HW210485   0.433   2.757   3.690
 3196SOL     OW10486   6.953   6.455   5.075
 3196SOL    HW110487   7.000   6.374   5.108
 3196SOL    HW210488   6.921   6.440   4.982
 3197SOL     OW10489   1.496   4.282   4.009
 3197SOL    HW110490   1.410   4.319   4.045
 3197SOL    HW210491   1.498   4.183   4.025
 3198SOL     OW10492   0.517   2.539   6.125
 3198SOL    HW110493   0.556   2.456   6.164
 3198SOL    HW210494   0.527   2.536   6.025
 3199SOL     OW10495   4.730   2.139   1.841
 3199SOL    HW110496   4.770   2.050   1.863
 3199SOL    HW210497   4.707   2.142   1.744
 3200SOL     OW10498   6.560   2.024   0.288
 3200SOL    HW110499   6.628   2.057   0.354
 3200SOL    HW210500   6.510   1.947   0.327
 3201SOL     OW10501   4.793   4.601   3.430
 3201SOL    HW110502   4.890   4.608   3.454
 3201SOL    HW210503   4.783   4.568   3.336
 3202SOL     OW10504   1.951   5.022   1.710
 3202SOL    HW110505   2.001   4.938   1.730
 3202SOL    HW210506   1.999   5.099   1.752
 3203SOL     OW10507   6.821   0.544   1.079
 3203SOL    HW110508   6.919   0.537   1.061
 3203SOL    HW210509   6.777   0.456   1.063
 3204SOL     OW10510   6.811   5.729   1.709
 3204SOL    HW110511   6.732   5.768   1.661
 3204SOL    HW210512   6.829   5.637   1.674
 3205SOL     OW10513   0.526   3.733   4.123
 3205SOL    HW110514   0.458   3.665   4.096
 3205SOL    HW210515   0.618   3.697   4.105
 3206SOL     OW10516   1.203   6.578   6.319
 3206SOL    HW110517   1.183   6.671   6.288
 3206SOL    HW210518   1.187   6.514   6.244
 3207SOL     OW10519   0.353   0.988   4.694
 3207SOL    HW110520   0.269   0.937   4.710
 3207SOL    HW210521   0.377   1.040   4.777
 3208SOL     OW10522   5.027   6.660   4.791
 3208SOL    HW110523   5.123   6.653   4.819
 3208SOL    HW210524   5.006   6.587   4.726
 3209SOL     OW10525   2.158   0.595   4.023
 3209SOL    HW110526   2.181   0.690   4.047
 3209SOL    HW210527   2.179   0.535   4.100
 3210SOL     OW10528   6.561   4.528   2.395
 3210SOL    HW110529   6.581   4.610   2.342
 3210SOL    HW210530   6.609   4.531   2.483
 3211SOL     OW10531   1.824   4.510   2.090
 3211SOL    HW110532   1.832   4.463   2.178
 3211SOL    HW210533   1.808   4.443   2.018
 3212SOL     OW10534   5.320   1.832   6.702
 3212SOL    HW110535   5.394   1.822   6.769
 3212SOL    HW210536   5.254   1.758   6.714
 3213SOL     OW10537   5.903   6.361   2.455
 3213SOL    HW110538   5.808   6.389   2.472
 3213SOL    HW210539   5.905   6.269   2.417
 3214SOL     OW10540   3.626   5.665   6.237
 3214SOL    HW110541   3.696   5.686   6.169
 3214SOL    HW210542   3.539   5.705   6.207
 3215SOL     OW10543   5.807   1.863   6.725
 3215SOL    HW110544   5.745   1.941   6.734
 3215SOL    HW210545   5.779   1.791   6.788
 3216SOL     OW10546   5.891   0.078   3.153
 3216SOL    HW110547   5.839   0.059   3.070
 3216SOL    HW210548   5.974   0.128   3.130
 3217SOL     OW10549   6.485   4.733   2.041
 3217SOL    HW110550   6.499   4.636   2.019
 3217SOL    HW210551   6.393   4.759   2.013
 3218SOL     OW10552   3.596   1.001   3.900
 3218SOL    HW110553   3.545   1.070   3.848
 3218SOL    HW210554   3.532   0.938   3.943
 3219SOL     OW10555   6.557   0.870   3.884
 3219SOL    HW110556   6.635   0.931   3.894
 3219SOL    HW210557   6.520   0.878   3.792
 3220SOL     OW10558   6.608   4.005   5.526
 3220SOL    HW110559   6.553   4.087   5.514
 3220SOL    HW210560   6.677   4.021   5.597
 3221SOL     OW10561   3.082   6.940   3.506
 3221SOL    HW110562   2.982   6.947   3.516
 3221SOL    HW210563   3.104   6.863   3.445
 3222SOL     OW10564   5.873   2.483   3.093
 3222SOL    HW110565   5.877   2.457   2.996
 3222SOL    HW210566   5.809   2.422   3.141
 3223SOL     OW10567   1.960   5.020   5.483
 3223SOL    HW110568   1.916   4.961   5.416
 3223SOL    HW210569   2.059   5.004   5.483
 3224SOL     OW10570   4.117   4.838   0.187
 3224SOL    HW110571   4.118   4.788   0.100
 3224SOL    HW210572   4.197   4.812   0.241
 3225SOL     OW10573   2.171   3.525   0.214
 3225SOL    HW110574   2.201   3.563   0.301
 3225SOL    HW210575   2.205   3.431   0.205
 3226SOL     OW10576   1.051   0.847   3.819
 3226SOL    HW110577   1.021   0.763   3.772
 3226SOL    HW210578   1.136   0.879   3.778
 3227SOL     OW10579   3.257   1.477   5.722
 3227SOL    HW110580   3.341   1.511   5.681
 3227SOL    HW210581   3.257   1.377   5.721
 3228SOL     OW10582   5.472   4.039   4.451
 3228SOL    HW110583   5.406   4.022   4.524
 3228SOL    HW210584   5.532   3.960   4.441
 3229SOL     OW10585   4.018   2.008   5.470
 3229SOL    HW110586   3.940   1.951   5.496
 3229SOL    HW210587   4.100   1.951   5.463
 3230SOL     OW10588   1.206   0.578   3.529
 3230SOL    HW110589   1.259   0.654   3.565
 3230SOL    HW210590   1.255   0.492   3.544
 3231SOL     OW10591   5.657   6.178   0.839
 3231SOL    HW110592   5.611   6.089   0.847
 3231SOL    HW210593   5.588   6.251   0.837
 3232SOL     OW10594   2.345   4.945   4.036
 3232SOL    HW110595   2.288   4.870   4.003
 3232SOL    HW210596   2.439   4.913   4.046
 3233SOL     OW10597   0.758   3.871   1.215
 3233SOL    HW110598   0.733   3.783   1.176
 3233SOL    HW210599   0.845   3.864   1.263
 3234SOL     OW10600   0.464   1.805   5.632
 3234SOL    HW110601   0.435   1.834   5.541
 3234SOL    HW210602   0.502   1.884   5.681
 3235SOL     OW10603   5.345   6.773   2.486
 3235SOL    HW110604   5.323   6.800   2.392
 3235SOL    HW210605   5.260   6.755   2.536
 3236SOL     OW10606   0.310   2.979   2.085
 3236SOL    HW110607   0.392   3.021   2.124
 3236SOL    HW210608   0.325   2.880   2.074
 3237SOL     OW10609   3.174   0.238   4.400
 3237SOL    HW110610   3.113   0.169   4.438
 3237SOL    HW210611   3.170   0.235   4.300
 3238SOL     OW10612   0.373   6.381   6.462
 3238SOL    HW110613   0.336   6.323   6.535
 3238SOL    HW210614   0.398   6.324   6.384
 3239SOL     OW10615   6.166   6.499   5.259
 3239SOL    HW110616   6.170   6.408   5.217
 3239SOL    HW210617   6.131   6.491   5.352
 3240SOL     OW10618   1.293   0.801   4.375
 3240SOL    HW110619   1.331   0.807   4.467
 3240SOL    HW210620   1.275   0.894   4.340
 3241SOL     OW10621   5.213   0.875   3.621
 3241SOL    HW110622   5.195   0.866   3.523
 3241SOL    HW210623   5.257   0.962   3.640
 3242SOL     OW10624   3.763   0.147   0.284
 3242SOL    HW110625   3.775   0.221   0.350
 3242SOL    HW210626   3.681   0.164   0.230
 3243SOL     OW10627   3.821   4.966   0.758
 3243SOL    HW110628   3.753   4.905   0.717
 3243SOL    HW210629   3.787   5.060   0.756
 3244SOL     OW10630   2.969   5.858   6.612
 3244SOL    HW110631   2.911   5.932   6.580
 3244SOL    HW210632   3.042   5.896   6.670
 3245SOL     OW10633   3.720   2.599   6.496
 3245SOL    HW110634   3.666   2.582   6.578
 3245SOL    HW210635   3.670   2.660   6.434
 3246SOL     OW10636   5.651   6.574   2.990
 3246SOL    HW110637   5.714   6.611   3.059
 3246SOL    HW210638   5.672   6.616   2.901
 3247SOL     OW10639   0.722   2.332   4.196
 3247SOL    HW110640   0.683   2.407   4.250
 3247SOL    HW210641   0.650   2.266   4.174
 3248SOL     OW10642   6.276   3.432   2.400
 3248SOL    HW110643   6.203   3.437   2.331
 3248SOL    HW210644   6.249   3.484   2.481
 3249SOL     OW10645   1.924   4.103   4.975
 3249SOL    HW110646   2.018   4.085   4.946
 3249SOL    HW210647   1.910   4.067   5.067
 3250SOL     OW10648   4.528   6.501   2.026
 3250SOL    HW110649   4.624   6.525   2.009
 3250SOL    HW210650   4.501   6.425   1.967
 3251SOL     OW10651   3.421   0.755   3.358
 3251SOL    HW110652   3.484   0.772   3.281
 3251SOL    HW210653   3.404   0.656   3.365
 3252SOL     OW10654   3.102   1.646   3.035
 3252SOL    HW110655   3.130   1.700   2.955
 3252SOL    HW210656   3.036   1.699   3.088
 3253SOL     OW10657   4.947   3.609   1.271
 3253SOL    HW110658   4.904   3.519   1.277
 3253SOL    HW210659   4.899   3.673   1.331
 3254SOL     OW10660   5.116   4.319   2.962
 3254SOL    HW110661   5.081   4.272   2.882
 3254SOL    HW210662   5.182   4.260   3.009
 3255SOL     OW10663   4.277   5.274   0.585
 3255SOL    HW110664   4.273   5.257   0.683
 3255SOL    HW210665   4.185   5.269   0.546
 3256SOL     OW10666   6.235   6.170   5.425
 3256SOL    HW110667   6.186   6.212   5.349
 3256SOL    HW210668   6.171   6.153   5.500
 3257SOL     OW10669   1.740   2.539   1.035
 3257SOL    HW110670   1.795   2.555   0.953
 3257SOL    HW210671   1.728   2.441   1.049
 3258SOL     OW10672   5.505   6.971   1.563
 3258SOL    HW110673   5.569   6.932   1.498
 3258SOL    HW210674   5.496   6.911   1.642
 3259SOL     OW10675   4.281   6.924   4.095
 3259SOL    HW110676   4.290   0.002   4.121
 3259SOL    HW210677   4.200   6.885   4.137
 3260SOL     OW10678   1.151   2.355   0.458
 3260SOL    HW110679   1.143   2.410   0.542
 3260SOL    HW210680   1.215   2.280   0.474
 3261SOL     OW10681   4.022   6.843   1.776
 3261SOL    HW110682   4.119   6.867   1.780
 3261SOL    HW210683   3.996   6.829   1.680
 3262SOL     OW10684   4.002   1.998   2.975
 3262SOL    HW110685   3.993   2.071   3.043
 3262SOL    HW210686   3.913   1.978   2.936
 3263SOL     OW10687   3.695   6.293   1.415
 3263SOL    HW110688   3.704   6.212   1.357
 3263SOL    HW210689   3.601   6.302   1.446
 3264SOL     OW10690   5.002   5.156   6.527
 3264SOL    HW110691   4.939   5.176   6.453
 3264SOL    HW210692   4.991   5.061   6.556
 3265SOL     OW10693   4.789   0.474   6.205
 3265SOL    HW110694   4.738   0.413   6.143
 3265SOL    HW210695   4.759   0.568   6.190
 3266SOL     OW10696   1.032   1.686   6.398
 3266SOL    HW110697   1.131   1.701   6.393
 3266SOL    HW210698   1.008   1.653   6.489
 3267SOL     OW10699   3.173   2.564   1.371
 3267SOL    HW110700   3.156   2.467   1.357
 3267SOL    HW210701   3.272   2.580   1.374
 3268SOL     OW10702   0.745   4.291   6.264
 3268SOL    HW110703   0.815   4.236   6.216
 3268SOL    HW210704   0.768   4.388   6.256
 3269SOL     OW10705   4.376   3.804   1.076
 3269SOL    HW110706   4.467   3.768   1.097
 3269SOL    HW210707   4.326   3.737   1.021
 3270SOL     OW10708   1.202   6.484   4.635
 3270SOL    HW110709   1.160   6.403   4.593
 3270SOL    HW210710   1.132   6.554   4.650
 3271SOL     OW10711   5.733   1.690   0.966
 3271SOL    HW110712   5.638   1.681   0.934
 3271SOL    HW210713   5.769   1.779   0.940
 3272SOL     OW10714   5.220   0.522   0.618
 3272SOL    HW110715   5.283   0.520   0.541
 3272SOL    HW210716   5.126   0.519   0.584
 3273SOL     OW10717   6.990   6.646   2.484
 3273SOL    HW110718   6.951   6.577   2.421
 3273SOL    HW210719   6.955   6.630   2.576
 3274SOL     OW10720   3.190   2.050   5.914
 3274SOL    HW110721   3.175   2.100   5.829
 3274SOL    HW210722   3.116   1.984   5.928
 3275SOL     OW10723   3.020   1.285   6.415
 3275SOL    HW110724   3.002   1.200   6.366
 3275SOL    HW210725   2.936   1.340   6.418
 3276SOL     OW10726   2.979   6.377   0.325
 3276SOL    HW110727   3.066   6.349   0.364
 3276SOL    HW210728   2.993   6.411   0.232
 3277SOL     OW10729   0.064   6.677   5.011
 3277SOL    HW110730   0.154   6.694   5.053
 3277SOL    HW210731   0.014   6.611   5.066
 3278SOL     OW10732   1.154   0.665   6.447
 3278SOL    HW110733   1.127   0.725   6.373
 3278SOL    HW210734   1.086   0.670   6.521
 3279SOL     OW10735   1.522   6.890   1.228
 3279SOL    HW110736   1.430   6.923   1.205
 3279SOL    HW210737   1.542   6.912   1.324
 3280SOL     OW10738   1.671   4.361   6.234
 3280SOL    HW110739   1.748   4.373   6.297
 3280SOL    HW210740   1.624   4.276   6.255
 3281SOL     OW10741   2.659   5.645   0.284
 3281SOL    HW110742   2.736   5.676   0.228
 3281SOL    HW210743   2.687   5.642   0.380
 3282SOL     OW10744   2.405   5.252   2.641
 3282SOL    HW110745   2.328   5.230   2.701
 3282SOL    HW210746   2.418   5.178   2.575
 3283SOL     OW10747   2.236   0.693   3.314
 3283SOL    HW110748   2.241   0.595   3.334
 3283SOL    HW210749   2.140   0.723   3.317
 3284SOL     OW10750   6.603   3.694   0.013
 3284SOL    HW110751   6.523   3.643   6.998
 3284SOL    HW210752   6.658   3.634   0.071
 3285SOL     OW10753   0.714   1.695   4.039
 3285SOL    HW110754   0.637   1.686   3.976
 3285SOL    HW210755   0.798   1.664   3.993
 3286SOL     OW10756   3.396   3.953   5.264
 3286SOL    HW110757   3.379   3.999   5.351
 3286SOL    HW210758   3.338   3.872   5.257
 3287SOL     OW10759   1.644   5.364   1.177
 3287SOL    HW110760   1.734   5.397   1.149
 3287SOL    HW210761   1.654   5.276   1.224
 3288SOL     OW10762   0.401   6.655   6.406
 3288SOL    HW110763   0.358   6.685   6.491
 3288SOL    HW210764   0.378   6.559   6.389
 3289SOL     OW10765   1.983   5.702   4.483
 3289SOL    HW110766   1.910   5.701   4.415
 3289SOL    HW210767   1.975   5.620   4.541
 3290SOL     OW10768   6.974   5.094   1.530
 3290SOL    HW110769   6.895   5.086   1.469
 3290SOL    HW210770   6.943   5.099   1.625
 3291SOL     OW10771   1.731   6.658   1.206
 3291SOL    HW110772   1.719   6.756   1.225
 3291SOL    HW210773   1.666   6.630   1.135
 3292SOL     OW10774   0.594   6.012   6.532
 3292SOL    HW110775   0.579   6.064   6.616
 3292SOL    HW210776   0.566   6.066   6.453
 3293SOL     OW10777   6.853   1.145   2.720
 3293SOL    HW110778   6.765   1.192   2.716
 3293SOL    HW210779   6.846   1.057   2.672
 3294SOL     OW10780   0.746   0.694   0.330
 3294SOL    HW110781   0.670   0.727   0.274
 3294SOL    HW210782   0.716   0.614   0.383
 3295SOL     OW10783   1.330   2.604   6.540
 3295SOL    HW110784   1.233   2.585   6.526
 3295SOL    HW210785   1.340   2.674   6.611
 3296SOL     OW10786   1.521   6.411   2.584
 3296SOL    HW110787   1.459   6.490   2.582
 3296SOL    HW210788   1.485   6.339   2.525
 3297SOL     OW10789   3.543   2.566   6.712
 3297SOL    HW110790   3.560   2.524   6.801
 3297SOL    HW210791   3.451   2.542   6.681
 3298SOL     OW10792   6.403   3.559   2.827
 3298SOL    HW110793   6.369   3.526   2.915
 3298SOL    HW210794   6.496   3.526   2.813
 3299SOL     OW10795   2.141   6.915   5.032
 3299SOL    HW110796   2.220   6.973   5.017
 3299SOL    HW210797   2.163   6.845   5.100
 3300SOL     OW10798   6.609   0.170   5.268
 3300SOL    HW110799   6.661   0.108   5.327
 3300SOL    HW210800   6.606   0.132   5.175
 3301SOL     OW10801   0.751   3.573   3.047
 3301SOL    HW110802   0.678   3.573   3.115
 3301SOL    HW210803   0.839   3.587   3.092
 3302SOL     OW10804   1.174   4.099   4.019
 3302SOL    HW110805   1.084   4.055   4.020
 3302SOL    HW210806   1.234   4.053   3.954
 3303SOL     OW10807   3.810   3.512   2.912
 3303SOL    HW110808   3.858   3.426   2.897
 3303SOL    HW210809   3.840   3.554   2.998
 3304SOL     OW10810   0.424   5.950   4.253
 3304SOL    HW110811   0.423   5.941   4.154
 3304SOL    HW210812   0.336   5.986   4.284
 3305SOL     OW10813   2.006   1.009   2.319
 3305SOL    HW110814   2.006   0.922   2.270
 3305SOL    HW210815   2.050   1.079   2.262
 3306SOL     OW10816   1.253   3.986   3.529
 3306SOL    HW110817   1.249   3.962   3.626
 3306SOL    HW210818   1.273   4.084   3.519
 3307SOL     OW10819   0.544   6.122   6.768
 3307SOL    HW110820   0.619   6.177   6.804
 3307SOL    HW210821   0.528   6.043   6.828
 3308SOL     OW10822   4.337   6.087   0.736
 3308SOL    HW110823   4.348   6.184   0.711
 3308SOL    HW210824   4.278   6.043   0.669
 3309SOL     OW10825   6.796   5.081   3.307
 3309SOL    HW110826   6.713   5.054   3.357
 3309SOL    HW210827   6.790   5.177   3.281
 3310SOL     OW10828   1.265   5.791   1.928
 3310SOL    HW110829   1.362   5.767   1.923
 3310SOL    HW210830   1.211   5.710   1.949
 3311SOL     OW10831   4.423   6.306   1.281
 3311SOL    HW110832   4.470   6.391   1.254
 3311SOL    HW210833   4.479   6.258   1.349
 3312SOL     OW10834   2.953   3.600   0.239
 3312SOL    HW110835   3.034   3.658   0.243
 3312SOL    HW210836   2.903   3.606   0.325
 3313SOL     OW10837   6.606   5.437   3.814
 3313SOL    HW110838   6.654   5.422   3.900
 3313SOL    HW210839   6.510   5.412   3.824
 3314SOL     OW10840   0.994   3.611   5.310
 3314SOL    HW110841   0.954   3.666   5.238
 3314SOL    HW210842   1.070   3.557   5.273
 3315SOL     OW10843   6.436   1.688   3.550
 3315SOL    HW110844   6.522   1.738   3.555
 3315SOL    HW210845   6.414   1.666   3.455
 3316SOL     OW10846   4.513   1.652   0.316
 3316SOL    HW110847   4.443   1.616   0.376
 3316SOL    HW210848   4.529   1.588   0.240
 3317SOL     OW10849   3.923   2.542   1.614
 3317SOL    HW110850   3.845   2.554   1.676
 3317SOL    HW210851   3.992   2.612   1.634
 3318SOL     OW10852   2.522   5.710   5.340
 3318SOL    HW110853   2.526   5.640   5.413
 3318SOL    HW210854   2.427   5.735   5.323
 3319SOL     OW10855   0.459   5.607   4.888
 3319SOL    HW110856   0.483   5.510   4.899
 3319SOL    HW210857   0.461   5.630   4.791
 3320SOL     OW10858   0.160   0.765   6.228
 3320SOL    HW110859   0.174   0.668   6.210
 3320SOL    HW210860   0.210   0.791   6.310
 3321SOL     OW10861   3.386   4.155   3.437
 3321SOL    HW110862   3.315   4.136   3.504
 3321SOL    HW210863   3.346   4.155   3.345
 3322SOL     OW10864   4.305   1.695   1.047
 3322SOL    HW110865   4.233   1.655   0.992
 3322SOL    HW210866   4.345   1.774   0.999
 3323SOL     OW10867   2.310   5.061   0.212
 3323SOL    HW110868   2.226   5.010   0.231
 3323SOL    HW210869   2.323   5.070   0.113
 3324SOL     OW10870   0.527   1.990   0.999
 3324SOL    HW110871   0.558   2.034   0.915
 3324SOL    HW210872   0.469   2.052   1.050
 3325SOL     OW10873   1.664   2.948   0.689
 3325SOL    HW110874   1.631   2.923   0.781
 3325SOL    HW210875   1.611   3.027   0.656
 3326SOL     OW10876   6.310   1.319   1.258
 3326SOL    HW110877   6.345   1.386   1.192
 3326SOL    HW210878   6.215   1.299   1.238
 3327SOL     OW10879   3.411   6.138   2.464
 3327SOL    HW110880   3.497   6.117   2.510
 3327SOL    HW210881   3.428   6.203   2.389
 3328SOL     OW10882   4.686   0.593   2.595
 3328SOL    HW110883   4.663   0.554   2.506
 3328SOL    HW210884   4.651   0.534   2.668
 3329SOL     OW10885   4.867   0.520   5.175
 3329SOL    HW110886   4.772   0.498   5.193
 3329SOL    HW210887   4.873   0.611   5.135
 3330SOL     OW10888   6.917   5.489   2.517
 3330SOL    HW110889   6.961   5.571   2.481
 3330SOL    HW210890   6.930   5.414   2.452
 3331SOL     OW10891   1.947   3.104   3.087
 3331SOL    HW110892   1.980   3.011   3.073
 3331SOL    HW210893   1.850   3.102   3.111
 3332SOL     OW10894   3.765   5.377   1.267
 3332SOL    HW110895   3.758   5.434   1.349
 3332SOL    HW210896   3.677   5.377   1.219
 3333SOL     OW10897   2.719   3.139   1.751
 3333SOL    HW110898   2.766   3.084   1.682
 3333SOL    HW210899   2.784   3.202   1.794
 3334SOL     OW10900   2.099   2.232   2.621
 3334SOL    HW110901   2.031   2.295   2.582
 3334SOL    HW210902   2.168   2.210   2.551
 3335SOL     OW10903   3.858   4.569   5.481
 3335SOL    HW110904   3.901   4.502   5.420
 3335SOL    HW210905   3.870   4.539   5.576
 3336SOL     OW10906   5.200   5.756   4.240
 3336SOL    HW110907   5.125   5.812   4.274
 3336SOL    HW210908   5.166   5.693   4.170
 3337SOL     OW10909   3.377   2.875   3.360
 3337SOL    HW110910   3.441   2.935   3.407
 3337SOL    HW210911   3.370   2.789   3.410
 3338SOL     OW10912   2.692   2.389   1.531
 3338SOL    HW110913   2.789   2.373   1.515
 3338SOL    HW210914   2.681   2.460   1.600
 3339SOL     OW10915   1.737   6.665   5.806
 3339SOL    HW110916   1.644   6.700   5.814
 3339SOL    HW210917   1.756   6.601   5.881
 3340SOL     OW10918   3.960   1.040   4.474
 3340SOL    HW110919   4.029   0.992   4.420
 3340SOL    HW210920   3.891   1.079   4.412
 3341SOL     OW10921   1.638   4.058   2.899
 3341SOL    HW110922   1.681   4.141   2.936
 3341SOL    HW210923   1.562   4.084   2.840
 3342SOL     OW10924   0.024   0.576   2.054
 3342SOL    HW110925   0.114   0.541   2.027
 3342SOL    HW210926   6.976   0.557   1.981
 3343SOL     OW10927   4.512   5.374   5.689
 3343SOL    HW110928   4.551   5.286   5.715
 3343SOL    HW210929   4.414   5.375   5.708
 3344SOL     OW10930   0.589   3.386   2.607
 3344SOL    HW110931   0.638   3.383   2.694
 3344SOL    HW210932   0.492   3.402   2.624
 3345SOL     OW10933   6.406   4.525   0.172
 3345SOL    HW110934   6.415   4.506   0.269
 3345SOL    HW210935   6.346   4.456   0.130
 3346SOL     OW10936   1.975   0.970   0.162
 3346SOL    HW110937   2.042   0.985   0.235
 3346SOL    HW210938   1.983   1.044   0.095
 3347SOL     OW10939   6.894   3.569   6.560
 3347SOL    HW110940   6.851   3.628   6.630
 3347SOL    HW210941   6.911   3.623   6.478
 3348SOL     OW10942   3.598   3.745   6.297
 3348SOL    HW110943   3.583   3.770   6.392
 3348SOL    HW210944   3.692   3.767   6.270
 3349SOL     OW10945   1.720   4.326   3.646
 3349SOL    HW110946   1.627   4.288   3.650
 3349SOL    HW210947   1.720   4.419   3.683
 3350SOL     OW10948   0.823   4.331   4.614
 3350SOL    HW110949   0.881   4.385   4.675
 3350SOL    HW210950   0.878   4.261   4.569
 3351SOL     OW10951   4.763   0.867   1.401
 3351SOL    HW110952   4.826   0.941   1.424
 3351SOL    HW210953   4.759   0.802   1.477
 3352SOL     OW10954   6.415   1.577   6.579
 3352SOL    HW110955   6.496   1.584   6.638
 3352SOL    HW210956   6.333   1.593   6.633
 3353SOL     OW10957   2.598   0.279   1.112
 3353SOL    HW110958   2.577   0.228   1.028
 3353SOL    HW210959   2.565   0.227   1.191
 3354SOL     OW10960   3.238   4.203   6.234
 3354SOL    HW110961   3.165   4.257   6.276
 3354SOL    HW210962   3.277   4.254   6.157
 3355SOL     OW10963   1.934   0.771   4.962
 3355SOL    HW110964   1.851   0.714   4.962
 3355SOL    HW210965   2.013   0.714   4.937
 3356SOL     OW10966   1.660   6.855   5.507
 3356SOL    HW110967   1.574   6.864   5.458
 3356SOL    HW210968   1.687   6.758   5.509
 3357SOL     OW10969   3.039   3.129   2.201
 3357SOL    HW110970   3.083   3.144   2.112
 3357SOL    HW210971   3.021   3.031   2.212
 3358SOL     OW10972   6.700   0.893   1.434
 3358SOL    HW110973   6.715   0.991   1.425
 3358SOL    HW210974   6.749   0.845   1.361
 3359SOL     OW10975   6.858   6.372   4.242
 3359SOL    HW110976   6.788   6.443   4.234
 3359SOL    HW210977   6.820   6.285   4.210
 3360SOL     OW10978   0.663   3.418   4.614
 3360SOL    HW110979   0.710   3.469   4.542
 3360SOL    HW210980   0.644   3.479   4.691
 3361SOL     OW10981   6.555   6.992   5.051
 3361SOL    HW110982   6.585   6.999   4.956
 3361SOL    HW210983   6.611   6.925   5.099
 3362SOL     OW10984   3.751   1.011   4.135
 3362SOL    HW110985   3.832   0.971   4.090
 3362SOL    HW210986   3.672   1.000   4.075
 3363SOL     OW10987   5.842   3.565   0.176
 3363SOL    HW110988   5.745   3.548   0.193
 3363SOL    HW210989   5.875   3.503   0.104
 3364SOL     OW10990   1.713   3.598   3.734
 3364SOL    HW110991   1.742   3.508   3.768
 3364SOL    HW210992   1.666   3.647   3.807
 3365SOL     OW10993   2.294   4.162   3.799
 3365SOL    HW110994   2.324   4.162   3.704
 3365SOL    HW210995   2.202   4.123   3.805
 3366SOL     OW10996   6.105   3.634   3.833
 3366SOL    HW110997   6.162   3.695   3.778
 3366SOL    HW210998   6.149   3.619   3.922
 3367SOL     OW10999   3.453   3.317   3.859
 3367SOL    HW111000   3.519   3.260   3.810
 3367SOL    HW211001   3.502   3.375   3.924
 3368SOL     OW11002   1.895   6.409   1.963
 3368SOL    HW111003   1.842   6.469   2.022
 3368SOL    HW211004   1.883   6.437   1.867
 3369SOL     OW11005   4.867   2.834   0.853
 3369SOL    HW111006   4.925   2.793   0.923
 3369SOL    HW211007   4.924   2.865   0.776
 3370SOL     OW11008   0.920   5.589   3.005
 3370SOL    HW111009   0.910   5.606   3.103
 3370SOL    HW211010   0.983   5.657   2.966
 3371SOL     OW11011   2.182   2.326   2.919
 3371SOL    HW111012   2.254   2.370   2.973
 3371SOL    HW211013   2.212   2.317   2.824
 3372SOL     OW11014   5.807   3.652   2.494
 3372SOL    HW111015   5.753   3.674   2.575
 3372SOL    HW211016   5.871   3.579   2.515
 3373SOL     OW11017   6.254   3.304   1.539
 3373SOL    HW111018   6.300   3.296   1.627
 3373SOL    HW211019   6.184   3.375   1.544
 3374SOL     OW11020   0.477   0.064   3.788
 3374SOL    HW111021   0.537   0.057   3.708
 3374SOL    HW211022   0.511   0.003   3.859
 3375SOL     OW11023   6.478   5.113   6.004
 3375SOL    HW111024   6.391   5.064   6.009
 3375SOL    HW211025   6.549   5.050   5.971
 3376SOL     OW11026   2.977   3.795   4.640
 3376SOL    HW111027   3.010   3.875   4.591
 3376SOL    HW211028   3.026   3.786   4.726
 3377SOL     OW11029   6.427   5.266   3.537
 3377SOL    HW111030   6.525   5.275   3.523
 3377SOL    HW211031   6.381   5.349   3.505
 3378SOL     OW11032   1.577   6.297   0.830
 3378SOL    HW111033   1.527   6.251   0.757
 3378SOL    HW211034   1.641   6.364   0.791
 3379SOL     OW11035   6.534   4.220   3.042
 3379SOL    HW111036   6.541   4.265   3.131
 3379SOL    HW211037   6.624   4.217   2.999
 3380SOL     OW11038   2.888   4.828   0.176
 3380SOL    HW111039   2.929   4.745   0.214
 3380SOL    HW211040   2.933   4.908   0.216
 3381SOL     OW11041   1.694   3.421   6.471
 3381SOL    HW111042   1.767   3.403   6.405
 3381SOL    HW211043   1.695   3.518   6.497
 3382SOL     OW11044   6.867   2.901   0.867
 3382SOL    HW111045   6.894   2.953   0.786
 3382SOL    HW211046   6.795   2.837   0.843
 3383SOL     OW11047   4.979   5.390   0.333
 3383SOL    HW111048   4.978   5.326   0.409
 3383SOL    HW211049   4.904   5.455   0.343
 3384SOL     OW11050   2.504   4.110   6.845
 3384SOL    HW111051   2.405   4.108   6.852
 3384SOL    HW211052   2.536   4.204   6.856
 3385SOL     OW11053   0.123   1.861   4.314
 3385SOL    HW111054   0.208   1.908   4.290
 3385SOL    HW211055   0.120   1.772   4.270
 3386SOL     OW11056   0.343   4.186   5.330
 3386SOL    HW111057   0.244   4.202   5.335
 3386SOL    HW211058   0.390   4.273   5.317
 3387SOL     OW11059   6.344   1.023   3.332
 3387SOL    HW111060   6.330   1.115   3.297
 3387SOL    HW211061   6.405   0.973   3.270
 3388SOL     OW11062   6.618   3.579   0.872
 3388SOL    HW111063   6.541   3.523   0.904
 3388SOL    HW211064   6.699   3.520   0.860
 3389SOL     OW11065   5.944   6.554   0.647
 3389SOL    HW111066   6.011   6.493   0.689
 3389SOL    HW211067   5.859   6.504   0.632
 3390SOL     OW11068   3.121   6.441   6.064
 3390SOL    HW111069   3.085   6.492   5.986
 3390SOL    HW211070   3.213   6.408   6.044
 3391SOL     OW11071   5.855   3.109   4.158
 3391SOL    HW111072   5.808   3.149   4.236
 3391SOL    HW211073   5.791   3.054   4.105
 3392SOL     OW11074   4.694   6.568   5.727
 3392SOL    HW111075   4.629   6.575   5.803
 3392SOL    HW211076   4.782   6.536   5.763
 3393SOL     OW11077   5.248   5.952   1.052
 3393SOL    HW111078   5.326   5.927   0.995
 3393SOL    HW211079   5.166   5.907   1.017
 3394SOL     OW11080   3.113   5.574   1.187
 3394SOL    HW111081   3.140   5.617   1.101
 3394SOL    HW211082   3.194   5.557   1.242
 3395SOL     OW11083   2.606   6.955   3.687
 3395SOL    HW111084   2.584   6.867   3.644
 3395SOL    HW211085   2.524   7.013   3.688
 3396SOL     OW11086   4.978   1.519   4.573
 3396SOL    HW111087   4.953   1.606   4.531
 3396SOL    HW211088   4.898   1.459   4.578
 3397SOL     OW11089   2.123   6.559   6.812
 3397SOL    HW111090   2.126   6.650   6.851
 3397SOL    HW211091   2.084   6.495   6.878
 3398SOL     OW11092   0.029   2.375   4.808
 3398SOL    HW111093   0.069   2.464   4.830
 3398SOL    HW211094   6.948   2.379   4.821
 3399SOL     OW11095   6.455   5.943   1.519
 3399SOL    HW111096   6.460   6.020   1.456
 3399SOL    HW211097   6.456   5.976   1.613
 3400SOL     OW11098   5.050   1.582   6.319
 3400SOL    HW111099   5.004   1.506   6.272
 3400SOL    HW211100   4.996   1.608   6.399
 3401SOL     OW11101   6.306   3.412   5.551
 3401SOL    HW111102   6.330   3.324   5.592
 3401SOL    HW211103   6.285   3.399   5.454
 3402SOL     OW11104   6.059   3.458   1.561
 3402SOL    HW111105   6.033   3.523   1.490
 3402SOL    HW211106   5.977   3.412   1.596
 3403SOL     OW11107   5.063   6.413   6.650
 3403SOL    HW111108   5.147   6.442   6.695
 3403SOL    HW211109   4.990   6.404   6.718
 3404SOL     OW11110   5.071   4.567   5.245
 3404SOL    HW111111   5.107   4.519   5.325
 3404SOL    HW211112   5.144   4.620   5.201
 3405SOL     OW11113   4.793   6.098   6.865
 3405SOL    HW111114   4.774   6.011   6.821
 3405SOL    HW211115   4.792   6.087   6.964
 3406SOL     OW11116   2.690   4.959   1.375
 3406SOL    HW111117   2.672   5.042   1.428
 3406SOL    HW211118   2.660   4.879   1.427
 3407SOL     OW11119   1.079   3.886   0.261
 3407SOL    HW111120   1.010   3.949   0.225
 3407SOL    HW211121   1.048   3.792   0.249
 3408SOL     OW11122   4.791   2.011   3.571
 3408SOL    HW111123   4.840   1.971   3.493
 3408SOL    HW211124   4.709   1.957   3.591
 3409SOL     OW11125   4.393   6.988   0.616
 3409SOL    HW111126   4.382   0.024   0.699
 3409SOL    HW211127   4.380   0.028   0.536
 3410SOL     OW11128   5.869   0.419   3.046
 3410SOL    HW111129   5.872   0.327   3.085
 3410SOL    HW211130   5.866   0.412   2.946
 3411SOL     OW11131   6.016   1.896   6.998
 3411SOL    HW111132   6.082   1.891   0.054
 3411SOL    HW211133   6.055   1.945   6.920
 3412SOL     OW11134   6.246   3.049   2.116
 3412SOL    HW111135   6.185   2.994   2.173
 3412SOL    HW211136   6.229   3.029   2.020
 3413SOL     OW11137   6.767   2.759   6.407
 3413SOL    HW111138   6.768   2.819   6.328
 3413SOL    HW211139   6.819   2.676   6.387
 3414SOL     OW11140   3.090   4.383   1.189
 3414SOL    HW111141   3.154   4.309   1.212
 3414SOL    HW211142   3.115   4.422   1.100
 3415SOL     OW11143   1.638   1.715   6.544
 3415SOL    HW111144   1.603   1.633   6.589
 3415SOL    HW211145   1.678   1.690   6.455
 3416SOL     OW11146   6.046   0.135   6.808
 3416SOL    HW111147   6.005   0.096   6.890
 3416SOL    HW211148   6.111   0.207   6.834
 3417SOL     OW11149   5.432   6.661   3.442
 3417SOL    HW111150   5.433   6.657   3.342
 3417SOL    HW211151   5.457   6.753   3.472
 3418SOL     OW11152   4.530   5.425   1.001
 3418SOL    HW111153   4.541   5.379   0.913
 3418SOL    HW211154   4.567   5.518   0.995
 3419SOL     OW11155   2.272   5.946   5.054
 3419SOL    HW111156   2.335   5.869   5.054
 3419SOL    HW211157   2.292   6.006   4.976
 3420SOL     OW11158   4.470   2.438   2.738
 3420SOL    HW111159   4.481   2.476   2.647
 3420SOL    HW211160   4.550   2.460   2.794
 3421SOL     OW11161   6.679   2.617   3.719
 3421SOL    HW111162   6.750   2.556   3.754
 3421SOL    HW211163   6.664   2.691   3.784
 3422SOL     OW11164   2.033   6.216   0.643
 3422SOL    HW111165   2.027   6.122   0.675
 3422SOL    HW211166   2.078   6.219   0.554
 3423SOL     OW11167   1.304   4.222   5.972
 3423SOL    HW111168   1.237   4.250   6.042
 3423SOL    HW211169   1.269   4.246   5.882
 3424SOL     OW11170   4.521   0.547   1.977
 3424SOL    HW111171   4.506   0.579   1.883
 3424SOL    HW211172   4.614   0.572   2.006
 3425SOL     OW11173   5.491   3.589   0.644
 3425SOL    HW111174   5.499   3.676   0.597
 3425SOL    HW211175   5.545   3.592   0.729
 3426SOL     OW11176   5.415   3.331   6.505
 3426SOL    HW111177   5.384   3.413   6.553
 3426SOL    HW211178   5.436   3.259   6.572
 3427SOL     OW11179   1.542   2.665   1.218
 3427SOL    HW111180   1.590   2.685   1.303
 3427SOL    HW211181   1.607   2.641   1.147
 3428SOL     OW11182   4.952   6.390   5.467
 3428SOL    HW111183   4.959   6.318   5.398
 3428SOL    HW211184   5.041   6.434   5.479
 3429SOL     OW11185   6.353   0.038   1.313
 3429SOL    HW111186   6.274   0.012   1.258
 3429SOL    HW211187   6.360   6.994   1.392
 3430SOL     OW11188   1.846   4.584   5.346
 3430SOL    HW111189   1.943   4.562   5.345
 3430SOL    HW211190   1.794   4.507   5.308
 3431SOL     OW11191   0.657   4.813   3.080
 3431SOL    HW111192   0.611   4.726   3.068
 3431SOL    HW211193   0.657   4.863   2.994
 3432SOL     OW11194   1.580   4.071   0.239
 3432SOL    HW111195   1.585   4.115   0.329
 3432SOL    HW211196   1.485   4.072   0.207
 3433SOL     OW11197   2.754   1.691   6.562
 3433SOL    HW111198   2.678   1.717   6.621
 3433SOL    HW211199   2.757   1.752   6.483
 3434SOL     OW11200   3.267   2.575   1.672
 3434SOL    HW111201   3.184   2.598   1.722
 3434SOL    HW211202   3.243   2.536   1.583
 3435SOL     OW11203   2.199   1.457   0.854
 3435SOL    HW111204   2.173   1.526   0.787
 3435SOL    HW211205   2.298   1.459   0.867
 3436SOL     OW11206   3.711   0.020   6.710
 3436SOL    HW111207   3.726   6.976   6.787
 3436SOL    HW211208   3.686   0.111   6.744
 3437SOL     OW11209   1.153   0.069   6.437
 3437SOL    HW111210   1.248   0.099   6.433
 3437SOL    HW211211   1.100   0.114   6.364
 3438SOL     OW11212   1.761   3.957   1.296
 3438SOL    HW111213   1.709   3.889   1.243
 3438SOL    HW211214   1.697   4.019   1.341
 3439SOL     OW11215   2.778   5.569   1.719
 3439SOL    HW111216   2.770   5.640   1.649
 3439SOL    HW211217   2.687   5.541   1.750
 3440SOL     OW11218   4.147   3.702   4.750
 3440SOL    HW111219   4.136   3.704   4.849
 3440SOL    HW211220   4.235   3.662   4.727
 3441SOL     OW11221   5.530   4.787   5.482
 3441SOL    HW111222   5.598   4.816   5.550
 3441SOL    HW211223   5.563   4.810   5.390
 3442SOL     OW11224   3.056   2.879   1.310
 3442SOL    HW111225   3.072   2.795   1.361
 3442SOL    HW211226   3.026   2.951   1.372
 3443SOL     OW11227   0.987   5.948   2.517
 3443SOL    HW111228   1.024   5.953   2.425
 3443SOL    HW211229   0.889   5.928   2.512
 3444SOL     OW11230   6.035   3.596   6.412
 3444SOL    HW111231   6.073   3.688   6.424
 3444SOL    HW211232   6.109   3.529   6.411
 3445SOL     OW11233   5.851   4.894   3.045
 3445SOL    HW111234   5.901   4.821   3.092
 3445SOL    HW211235   5.875   4.982   3.084
 3446SOL     OW11236   5.062   0.950   1.036
 3446SOL    HW111237   5.156   0.967   1.067
 3446SOL    HW211238   4.999   1.012   1.082
 3447SOL     OW11239   5.000   0.856   6.582
 3447SOL    HW111240   5.090   0.865   6.539
 3447SOL    HW211241   4.935   0.818   6.516
 3448SOL     OW11242   1.543   5.761   4.758
 3448SOL    HW111243   1.576   5.782   4.850
 3448SOL    HW211244   1.452   5.720   4.765
 3449SOL     OW11245   6.974   4.226   5.243
 3449SOL    HW111246   6.905   4.154   5.239
 3449SOL    HW211247   7.001   4.253   5.151
 3450SOL     OW11248   2.395   6.939   1.613
 3450SOL    HW111249   2.451   6.896   1.543
 3450SOL    HW211250   2.400   6.885   1.697
 3451SOL     OW11251   2.242   1.640   1.377
 3451SOL    HW111252   2.332   1.615   1.412
 3451SOL    HW211253   2.195   1.559   1.342
 3452SOL     OW11254   4.204   0.900   4.846
 3452SOL    HW111255   4.270   0.869   4.915
 3452SOL    HW211256   4.251   0.915   4.760
 3453SOL     OW11257   3.995   6.436   6.161
 3453SOL    HW111258   4.008   6.349   6.210
 3453SOL    HW211259   4.078   6.491   6.168
 3454SOL     OW11260   0.891   3.056   1.415
 3454SOL    HW111261   0.806   3.102   1.390
 3454SOL    HW211262   0.879   2.957   1.407
 3455SOL     OW11263   0.811   2.785   4.724
 3455SOL    HW111264   0.820   2.782   4.823
 3455SOL    HW211265   0.779   2.697   4.690
 3456SOL     OW11266   5.964   5.106   3.189
 3456SOL    HW111267   6.043   5.107   3.250
 3456SOL    HW211268   5.914   5.192   3.198
 3457SOL     OW11269   3.385   4.372   6.019
 3457SOL    HW111270   3.462   4.343   6.076
 3457SOL    HW211271   3.366   4.301   5.951
 3458SOL     OW11272   4.132   1.360   2.106
 3458SOL    HW111273   4.081   1.338   2.022
 3458SOL    HW211274   4.182   1.446   2.092
 3459SOL     OW11275   4.366   6.593   2.796
 3459SOL    HW111276   4.317   6.630   2.875
 3459SOL    HW211277   4.401   6.669   2.741
 3460SOL     OW11278   4.293   1.704   4.796
 3460SOL    HW111279   4.215   1.666   4.846
 3460SOL    HW211280   4.260   1.750   4.713
 3461SOL     OW11281   5.878   5.506   4.894
 3461SOL    HW111282   5.855   5.569   4.819
 3461SOL    HW211283   5.977   5.491   4.894
 3462SOL     OW11284   1.294   3.778   6.561
 3462SOL    HW111285   1.368   3.844   6.566
 3462SOL    HW211286   1.303   3.711   6.634
 3463SOL     OW11287   5.341   4.483   1.174
 3463SOL    HW111288   5.411   4.411   1.175
 3463SOL    HW211289   5.325   4.513   1.080
 3464SOL     OW11290   0.195   4.566   5.070
 3464SOL    HW111291   0.261   4.527   5.134
 3464SOL    HW211292   0.230   4.652   5.034
 3465SOL     OW11293   1.283   1.255   1.159
 3465SOL    HW111294   1.243   1.181   1.105
 3465SOL    HW211295   1.303   1.222   1.252
 3466SOL     OW11296   6.580   3.829   6.004
 3466SOL    HW111297   6.510   3.889   5.965
 3466SOL    HW211298   6.612   3.866   6.091
 3467SOL     OW11299   1.984   2.321   0.106
 3467SOL    HW111300   2.049   2.290   0.175
 3467SOL    HW211301   1.906   2.258   0.104
 3468SOL     OW11302   3.726   6.356   3.683
 3468SOL    HW111303   3.661   6.388   3.751
 3468SOL    HW211304   3.809   6.412   3.687
 3469SOL     OW11305   5.481   3.258   3.029
 3469SOL    HW111306   5.566   3.250   3.081
 3469SOL    HW211307   5.437   3.169   3.023
 3470SOL     OW11308   0.313   5.265   1.353
 3470SOL    HW111309   0.264   5.328   1.414
 3470SOL    HW211310   0.312   5.302   1.260
 3471SOL     OW11311   4.318   6.665   5.066
 3471SOL    HW111312   4.247   6.625   5.124
 3471SOL    HW211313   4.294   6.652   4.970
 3472SOL     OW11314   3.384   0.952   5.560
 3472SOL    HW111315   3.462   0.900   5.525
 3472SOL    HW211316   3.299   0.915   5.521
 3473SOL     OW11317   5.164   0.957   5.451
 3473SOL    HW111318   5.256   0.991   5.434
 3473SOL    HW211319   5.106   0.977   5.372
 3474SOL     OW11320   4.585   4.507   0.525
 3474SOL    HW111321   4.559   4.462   0.611
 3474SOL    HW211322   4.655   4.576   0.545
 3475SOL     OW11323   2.066   5.709   4.894
 3475SOL    HW111324   2.016   5.676   4.973
 3475SOL    HW211325   2.164   5.693   4.907
 3476SOL     OW11326   4.763   1.152   4.067
 3476SOL    HW111327   4.748   1.250   4.054
 3476SOL    HW211328   4.861   1.135   4.080
 3477SOL     OW11329   4.778   6.110   1.614
 3477SOL    HW111330   4.796   6.012   1.611
 3477SOL    HW211331   4.773   6.140   1.710
 3478SOL     OW11332   3.781   4.170   0.048
 3478SOL    HW111333   3.853   4.213   0.102
 3478SOL    HW211334   3.692   4.196   0.085
 3479SOL     OW11335   0.832   0.338   1.704
 3479SOL    HW111336   0.897   0.375   1.637
 3479SOL    HW211337   0.865   0.250   1.738
 3480SOL     OW11338   1.080   1.270   3.659
 3480SOL    HW111339   1.119   1.339   3.598
 3480SOL    HW211340   1.087   1.303   3.754
 3481SOL     OW11341   2.413   0.036   6.675
 3481SOL    HW111342   2.437   0.103   6.605
 3481SOL    HW211343   2.362   6.979   6.632
 3482SOL     OW11344   0.785   1.837   0.631
 3482SOL    HW111345   0.734   1.898   0.571
 3482SOL    HW211346   0.723   1.790   0.693
 3483SOL     OW11347   3.566   0.255   1.253
 3483SOL    HW111348   3.514   0.205   1.184
 3483SOL    HW211349   3.504   0.289   1.324
 3484SOL     OW11350   3.449   3.463   3.537
 3484SOL    HW111351   3.510   3.491   3.611
 3484SOL    HW211352   3.490   3.488   3.449
 3485SOL     OW11353   0.241   1.642   4.721
 3485SOL    HW111354   0.183   1.723   4.733
 3485SOL    HW211355   0.199   1.581   4.654
 3486SOL     OW11356   4.272   1.711   2.390
 3486SOL    HW111357   4.309   1.799   2.422
 3486SOL    HW211358   4.174   1.720   2.374
 3487SOL     OW11359   0.112   0.661   6.701
 3487SOL    HW111360   0.168   0.666   6.784
 3487SOL    HW211361   0.065   0.573   6.699
 3488SOL     OW11362   6.170   3.096   3.746
 3488SOL    HW111363   6.074   3.088   3.718
 3488SOL    HW211364   6.182   3.179   3.800
 3489SOL     OW11365   2.826   0.140   0.763
 3489SOL    HW111366   2.760   0.190   0.820
 3489SOL    HW211367   2.866   0.066   0.817
 3490SOL     OW11368   3.707   3.639   0.461
 3490SOL    HW111369   3.676   3.728   0.493
 3490SOL    HW211370   3.635   3.596   0.406
 3491SOL     OW11371   0.327   2.905   4.761
 3491SOL    HW111372   0.237   2.904   4.716
 3491SOL    HW211373   0.316   2.933   4.856
 3492SOL     OW11374   5.669   4.747   6.569
 3492SOL    HW111375   5.573   4.753   6.542
 3492SOL    HW211376   5.675   4.742   6.669
 3493SOL     OW11377   6.826   4.620   0.181
 3493SOL    HW111378   6.785   4.624   0.272
 3493SOL    HW211379   6.754   4.608   0.112
 3494SOL     OW11380   3.305   0.190   0.731
 3494SOL    HW111381   3.247   0.232   0.801
 3494SOL    HW211382   3.250   0.127   0.675
 3495SOL     OW11383   5.166   4.966   0.066
 3495SOL    HW111384   5.154   4.965   0.165
 3495SOL    HW211385   5.077   4.980   0.022
 3496SOL     OW11386   1.628   4.145   0.490
 3496SOL    HW111387   1.624   4.213   0.563
 3496SOL    HW211388   1.707   4.085   0.506
 3497SOL     OW11389   4.860   6.850   3.727
 3497SOL    HW111390   4.764   6.861   3.755
 3497SOL    HW211391   4.872   6.887   3.635
 3498SOL     OW11392   2.522   1.358   2.113
 3498SOL    HW111393   2.621   1.369   2.121
 3498SOL    HW211394   2.476   1.426   2.171
 3499SOL     OW11395   6.344   3.297   3.279
 3499SOL    HW111396   6.320   3.367   3.347
 3499SOL    HW211397   6.329   3.206   3.319
 3500SOL     OW11398   6.738   3.332   0.589
 3500SOL    HW111399   6.826   3.373   0.569
 3500SOL    HW211400   6.731   3.243   0.545
 3501SOL     OW11401   1.333   4.761   4.215
 3501SOL    HW111402   1.382   4.741   4.130
 3501SOL    HW211403   1.396   4.804   4.280
 3502SOL     OW11404   0.452   3.545   1.704
 3502SOL    HW111405   0.524   3.523   1.770
 3502SOL    HW211406   0.424   3.640   1.716
 3503SOL     OW11407   4.872   6.720   4.028
 3503SOL    HW111408   4.910   6.628   4.039
 3503SOL    HW211409   4.939   6.778   3.981
 3504SOL     OW11410   2.109   3.454   2.267
 3504SOL    HW111411   2.151   3.452   2.176
 3504SOL    HW211412   2.130   3.370   2.315
 3505SOL     OW11413   4.636   5.516   5.223
 3505SOL    HW111414   4.587   5.485   5.141
 3505SOL    HW211415   4.584   5.489   5.304
 3506SOL     OW11416   5.340   4.992   2.340
 3506SOL    HW111417   5.418   5.052   2.320
 3506SOL    HW211418   5.373   4.900   2.362
 3507SOL     OW11419   1.075   0.341   5.947
 3507SOL    HW111420   1.107   0.314   5.856
 3507SOL    HW211421   0.995   0.400   5.938
 3508SOL     OW11422   5.870   3.071   6.448
 3508SOL    HW111423   5.818   2.986   6.445
 3508SOL    HW211424   5.851   3.125   6.365
 3509SOL     OW11425   6.854   6.024   1.257
 3509SOL    HW111426   6.938   6.077   1.256
 3509SOL    HW211427   6.800   6.045   1.175
 3510SOL     OW11428   1.757   3.196   2.377
 3510SOL    HW111429   1.753   3.183   2.278
 3510SOL    HW211430   1.780   3.291   2.398
 3511SOL     OW11431   0.639   1.064   5.484
 3511SOL    HW111432   0.722   1.015   5.508
 3511SOL    HW211433   0.566   0.998   5.463
 3512SOL     OW11434   3.213   3.577   1.308
 3512SOL    HW111435   3.199   3.490   1.260
 3512SOL    HW211436   3.206   3.652   1.242
 3513SOL     OW11437   5.986   4.654   1.091
 3513SOL    HW111438   5.915   4.692   1.150
 3513SOL    HW211439   5.971   4.555   1.080
 3514SOL     OW11440   1.497   6.446   1.873
 3514SOL    HW111441   1.516   6.532   1.921
 3514SOL    HW211442   1.400   6.422   1.886
 3515SOL     OW11443   3.037   6.016   3.285
 3515SOL    HW111444   3.114   6.059   3.237
 3515SOL    HW211445   3.066   5.926   3.319
 3516SOL     OW11446   2.685   1.289   0.608
 3516SOL    HW111447   2.760   1.224   0.618
 3516SOL    HW211448   2.605   1.256   0.657
 3517SOL     OW11449   1.250   1.013   6.367
 3517SOL    HW111450   1.306   1.095   6.377
 3517SOL    HW211451   1.287   0.957   6.292
 3518SOL     OW11452   4.334   2.809   6.053
 3518SOL    HW111453   4.253   2.784   5.999
 3518SOL    HW211454   4.416   2.775   6.008
 3519SOL     OW11455   2.600   6.721   0.831
 3519SOL    HW111456   2.685   6.754   0.872
 3519SOL    HW211457   2.544   6.799   0.803
 3520SOL     OW11458   4.268   5.573   1.161
 3520SOL    HW111459   4.222   5.557   1.248
 3520SOL    HW211460   4.255   5.495   1.101
 3521SOL     OW11461   5.340   2.222   0.496
 3521SOL    HW111462   5.285   2.294   0.539
 3521SOL    HW211463   5.428   2.215   0.542
 3522SOL     OW11464   3.495   5.101   2.201
 3522SOL    HW111465   3.475   5.132   2.293
 3522SOL    HW211466   3.470   5.005   2.191
 3523SOL     OW11467   2.092   5.019   6.037
 3523SOL    HW111468   2.116   5.058   5.948
 3523SOL    HW211469   1.993   5.013   6.046
 3524SOL     OW11470   2.607   6.776   1.160
 3524SOL    HW111471   2.560   6.724   1.089
 3524SOL    HW211472   2.633   6.714   1.235
 3525SOL     OW11473   1.401   2.949   2.572
 3525SOL    HW111474   1.401   2.944   2.672
 3525SOL    HW211475   1.376   2.859   2.535
 3526SOL     OW11476   2.309   0.590   2.880
 3526SOL    HW111477   2.334   0.543   2.965
 3526SOL    HW211478   2.266   0.678   2.902
 3527SOL     OW11479   4.636   3.227   6.117
 3527SOL    HW111480   4.721   3.261   6.156
 3527SOL    HW211481   4.630   3.128   6.132
 3528SOL     OW11482   0.533   6.709   4.566
 3528SOL    HW111483   0.542   6.798   4.612
 3528SOL    HW211484   0.615   6.654   4.584
 3529SOL     OW11485   4.042   6.422   6.791
 3529SOL    HW111486   4.022   6.505   6.843
 3529SOL    HW211487   4.083   6.447   6.703
 3530SOL     OW11488   1.969   6.137   2.695
 3530SOL    HW111489   1.940   6.070   2.626
 3530SOL    HW211490   1.961   6.096   2.786
 3531SOL     OW11491   3.840   3.483   6.818
 3531SOL    HW111492   3.933   3.452   6.835
 3531SOL    HW211493   3.832   3.580   6.841
 3532SOL     OW11494   1.957   6.657   0.303
 3532SOL    HW111495   1.936   6.688   0.396
 3532SOL    HW211496   1.917   6.721   0.237
 3533SOL     OW11497   1.201   1.466   3.493
 3533SOL    HW111498   1.285   1.417   3.470
 3533SOL    HW211499   1.189   1.544   3.431
 3534SOL     OW11500   5.281   1.074   4.770
 3534SOL    HW111501   5.319   0.995   4.818
 3534SOL    HW211502   5.236   1.135   4.835
 3535SOL     OW11503   4.732   5.777   6.809
 3535SOL    HW111504   4.782   5.722   6.875
 3535SOL    HW211505   4.651   5.816   6.852
 3536SOL     OW11506   0.859   4.323   3.677
 3536SOL    HW111507   0.889   4.313   3.582
 3536SOL    HW211508   0.759   4.325   3.680
 3537SOL     OW11509   2.622   4.873   0.469
 3537SOL    HW111510   2.523   4.863   0.477
 3537SOL    HW211511   2.653   4.943   0.534
 3538SOL     OW11512   2.964   0.657   4.663
 3538SOL    HW111513   3.055   0.679   4.698
 3538SOL    HW211514   2.963   0.563   4.629
 3539SOL     OW11515   5.598   5.725   6.263
 3539SOL    HW111516   5.526   5.734   6.333
 3539SOL    HW211517   5.654   5.645   6.283
 3540SOL     OW11518   2.666   3.646   6.694
 3540SOL    HW111519   2.711   3.691   6.771
 3540SOL    HW211520   2.623   3.715   6.636
 3541SOL     OW11521   1.910   2.732   1.592
 3541SOL    HW111522   1.961   2.717   1.676
 3541SOL    HW211523   1.970   2.718   1.513
 3542SOL     OW11524   5.342   1.536   6.250
 3542SOL    HW111525   5.362   1.563   6.156
 3542SOL    HW211526   5.276   1.600   6.290
 3543SOL     OW11527   0.243   2.221   3.194
 3543SOL    HW111528   0.194   2.205   3.280
 3543SOL    HW211529   0.315   2.153   3.183
 3544SOL     OW11530   3.068   3.900   6.850
 3544SOL    HW111531   3.015   3.921   6.769
 3544SOL    HW211532   3.165   3.890   6.825
 3545SOL     OW11533   3.254   6.370   1.598
 3545SOL    HW111534   3.245   6.291   1.538
 3545SOL    HW211535   3.292   6.447   1.546
 3546SOL     OW11536   6.884   4.668   2.604
 3546SOL    HW111537   6.885   4.757   2.649
 3546SOL    HW211538   6.791   4.630   2.609
 3547SOL     OW11539   0.782   4.020   5.370
 3547SOL    HW111540   0.840   4.041   5.291
 3547SOL    HW211541   0.789   3.923   5.392
 3548SOL     OW11542   5.621   0.590   4.883
 3548SOL    HW111543   5.708   0.615   4.927
 3548SOL    HW211544   5.580   0.513   4.932
 3549SOL     OW11545   2.737   6.458   0.078
 3549SOL    HW111546   2.652   6.470   0.027
 3549SOL    HW211547   2.751   6.361   0.097
 3550SOL     OW11548   5.514   0.878   5.154
 3550SOL    HW111549   5.554   0.787   5.152
 3550SOL    HW211550   5.414   0.871   5.156
 3551SOL     OW11551   4.493   2.049   4.296
 3551SOL    HW111552   4.457   1.985   4.228
 3551SOL    HW211553   4.588   2.070   4.275
 3552SOL     OW11554   0.078   0.191   2.776
 3552SOL    HW111555   0.160   0.163   2.824
 3552SOL    HW211556   0.093   0.280   2.732
 3553SOL     OW11557   5.569   5.668   6.801
 3553SOL    HW111558   5.619   5.587   6.770
 3553SOL    HW211559   5.564   5.734   6.726
 3554SOL     OW11560   5.374   2.869   0.687
 3554SOL    HW111561   5.436   2.832   0.617
 3554SOL    HW211562   5.425   2.883   0.772
 3555SOL     OW11563   3.066   2.097   4.871
 3555SOL    HW111564   3.073   2.028   4.944
 3555SOL    HW211565   3.085   2.187   4.909
 3556SOL     OW11566   5.243   1.392   5.466
 3556SOL    HW111567   5.232   1.429   5.374
 3556SOL    HW211568   5.323   1.331   5.468
 3557SOL     OW11569   6.081   0.561   0.838
 3557SOL    HW111570   6.149   0.538   0.768
 3557SOL    HW211571   6.087   0.496   0.914
 3558SOL     OW11572   3.684   6.034   2.187
 3558SOL    HW111573   3.628   6.066   2.111
 3558SOL    HW211574   3.727   6.113   2.231
 3559SOL     OW11575   5.070   6.740   5.794
 3559SOL    HW111576   5.044   6.764   5.701
 3559SOL    HW211577   5.082   6.641   5.801
 3560SOL     OW11578   2.018   5.432   4.007
 3560SOL    HW111579   1.928   5.432   4.052
 3560SOL    HW211580   2.052   5.338   4.001
 3561SOL     OW11581   4.763   3.637   5.415
 3561SOL    HW111582   4.719   3.625   5.326
 3561SOL    HW211583   4.693   3.648   5.486
 3562SOL     OW11584   2.138   1.644   5.961
 3562SOL    HW111585   2.098   1.560   5.996
 3562SOL    HW211586   2.237   1.643   5.978
 3563SOL     OW11587   6.272   3.078   4.993
 3563SOL    HW111588   6.281   3.029   5.080
 3563SOL    HW211589   6.240   3.016   4.922
 3564SOL     OW11590   6.086   3.813   1.640
 3564SOL    HW111591   5.995   3.801   1.680
 3564SOL    HW211592   6.147   3.742   1.675
 3565SOL     OW11593   3.800   5.941   3.840
 3565SOL    HW111594   3.791   5.847   3.808
 3565SOL    HW211595   3.799   5.943   3.939
 3566SOL     OW11596   1.366   0.130   5.329
 3566SOL    HW111597   1.418   0.054   5.371
 3566SOL    HW211598   1.311   0.094   5.254
 3567SOL     OW11599   6.562   3.735   6.673
 3567SOL    HW111600   6.537   3.661   6.610
 3567SOL    HW211601   6.487   3.801   6.678
 3568SOL     OW11602   5.401   3.763   6.246
 3568SOL    HW111603   5.323   3.711   6.210
 3568SOL    HW211604   5.367   3.838   6.303
 3569SOL     OW11605   2.018   1.297   4.814
 3569SOL    HW111606   1.932   1.294   4.763
 3569SOL    HW211607   2.053   1.204   4.825
 3570SOL     OW11608   6.267   1.936   3.447
 3570SOL    HW111609   6.311   1.939   3.536
 3570SOL    HW211610   6.321   1.879   3.385
 3571SOL     OW11611   6.678   6.230   5.806
 3571SOL    HW111612   6.617   6.162   5.848
 3571SOL    HW211613   6.749   6.183   5.753
 3572SOL     OW11614   6.202   5.962   4.407
 3572SOL    HW111615   6.127   5.898   4.392
 3572SOL    HW211616   6.220   6.012   4.322
 3573SOL     OW11617   1.080   2.535   3.170
 3573SOL    HW111618   1.135   2.550   3.252
 3573SOL    HW211619   1.096   2.609   3.105
 3574SOL     OW11620   6.697   3.719   0.641
 3574SOL    HW111621   6.758   3.798   0.648
 3574SOL    HW211622   6.674   3.686   0.732
 3575SOL     OW11623   6.129   5.109   1.878
 3575SOL    HW111624   6.212   5.056   1.860
 3575SOL    HW211625   6.136   5.198   1.833
 3576SOL     OW11626   0.636   1.639   6.097
 3576SOL    HW111627   0.660   1.735   6.080
 3576SOL    HW211628   0.579   1.632   6.178
 3577SOL     OW11629   1.807   2.947   0.247
 3577SOL    HW111630   1.749   3.028   0.237
 3577SOL    HW211631   1.816   2.902   0.158
 3578SOL     OW11632   3.859   5.406   0.707
 3578SOL    HW111633   3.957   5.423   0.721
 3578SOL    HW211634   3.825   5.468   0.636
 3579SOL     OW11635   0.217   4.425   4.389
 3579SOL    HW111636   0.198   4.394   4.482
 3579SOL    HW211637   0.221   4.525   4.387
 3580SOL     OW11638   6.471   2.455   2.022
 3580SOL    HW111639   6.557   2.499   1.995
 3580SOL    HW211640   6.428   2.508   2.095
 3581SOL     OW11641   6.552   0.406   2.664
 3581SOL    HW111642   6.552   0.493   2.614
 3581SOL    HW211643   6.625   0.347   2.630
 3582SOL     OW11644   1.195   0.739   5.924
 3582SOL    HW111645   1.245   0.805   5.980
 3582SOL    HW211646   1.259   0.677   5.879
 3583SOL     OW11647   1.864   5.504   0.446
 3583SOL    HW111648   1.787   5.441   0.434
 3583SOL    HW211649   1.865   5.537   0.540
 3584SOL     OW11650   4.647   6.161   6.324
 3584SOL    HW111651   4.601   6.184   6.238
 3584SOL    HW211652   4.607   6.078   6.363
 3585SOL     OW11653   2.609   4.835   4.061
 3585SOL    HW111654   2.588   4.740   4.037
 3585SOL    HW211655   2.703   4.857   4.033
 3586SOL     OW11656   6.404   2.489   6.196
 3586SOL    HW111657   6.449   2.556   6.255
 3586SOL    HW211658   6.426   2.397   6.227
 3587SOL     OW11659   4.288   0.017   6.683
 3587SOL    HW111660   4.239   7.016   6.769
 3587SOL    HW211661   4.264   6.967   6.615
 3588SOL     OW11662   1.845   1.583   5.518
 3588SOL    HW111663   1.823   1.674   5.552
 3588SOL    HW211664   1.936   1.584   5.477
 3589SOL     OW11665   3.172   0.813   5.400
 3589SOL    HW111666   3.225   0.769   5.328
 3589SOL    HW211667   3.081   0.773   5.404
 3590SOL     OW11668   1.917   5.341   6.880
 3590SOL    HW111669   1.841   5.284   6.848
 3590SOL    HW211670   1.947   5.402   6.807
 3591SOL     OW11671   5.034   2.534   5.361
 3591SOL    HW111672   5.094   2.464   5.322
 3591SOL    HW211673   4.953   2.545   5.303
 3592SOL     OW11674   4.799   2.861   2.409
 3592SOL    HW111675   4.756   2.794   2.350
 3592SOL    HW211676   4.805   2.949   2.362
 3593SOL     OW11677   1.797   5.829   3.875
 3593SOL    HW111678   1.740   5.906   3.903
 3593SOL    HW211679   1.740   5.762   3.827
 3594SOL     OW11680   2.768   0.995   3.984
 3594SOL    HW111681   2.854   0.951   3.959
 3594SOL    HW211682   2.741   0.966   4.076
 3595SOL     OW11683   3.082   6.051   5.543
 3595SOL    HW111684   3.024   5.969   5.536
 3595SOL    HW211685   3.042   6.125   5.489
 3596SOL     OW11686   6.608   2.750   2.723
 3596SOL    HW111687   6.613   2.796   2.635
 3596SOL    HW211688   6.635   2.654   2.712
 3597SOL     OW11689   3.905   5.233   4.192
 3597SOL    HW111690   4.002   5.240   4.169
 3597SOL    HW211691   3.853   5.302   4.142
 3598SOL     OW11692   0.868   6.877   6.809
 3598SOL    HW111693   0.950   6.905   6.759
 3598SOL    HW211694   0.893   6.855   6.904
 3599SOL     OW11695   0.239   1.265   4.323
 3599SOL    HW111696   0.151   1.246   4.280
 3599SOL    HW211697   0.309   1.207   4.281
 3600SOL     OW11698   6.029   1.244   0.721
 3600SOL    HW111699   6.089   1.297   0.782
 3600SOL    HW211700   5.936   1.281   0.726
 3601SOL     OW11701   6.514   4.000   6.226
 3601SOL    HW111702   6.526   4.082   6.171
 3601SOL    HW211703   6.448   4.018   6.299
 3602SOL     OW11704   2.159   1.077   0.341
 3602SOL    HW111705   2.179   1.160   0.290
 3602SOL    HW211706   2.170   1.094   0.439
 3603SOL     OW11707   4.381   4.895   4.575
 3603SOL    HW111708   4.316   4.826   4.545
 3603SOL    HW211709   4.474   4.858   4.569
 3604SOL     OW11710   0.156   2.800   2.924
 3604SOL    HW111711   0.111   2.711   2.916
 3604SOL    HW211712   0.150   2.832   3.019
 3605SOL     OW11713   5.906   3.670   6.674
 3605SOL    HW111714   5.903   3.649   6.576
 3605SOL    HW211715   5.814   3.660   6.713
 3606SOL     OW11716   0.783   4.611   4.844
 3606SOL    HW111717   0.780   4.539   4.914
 3606SOL    HW211718   0.877   4.621   4.811
 3607SOL     OW11719   5.520   6.852   0.240
 3607SOL    HW111720   5.510   6.949   0.264
 3607SOL    HW211721   5.582   6.843   0.162
 3608SOL     OW11722   0.652   2.284   2.448
 3608SOL    HW111723   0.700   2.366   2.477
 3608SOL    HW211724   0.705   2.236   2.378
 3609SOL     OW11725   6.735   0.149   4.150
 3609SOL    HW111726   6.748   0.177   4.055
 3609SOL    HW211727   6.822   0.115   4.187
 3610SOL     OW11728   1.218   6.625   5.879
 3610SOL    HW111729   1.179   6.546   5.926
 3610SOL    HW211730   1.288   6.595   5.816
 3611SOL     OW11731   3.219   5.073   5.291
 3611SOL    HW111732   3.290   5.002   5.295
 3611SOL    HW211733   3.156   5.062   5.367
 3612SOL     OW11734   1.279   7.010   1.212
 3612SOL    HW111735   1.258   0.079   1.257
 3612SOL    HW211736   1.195   6.957   1.203
 3613SOL     OW11737   5.247   5.381   6.696
 3613SOL    HW111738   5.272   5.364   6.600
 3613SOL    HW211739   5.278   5.472   6.723
 3614SOL     OW11740   3.350   2.911   3.688
 3614SOL    HW111741   3.327   2.958   3.774
 3614SOL    HW211742   3.431   2.953   3.648
 3615SOL     OW11743   6.568   5.809   6.368
 3615SOL    HW111744   6.656   5.845   6.337
 3615SOL    HW211745   6.581   5.714   6.399
 3616SOL     OW11746   0.061   2.439   5.325
 3616SOL    HW111747   0.079   2.341   5.309
 3616SOL    HW211748   6.995   2.466   5.277
 3617SOL     OW11749   0.089   1.189   6.476
 3617SOL    HW111750   0.130   1.219   6.562
 3617SOL    HW211751   0.144   1.222   6.399
 3618SOL     OW11752   2.276   1.999   6.865
 3618SOL    HW111753   2.223   1.958   6.938
 3618SOL    HW211754   2.218   2.011   6.784
 3619SOL     OW11755   6.184   2.078   4.442
 3619SOL    HW111756   6.115   2.022   4.486
 3619SOL    HW211757   6.253   2.020   4.400
 3620SOL     OW11758   6.004   6.783   5.251
 3620SOL    HW111759   6.010   6.872   5.297
 3620SOL    HW211760   6.044   6.713   5.310
 3621SOL     OW11761   2.137   3.869   5.885
 3621SOL    HW111762   2.159   3.838   5.793
 3621SOL    HW211763   2.222   3.889   5.935
 3622SOL     OW11764   0.687   2.834   1.979
 3622SOL    HW111765   0.680   2.744   1.935
 3622SOL    HW211766   0.606   2.888   1.958
 3623SOL     OW11767   5.446   4.867   3.435
 3623SOL    HW111768   5.369   4.865   3.499
 3623SOL    HW211769   5.480   4.961   3.426
 3624SOL     OW11770   2.723   6.554   2.214
 3624SOL    HW111771   2.748   6.627   2.150
 3624SOL    HW211772   2.642   6.506   2.180
 3625SOL     OW11773   6.482   3.657   4.819
 3625SOL    HW111774   6.481   3.604   4.904
 3625SOL    HW211775   6.425   3.612   4.750
 3626SOL     OW11776   2.347   3.737   5.347
 3626SOL    HW111777   2.424   3.794   5.317
 3626SOL    HW211778   2.263   3.769   5.302
 3627SOL     OW11779   3.086   3.836   3.903
 3627SOL    HW111780   3.055   3.860   3.811
 3627SOL    HW211781   3.148   3.758   3.899
 3628SOL     OW11782   2.596   5.242   2.091
 3628SOL    HW111783   2.557   5.202   2.009
 3628SOL    HW211784   2.654   5.175   2.137
 3629SOL     OW11785   6.135   1.831   5.422
 3629SOL    HW111786   6.154   1.761   5.353
 3629SOL    HW211787   6.220   1.859   5.465
 3630SOL     OW11788   6.721   1.975   4.478
 3630SOL    HW111789   6.738   1.877   4.473
 3630SOL    HW211790   6.734   2.015   4.387
 3631SOL     OW11791   2.558   1.020   4.753
 3631SOL    HW111792   2.571   1.111   4.714
 3631SOL    HW211793   2.593   0.951   4.690
 3632SOL     OW11794   4.901   0.710   0.552
 3632SOL    HW111795   4.812   0.756   0.560
 3632SOL    HW211796   4.891   0.629   0.495
 3633SOL     OW11797   2.052   2.798   5.993
 3633SOL    HW111798   2.138   2.786   5.943
 3633SOL    HW211799   2.055   2.882   6.047
 3634SOL     OW11800   1.745   6.055   4.786
 3634SOL    HW111801   1.722   6.097   4.698
 3634SOL    HW211802   1.811   5.981   4.772
 3635SOL     OW11803   2.670   1.334   5.593
 3635SOL    HW111804   2.766   1.360   5.583
 3635SOL    HW211805   2.613   1.399   5.543
 3636SOL     OW11806   0.487   5.310   5.720
 3636SOL    HW111807   0.516   5.303   5.815
 3636SOL    HW211808   0.567   5.297   5.660
 3637SOL     OW11809   5.189   0.976   1.429
 3637SOL    HW111810   5.170   0.877   1.433
 3637SOL    HW211811   5.244   1.003   1.509
 3638SOL     OW11812   0.057   4.375   3.273
 3638SOL    HW111813   6.999   4.440   3.277
 3638SOL    HW211814   0.086   4.352   3.366
 3639SOL     OW11815   2.658   5.051   0.721
 3639SOL    HW111816   2.700   5.142   0.723
 3639SOL    HW211817   2.558   5.061   0.713
 3640SOL     OW11818   3.521   5.878   1.496
 3640SOL    HW111819   3.542   5.839   1.407
 3640SOL    HW211820   3.606   5.902   1.543
 3641SOL     OW11821   2.975   1.375   4.578
 3641SOL    HW111822   2.921   1.423   4.508
 3641SOL    HW211823   2.925   1.376   4.665
 3642SOL     OW11824   5.207   0.593   3.828
 3642SOL    HW111825   5.251   0.609   3.739
 3642SOL    HW211826   5.258   0.641   3.899
 3643SOL     OW11827   2.710   4.710   4.751
 3643SOL    HW111828   2.704   4.635   4.686
 3643SOL    HW211829   2.746   4.676   4.838
 3644SOL     OW11830   6.718   1.103   0.790
 3644SOL    HW111831   6.777   1.055   0.855
 3644SOL    HW211832   6.765   1.185   0.758
 3645SOL     OW11833   4.489   1.489   3.819
 3645SOL    HW111834   4.573   1.534   3.851
 3645SOL    HW211835   4.426   1.478   3.896
 3646SOL     OW11836   6.936   5.151   5.558
 3646SOL    HW111837   6.876   5.225   5.589
 3646SOL    HW211838   0.004   5.154   5.610
 3647SOL     OW11839   1.790   3.042   0.957
 3647SOL    HW111840   1.769   3.137   0.979
 3647SOL    HW211841   1.716   2.983   0.988
 3648SOL     OW11842   3.583   5.552   2.135
 3648SOL    HW111843   3.672   5.528   2.096
 3648SOL    HW211844   3.592   5.633   2.192
 3649SOL     OW11845   4.248   3.343   0.694
 3649SOL    HW111846   4.246   3.244   0.703
 3649SOL    HW211847   4.316   3.381   0.757
 3650SOL     OW11848   0.765   5.960   1.832
 3650SOL    HW111849   0.703   5.885   1.853
 3650SOL    HW211850   0.765   5.977   1.734
 3651SOL     OW11851   1.024   5.998   2.772
 3651SOL    HW111852   1.018   6.000   2.672
 3651SOL    HW211853   0.991   6.085   2.809
 3652SOL     OW11854   4.378   5.917   3.643
 3652SOL    HW111855   4.351   5.991   3.582
 3652SOL    HW211856   4.314   5.911   3.719
 3653SOL     OW11857   6.910   1.477   2.998
 3653SOL    HW111858   6.867   1.536   2.930
 3653SOL    HW211859   6.845   1.459   3.072
 3654SOL     OW11860   1.708   6.789   0.902
 3654SOL    HW111861   1.679   6.884   0.895
 3654SOL    HW211862   1.634   6.734   0.940
 3655SOL     OW11863   1.607   0.499   4.620
 3655SOL    HW111864   1.573   0.418   4.668
 3655SOL    HW211865   1.633   0.474   4.527
 3656SOL     OW11866   2.017   2.699   2.266
 3656SOL    HW111867   1.937   2.699   2.325
 3656SOL    HW211868   2.097   2.733   2.316
 3657SOL     OW11869   4.006   5.683   1.049
 3657SOL    HW111870   4.096   5.650   1.078
 3657SOL    HW211871   3.962   5.730   1.126
 3658SOL     OW11872   0.943   6.139   5.723
 3658SOL    HW111873   0.940   6.234   5.755
 3658SOL    HW211874   0.865   6.089   5.761
 3659SOL     OW11875   2.211   4.412   6.963
 3659SOL    HW111876   2.210   4.404   6.863
 3659SOL    HW211877   2.118   4.427   6.996
 3660SOL     OW11878   4.641   5.909   2.405
 3660SOL    HW111879   4.564   5.901   2.342
 3660SOL    HW211880   4.616   5.868   2.493
 3661SOL     OW11881   4.729   1.131   0.607
 3661SOL    HW111882   4.777   1.072   0.671
 3661SOL    HW211883   4.697   1.213   0.655
 3662SOL     OW11884   3.248   0.439   5.332
 3662SOL    HW111885   3.154   0.411   5.318
 3662SOL    HW211886   3.253   0.503   5.409
 3663SOL     OW11887   1.392   2.115   0.143
 3663SOL    HW111888   1.378   2.016   0.145
 3663SOL    HW211889   1.381   2.151   0.236
 3664SOL     OW11890   5.194   1.594   0.898
 3664SOL    HW111891   5.124   1.646   0.849
 3664SOL    HW211892   5.282   1.642   0.892
 3665SOL     OW11893   0.631   0.025   4.980
 3665SOL    HW111894   0.611   6.953   4.940
 3665SOL    HW211895   0.640   0.092   4.907
 3666SOL     OW11896   1.465   3.729   4.557
 3666SOL    HW111897   1.367   3.744   4.544
 3666SOL    HW211898   1.506   3.701   4.470
 3667SOL     OW11899   6.544   0.740   6.163
 3667SOL    HW111900   6.555   0.652   6.116
 3667SOL    HW211901   6.624   0.758   6.219
 3668SOL     OW11902   1.948   0.183   2.660
 3668SOL    HW111903   2.018   0.237   2.706
 3668SOL    HW211904   1.868   0.175   2.719
 3669SOL     OW11905   6.643   2.420   3.483
 3669SOL    HW111906   6.685   2.509   3.465
 3669SOL    HW211907   6.550   2.419   3.446
 3670SOL     OW11908   2.140   5.780   5.758
 3670SOL    HW111909   2.128   5.861   5.700
 3670SOL    HW211910   2.180   5.806   5.845
 3671SOL     OW11911   0.929   0.440   3.165
 3671SOL    HW111912   0.935   0.516   3.230
 3671SOL    HW211913   1.017   0.394   3.159
 3672SOL     OW11914   6.637   1.360   6.955
 3672SOL    HW111915   6.580   1.278   6.951
 3672SOL    HW211916   6.603   1.420   0.010
 3673SOL     OW11917   4.776   1.070   0.199
 3673SOL    HW111918   4.762   1.144   0.134
 3673SOL    HW211919   4.868   1.076   0.238
 3674SOL     OW11920   0.859   6.834   0.306
 3674SOL    HW111921   0.789   6.810   0.374
 3674SOL    HW211922   0.932   6.886   0.351
 3675SOL     OW11923   2.130   2.340   5.390
 3675SOL    HW111924   2.076   2.391   5.457
 3675SOL    HW211925   2.174   2.404   5.327
 3676SOL     OW11926   3.401   5.434   4.047
 3676SOL    HW111927   3.388   5.368   4.120
 3676SOL    HW211928   3.337   5.510   4.058
 3677SOL     OW11929   6.820   6.515   3.409
 3677SOL    HW111930   6.769   6.494   3.326
 3677SOL    HW211931   6.817   6.436   3.471
 3678SOL     OW11932   1.244   2.119   3.955
 3678SOL    HW111933   1.172   2.121   3.886
 3678SOL    HW211934   1.328   2.158   3.918
 3679SOL     OW11935   0.279   0.798   1.838
 3679SOL    HW111936   0.365   0.749   1.824
 3679SOL    HW211937   0.248   0.837   1.752
 3680SOL     OW11938   6.697   2.862   4.072
 3680SOL    HW111939   6.652   2.853   3.983
 3680SOL    HW211940   6.647   2.928   4.128
 3681SOL     OW11941   0.524   0.022   5.967
 3681SOL    HW111942   0.585   6.964   5.991
 3681SOL    HW211943   0.556   0.065   5.882
 3682SOL     OW11944   6.641   1.964   5.795
 3682SOL    HW111945   6.635   1.946   5.894
 3682SOL    HW211946   6.642   1.877   5.746
 3683SOL     OW11947   6.258   6.435   4.284
 3683SOL    HW111948   6.237   6.357   4.342
 3683SOL    HW211949   6.176   6.462   4.233
 3684SOL     OW11950   1.537   3.577   1.968
 3684SOL    HW111951   1.621   3.533   1.937
 3684SOL    HW211952   1.482   3.603   1.888
 3685SOL     OW11953   6.245   6.457   6.586
 3685SOL    HW111954   6.320   6.458   6.652
 3685SOL    HW211955   6.278   6.488   6.497
 3686SOL     OW11956   6.336   4.824   1.560
 3686SOL    HW111957   6.429   4.833   1.527
 3686SOL    HW211958   6.335   4.769   1.644
 3687SOL     OW11959   3.325   0.554   6.792
 3687SOL    HW111960   3.232   0.542   6.759
 3687SOL    HW211961   3.371   0.624   6.737
 3688SOL     OW11962   1.090   3.335   6.898
 3688SOL    HW111963   1.138   3.322   6.985
 3688SOL    HW211964   1.088   3.249   6.848
 3689SOL     OW11965   1.659   1.136   4.674
 3689SOL    HW111966   1.641   1.054   4.620
 3689SOL    HW211967   1.698   1.109   4.763
 3690SOL     OW11968   5.366   0.511   5.621
 3690SOL    HW111969   5.452   0.547   5.656
 3690SOL    HW211970   5.302   0.587   5.607
 3691SOL     OW11971   2.850   3.585   0.476
 3691SOL    HW111972   2.849   3.675   0.518
 3691SOL    HW211973   2.795   3.522   0.531
 3692SOL     OW11974   1.709   6.703   4.859
 3692SOL    HW111975   1.764   6.756   4.922
 3692SOL    HW211976   1.622   6.678   4.903
 3693SOL     OW11977   3.072   2.191   3.213
 3693SOL    HW111978   3.159   2.187   3.164
 3693SOL    HW211979   3.084   2.154   3.306
 3694SOL     OW11980   1.427   6.258   3.285
 3694SOL    HW111981   1.398   6.166   3.259
 3694SOL    HW211982   1.429   6.265   3.385
 3695SOL     OW11983   2.237   1.536   2.645
 3695SOL    HW111984   2.166   1.554   2.577
 3695SOL    HW211985   2.315   1.492   2.601
 3696SOL     OW11986   4.157   0.250   6.022
 3696SOL    HW111987   4.214   0.294   5.952
 3696SOL    HW211988   4.215   0.196   6.083
 3697SOL     OW11989   6.910   6.761   3.323
 3697SOL    HW111990   6.869   6.853   3.325
 3697SOL    HW211991   6.844   6.695   3.359
 3698SOL     OW11992   2.952   0.332   5.937
 3698SOL    HW111993   2.920   0.425   5.957
 3698SOL    HW211994   3.022   0.336   5.865
 3699SOL     OW11995   6.779   4.342   2.800
 3699SOL    HW111996   6.771   4.245   2.826
 3699SOL    HW211997   6.767   4.399   2.881
 3700SOL     OW11998   6.518   0.487   4.216
 3700SOL    HW111999   6.617   0.477   4.204
 3700SOL    HW212000   6.488   0.430   4.293
 3701SOL     OW12001   6.315   0.894   4.462
 3701SOL    HW112002   6.407   0.869   4.433
 3701SOL    HW212003   6.276   0.958   4.396
 3702SOL     OW12004   3.543   6.860   1.517
 3702SOL    HW112005   3.446   6.856   1.494
 3702SOL    HW212006   3.584   6.942   1.477
 3703SOL     OW12007   3.738   4.523   6.399
 3703SOL    HW112008   3.766   4.618   6.410
 3703SOL    HW212009   3.808   4.463   6.437
 3704SOL     OW12010   2.793   1.247   2.734
 3704SOL    HW112011   2.879   1.222   2.778
 3704SOL    HW212012   2.762   1.170   2.677
 3705SOL     OW12013   5.004   0.520   3.495
 3705SOL    HW112014   4.984   0.550   3.588
 3705SOL    HW212015   4.922   0.528   3.439
 3706SOL     OW12016   1.790   2.906   4.320
 3706SOL    HW112017   1.813   2.984   4.379
 3706SOL    HW212018   1.716   2.854   4.362
 3707SOL     OW12019   5.035   2.195   5.894
 3707SOL    HW112020   4.954   2.220   5.947
 3707SOL    HW212021   5.030   2.238   5.804
 3708SOL     OW12022   6.111   0.624   6.641
 3708SOL    HW112023   6.134   0.532   6.607
 3708SOL    HW212024   6.054   0.670   6.573
 3709SOL     OW12025   3.840   0.464   5.978
 3709SOL    HW112026   3.779   0.389   6.000
 3709SOL    HW212027   3.789   0.550   5.979
 3710SOL     OW12028   6.678   5.250   0.792
 3710SOL    HW112029   6.653   5.345   0.774
 3710SOL    HW212030   6.656   5.193   0.713
 3711SOL     OW12031   0.110   5.619   2.247
 3711SOL    HW112032   0.176   5.691   2.227
 3711SOL    HW212033   0.039   5.655   2.308
 3712SOL     OW12034   1.277   6.744   6.787
 3712SOL    HW112035   1.363   6.791   6.766
 3712SOL    HW212036   1.267   6.664   6.728
 3713SOL     OW12037   3.468   6.181   5.215
 3713SOL    HW112038   3.418   6.141   5.292
 3713SOL    HW212039   3.438   6.137   5.130
 3714SOL     OW12040   4.120   0.283   4.719
 3714SOL    HW112041   4.093   0.186   4.721
 3714SOL    HW212042   4.210   0.291   4.677
 3715SOL     OW12043   5.134   5.116   4.648
 3715SOL    HW112044   5.126   5.073   4.558
 3715SOL    HW212045   5.108   5.212   4.641
 3716SOL     OW12046   7.017   6.952   4.589
 3716SOL    HW112047   6.939   6.980   4.534
 3716SOL    HW212048   6.995   6.869   4.639
 3717SOL     OW12049   5.932   6.186   0.923
 3717SOL    HW112050   6.000   6.124   0.884
 3717SOL    HW212051   5.846   6.178   0.873
 3718SOL     OW12052   1.245   6.326   6.988
 3718SOL    HW112053   1.270   6.303   0.064
 3718SOL    HW212054   1.157   6.372   6.987
 3719SOL     OW12055   4.344   5.182   6.847
 3719SOL    HW112056   4.256   5.223   6.821
 3719SOL    HW212057   4.346   5.168   6.946
 3720SOL     OW12058   6.482   1.581   6.046
 3720SOL    HW112059   6.490   1.481   6.052
 3720SOL    HW212060   6.463   1.607   5.952
 3721SOL     OW12061   5.529   4.978   0.198
 3721SOL    HW112062   5.547   4.967   0.296
 3721SOL    HW212063   5.562   4.898   0.149
 3722SOL     OW12064   7.017   6.217   2.722
 3722SOL    HW112065   0.019   6.228   2.624
 3722SOL    HW212066   0.071   6.261   2.776
 3723SOL     OW12067   4.884   0.387   1.372
 3723SOL    HW112068   4.925   0.452   1.307
 3723SOL    HW212069   4.927   0.398   1.461
 3724SOL     OW12070   1.447   5.354   0.006
 3724SOL    HW112071   1.352   5.361   6.992
 3724SOL    HW212072   1.449   5.367   0.105
 3725SOL     OW12073   0.223   6.188   6.643
 3725SOL    HW112074   0.130   6.173   6.611
 3725SOL    HW212075   0.272   6.100   6.647
 3726SOL     OW12076   5.856   4.145   1.791
 3726SOL    HW112077   5.768   4.146   1.839
 3726SOL    HW212078   5.916   4.077   1.833
 3727SOL     OW12079   1.430   2.658   5.011
 3727SOL    HW112080   1.407   2.719   4.935
 3727SOL    HW212081   1.505   2.598   4.983
 3728SOL     OW12082   2.184   2.945   6.999
 3728SOL    HW112083   2.176   2.875   0.052
 3728SOL    HW212084   2.175   2.902   6.909
 3729SOL     OW12085   0.967   1.788   3.144
 3729SOL    HW112086   1.035   1.773   3.072
 3729SOL    HW212087   0.876   1.788   3.104
 3730SOL     OW12088   3.314   1.919   6.748
 3730SOL    HW112089   3.322   1.821   6.764
 3730SOL    HW212090   3.217   1.943   6.739
 3731SOL     OW12091   4.467   0.742   0.968
 3731SOL    HW112092   4.564   0.716   0.965
 3731SOL    HW212093   4.450   0.811   0.898
 3732SOL     OW12094   2.471   3.618   5.664
 3732SOL    HW112095   2.383   3.664   5.655
 3732SOL    HW212096   2.466   3.548   5.735
 3733SOL     OW12097   2.862   4.017   1.669
 3733SOL    HW112098   2.880   3.979   1.579
 3733SOL    HW212099   2.766   4.043   1.676
 3734SOL     OW12100   4.520   1.078   2.671
 3734SOL    HW112101   4.441   1.137   2.659
 3734SOL    HW212102   4.598   1.116   2.621
 3735SOL     OW12103   2.400   2.214   2.704
 3735SOL    HW112104   2.440   2.254   2.786
 3735SOL    HW212105   2.468   2.157   2.658
 3736SOL     OW12106   6.673   2.115   0.796
 3736SOL    HW112107   6.580   2.081   0.809
 3736SOL    HW212108   6.678   2.168   0.711
 3737SOL     OW12109   5.096   0.270   2.914
 3737SOL    HW112110   5.110   0.349   2.974
 3737SOL    HW212111   5.018   0.288   2.853
 3738SOL     OW12112   6.697   6.480   4.000
 3738SOL    HW112113   6.626   6.414   4.025
 3738SOL    HW212114   6.667   6.533   3.920
 3739SOL     OW12115   1.059   3.803   2.244
 3739SOL    HW112116   1.006   3.721   2.223
 3739SOL    HW212117   1.132   3.813   2.176
 3740SOL     OW12118   5.097   1.303   6.498
 3740SOL    HW112119   4.997   1.303   6.507
 3740SOL    HW212120   5.129   1.211   6.479
 3741SOL     OW12121   4.642   3.592   1.055
 3741SOL    HW112122   4.731   3.549   1.039
 3741SOL    HW212123   4.610   3.569   1.147
 3742SOL     OW12124   3.614   2.338   5.747
 3742SOL    HW112125   3.529   2.354   5.697
 3742SOL    HW212126   3.630   2.239   5.754
 3743SOL     OW12127   6.523   4.967   6.427
 3743SOL    HW112128   6.502   5.018   6.510
 3743SOL    HW212129   6.620   4.974   6.406
 3744SOL     OW12130   0.271   5.102   3.785
 3744SOL    HW112131   0.294   5.199   3.778
 3744SOL    HW212132   0.346   5.052   3.828
 3745SOL     OW12133   3.603   5.579   2.496
 3745SOL    HW112134   3.630   5.674   2.511
 3745SOL    HW212135   3.505   5.575   2.475
 3746SOL     OW12136   4.467   1.821   1.689
 3746SOL    HW112137   4.451   1.863   1.600
 3746SOL    HW212138   4.565   1.819   1.709
 3747SOL     OW12139   3.419   0.945   0.049
 3747SOL    HW112140   3.508   0.909   0.074
 3747SOL    HW212141   3.360   0.870   0.020
 3748SOL     OW12142   5.992   0.668   1.855
 3748SOL    HW112143   5.901   0.633   1.832
 3748SOL    HW212144   5.994   0.693   1.952
 3749SOL     OW12145   1.674   6.714   4.538
 3749SOL    HW112146   1.577   6.692   4.533
 3749SOL    HW212147   1.700   6.729   4.633
 3750SOL     OW12148   0.143   3.771   0.762
 3750SOL    HW112149   0.237   3.753   0.792
 3750SOL    HW212150   0.088   3.801   0.840
 3751SOL     OW12151   0.415   4.640   2.931
 3751SOL    HW112152   0.387   4.662   2.837
 3751SOL    HW212153   0.333   4.628   2.987
 3752SOL     OW12154   6.815   0.502   6.113
 3752SOL    HW112155   6.731   0.529   6.065
 3752SOL    HW212156   6.843   0.574   6.175
 3753SOL     OW12157   6.912   0.758   4.058
 3753SOL    HW112158   6.977   0.723   4.125
 3753SOL    HW212159   6.821   0.718   4.075
 3754SOL     OW12160   1.783   1.929   1.357
 3754SOL    HW112161   1.845   1.904   1.283
 3754SOL    HW212162   1.709   1.986   1.320
 3755SOL     OW12163   2.299   4.222   4.069
 3755SOL    HW112164   2.330   4.228   3.974
 3755SOL    HW212165   2.334   4.299   4.121
 3756SOL     OW12166   2.691   6.581   6.691
 3756SOL    HW112167   2.654   6.488   6.688
 3756SOL    HW212168   2.789   6.579   6.670
 3757SOL     OW12169   6.427   4.561   1.296
 3757SOL    HW112170   6.375   4.557   1.210
 3757SOL    HW212171   6.364   4.563   1.373
 3758SOL     OW12172   2.259   0.090   3.190
 3758SOL    HW112173   2.265   0.000   3.233
 3758SOL    HW212174   2.352   0.125   3.172
 3759SOL     OW12175   5.159   0.332   4.137
 3759SOL    HW112176   5.242   0.385   4.127
 3759SOL    HW212177   5.137   0.320   4.234
 3760SOL     OW12178   0.149   0.560   3.696
 3760SOL    HW112179   0.231   0.529   3.646
 3760SOL    HW212180   0.110   0.639   3.649
 3761SOL     OW12181   4.974   0.982   4.083
 3761SOL    HW112182   5.048   0.981   4.016
 3761SOL    HW212183   5.003   0.935   4.166
 3762SOL     OW12184   0.731   3.198   2.466
 3762SOL    HW112185   0.810   3.178   2.522
 3762SOL    HW212186   0.672   3.265   2.512
 3763SOL     OW12187   6.922   4.922   0.485
 3763SOL    HW112188   6.852   4.879   0.542
 3763SOL    HW212189   6.990   4.854   0.458
 3764SOL     OW12190   2.027   6.767   2.644
 3764SOL    HW112191   1.980   6.680   2.628
 3764SOL    HW212192   2.021   6.791   2.741
 3765SOL     OW12193   6.111   2.371   1.673
 3765SOL    HW112194   6.122   2.314   1.591
 3765SOL    HW212195   6.183   2.351   1.738
 3766SOL     OW12196   1.236   3.662   3.318
 3766SOL    HW112197   1.277   3.579   3.280
 3766SOL    HW212198   1.263   3.672   3.414
 3767SOL     OW12199   1.557   4.949   6.154
 3767SOL    HW112200   1.594   5.011   6.085
 3767SOL    HW212201   1.557   4.855   6.119
 3768SOL     OW12202   1.453   0.210   4.592
 3768SOL    HW112203   1.429   0.276   4.663
 3768SOL    HW212204   1.411   0.237   4.505
 3769SOL     OW12205   5.284   6.029   4.523
 3769SOL    HW112206   5.221   6.096   4.484
 3769SOL    HW212207   5.378   6.051   4.496
 3770SOL     OW12208   1.386   0.506   0.879
 3770SOL    HW112209   1.351   0.418   0.911
 3770SOL    HW212210   1.313   0.555   0.831
 3771SOL     OW12211   6.960   4.513   0.693
 3771SOL    HW112212   6.937   4.567   0.775
 3771SOL    HW212213   6.999   4.573   0.624
 3772SOL     OW12214   1.814   5.789   0.432
 3772SOL    HW112215   1.773   5.834   0.353
 3772SOL    HW212216   1.798   5.690   0.426
 3773SOL     OW12217   5.291   3.592   5.916
 3773SOL    HW112218   5.365   3.536   5.953
 3773SOL    HW212219   5.208   3.577   5.970
 3774SOL     OW12220   6.113   5.615   1.315
 3774SOL    HW112221   6.112   5.601   1.215
 3774SOL    HW212222   6.041   5.559   1.356
 3775SOL     OW12223   4.600   5.107   4.115
 3775SOL    HW112224   4.640   5.196   4.136
 3775SOL    HW212225   4.526   5.087   4.179
 3776SOL     OW12226   3.333   2.964   6.388
 3776SOL    HW112227   3.290   2.995   6.473
 3776SOL    HW212228   3.285   2.882   6.355
 3777SOL     OW12229   2.914   6.309   4.085
 3777SOL    HW112230   2.907   6.354   4.174
 3777SOL    HW212231   3.008   6.318   4.051
 3778SOL     OW12232   3.112   5.286   5.168
 3778SOL    HW112233   3.106   5.259   5.072
 3778SOL    HW212234   3.144   5.209   5.223
 3779SOL     OW12235   6.489   5.123   6.683
 3779SOL    HW112236   6.433   5.119   6.766
 3779SOL    HW212237   6.583   5.100   6.705
 3780SOL     OW12238   6.208   3.992   1.478
 3780SOL    HW112239   6.156   3.930   1.537
 3780SOL    HW212240   6.234   3.944   1.394
 3781SOL     OW12241   2.722   5.992   4.733
 3781SOL    HW112242   2.753   5.899   4.715
 3781SOL    HW212243   2.638   6.009   4.681
 3782SOL     OW12244   5.225   5.538   1.661
 3782SOL    HW112245   5.206   5.489   1.746
 3782SOL    HW212246   5.276   5.622   1.681
 3783SOL     OW12247   4.912   5.065   5.017
 3783SOL    HW112248   4.945   5.019   4.934
 3783SOL    HW212249   4.979   5.054   5.090
 3784SOL     OW12250   5.864   2.169   4.323
 3784SOL    HW112251   5.869   2.249   4.383
 3784SOL    HW212252   5.848   2.200   4.229
 3785SOL     OW12253   1.195   3.846   4.460
 3785SOL    HW112254   1.134   3.768   4.445
 3785SOL    HW212255   1.152   3.910   4.524
 3786SOL     OW12256   2.570   2.365   4.637
 3786SOL    HW112257   2.523   2.451   4.617
 3786SOL    HW212258   2.604   2.325   4.552
 3787SOL     OW12259   4.616   6.946   3.218
 3787SOL    HW112260   4.648   6.969   3.311
 3787SOL    HW212261   4.561   6.863   3.221
 3788SOL     OW12262   6.844   3.978   5.663
 3788SOL    HW112263   6.836   3.879   5.654
 3788SOL    HW212264   6.882   4.000   5.753
 3789SOL     OW12265   1.798   3.100   2.679
 3789SOL    HW112266   1.809   3.014   2.630
 3789SOL    HW212267   1.883   3.152   2.674
 3790SOL     OW12268   0.850   6.286   1.259
 3790SOL    HW112269   0.765   6.323   1.298
 3790SOL    HW212270   0.893   6.354   1.201
 3791SOL     OW12271   5.450   1.029   6.140
 3791SOL    HW112272   5.518   1.022   6.067
 3791SOL    HW212273   5.429   1.125   6.157
 3792SOL     OW12274   0.700   0.533   4.159
 3792SOL    HW112275   0.639   0.460   4.191
 3792SOL    HW212276   0.783   0.534   4.214
 3793SOL     OW12277   5.438   5.392   0.121
 3793SOL    HW112278   5.352   5.372   0.169
 3793SOL    HW212279   5.446   5.333   0.041
 3794SOL     OW12280   1.763   3.683   6.572
 3794SOL    HW112281   1.733   3.707   6.664
 3794SOL    HW212282   1.859   3.710   6.560
 3795SOL     OW12283   2.568   5.744   1.511
 3795SOL    HW112284   2.655   5.790   1.528
 3795SOL    HW212285   2.571   5.700   1.421
 3796SOL     OW12286   4.045   2.022   6.787
 3796SOL    HW112287   3.950   2.045   6.764
 3796SOL    HW212288   4.097   2.009   6.702
 3797SOL     OW12289   1.120   4.496   2.879
 3797SOL    HW112290   1.065   4.574   2.911
 3797SOL    HW212291   1.180   4.465   2.954
 3798SOL     OW12292   1.976   6.820   3.293
 3798SOL    HW112293   1.916   6.758   3.242
 3798SOL    HW212294   1.923   6.901   3.321
 3799SOL     OW12295   0.221   2.241   2.802
 3799SOL    HW112296   0.133   2.259   2.846
 3799SOL    HW212297   0.213   2.257   2.703
 3800SOL     OW12298   5.621   1.973   2.686
 3800SOL    HW112299   5.658   2.066   2.694
 3800SOL    HW212300   5.552   1.958   2.757
 3801SOL     OW12301   5.135   0.614   1.769
 3801SOL    HW112302   5.152   0.529   1.819
 3801SOL    HW212303   5.044   0.648   1.791
 3802SOL     OW12304   5.983   2.119   2.151
 3802SOL    HW112305   6.075   2.157   2.143
 3802SOL    HW212306   5.934   2.165   2.225
 3803SOL     OW12307   3.234   3.750   4.192
 3803SOL    HW112308   3.310   3.803   4.154
 3803SOL    HW212309   3.152   3.807   4.193
 3804SOL     OW12310   3.332   6.237   3.795
 3804SOL    HW112311   3.387   6.205   3.718
 3804SOL    HW212312   3.235   6.232   3.772
 3805SOL     OW12313   2.258   2.512   0.241
 3805SOL    HW112314   2.205   2.591   0.211
 3805SOL    HW212315   2.334   2.543   0.299
 3806SOL     OW12316   3.816   4.142   0.419
 3806SOL    HW112317   3.810   4.107   0.512
 3806SOL    HW212318   3.752   4.091   0.360
 3807SOL     OW12319   1.577   4.466   4.483
 3807SOL    HW112320   1.589   4.563   4.460
 3807SOL    HW212321   1.491   4.433   4.446
 3808SOL     OW12322   3.928   6.736   6.630
 3808SOL    HW112323   3.849   6.717   6.687
 3808SOL    HW212324   4.011   6.701   6.674
 3809SOL     OW12325   5.112   2.374   1.175
 3809SOL    HW112326   5.086   2.291   1.225
 3809SOL    HW212327   5.208   2.395   1.192
 3810SOL     OW12328   6.704   2.500   1.878
 3810SOL    HW112329   6.637   2.499   1.803
 3810SOL    HW212330   6.796   2.505   1.839
 3811SOL     OW12331   0.330   5.798   4.688
 3811SOL    HW112332   0.233   5.780   4.703
 3811SOL    HW212333   0.369   5.839   4.770
 3812SOL     OW12334   4.708   6.738   0.206
 3812SOL    HW112335   4.657   6.777   0.283
 3812SOL    HW212336   4.799   6.778   0.202
 3813SOL     OW12337   6.449   3.878   0.322
 3813SOL    HW112338   6.471   3.925   0.237
 3813SOL    HW212339   6.357   3.839   0.316
 3814SOL     OW12340   6.665   0.014   4.747
 3814SOL    HW112341   6.735   0.076   4.783
 3814SOL    HW212342   6.580   0.065   4.733
 3815SOL     OW12343   5.312   3.550   0.056
 3815SOL    HW112344   5.272   3.458   0.053
 3815SOL    HW212345   5.256   3.613   0.002
 3816SOL     OW12346   0.811   5.475   5.798
 3816SOL    HW112347   0.773   5.387   5.771
 3816SOL    HW212348   0.909   5.466   5.813
 3817SOL     OW12349   4.941   3.492   2.592
 3817SOL    HW112350   4.936   3.485   2.691
 3817SOL    HW212351   4.952   3.401   2.553
 3818SOL     OW12352   0.234   0.447   1.953
 3818SOL    HW112353   0.312   0.498   1.990
 3818SOL    HW212354   0.234   0.354   1.988
 3819SOL     OW12355   6.761   4.420   3.794
 3819SOL    HW112356   6.732   4.330   3.828
 3819SOL    HW212357   6.722   4.434   3.703
 3820SOL     OW12358   5.261   6.892   4.295
 3820SOL    HW112359   5.319   6.972   4.282
 3820SOL    HW212360   5.187   6.915   4.359
 3821SOL     OW12361   1.083   6.976   0.401
 3821SOL    HW112362   1.178   6.960   0.378
 3821SOL    HW212363   1.052   0.043   0.358
 3822SOL     OW12364   4.784   1.696   1.034
 3822SOL    HW112365   4.863   1.668   0.980
 3822SOL    HW212366   4.705   1.640   1.008
 3823SOL     OW12367   4.871   4.921   5.700
 3823SOL    HW112368   4.927   4.838   5.707
 3823SOL    HW212369   4.928   5.001   5.718
 3824SOL     OW12370   2.000   3.212   6.850
 3824SOL    HW112371   2.056   3.243   6.927
 3824SOL    HW212372   1.919   3.270   6.843
 3825SOL     OW12373   1.843   4.416   6.005
 3825SOL    HW112374   1.750   4.381   6.004
 3825SOL    HW212375   1.896   4.369   6.075
 3826SOL     OW12376   5.803   4.433   2.936
 3826SOL    HW112377   5.736   4.359   2.933
 3826SOL    HW212378   5.872   4.418   2.864
 3827SOL     OW12379   1.541   1.092   1.665
 3827SOL    HW112380   1.537   1.018   1.598
 3827SOL    HW212381   1.612   1.073   1.732
 3828SOL     OW12382   3.931   3.910   4.694
 3828SOL    HW112383   3.906   3.978   4.763
 3828SOL    HW212384   3.994   3.844   4.735
 3829SOL     OW12385   0.580   4.022   2.964
 3829SOL    HW112386   0.602   4.042   3.060
 3829SOL    HW212387   0.562   3.924   2.954
 3830SOL     OW12388   0.099   0.879   4.723
 3830SOL    HW112389   0.078   0.814   4.796
 3830SOL    HW212390   0.014   0.915   4.684
 3831SOL     OW12391   4.497   1.670   3.220
 3831SOL    HW112392   4.487   1.748   3.281
 3831SOL    HW212393   4.422   1.605   3.235
 3832SOL     OW12394   0.563   0.764   2.729
 3832SOL    HW112395   0.638   0.829   2.718
 3832SOL    HW212396   0.599   0.679   2.769
 3833SOL     OW12397   1.033   0.176   6.195
 3833SOL    HW112398   0.986   0.093   6.165
 3833SOL    HW212399   1.051   0.234   6.115
 3834SOL     OW12400   4.678   4.154   0.902
 3834SOL    HW112401   4.658   4.063   0.937
 3834SOL    HW212402   4.607   4.182   0.837
 3835SOL     OW12403   4.010   5.793   5.367
 3835SOL    HW112404   4.014   5.764   5.272
 3835SOL    HW212405   4.103   5.794   5.405
 3836SOL     OW12406   0.067   5.702   6.517
 3836SOL    HW112407   7.000   5.741   6.480
 3836SOL    HW212408   0.045   5.630   6.583
 3837SOL     OW12409   4.170   4.807   5.022
 3837SOL    HW112410   4.080   4.844   4.999
 3837SOL    HW212411   4.235   4.829   4.948
 3838SOL     OW12412   1.670   1.806   3.325
 3838SOL    HW112413   1.758   1.766   3.300
 3838SOL    HW212414   1.663   1.898   3.287
 3839SOL     OW12415   4.151   0.659   2.806
 3839SOL    HW112416   4.152   0.662   2.706
 3839SOL    HW212417   4.061   0.686   2.840
 3840SOL     OW12418   2.699   0.604   0.237
 3840SOL    HW112419   2.649   0.518   0.227
 3840SOL    HW212420   2.638   0.681   0.221
 3841SOL     OW12421   6.272   4.625   3.390
 3841SOL    HW112422   6.359   4.604   3.435
 3841SOL    HW212423   6.271   4.721   3.363
 3842SOL     OW12424   2.183   2.972   5.427
 3842SOL    HW112425   2.168   2.929   5.338
 3842SOL    HW212426   2.236   3.056   5.416
 3843SOL     OW12427   5.612   2.481   0.703
 3843SOL    HW112428   5.514   2.498   0.700
 3843SOL    HW212429   5.643   2.447   0.615
 3844SOL     OW12430   1.667   5.092   0.301
 3844SOL    HW112431   1.579   5.050   0.281
 3844SOL    HW212432   1.734   5.062   0.234
 3845SOL     OW12433   2.575   6.271   0.681
 3845SOL    HW112434   2.608   6.365   0.671
 3845SOL    HW212435   2.552   6.254   0.777
 3846SOL     OW12436   0.789   2.821   3.715
 3846SOL    HW112437   0.754   2.806   3.807
 3846SOL    HW212438   0.751   2.752   3.654
 3847SOL     OW12439   6.228   1.099   5.522
 3847SOL    HW112440   6.164   1.041   5.572
 3847SOL    HW212441   6.233   1.069   5.426
 3848SOL     OW12442   5.171   3.589   2.512
 3848SOL    HW112443   5.084   3.551   2.544
 3848SOL    HW212444   5.195   3.548   2.423
 3849SOL     OW12445   0.036   5.731   6.203
 3849SOL    HW112446   0.025   5.786   6.120
 3849SOL    HW212447   0.109   5.769   6.259
 3850SOL     OW12448   2.471   2.345   1.107
 3850SOL    HW112449   2.439   2.347   1.202
 3850SOL    HW212450   2.403   2.389   1.048
 3851SOL     OW12451   0.003   5.636   3.884
 3851SOL    HW112452   6.962   5.570   3.837
 3851SOL    HW212453   0.053   5.690   3.816
 3852SOL     OW12454   3.361   6.086   4.978
 3852SOL    HW112455   3.364   5.991   4.950
 3852SOL    HW212456   3.415   6.142   4.914
 3853SOL     OW12457   2.360   1.291   3.919
 3853SOL    HW112458   2.411   1.208   3.900
 3853SOL    HW212459   2.401   1.368   3.870
 3854SOL     OW12460   1.268   2.387   2.700
 3854SOL    HW112461   1.202   2.349   2.766
 3854SOL    HW212462   1.353   2.336   2.705
 3855SOL     OW12463   4.102   6.591   0.172
 3855SOL    HW112464   4.054   6.557   0.253
 3855SOL    HW212465   4.169   6.523   0.142
 3856SOL     OW12466   0.443   2.199   6.331
 3856SOL    HW112467   0.530   2.218   6.286
 3856SOL    HW212468   0.369   2.204   6.265
 3857SOL     OW12469   2.067   0.686   5.893
 3857SOL    HW112470   2.023   0.715   5.808
 3857SOL    HW212471   1.997   0.663   5.960
 3858SOL     OW12472   3.434   1.232   5.264
 3858SOL    HW112473   3.531   1.252   5.278
 3858SOL    HW212474   3.409   1.251   5.169
 3859SOL     OW12475   5.529   0.067   0.895
 3859SOL    HW112476   5.497   0.114   0.977
 3859SOL    HW212477   5.600   0.121   0.851
 3860SOL     OW12478   1.809   0.686   4.659
 3860SOL    HW112479   1.722   0.643   4.682
 3860SOL    HW212480   1.795   0.761   4.595
 3861SOL     OW12481   4.365   5.420   2.305
 3861SOL    HW112482   4.335   5.386   2.394
 3861SOL    HW212483   4.367   5.346   2.239
 3862SOL     OW12484   0.759   6.777   4.024
 3862SOL    HW112485   0.747   6.758   4.122
 3862SOL    HW212486   0.806   6.701   3.980
 3863SOL     OW12487   4.159   0.862   0.651
 3863SOL    HW112488   4.135   0.907   0.737
 3863SOL    HW212489   4.179   0.766   0.668
 3864SOL     OW12490   2.054   1.004   4.568
 3864SOL    HW112491   2.002   0.931   4.525
 3864SOL    HW212492   2.050   0.994   4.667
 3865SOL     OW12493   4.431   0.578   0.031
 3865SOL    HW112494   4.424   0.611   0.125
 3865SOL    HW212495   4.445   0.656   6.988
 3866SOL     OW12496   3.149   2.610   6.825
 3866SOL    HW112497   3.192   2.569   6.744
 3866SOL    HW212498   3.191   2.700   6.843
 3867SOL     OW12499   0.977   4.444   2.632
 3867SOL    HW112500   0.880   4.441   2.657
 3867SOL    HW212501   1.032   4.462   2.714
 3868SOL     OW12502   3.484   1.189   0.128
 3868SOL    HW112503   3.460   1.105   0.080
 3868SOL    HW212504   3.414   1.258   0.110
 3869SOL     OW12505   6.816   3.297   3.252
 3869SOL    HW112506   6.860   3.370   3.305
 3869SOL    HW212507   6.751   3.337   3.188
 3870SOL     OW12508   6.599   6.871   3.197
 3870SOL    HW112509   6.582   6.907   3.288
 3870SOL    HW212510   6.570   6.937   3.128
 3871SOL     OW12511   3.458   6.055   3.950
 3871SOL    HW112512   3.409   6.130   3.906
 3871SOL    HW212513   3.463   5.977   3.888
 3872SOL     OW12514   3.679   3.266   4.200
 3872SOL    HW112515   3.712   3.333   4.133
 3872SOL    HW212516   3.642   3.187   4.153
 3873SOL     OW12517   5.118   3.245   0.530
 3873SOL    HW112518   5.042   3.180   0.522
 3873SOL    HW212519   5.096   3.329   0.481
 3874SOL     OW12520   4.283   6.674   1.081
 3874SOL    HW112521   4.361   6.620   1.112
 3874SOL    HW212522   4.222   6.616   1.026
 3875SOL     OW12523   2.072   2.058   4.864
 3875SOL    HW112524   2.152   2.015   4.822
 3875SOL    HW212525   2.102   2.134   4.922
 3876SOL     OW12526   4.572   6.613   0.684
 3876SOL    HW112527   4.489   6.658   0.651
 3876SOL    HW212528   4.619   6.570   0.607
 3877SOL     OW12529   6.758   1.869   0.566
 3877SOL    HW112530   6.849   1.846   0.533
 3877SOL    HW212531   6.743   1.968   0.556
 3878SOL     OW12532   5.104   0.292   4.408
 3878SOL    HW112533   5.014   0.255   4.431
 3878SOL    HW212534   5.166   0.278   4.486
 3879SOL     OW12535   5.444   4.512   0.010
 3879SOL    HW112536   5.414   4.473   6.941
 3879SOL    HW212537   5.380   4.583   0.039
 3880SOL     OW12538   5.686   4.553   5.175
 3880SOL    HW112539   5.772   4.501   5.166
 3880SOL    HW212540   5.612   4.491   5.199
 3881SOL     OW12541   1.192   3.579   0.610
 3881SOL    HW112542   1.149   3.658   0.566
 3881SOL    HW212543   1.210   3.508   0.541
 3882SOL     OW12544   1.140   1.050   0.186
 3882SOL    HW112545   1.227   1.095   0.209
 3882SOL    HW212546   1.070   1.119   0.171
 3883SOL     OW12547   4.857   0.303   2.769
 3883SOL    HW112548   4.848   0.209   2.736
 3883SOL    HW212549   4.785   0.322   2.836
 3884SOL     OW12550   0.454   6.263   3.184
 3884SOL    HW112551   0.458   6.251   3.283
 3884SOL    HW212552   0.467   6.359   3.160
 3885SOL     OW12553   5.806   7.005   2.695
 3885SOL    HW112554   5.784   7.007   2.793
 3885SOL    HW212555   5.898   6.968   2.683
 3886SOL     OW12556   4.326   6.473   6.055
 3886SOL    HW112557   4.299   6.556   6.105
 3886SOL    HW212558   4.264   6.459   5.978
 3887SOL     OW12559   0.958   6.177   0.606
 3887SOL    HW112560   1.039   6.231   0.583
 3887SOL    HW212561   0.907   6.156   0.522
 3888SOL     OW12562   5.593   6.445   4.554
 3888SOL    HW112563   5.528   6.384   4.601
 3888SOL    HW212564   5.597   6.421   4.457
 3889SOL     OW12565   5.675   2.502   6.860
 3889SOL    HW112566   5.577   2.499   6.881
 3889SOL    HW212567   5.723   2.439   6.921
 3890SOL     OW12568   5.279   4.438   4.340
 3890SOL    HW112569   5.182   4.445   4.314
 3890SOL    HW212570   5.307   4.343   4.336
 3891SOL     OW12571   5.405   4.195   3.782
 3891SOL    HW112572   5.343   4.273   3.784
 3891SOL    HW212573   5.473   4.204   3.855
 3892SOL     OW12574   0.209   2.771   1.433
 3892SOL    HW112575   0.278   2.738   1.497
 3892SOL    HW212576   0.228   2.735   1.342
 3893SOL     OW12577   4.502   3.543   1.300
 3893SOL    HW112578   4.544   3.475   1.359
 3893SOL    HW212579   4.404   3.524   1.290
 3894SOL     OW12580   5.055   0.643   6.749
 3894SOL    HW112581   5.049   0.725   6.693
 3894SOL    HW212582   4.963   0.616   6.779
 3895SOL     OW12583   1.309   0.283   5.022
 3895SOL    HW112584   1.235   0.339   5.059
 3895SOL    HW212585   1.306   0.192   5.064
 3896SOL     OW12586   0.894   0.713   6.561
 3896SOL    HW112587   0.836   0.782   6.605
 3896SOL    HW212588   0.886   0.626   6.610
 3897SOL     OW12589   4.871   5.994   2.315
 3897SOL    HW112590   4.951   5.965   2.368
 3897SOL    HW212591   4.789   5.953   2.353
 3898SOL     OW12592   4.256   2.899   6.988
 3898SOL    HW112593   4.247   2.981   6.932
 3898SOL    HW212594   4.199   2.826   6.950
 3899SOL     OW12595   4.809   6.821   6.640
 3899SOL    HW112596   4.899   6.777   6.646
 3899SOL    HW212597   4.745   6.758   6.595
 3900SOL     OW12598   5.607   3.137   3.971
 3900SOL    HW112599   5.655   3.054   3.942
 3900SOL    HW212600   5.649   3.217   3.928
 3901SOL     OW12601   3.350   0.486   6.098
 3901SOL    HW112602   3.376   0.530   6.012
 3901SOL    HW212603   3.327   0.391   6.081
 3902SOL     OW12604   6.041   3.187   2.338
 3902SOL    HW112605   6.020   3.128   2.260
 3902SOL    HW212606   6.083   3.133   2.411
 3903SOL     OW12607   4.078   6.729   0.521
 3903SOL    HW112608   4.009   6.672   0.477
 3903SOL    HW212609   4.050   6.825   0.515
 3904SOL     OW12610   1.450   0.262   6.642
 3904SOL    HW112611   1.532   0.295   6.690
 3904SOL    HW212612   1.393   0.340   6.617
 3905SOL     OW12613   6.887   6.910   6.502
 3905SOL    HW112614   6.886   6.941   6.597
 3905SOL    HW212615   6.945   6.829   6.493
 3906SOL     OW12616   5.514   6.398   6.081
 3906SOL    HW112617   5.586   6.444   6.133
 3906SOL    HW212618   5.496   6.308   6.122
 3907SOL     OW12619   5.421   1.004   3.852
 3907SOL    HW112620   5.483   1.019   3.775
 3907SOL    HW212621   5.368   1.087   3.868
 3908SOL     OW12622   0.785   2.482   0.344
 3908SOL    HW112623   0.789   2.393   0.390
 3908SOL    HW212624   0.690   2.515   0.343
 3909SOL     OW12625   5.326   6.107   4.816
 3909SOL    HW112626   5.401   6.056   4.858
 3909SOL    HW212627   5.299   6.061   4.731
 3910SOL     OW12628   3.997   3.939   2.577
 3910SOL    HW112629   3.986   3.890   2.663
 3910SOL    HW212630   4.067   3.893   2.521
 3911SOL     OW12631   6.152   2.085   5.196
 3911SOL    HW112632   6.112   2.059   5.285
 3911SOL    HW212633   6.198   2.005   5.156
 3912SOL     OW12634   5.144   1.711   5.033
 3912SOL    HW112635   5.168   1.754   5.121
 3912SOL    HW212636   5.111   1.781   4.970
 3913SOL     OW12637   1.821   0.117   6.456
 3913SOL    HW112638   1.790   0.025   6.482
 3913SOL    HW212639   1.826   0.174   6.538
 3914SOL     OW12640   2.998   0.349   0.743
 3914SOL    HW112641   3.063   0.341   0.819
 3914SOL    HW212642   2.951   0.262   0.730
 3915SOL     OW12643   5.413   5.982   0.796
 3915SOL    HW112644   5.366   6.071   0.800
 3915SOL    HW212645   5.411   5.948   0.702
 3916SOL     OW12646   1.026   6.981   3.237
 3916SOL    HW112647   1.047   6.956   3.142
 3916SOL    HW212648   0.933   6.951   3.260
 3917SOL     OW12649   0.985   6.453   6.954
 3917SOL    HW112650   1.028   6.537   6.986
 3917SOL    HW212651   0.895   6.444   6.996
 3918SOL     OW12652   5.685   5.472   1.813
 3918SOL    HW112653   5.722   5.438   1.727
 3918SOL    HW212654   5.641   5.561   1.798
 3919SOL     OW12655   4.585   6.854   0.409
 3919SOL    HW112656   4.490   6.835   0.436
 3919SOL    HW212657   4.623   6.925   0.468
 3920SOL     OW12658   2.539   3.737   0.356
 3920SOL    HW112659   2.598   3.717   0.434
 3920SOL    HW212660   2.580   3.812   0.302
 3921SOL     OW12661   0.318   3.873   1.474
 3921SOL    HW112662   0.315   3.835   1.567
 3921SOL    HW212663   0.235   3.846   1.425
 3922SOL     OW12664   6.861   4.117   1.893
 3922SOL    HW112665   6.858   4.197   1.953
 3922SOL    HW212666   6.913   4.044   1.937
 3923SOL     OW12667   6.862   0.734   0.426
 3923SOL    HW112668   6.889   0.650   0.473
 3923SOL    HW212669   6.891   0.813   0.480
 3924SOL     OW12670   6.066   4.964   3.674
 3924SOL    HW112671   6.043   4.871   3.644
 3924SOL    HW212672   5.986   5.005   3.718
 3925SOL     OW12673   1.648   4.720   1.455
 3925SOL    HW112674   1.681   4.814   1.455
 3925SOL    HW212675   1.553   4.718   1.486
 3926SOL     OW12676   5.067   4.695   2.408
 3926SOL    HW112677   5.090   4.741   2.494
 3926SOL    HW212678   5.145   4.699   2.346
 3927SOL     OW12679   6.268   2.909   5.198
 3927SOL    HW112680   6.318   2.832   5.157
 3927SOL    HW212681   6.307   2.930   5.288
 3928SOL     OW12682   4.584   6.324   6.762
 3928SOL    HW112683   4.658   6.302   6.699
 3928SOL    HW212684   4.556   6.242   6.811
 3929SOL     OW12685   0.745   0.563   4.748
 3929SOL    HW112686   0.671   0.544   4.683
 3929SOL    HW212687   0.810   0.627   4.706
 3930SOL     OW12688   2.911   2.169   4.661
 3930SOL    HW112689   2.965   2.121   4.730
 3930SOL    HW212690   2.885   2.260   4.695
 3931SOL     OW12691   1.595   1.464   1.915
 3931SOL    HW112692   1.586   1.476   1.816
 3931SOL    HW212693   1.691   1.472   1.941
 3932SOL     OW12694   1.000   3.852   3.551
 3932SOL    HW112695   1.099   3.856   3.566
 3932SOL    HW212696   0.953   3.904   3.622
 3933SOL     OW12697   2.065   6.981   6.212
 3933SOL    HW112698   2.057   0.048   6.160
 3933SOL    HW212699   1.976   6.935   6.214
 3934SOL     OW12700   6.358   0.249   6.662
 3934SOL    HW112701   6.383   0.332   6.611
 3934SOL    HW212702   6.436   0.219   6.717
 3935SOL     OW12703   3.228   0.459   0.173
 3935SOL    HW112704   3.241   0.371   0.219
 3935SOL    HW212705   3.201   0.527   0.241
 3936SOL     OW12706   6.576   5.041   5.273
 3936SOL    HW112707   6.661   5.022   5.323
 3936SOL    HW212708   6.579   4.998   5.183
 3937SOL     OW12709   0.281   1.694   2.670
 3937SOL    HW112710   0.261   1.783   2.711
 3937SOL    HW212711   0.345   1.707   2.594
 3938SOL     OW12712   1.117   1.743   3.381
 3938SOL    HW112713   1.193   1.808   3.382
 3938SOL    HW212714   1.059   1.760   3.301
 3939SOL     OW12715   2.427   2.588   2.936
 3939SOL    HW112716   2.376   2.540   3.007
 3939SOL    HW212717   2.521   2.554   2.933
 3940SOL     OW12718   4.411   4.479   0.772
 3940SOL    HW112719   4.483   4.545   0.795
 3940SOL    HW212720   4.324   4.512   0.809
 3941SOL     OW12721   5.394   4.313   5.782
 3941SOL    HW112722   5.417   4.305   5.879
 3941SOL    HW212723   5.397   4.410   5.755
 3942SOL     OW12724   0.101   6.107   0.061
 3942SOL    HW112725   0.009   6.081   0.033
 3942SOL    HW212726   0.096   6.161   0.145
 3943SOL     OW12727   0.375   2.628   3.914
 3943SOL    HW112728   0.405   2.542   3.956
 3943SOL    HW212729   0.366   2.698   3.985
 3944SOL     OW12730   5.271   2.872   4.807
 3944SOL    HW112731   5.273   2.874   4.907
 3944SOL    HW212732   5.273   2.965   4.772
 3945SOL     OW12733   0.276   2.051   0.239
 3945SOL    HW112734   0.291   1.952   0.231
 3945SOL    HW212735   0.352   2.100   0.196
 3946SOL     OW12736   5.016   4.442   4.262
 3946SOL    HW112737   4.991   4.538   4.246
 3946SOL    HW212738   4.963   4.407   4.339
 3947SOL     OW12739   4.529   5.975   6.659
 3947SOL    HW112740   4.519   5.959   6.758
 3947SOL    HW212741   4.599   5.914   6.623
 3948SOL     OW12742   0.066   4.631   1.800
 3948SOL    HW112743   0.086   4.726   1.824
 3948SOL    HW212744   0.143   4.573   1.826
 3949SOL     OW12745   4.881   6.284   3.390
 3949SOL    HW112746   4.892   6.282   3.291
 3949SOL    HW212747   4.922   6.368   3.427
 3950SOL     OW12748   1.391   4.665   0.487
 3950SOL    HW112749   1.380   4.715   0.573
 3950SOL    HW212750   1.368   4.569   0.501
 3951SOL     OW12751   4.428   6.905   1.518
 3951SOL    HW112752   4.446   6.874   1.425
 3951SOL    HW212753   4.420   7.005   1.519
 3952SOL     OW12754   6.948   2.477   1.760
 3952SOL    HW112755   6.954   2.383   1.727
 3952SOL    HW212756   6.981   2.540   1.690
 3953SOL     OW12757   3.980   4.593   1.306
 3953SOL    HW112758   4.070   4.630   1.284
 3953SOL    HW212759   3.968   4.505   1.259
 3954SOL     OW12760   4.025   5.479   5.910
 3954SOL    HW112761   3.946   5.449   5.964
 3954SOL    HW212762   4.000   5.560   5.856
 3955SOL     OW12763   2.763   0.905   6.370
 3955SOL    HW112764   2.667   0.915   6.344
 3955SOL    HW212765   2.819   0.969   6.318
 3956SOL     OW12766   1.474   0.601   2.264
 3956SOL    HW112767   1.453   0.698   2.279
 3956SOL    HW212768   1.447   0.548   2.344
 3957SOL     OW12769   4.048   0.409   4.446
 3957SOL    HW112770   3.990   0.328   4.454
 3957SOL    HW212771   4.091   0.428   4.534
 3958SOL     OW12772   6.075   1.612   4.037
 3958SOL    HW112773   6.073   1.639   4.134
 3958SOL    HW212774   6.027   1.524   4.027
 3959SOL     OW12775   5.366   5.764   0.318
 3959SOL    HW112776   5.292   5.699   0.299
 3959SOL    HW212777   5.450   5.733   0.273
 3960SOL     OW12778   4.942   0.650   5.782
 3960SOL    HW112779   4.987   0.582   5.841
 3960SOL    HW212780   4.893   0.715   5.839
 3961SOL     OW12781   4.418   0.717   2.898
 3961SOL    HW112782   4.449   0.662   2.820
 3961SOL    HW212783   4.318   0.714   2.903
 3962SOL     OW12784   1.357   5.026   6.332
 3962SOL    HW112785   1.377   5.123   6.345
 3962SOL    HW212786   1.418   4.988   6.263
 3963SOL     OW12787   4.052   5.104   2.435
 3963SOL    HW112788   3.957   5.079   2.416
 3963SOL    HW212789   4.090   5.150   2.355
 3964SOL     OW12790   5.019   4.554   3.648
 3964SOL    HW112791   4.997   4.651   3.661
 3964SOL    HW212792   5.096   4.545   3.585
 3965SOL     OW12793   4.916   3.371   4.217
 3965SOL    HW112794   4.864   3.303   4.269
 3965SOL    HW212795   4.914   3.459   4.264
 3966SOL     OW12796   3.770   6.168   6.654
 3966SOL    HW112797   3.723   6.094   6.606
 3966SOL    HW212798   3.716   6.252   6.648
 3967SOL     OW12799   1.825   4.269   1.965
 3967SOL    HW112800   1.890   4.205   2.006
 3967SOL    HW212801   1.773   4.223   1.893
 3968SOL     OW12802   4.169   0.319   0.979
 3968SOL    HW112803   4.187   0.406   1.026
 3968SOL    HW212804   4.085   0.328   0.925
 3969SOL     OW12805   1.253   4.773   2.076
 3969SOL    HW112806   1.330   4.758   2.138
 3969SOL    HW212807   1.186   4.700   2.087
 3970SOL     OW12808   4.898   6.013   2.798
 3970SOL    HW112809   4.808   5.979   2.825
 3970SOL    HW212810   4.890   6.107   2.765
 3971SOL     OW12811   2.773   5.180   4.014
 3971SOL    HW112812   2.858   5.154   4.061
 3971SOL    HW212813   2.741   5.268   4.051
 3972SOL     OW12814   1.555   4.116   6.842
 3972SOL    HW112815   1.526   4.197   6.893
 3972SOL    HW212816   1.647   4.089   6.871
 3973SOL     OW12817   1.217   5.714   0.428
 3973SOL    HW112818   1.298   5.659   0.411
 3973SOL    HW212819   1.135   5.658   0.418
 3974SOL     OW12820   1.717   0.114   5.941
 3974SOL    HW112821   1.756   0.028   5.974
 3974SOL    HW212822   1.656   0.095   5.864
 3975SOL     OW12823   4.904   1.005   6.220
 3975SOL    HW112824   5.002   1.021   6.233
 3975SOL    HW212825   4.852   1.078   6.265
 3976SOL     OW12826   2.131   6.325   3.171
 3976SOL    HW112827   2.180   6.383   3.106
 3976SOL    HW212828   2.177   6.329   3.260
 3977SOL     OW12829   1.154   2.863   6.394
 3977SOL    HW112830   1.135   2.918   6.475
 3977SOL    HW212831   1.250   2.871   6.370
 3978SOL     OW12832   5.782   5.063   3.550
 3978SOL    HW112833   5.787   5.070   3.650
 3978SOL    HW212834   5.689   5.086   3.520
 3979SOL     OW12835   3.974   1.089   6.673
 3979SOL    HW112836   3.965   1.006   6.727
 3979SOL    HW212837   3.884   1.127   6.654
 3980SOL     OW12838   5.444   6.468   6.368
 3980SOL    HW112839   5.379   6.512   6.307
 3980SOL    HW212840   5.537   6.498   6.344
 3981SOL     OW12841   4.604   5.822   0.628
 3981SOL    HW112842   4.598   5.920   0.644
 3981SOL    HW212843   4.523   5.776   0.664
 3982SOL     OW12844   2.525   6.833   2.933
 3982SOL    HW112845   2.439   6.829   2.882
 3982SOL    HW212846   2.571   6.744   2.929
 3983SOL     OW12847   5.233   5.298   3.816
 3983SOL    HW112848   5.162   5.351   3.862
 3983SOL    HW212849   5.262   5.223   3.876
 3984SOL     OW12850   6.158   1.140   1.788
 3984SOL    HW112851   6.227   1.203   1.824
 3984SOL    HW212852   6.133   1.074   1.859
 3985SOL     OW12853   3.423   5.467   6.600
 3985SOL    HW112854   3.510   5.462   6.550
 3985SOL    HW212855   3.383   5.557   6.589
 3986SOL     OW12856   4.834   1.807   2.632
 3986SOL    HW112857   4.813   1.778   2.725
 3986SOL    HW212858   4.749   1.823   2.582
 3987SOL     OW12859   3.421   4.939   4.267
 3987SOL    HW112860   3.357   4.916   4.194
 3987SOL    HW212861   3.485   5.009   4.235
 3988SOL     OW12862   3.620   5.241   6.852
 3988SOL    HW112863   3.663   5.305   6.915
 3988SOL    HW212864   3.567   5.173   6.904
 3989SOL     OW12865   0.031   2.190   6.964
 3989SOL    HW112866   6.970   2.226   7.014
 3989SOL    HW212867   0.097   2.264   6.950
 3990SOL     OW12868   5.148   2.761   2.306
 3990SOL    HW112869   5.134   2.827   2.232
 3990SOL    HW212870   5.113   2.799   2.392
 3991SOL     OW12871   6.866   1.415   1.742
 3991SOL    HW112872   6.913   1.388   1.658
 3991SOL    HW212873   6.793   1.480   1.720
 3992SOL     OW12874   2.804   2.389   0.464
 3992SOL    HW112875   2.733   2.319   0.466
 3992SOL    HW212876   2.844   2.398   0.555
 3993SOL     OW12877   1.693   2.701   2.380
 3993SOL    HW112878   1.623   2.767   2.353
 3993SOL    HW212879   1.742   2.735   2.461
 3994SOL     OW12880   2.807   0.203   5.693
 3994SOL    HW112881   2.750   0.121   5.707
 3994SOL    HW212882   2.861   0.220   5.776
 3995SOL     OW12883   1.974   3.767   5.666
 3995SOL    HW112884   1.956   3.685   5.720
 3995SOL    HW212885   1.933   3.758   5.576
 3996SOL     OW12886   0.110   6.608   5.382
 3996SOL    HW112887   0.209   6.605   5.373
 3996SOL    HW212888   0.084   6.582   5.475
 3997SOL     OW12889   5.425   1.543   3.782
 3997SOL    HW112890   5.327   1.524   3.780
 3997SOL    HW212891   5.463   1.535   3.690
 3998SOL     OW12892   3.609   1.213   4.586
 3998SOL    HW112893   3.632   1.283   4.518
 3998SOL    HW212894   3.560   1.138   4.542
 3999SOL     OW12895   5.927   2.295   4.049
 3999SOL    HW112896   5.962   2.369   3.992
 3999SOL    HW212897   5.889   2.223   3.990
 4000SOL     OW12898   3.051   6.699   4.305
 4000SOL    HW112899   2.998   6.716   4.388
 4000SOL    HW212900   3.063   6.784   4.255
 4001SOL     OW12901   2.529   1.373   4.343
 4001SOL    HW112902   2.595   1.301   4.321
 4001SOL    HW212903   2.482   1.402   4.259
 4002SOL     OW12904   2.784   3.494   1.661
 4002SOL    HW112905   2.685   3.481   1.661
 4002SOL    HW212906   2.818   3.490   1.567
 4003SOL     OW12907   3.202   0.183   4.126
 4003SOL    HW112908   3.191   0.247   4.051
 4003SOL    HW212909   3.282   0.125   4.110
 4004SOL     OW12910   6.550   2.242   4.372
 4004SOL    HW112911   6.484   2.260   4.299
 4004SOL    HW212912   6.510   2.265   4.460
 4005SOL     OW12913   4.773   5.592   6.038
 4005SOL    HW112914   4.815   5.511   6.078
 4005SOL    HW212915   4.696   5.564   5.980
 4006SOL     OW12916   3.877   5.219   2.055
 4006SOL    HW112917   3.859   5.183   2.147
 4006SOL    HW212918   3.801   5.277   2.026
 4007SOL     OW12919   0.027   2.690   6.809
 4007SOL    HW112920   0.039   2.749   6.888
 4007SOL    HW212921   0.091   2.717   6.737
 4008SOL     OW12922   2.732   2.286   4.867
 4008SOL    HW112923   2.763   2.349   4.938
 4008SOL    HW212924   2.659   2.329   4.814
 4009SOL     OW12925   4.076   3.163   2.441
 4009SOL    HW112926   4.120   3.221   2.372
 4009SOL    HW212927   4.080   3.207   2.530
 4010SOL     OW12928   2.346   2.913   1.796
 4010SOL    HW112929   2.426   2.909   1.736
 4010SOL    HW212930   2.310   3.006   1.797
 4011SOL     OW12931   0.909   1.912   2.274
 4011SOL    HW112932   0.936   1.906   2.370
 4011SOL    HW212933   0.990   1.906   2.216
 4012SOL     OW12934   6.855   4.298   2.135
 4012SOL    HW112935   6.789   4.272   2.205
 4012SOL    HW212936   6.820   4.376   2.083
 4013SOL     OW12937   4.021   2.243   4.671
 4013SOL    HW112938   4.055   2.314   4.733
 4013SOL    HW212939   4.050   2.265   4.577
 4014SOL     OW12940   6.060   6.378   2.677
 4014SOL    HW112941   6.034   6.410   2.768
 4014SOL    HW212942   5.980   6.379   2.617
 4015SOL     OW12943   4.256   4.119   6.259
 4015SOL    HW112944   4.231   4.082   6.169
 4015SOL    HW212945   4.210   4.207   6.273
 4016SOL     OW12946   2.413   6.163   5.732
 4016SOL    HW112947   2.456   6.115   5.808
 4016SOL    HW212948   2.468   6.149   5.649
 4017SOL     OW12949   0.031   5.482   0.236
 4017SOL    HW112950   0.116   5.533   0.223
 4017SOL    HW212951   7.011   5.459   0.147
 4018SOL     OW12952   4.503   5.581   1.913
 4018SOL    HW112953   4.524   5.512   1.845
 4018SOL    HW212954   4.504   5.672   1.870
 4019SOL     OW12955   5.318   4.348   2.294
 4019SOL    HW112956   5.348   4.413   2.364
 4019SOL    HW212957   5.253   4.393   2.233
 4020SOL     OW12958   4.788   2.721   5.381
 4020SOL    HW112959   4.774   2.628   5.346
 4020SOL    HW212960   4.881   2.730   5.417
 4021SOL     OW12961   2.903   5.194   5.934
 4021SOL    HW112962   2.974   5.129   5.960
 4021SOL    HW212963   2.896   5.265   6.005
 4022SOL     OW12964   5.169   1.359   0.164
 4022SOL    HW112965   5.116   1.404   0.236
 4022SOL    HW212966   5.257   1.405   0.155
 4023SOL     OW12967   6.375   2.066   4.737
 4023SOL    HW112968   6.361   2.077   4.639
 4023SOL    HW212969   6.378   2.156   4.780
 4024SOL     OW12970   4.147   5.310   4.080
 4024SOL    HW112971   4.164   5.217   4.046
 4024SOL    HW212972   4.163   5.376   4.006
 4025SOL     OW12973   0.575   3.853   3.831
 4025SOL    HW112974   0.491   3.824   3.877
 4025SOL    HW212975   0.578   3.952   3.824
 4026SOL     OW12976   5.158   5.947   3.985
 4026SOL    HW112977   5.251   5.974   4.007
 4026SOL    HW212978   5.143   5.958   3.887
 4027SOL     OW12979   4.184   4.668   1.727
 4027SOL    HW112980   4.239   4.750   1.709
 4027SOL    HW212981   4.208   4.632   1.817
 4028SOL     OW12982   2.484   1.503   3.792
 4028SOL    HW112983   2.451   1.595   3.814
 4028SOL    HW212984   2.549   1.508   3.717
 4029SOL     OW12985   1.522   4.842   5.811
 4029SOL    HW112986   1.555   4.844   5.717
 4029SOL    HW212987   1.591   4.799   5.869
 4030SOL     OW12988   0.781   1.965   5.578
 4030SOL    HW112989   0.806   1.917   5.494
 4030SOL    HW212990   0.858   1.965   5.641
 4031SOL     OW12991   3.965   5.737   4.076
 4031SOL    HW112992   4.052   5.787   4.076
 4031SOL    HW212993   3.970   5.661   4.011
 4032SOL     OW12994   5.422   0.168   3.997
 4032SOL    HW112995   5.334   0.198   3.959
 4032SOL    HW212996   5.477   0.127   3.924
 4033SOL     OW12997   3.054   3.555   5.093
 4033SOL    HW112998   2.991   3.541   5.169
 4033SOL    HW212999   3.062   3.471   5.040
 4034SOL     OW13000   6.904   2.122   3.967
 4034SOL    HW113001   6.960   2.199   3.937
 4034SOL    HW213002   6.953   2.071   4.038
 4035SOL     OW13003   0.304   4.499   0.080
 4035SOL    HW113004   0.380   4.563   0.069
 4035SOL    HW213005   0.238   4.514   0.007
 4036SOL     OW13006   6.220   0.029   2.804
 4036SOL    HW113007   6.254   0.117   2.772
 4036SOL    HW213008   6.188   0.037   2.899
 4037SOL     OW13009   0.564   3.491   6.949
 4037SOL    HW113010   0.596   3.463   6.859
 4037SOL    HW213011   0.471   3.528   6.941
 4038SOL     OW13012   5.716   4.028   3.845
 4038SOL    HW113013   5.628   4.049   3.887
 4038SOL    HW213014   5.787   4.029   3.916
 4039SOL     OW13015   5.279   6.332   0.029
 4039SOL    HW113016   5.349   6.261   0.038
 4039SOL    HW213017   5.229   6.341   0.114
 4040SOL     OW13018   2.999   6.481   1.510
 4040SOL    HW113019   2.977   6.436   1.424
 4040SOL    HW213020   3.072   6.430   1.556
 4041SOL     OW13021   1.452   6.214   3.565
 4041SOL    HW113022   1.430   6.265   3.648
 4041SOL    HW213023   1.508   6.135   3.588
 4042SOL     OW13024   6.059   5.292   2.082
 4042SOL    HW113025   6.091   5.218   2.023
 4042SOL    HW213026   5.980   5.336   2.040
 4043SOL     OW13027   6.387   2.071   0.817
 4043SOL    HW113028   6.383   2.024   0.729
 4043SOL    HW213029   6.311   2.040   0.875
 4044SOL     OW13030   5.526   0.058   3.337
 4044SOL    HW113031   5.559   7.000   3.281
 4044SOL    HW213032   5.521   0.029   3.432
 4045SOL     OW13033   2.503   5.594   5.988
 4045SOL    HW113034   2.450   5.584   6.072
 4045SOL    HW213035   2.529   5.504   5.954
 4046SOL     OW13036   0.967   3.410   1.601
 4046SOL    HW113037   1.008   3.398   1.510
 4046SOL    HW213038   0.868   3.397   1.594
 4047SOL     OW13039   2.994   3.749   1.732
 4047SOL    HW113040   2.956   3.838   1.705
 4047SOL    HW213041   2.919   3.687   1.756
 4048SOL     OW13042   4.947   0.620   0.830
 4048SOL    HW113043   4.974   0.609   0.734
 4048SOL    HW213044   5.028   0.641   0.884
 4049SOL     OW13045   5.173   0.156   4.901
 4049SOL    HW113046   5.150   0.147   4.999
 4049SOL    HW213047   5.090   0.180   4.850
 4050SOL     OW13048   2.176   0.600   0.550
 4050SOL    HW113049   2.154   0.642   0.462
 4050SOL    HW213050   2.273   0.613   0.570
 4051SOL     OW13051   3.611   4.216   1.523
 4051SOL    HW113052   3.578   4.307   1.548
 4051SOL    HW213053   3.696   4.197   1.572
 4052SOL     OW13054   1.042   0.210   1.143
 4052SOL    HW113055   1.067   0.142   1.073
 4052SOL    HW213056   0.948   0.193   1.173
 4053SOL     OW13057   3.771   4.857   3.795
 4053SOL    HW113058   3.752   4.788   3.724
 4053SOL    HW213059   3.859   4.837   3.838
 4054SOL     OW13060   4.255   2.542   1.164
 4054SOL    HW113061   4.344   2.543   1.210
 4054SOL    HW213062   4.254   2.611   1.092
 4055SOL     OW13063   3.680   1.875   6.655
 4055SOL    HW113064   3.746   1.922   6.595
 4055SOL    HW213065   3.703   1.894   6.750
 4056SOL     OW13066   3.945   3.493   0.524
 4056SOL    HW113067   3.953   3.453   0.615
 4056SOL    HW213068   3.860   3.545   0.518
 4057SOL     OW13069   5.177   3.046   6.658
 4057SOL    HW113070   5.154   3.019   6.565
 4057SOL    HW213071   5.269   3.084   6.660
 4058SOL     OW13072   1.515   0.878   5.204
 4058SOL    HW113073   1.588   0.946   5.194
 4058SOL    HW213074   1.486   0.847   5.114
 4059SOL     OW13075   0.387   1.478   4.159
 4059SOL    HW113076   0.413   1.554   4.219
 4059SOL    HW213077   0.467   1.419   4.144
 4060SOL     OW13078   4.599   5.154   4.502
 4060SOL    HW113079   4.695   5.152   4.477
 4060SOL    HW213080   4.547   5.096   4.439
 4061SOL     OW13081   3.186   2.985   1.554
 4061SOL    HW113082   3.214   3.062   1.612
 4061SOL    HW213083   3.267   2.932   1.528
 4062SOL     OW13084   2.521   0.408   3.432
 4062SOL    HW113085   2.423   0.397   3.444
 4062SOL    HW213086   2.548   0.377   3.340
 4063SOL     OW13087   2.947   5.195   6.314
 4063SOL    HW113088   2.889   5.201   6.395
 4063SOL    HW213089   2.954   5.100   6.285
 4064SOL     OW13090   6.949   0.395   3.850
 4064SOL    HW113091   6.948   0.371   3.948
 4064SOL    HW213092   7.013   0.470   3.835
 4065SOL     OW13093   5.804   5.489   6.714
 4065SOL    HW113094   5.853   5.550   6.653
 4065SOL    HW213095   5.867   5.420   6.750
 4066SOL     OW13096   6.251   4.452   1.542
 4066SOL    HW113097   6.199   4.535   1.522
 4066SOL    HW213098   6.231   4.422   1.635
 4067SOL     OW13099   5.746   0.647   2.146
 4067SOL    HW113100   5.694   0.655   2.231
 4067SOL    HW213101   5.684   0.639   2.069
 4068SOL     OW13102   6.230   0.346   3.626
 4068SOL    HW113103   6.228   0.442   3.656
 4068SOL    HW213104   6.195   0.288   3.700
 4069SOL     OW13105   6.517   5.633   1.082
 4069SOL    HW113106   6.597   5.673   1.126
 4069SOL    HW213107   6.455   5.596   1.152
 4070SOL     OW13108   1.604   2.995   2.907
 4070SOL    HW113109   1.611   3.040   2.996
 4070SOL    HW213110   1.682   3.021   2.850
 4071SOL     OW13111   1.555   6.420   3.988
 4071SOL    HW113112   1.525   6.506   4.028
 4071SOL    HW213113   1.544   6.346   4.055
 4072SOL     OW13114   1.338   0.276   4.348
 4072SOL    HW113115   1.305   0.370   4.354
 4072SOL    HW213116   1.292   0.229   4.273
 4073SOL     OW13117   1.922   5.427   6.470
 4073SOL    HW113118   1.988   5.353   6.481
 4073SOL    HW213119   1.899   5.465   6.560
 4074SOL     OW13120   2.050   3.322   0.545
 4074SOL    HW113121   1.987   3.298   0.619
 4074SOL    HW213122   2.033   3.262   0.466
 4075SOL     OW13123   4.793   1.567   3.548
 4075SOL    HW113124   4.855   1.572   3.469
 4075SOL    HW213125   4.748   1.478   3.548
 4076SOL     OW13126   1.960   2.975   4.086
 4076SOL    HW113127   1.885   2.931   4.136
 4076SOL    HW213128   1.924   3.054   4.036
 4077SOL     OW13129   2.943   1.704   0.312
 4077SOL    HW113130   2.933   1.630   0.379
 4077SOL    HW213131   2.991   1.781   0.354
 4078SOL     OW13132   5.815   3.685   1.815
 4078SOL    HW113133   5.737   3.662   1.757
 4078SOL    HW213134   5.815   3.627   1.897
 4079SOL     OW13135   0.519   0.946   3.689
 4079SOL    HW113136   0.599   0.887   3.684
 4079SOL    HW213137   0.485   0.949   3.783
 4080SOL     OW13138   3.348   3.195   1.673
 4080SOL    HW113139   3.266   3.251   1.659
 4080SOL    HW213140   3.393   3.223   1.758
 4081SOL     OW13141   2.324   2.268   6.038
 4081SOL    HW113142   2.347   2.363   6.016
 4081SOL    HW213143   2.408   2.216   6.055
 4082SOL     OW13144   1.202   2.398   4.631
 4082SOL    HW113145   1.139   2.330   4.594
 4082SOL    HW213146   1.161   2.489   4.625
 4083SOL     OW13147   5.384   5.345   3.218
 4083SOL    HW113148   5.409   5.362   3.313
 4083SOL    HW213149   5.459   5.298   3.172
 4084SOL     OW13150   4.818   0.947   3.634
 4084SOL    HW113151   4.770   0.883   3.574
 4084SOL    HW213152   4.774   0.946   3.724
 4085SOL     OW13153   4.100   4.814   2.381
 4085SOL    HW113154   4.094   4.856   2.471
 4085SOL    HW213155   4.024   4.751   2.368
 4086SOL     OW13156   6.228   5.013   6.087
 4086SOL    HW113157   6.198   4.920   6.109
 4086SOL    HW213158   6.291   5.045   6.158
 4087SOL     OW13159   2.317   6.994   2.485
 4087SOL    HW113160   2.281   6.905   2.456
 4087SOL    HW213161   2.417   6.992   2.483
 4088SOL     OW13162   0.418   1.887   5.000
 4088SOL    HW113163   0.464   1.802   4.973
 4088SOL    HW213164   0.338   1.902   4.942
 4089SOL     OW13165   1.101   0.534   2.898
 4089SOL    HW113166   1.176   0.569   2.841
 4089SOL    HW213167   1.089   0.436   2.882
 4090SOL     OW13168   3.101   1.511   6.242
 4090SOL    HW113169   3.179   1.462   6.202
 4090SOL    HW213170   3.070   1.462   6.324
 4091SOL     OW13171   3.004   6.071   1.638
 4091SOL    HW113172   3.055   6.062   1.724
 4091SOL    HW213173   3.066   6.050   1.561
 4092SOL     OW13174   5.466   2.835   4.170
 4092SOL    HW113175   5.474   2.738   4.193
 4092SOL    HW213176   5.393   2.876   4.224
 4093SOL     OW13177   5.021   4.858   3.632
 4093SOL    HW113178   5.039   4.945   3.678
 4093SOL    HW213179   5.103   4.827   3.585
 4094SOL     OW13180   6.813   5.466   0.005
 4094SOL    HW113181   6.840   5.372   7.002
 4094SOL    HW213182   6.714   5.471   0.014
 4095SOL     OW13183   0.698   4.894   6.861
 4095SOL    HW113184   0.788   4.875   6.822
 4095SOL    HW213185   0.628   4.854   6.802
 4096SOL     OW13186   1.016   1.286   6.806
 4096SOL    HW113187   0.923   1.294   6.770
 4096SOL    HW213188   1.043   1.372   6.849
 4097SOL     OW13189   6.804   4.717   5.402
 4097SOL    HW113190   6.803   4.628   5.356
 4097SOL    HW213191   6.804   4.704   5.501
 4098SOL     OW13192   2.098   4.414   3.251
 4098SOL    HW113193   2.180   4.358   3.261
 4098SOL    HW213194   2.031   4.386   3.320
 4099SOL     OW13195   4.485   4.365   6.217
 4099SOL    HW113196   4.415   4.295   6.231
 4099SOL    HW213197   4.447   4.455   6.236
 4100SOL     OW13198   1.612   0.280   3.711
 4100SOL    HW113199   1.629   0.304   3.806
 4100SOL    HW213200   1.697   0.248   3.669
 4101SOL     OW13201   6.132   6.156   6.985
 4101SOL    HW113202   6.119   6.159   6.886
 4101SOL    HW213203   6.216   6.105   7.005
 4102SOL     OW13204   1.392   0.965   0.473
 4102SOL    HW113205   1.364   0.974   0.377
 4102SOL    HW213206   1.454   1.039   0.496
 4103SOL     OW13207   1.648   6.937   3.109
 4103SOL    HW113208   1.688   6.858   3.155
 4103SOL    HW213209   1.552   6.919   3.088
 4104SOL     OW13210   1.490   5.952   4.163
 4104SOL    HW113211   1.552   5.953   4.241
 4104SOL    HW213212   1.408   5.901   4.186
 4105SOL     OW13213   4.925   1.248   1.080
 4105SOL    HW113214   4.897   1.186   1.153
 4105SOL    HW213215   4.847   1.265   1.020
 4106SOL     OW13216   0.916   1.480   3.273
 4106SOL    HW113217   0.964   1.527   3.347
 4106SOL    HW213218   0.846   1.539   3.234
 4107SOL     OW13219   0.467   6.464   7.001
 4107SOL    HW113220   0.501   6.452   6.908
 4107SOL    HW213221   0.367   6.465   7.000
 4108SOL     OW13222   0.089   5.992   4.658
 4108SOL    HW113223   0.079   6.065   4.726
 4108SOL    HW213224   0.032   5.914   4.684
 4109SOL     OW13225   6.116   6.259   3.037
 4109SOL    HW113226   6.176   6.289   3.111
 4109SOL    HW213227   6.169   6.248   2.953
 4110SOL     OW13228   4.987   2.879   0.427
 4110SOL    HW113229   5.024   2.951   0.368
 4110SOL    HW213230   4.909   2.836   0.383
 4111SOL     OW13231   6.688   3.980   4.037
 4111SOL    HW113232   6.668   3.991   4.134
 4111SOL    HW213233   6.772   4.029   4.014
 4112SOL     OW13234   4.967   6.848   5.439
 4112SOL    HW113235   5.023   6.796   5.374
 4112SOL    HW213236   4.877   6.805   5.447
 4113SOL     OW13237   4.062   5.308   5.086
 4113SOL    HW113238   3.973   5.317   5.130
 4113SOL    HW213239   4.068   5.220   5.038
 4114SOL     OW13240   0.204   1.504   1.640
 4114SOL    HW113241   0.220   1.419   1.689
 4114SOL    HW213242   0.273   1.514   1.568
 4115SOL     OW13243   4.885   6.128   3.864
 4115SOL    HW113244   4.930   6.064   3.926
 4115SOL    HW213245   4.796   6.091   3.836
 4116SOL     OW13246   5.283   3.398   3.425
 4116SOL    HW113247   5.257   3.347   3.343
 4116SOL    HW213248   5.341   3.475   3.399
 4117SOL     OW13249   1.436   1.726   3.438
 4117SOL    HW113250   1.519   1.771   3.405
 4117SOL    HW213251   1.429   1.634   3.400
 4118SOL     OW13252   0.488   6.136   6.297
 4118SOL    HW113253   0.508   6.047   6.257
 4118SOL    HW213254   0.483   6.205   6.224
 4119SOL     OW13255   0.801   0.731   3.939
 4119SOL    HW113256   0.744   0.742   4.020
 4119SOL    HW213257   0.765   0.657   3.882
 4120SOL     OW13258   1.660   1.231   6.162
 4120SOL    HW113259   1.586   1.168   6.184
 4120SOL    HW213260   1.622   1.313   6.119
 4121SOL     OW13261   6.273   6.802   2.113
 4121SOL    HW113262   6.267   6.890   2.065
 4121SOL    HW213263   6.185   6.779   2.153
 4122SOL     OW13264   6.432   4.572   3.104
 4122SOL    HW113265   6.368   4.633   3.152
 4122SOL    HW213266   6.382   4.492   3.071
 4123SOL     OW13267   4.504   4.840   2.043
 4123SOL    HW113268   4.565   4.819   2.119
 4123SOL    HW213269   4.545   4.807   1.958
 4124SOL     OW13270   6.170   5.395   0.118
 4124SOL    HW113271   6.229   5.344   0.055
 4124SOL    HW213272   6.077   5.397   0.083
 4125SOL     OW13273   6.004   1.753   1.259
 4125SOL    HW113274   6.006   1.689   1.182
 4125SOL    HW213275   5.918   1.805   1.256
 4126SOL     OW13276   1.852   3.459   2.443
 4126SOL    HW113277   1.949   3.442   2.455
 4126SOL    HW213278   1.837   3.503   2.354
 4127SOL     OW13279   4.011   1.903   4.378
 4127SOL    HW113280   4.023   1.995   4.340
 4127SOL    HW213281   4.034   1.835   4.309
 4128SOL     OW13282   0.866   3.350   0.182
 4128SOL    HW113283   0.897   3.311   0.268
 4128SOL    HW213284   0.840   3.276   0.119
 4129SOL     OW13285   2.267   3.037   0.724
 4129SOL    HW113286   2.264   3.119   0.781
 4129SOL    HW213287   2.174   3.009   0.700
 4130SOL     OW13288   5.888   3.234   0.728
 4130SOL    HW113289   5.963   3.170   0.710
 4130SOL    HW213290   5.919   3.304   0.793
 4131SOL     OW13291   5.008   0.023   2.951
 4131SOL    HW113292   4.910   0.023   2.972
 4131SOL    HW213293   5.043   0.116   2.954
 4132SOL     OW13294   0.751   5.215   4.321
 4132SOL    HW113295   0.850   5.216   4.338
 4132SOL    HW213296   0.722   5.121   4.302
 4133SOL     OW13297   5.515   0.451   2.876
 4133SOL    HW113298   5.479   0.401   2.796
 4133SOL    HW213299   5.580   0.520   2.845
 4134SOL     OW13300   1.599   3.397   1.335
 4134SOL    HW113301   1.516   3.394   1.280
 4134SOL    HW213302   1.652   3.478   1.311
 4135SOL     OW13303   0.153   1.665   1.946
 4135SOL    HW113304   0.202   1.682   1.861
 4135SOL    HW213305   0.147   1.566   1.962
 4136SOL     OW13306   1.486   4.458   1.579
 4136SOL    HW113307   1.488   4.439   1.677
 4136SOL    HW213308   1.468   4.555   1.564
 4137SOL     OW13309   1.185   2.550   0.647
 4137SOL    HW113310   1.163   2.641   0.613
 4137SOL    HW213311   1.284   2.542   0.662
 4138SOL     OW13312   5.432   0.939   0.564
 4138SOL    HW113313   5.348   0.963   0.611
 4138SOL    HW213314   5.498   1.014   0.570
 4139SOL     OW13315   2.130   3.628   2.577
 4139SOL    HW113316   2.186   3.551   2.548
 4139SOL    HW213317   2.118   3.627   2.676
 4140SOL     OW13318   1.922   1.131   6.035
 4140SOL    HW113319   1.842   1.182   6.069
 4140SOL    HW213320   1.922   1.133   5.935
 4141SOL     OW13321   4.491   0.108   6.225
 4141SOL    HW113322   4.483   0.158   6.138
 4141SOL    HW213323   4.531   0.169   6.294
 4142SOL     OW13324   0.498   4.425   2.584
 4142SOL    HW113325   0.493   4.392   2.490
 4142SOL    HW213326   0.444   4.366   2.643
 4143SOL     OW13327   5.396   3.146   0.604
 4143SOL    HW113328   5.324   3.189   0.550
 4143SOL    HW213329   5.377   3.048   0.613
 4144SOL     OW13330   6.136   1.332   0.482
 4144SOL    HW113331   6.127   1.298   0.575
 4144SOL    HW213332   6.233   1.346   0.461
 4145SOL     OW13333   6.958   6.723   1.525
 4145SOL    HW113334   6.916   6.648   1.474
 4145SOL    HW213335   0.038   6.706   1.535
 4146SOL     OW13336   4.305   6.208   3.250
 4146SOL    HW113337   4.317   6.190   3.347
 4146SOL    HW213338   4.246   6.137   3.210
 4147SOL     OW13339   4.339   4.270   5.829
 4147SOL    HW113340   4.369   4.309   5.742
 4147SOL    HW213341   4.327   4.343   5.896
 4148SOL     OW13342   2.409   1.650   5.968
 4148SOL    HW113343   2.414   1.611   6.060
 4148SOL    HW213344   2.482   1.610   5.912
 4149SOL     OW13345   2.441   2.943   6.461
 4149SOL    HW113346   2.343   2.941   6.480
 4149SOL    HW213347   2.490   2.983   6.539
 4150SOL     OW13348   5.712   1.952   5.982
 4150SOL    HW113349   5.752   1.947   6.073
 4150SOL    HW213350   5.637   1.886   5.975
 4151SOL     OW13351   2.375   6.617   4.251
 4151SOL    HW113352   2.325   6.551   4.194
 4151SOL    HW213353   2.472   6.613   4.228
 4152SOL     OW13354   3.150   4.772   0.975
 4152SOL    HW113355   3.127   4.735   1.065
 4152SOL    HW213356   3.066   4.801   0.929
 4153SOL     OW13357   0.100   5.550   1.328
 4153SOL    HW113358   0.006   5.548   1.362
 4153SOL    HW213359   0.099   5.564   1.229
 4154SOL     OW13360   1.176   6.376   3.308
 4154SOL    HW113361   1.145   6.418   3.223
 4154SOL    HW213362   1.254   6.317   3.290
 4155SOL     OW13363   0.512   1.183   0.842
 4155SOL    HW113364   0.439   1.215   0.904
 4155SOL    HW213365   0.561   1.108   0.886
 4156SOL     OW13366   0.092   5.482   6.138
 4156SOL    HW113367   0.067   5.568   6.181
 4156SOL    HW213368   0.180   5.492   6.092
 4157SOL     OW13369   6.571   6.219   1.812
 4157SOL    HW113370   6.657   6.232   1.862
 4157SOL    HW213371   6.499   6.276   1.853
 4158SOL     OW13372   1.531   3.264   1.964
 4158SOL    HW113373   1.492   3.243   1.874
 4158SOL    HW213374   1.457   3.285   2.028
 4159SOL     OW13375   3.636   1.450   3.929
 4159SOL    HW113376   3.547   1.405   3.918
 4159SOL    HW213377   3.675   1.469   3.839
 4160SOL     OW13378   6.501   6.408   6.716
 4160SOL    HW113379   6.580   6.353   6.742
 4160SOL    HW213380   6.527   6.471   6.642
 4161SOL     OW13381   3.630   3.226   1.566
 4161SOL    HW113382   3.532   3.243   1.573
 4161SOL    HW213383   3.657   3.159   1.635
 4162SOL     OW13384   4.855   5.851   1.671
 4162SOL    HW113385   4.899   5.890   1.752
 4162SOL    HW213386   4.852   5.751   1.680
 4163SOL     OW13387   3.581   6.638   1.186
 4163SOL    HW113388   3.539   6.719   1.146
 4163SOL    HW213389   3.665   6.664   1.234
 4164SOL     OW13390   6.703   0.406   5.334
 4164SOL    HW113391   6.649   0.452   5.405
 4164SOL    HW213392   6.666   0.315   5.317
 4165SOL     OW13393   3.855   1.188   5.038
 4165SOL    HW113394   3.858   1.238   4.952
 4165SOL    HW213395   3.949   1.170   5.069
 4166SOL     OW13396   5.344   1.043   1.701
 4166SOL    HW113397   5.368   1.075   1.792
 4166SOL    HW213398   5.382   1.105   1.632
 4167SOL     OW13399   4.017   5.066   4.974
 4167SOL    HW113400   3.917   5.054   4.974
 4167SOL    HW213401   4.051   5.061   4.880
 4168SOL     OW13402   4.174   4.226   6.835
 4168SOL    HW113403   4.190   4.135   6.871
 4168SOL    HW213404   4.170   4.292   6.910
 4169SOL     OW13405   5.067   3.495   4.943
 4169SOL    HW113406   5.130   3.556   4.895
 4169SOL    HW213407   4.981   3.544   4.961
 4170SOL     OW13408   0.095   3.486   3.657
 4170SOL    HW113409   0.159   3.420   3.697
 4170SOL    HW213410   0.003   3.447   3.657
 4171SOL     OW13411   0.743   2.780   1.001
 4171SOL    HW113412   0.763   2.838   1.079
 4171SOL    HW213413   0.683   2.828   0.937
 4172SOL     OW13414   3.008   4.777   0.633
 4172SOL    HW113415   2.945   4.789   0.710
 4172SOL    HW213416   3.040   4.867   0.602
 4173SOL     OW13417   5.291   3.081   5.057
 4173SOL    HW113418   5.372   3.102   5.003
 4173SOL    HW213419   5.209   3.103   5.004
 4174SOL     OW13420   3.679   0.552   5.225
 4174SOL    HW113421   3.650   0.468   5.178
 4174SOL    HW213422   3.701   0.622   5.157
 4175SOL     OW13423   1.689   4.472   6.741
 4175SOL    HW113424   1.632   4.446   6.818
 4175SOL    HW213425   1.694   4.397   6.676
 4176SOL     OW13426   4.972   0.135   6.485
 4176SOL    HW113427   4.905   0.083   6.538
 4176SOL    HW213428   5.034   0.073   6.439
 4177SOL     OW13429   4.485   4.499   3.245
 4177SOL    HW113430   4.402   4.501   3.189
 4177SOL    HW213431   4.558   4.454   3.195
 4178SOL     OW13432   4.209   5.613   1.738
 4178SOL    HW113433   4.219   5.530   1.792
 4178SOL    HW213434   4.295   5.664   1.738
 4179SOL     OW13435   5.533   3.094   4.928
 4179SOL    HW113436   5.583   3.028   4.873
 4179SOL    HW213437   5.589   3.176   4.942
 4180SOL     OW13438   4.793   4.242   0.056
 4180SOL    HW113439   4.828   4.158   0.099
 4180SOL    HW213440   4.774   4.310   0.126
 4181SOL     OW13441   4.292   0.790   5.556
 4181SOL    HW113442   4.192   0.779   5.556
 4181SOL    HW213443   4.335   0.708   5.520
 4182SOL     OW13444   6.957   6.948   4.056
 4182SOL    HW113445   6.884   6.991   4.004
 4182SOL    HW213446   6.918   6.878   4.117
 4183SOL     OW13447   3.727   1.880   1.516
 4183SOL    HW113448   3.717   1.964   1.570
 4183SOL    HW213449   3.643   1.826   1.521
 4184SOL     OW13450   3.404   5.186   3.619
 4184SOL    HW113451   3.441   5.254   3.684
 4184SOL    HW213452   3.306   5.176   3.634
 4185SOL     OW13453   6.546   3.807   2.825
 4185SOL    HW113454   6.606   3.793   2.746
 4185SOL    HW213455   6.475   3.737   2.825
 4186SOL     OW13456   1.674   6.171   0.566
 4186SOL    HW113457   1.574   6.171   0.572
 4186SOL    HW213458   1.712   6.138   0.653
 4187SOL     OW13459   1.582   3.947   6.592
 4187SOL    HW113460   1.624   3.857   6.582
 4187SOL    HW213461   1.567   3.966   6.689
 4188SOL     OW13462   5.331   6.956   0.007
 4188SOL    HW113463   5.382   6.933   0.090
 4188SOL    HW213464   5.381   0.009   6.975
 4189SOL     OW13465   5.028   5.103   3.322
 4189SOL    HW113466   5.091   5.039   3.279
 4189SOL    HW213467   4.941   5.102   3.273
 4190SOL     OW13468   0.020   6.320   0.858
 4190SOL    HW113469   0.030   6.221   0.847
 4190SOL    HW213470   0.107   6.358   0.890
 4191SOL     OW13471   4.191   4.473   5.951
 4191SOL    HW113472   4.244   4.497   6.032
 4191SOL    HW213473   4.093   4.478   5.972
 4192SOL     OW13474   1.217   3.412   1.726
 4192SOL    HW113475   1.283   3.337   1.734
 4192SOL    HW213476   1.132   3.377   1.689
 4193SOL     OW13477   0.235   0.081   0.749
 4193SOL    HW113478   0.247   0.169   0.704
 4193SOL    HW213479   0.263   0.008   0.687
 4194SOL     OW13480   4.351   0.847   5.096
 4194SOL    HW113481   4.304   0.897   5.169
 4194SOL    HW213482   4.439   0.815   5.130
 4195SOL     OW13483   4.027   5.549   1.316
 4195SOL    HW113484   3.948   5.497   1.284
 4195SOL    HW213485   4.004   5.646   1.320
 4196SOL     OW13486   6.668   2.472   2.387
 4196SOL    HW113487   6.714   2.554   2.421
 4196SOL    HW213488   6.682   2.397   2.452
 4197SOL     OW13489   3.545   6.517   6.120
 4197SOL    HW113490   3.524   6.419   6.117
 4197SOL    HW213491   3.497   6.564   6.045
 4198SOL     OW13492   6.067   1.077   2.577
 4198SOL    HW113493   6.124   1.153   2.545
 4198SOL    HW213494   6.035   1.095   2.670
 4199SOL     OW13495   0.592   3.539   6.475
 4199SOL    HW113496   0.503   3.579   6.452
 4199SOL    HW213497   0.662   3.578   6.414
 4200SOL     OW13498   4.553   1.371   4.056
 4200SOL    HW113499   4.532   1.370   4.153
 4200SOL    HW213500   4.521   1.287   4.013
 4201SOL     OW13501   5.719   7.017   2.956
 4201SOL    HW113502   5.643   0.063   2.966
 4201SOL    HW213503   5.690   6.926   2.986
 4202SOL     OW13504   4.444   5.069   0.757
 4202SOL    HW113505   4.400   5.009   0.691
 4202SOL    HW213506   4.419   5.042   0.850
 4203SOL     OW13507   6.133   5.404   6.734
 4203SOL    HW113508   6.187   5.371   6.812
 4203SOL    HW213509   6.117   5.502   6.744
 4204SOL     OW13510   2.890   3.599   5.712
 4204SOL    HW113511   2.942   3.670   5.664
 4204SOL    HW213512   2.948   3.557   5.781
 4205SOL     OW13513   3.950   5.784   5.081
 4205SOL    HW113514   3.993   5.705   5.037
 4205SOL    HW213515   3.956   5.862   5.019
 4206SOL     OW13516   1.743   2.149   4.579
 4206SOL    HW113517   1.815   2.095   4.536
 4206SOL    HW213518   1.724   2.114   4.670
 4207SOL     OW13519   1.548   2.883   1.681
 4207SOL    HW113520   1.483   2.934   1.625
 4207SOL    HW213521   1.524   2.893   1.778
 4208SOL     OW13522   1.977   3.756   5.078
 4208SOL    HW113523   2.035   3.821   5.128
 4208SOL    HW213524   1.968   3.671   5.131
 4209SOL     OW13525   0.303   5.949   2.973
 4209SOL    HW113526   0.358   5.889   2.916
 4209SOL    HW213527   0.326   6.045   2.953
 4210SOL     OW13528   4.131   3.414   4.873
 4210SOL    HW113529   4.229   3.430   4.883
 4210SOL    HW213530   4.083   3.446   4.955
 4211SOL     OW13531   4.189   2.482   5.462
 4211SOL    HW113532   4.159   2.488   5.367
 4211SOL    HW213533   4.285   2.511   5.469
 4212SOL     OW13534   6.720   1.946   3.127
 4212SOL    HW113535   6.758   1.885   3.197
 4212SOL    HW213536   6.652   2.007   3.169
 4213SOL     OW13537   3.422   1.060   2.782
 4213SOL    HW113538   3.403   1.153   2.813
 4213SOL    HW213539   3.416   1.056   2.682
 4214SOL     OW13540   0.759   4.941   4.693
 4214SOL    HW113541   0.726   4.861   4.642
 4214SOL    HW213542   0.840   4.979   4.649
 4215SOL     OW13543   4.833   6.548   5.258
 4215SOL    HW113544   4.896   6.506   5.324
 4215SOL    HW213545   4.757   6.485   5.240
 4216SOL     OW13546   2.706   6.379   2.835
 4216SOL    HW113547   2.676   6.340   2.748
 4216SOL    HW213548   2.802   6.406   2.828
 4217SOL     OW13549   0.809   0.689   1.918
 4217SOL    HW113550   0.794   0.647   2.008
 4217SOL    HW213551   0.907   0.696   1.900
 4218SOL     OW13552   2.721   0.866   1.391
 4218SOL    HW113553   2.694   0.961   1.373
 4218SOL    HW213554   2.661   0.827   1.461
 4219SOL     OW13555   3.952   6.347   3.939
 4219SOL    HW113556   3.933   6.273   3.874
 4219SOL    HW213557   3.944   6.435   3.893
 4220SOL     OW13558   4.672   2.089   1.543
 4220SOL    HW113559   4.588   2.034   1.540
 4220SOL    HW213560   4.661   2.170   1.486
 4221SOL     OW13561   0.365   5.725   6.788
 4221SOL    HW113562   0.443   5.771   6.830
 4221SOL    HW213563   0.280   5.759   6.831
 4222SOL     OW13564   4.582   2.075   3.220
 4222SOL    HW113565   4.629   2.131   3.288
 4222SOL    HW213566   4.637   1.993   3.201
 4223SOL     OW13567   4.145   3.322   2.203
 4223SOL    HW113568   4.105   3.250   2.146
 4223SOL    HW213569   4.193   3.388   2.144
 4224SOL     OW13570   4.985   3.813   4.834
 4224SOL    HW113571   4.916   3.752   4.795
 4224SOL    HW213572   4.976   3.814   4.934
 4225SOL     OW13573   0.046   3.129   5.650
 4225SOL    HW113574   0.029   3.105   5.555
 4225SOL    HW213575   6.988   3.098   5.707
 4226SOL     OW13576   0.964   5.474   4.482
 4226SOL    HW113577   0.957   5.452   4.580
 4226SOL    HW213578   0.992   5.392   4.432
 4227SOL     OW13579   5.541   5.598   2.180
 4227SOL    HW113580   5.584   5.636   2.262
 4227SOL    HW213581   5.605   5.539   2.132
 4228SOL     OW13582   1.111   5.283   3.807
 4228SOL    HW113583   1.057   5.210   3.850
 4228SOL    HW213584   1.172   5.324   3.875
 4229SOL     OW13585   5.860   4.908   5.435
 4229SOL    HW113586   5.788   4.890   5.502
 4229SOL    HW213587   5.918   4.827   5.426
 4230SOL     OW13588   1.253   0.685   1.959
 4230SOL    HW113589   1.177   0.711   1.900
 4230SOL    HW213590   1.272   0.760   2.023
 4231SOL     OW13591   5.367   1.114   5.760
 4231SOL    HW113592   5.344   1.210   5.743
 4231SOL    HW213593   5.284   1.064   5.785
 4232SOL     OW13594   2.065   5.222   4.344
 4232SOL    HW113595   2.004   5.142   4.338
 4232SOL    HW213596   2.099   5.230   4.438
 4233SOL     OW13597   5.219   6.382   3.714
 4233SOL    HW113598   5.311   6.410   3.687
 4233SOL    HW213599   5.152   6.439   3.667
 4234SOL     OW13600   1.877   5.477   5.628
 4234SOL    HW113601   1.919   5.520   5.708
 4234SOL    HW213602   1.943   5.417   5.584
 4235SOL     OW13603   0.033   5.103   6.226
 4235SOL    HW113604   0.009   5.189   6.271
 4235SOL    HW213605   0.001   5.105   6.131
 4236SOL     OW13606   0.746   5.100   1.691
 4236SOL    HW113607   0.705   5.081   1.780
 4236SOL    HW213608   0.803   5.182   1.698
 4237SOL     OW13609   6.387   4.231   3.292
 4237SOL    HW113610   6.412   4.286   3.372
 4237SOL    HW213611   6.288   4.231   3.281
 4238SOL     OW13612   2.512   0.504   3.134
 4238SOL    HW113613   2.574   0.475   3.061
 4238SOL    HW213614   2.528   0.601   3.153
 4239SOL     OW13615   3.921   0.818   2.846
 4239SOL    HW113616   3.962   0.846   2.932
 4239SOL    HW213617   3.842   0.874   2.826
 4240SOL     OW13618   0.850   5.650   0.730
 4240SOL    HW113619   0.863   5.700   0.645
 4240SOL    HW213620   0.858   5.713   0.807
 4241SOL     OW13621   6.333   1.924   6.849
 4241SOL    HW113622   6.285   1.848   6.807
 4241SOL    HW213623   6.358   1.991   6.779
 4242SOL     OW13624   2.273   2.383   4.098
 4242SOL    HW113625   2.225   2.378   4.010
 4242SOL    HW213626   2.307   2.476   4.112
 4243SOL     OW13627   5.682   1.178   2.828
 4243SOL    HW113628   5.643   1.185   2.736
 4243SOL    HW213629   5.782   1.181   2.821
 4244SOL     OW13630   3.648   3.534   2.436
 4244SOL    HW113631   3.651   3.444   2.479
 4244SOL    HW213632   3.697   3.600   2.492
 4245SOL     OW13633   5.779   2.588   6.038
 4245SOL    HW113634   5.700   2.586   5.977
 4245SOL    HW213635   5.750   2.565   6.131
 4246SOL     OW13636   0.188   4.107   1.873
 4246SOL    HW113637   0.151   4.032   1.818
 4246SOL    HW213638   0.144   4.193   1.846
 4247SOL     OW13639   6.775   5.678   5.230
 4247SOL    HW113640   6.789   5.680   5.132
 4247SOL    HW213641   6.776   5.771   5.267
 4248SOL     OW13642   1.416   2.779   5.490
 4248SOL    HW113643   1.333   2.795   5.544
 4248SOL    HW213644   1.392   2.732   5.405
 4249SOL     OW13645   5.585   3.001   5.561
 4249SOL    HW113646   5.660   2.967   5.617
 4249SOL    HW213647   5.575   3.100   5.575
 4250SOL     OW13648   6.709   5.283   3.513
 4250SOL    HW113649   6.784   5.291   3.579
 4250SOL    HW213650   6.708   5.190   3.476
 4251SOL     OW13651   5.852   4.369   0.667
 4251SOL    HW113652   5.930   4.309   0.649
 4251SOL    HW213653   5.816   4.404   0.580
 4252SOL     OW13654   0.310   5.566   5.653
 4252SOL    HW113655   0.279   5.492   5.593
 4252SOL    HW213656   0.407   5.554   5.675
 4253SOL     OW13657   4.363   0.881   1.846
 4253SOL    HW113658   4.355   0.863   1.944
 4253SOL    HW213659   4.399   0.800   1.800
 4254SOL     OW13660   2.204   3.690   1.363
 4254SOL    HW113661   2.166   3.642   1.284
 4254SOL    HW213662   2.198   3.789   1.347
 4255SOL     OW13663   6.229   2.908   4.040
 4255SOL    HW113664   6.320   2.867   4.035
 4255SOL    HW213665   6.226   2.991   3.985
 4256SOL     OW13666   2.079   6.954   1.243
 4256SOL    HW113667   2.073   6.862   1.283
 4256SOL    HW213668   2.019   6.959   1.163
 4257SOL     OW13669   3.285   1.826   4.951
 4257SOL    HW113670   3.284   1.760   5.026
 4257SOL    HW213671   3.292   1.919   4.989
 4258SOL     OW13672   5.792   6.681   1.948
 4258SOL    HW113673   5.862   6.752   1.940
 4258SOL    HW213674   5.767   6.669   2.045
 4259SOL     OW13675   2.619   2.249   6.776
 4259SOL    HW113676   2.567   2.212   6.853
 4259SOL    HW213677   2.576   2.222   6.690
 4260SOL     OW13678   4.753   5.964   3.347
 4260SOL    HW113679   4.752   5.866   3.368
 4260SOL    HW213680   4.848   5.996   3.344
 4261SOL     OW13681   2.553   6.437   2.038
 4261SOL    HW113682   2.458   6.412   2.057
 4261SOL    HW213683   2.586   6.386   1.958
 4262SOL     OW13684   1.307   4.913   6.572
 4262SOL    HW113685   1.347   4.937   6.484
 4262SOL    HW213686   1.237   4.842   6.559
 4263SOL     OW13687   2.424   4.624   5.621
 4263SOL    HW113688   2.512   4.654   5.585
 4263SOL    HW213689   2.350   4.663   5.566
 4264SOL     OW13690   0.398   1.293   0.155
 4264SOL    HW113691   0.488   1.310   0.115
 4264SOL    HW213692   0.409   1.256   0.247
 4265SOL     OW13693   6.978   1.803   0.462
 4265SOL    HW113694   0.021   1.723   0.464
 4265SOL    HW213695   7.010   1.868   0.393
 4266SOL     OW13696   2.483   5.263   0.026
 4266SOL    HW113697   2.517   5.262   6.950
 4266SOL    HW213698   2.559   5.267   0.090
 4267SOL     OW13699   1.911   3.516   5.170
 4267SOL    HW113700   1.926   3.450   5.244
 4267SOL    HW213701   1.814   3.517   5.147
 4268SOL     OW13702   2.039   1.134   0.604
 4268SOL    HW113703   1.985   1.054   0.629
 4268SOL    HW213704   1.978   1.208   0.574
 4269SOL     OW13705   3.169   3.072   0.400
 4269SOL    HW113706   3.200   2.979   0.418
 4269SOL    HW213707   3.187   3.129   0.481
 4270SOL     OW13708   3.393   3.043   4.978
 4270SOL    HW113709   3.348   3.103   5.044
 4270SOL    HW213710   3.444   2.971   5.026
 4271SOL     OW13711   0.637   6.799   5.763
 4271SOL    HW113712   0.711   6.760   5.818
 4271SOL    HW213713   0.676   6.860   5.693
 4272SOL     OW13714   6.489   4.687   5.229
 4272SOL    HW113715   6.482   4.606   5.288
 4272SOL    HW213716   6.536   4.760   5.279
 4273SOL     OW13717   4.725   6.810   5.230
 4273SOL    HW113718   4.788   6.735   5.250
 4273SOL    HW213719   4.631   6.781   5.252
 4274SOL     OW13720   1.820   6.699   3.611
 4274SOL    HW113721   1.762   6.627   3.649
 4274SOL    HW213722   1.776   6.738   3.530
 4275SOL     OW13723   0.159   0.711   5.512
 4275SOL    HW113724   0.217   0.664   5.445
 4275SOL    HW213725   0.164   0.664   5.600
 4276SOL     OW13726   2.136   4.634   2.990
 4276SOL    HW113727   2.161   4.575   2.913
 4276SOL    HW213728   2.212   4.637   3.056
 4277SOL     OW13729   0.046   5.054   3.605
 4277SOL    HW113730   0.125   5.063   3.666
 4277SOL    HW213731   0.077   5.061   3.510
 4278SOL     OW13732   6.548   5.914   4.751
 4278SOL    HW113733   6.641   5.921   4.787
 4278SOL    HW213734   6.485   5.890   4.825
 4279SOL     OW13735   2.976   6.322   5.116
 4279SOL    HW113736   3.008   6.234   5.083
 4279SOL    HW213737   3.011   6.395   5.056
 4280SOL     OW13738   6.413   2.272   5.397
 4280SOL    HW113739   6.448   2.365   5.404
 4280SOL    HW213740   6.393   2.237   5.488
 4281SOL     OW13741   1.735   4.490   5.088
 4281SOL    HW113742   1.672   4.557   5.128
 4281SOL    HW213743   1.748   4.510   4.991
 4282SOL     OW13744   2.409   2.855   0.855
 4282SOL    HW113745   2.486   2.915   0.877
 4282SOL    HW213746   2.332   2.909   0.823
 4283SOL     OW13747   1.815   0.525   4.139
 4283SOL    HW113748   1.736   0.571   4.179
 4283SOL    HW213749   1.885   0.512   4.209
 4284SOL     OW13750   5.417   1.342   2.225
 4284SOL    HW113751   5.506   1.326   2.182
 4284SOL    HW213752   5.386   1.258   2.269
 4285SOL     OW13753   1.046   0.394   5.589
 4285SOL    HW113754   0.967   0.350   5.545
 4285SOL    HW213755   1.095   0.326   5.643
 4286SOL     OW13756   4.697   5.471   0.370
 4286SOL    HW113757   4.738   5.540   0.429
 4286SOL    HW213758   4.616   5.432   0.415
 4287SOL     OW13759   5.914   0.347   4.644
 4287SOL    HW113760   5.839   0.286   4.668
 4287SOL    HW213761   5.955   0.385   4.728
 4288SOL     OW13762   1.435   0.168   3.089
 4288SOL    HW113763   1.399   0.075   3.077
 4288SOL    HW213764   1.501   0.188   3.017
 4289SOL     OW13765   5.781   2.483   1.184
 4289SOL    HW113766   5.773   2.506   1.087
 4289SOL    HW213767   5.717   2.409   1.205
 4290SOL     OW13768   2.464   0.524   2.312
 4290SOL    HW113769   2.430   0.602   2.365
 4290SOL    HW213770   2.435   0.439   2.355
 4291SOL     OW13771   5.488   2.742   0.338
 4291SOL    HW113772   5.474   2.838   0.314
 4291SOL    HW213773   5.560   2.735   0.407
 4292SOL     OW13774   6.288   4.179   5.588
 4292SOL    HW113775   6.240   4.109   5.642
 4292SOL    HW213776   6.318   4.139   5.501
 4293SOL     OW13777   6.380   3.376   6.828
 4293SOL    HW113778   6.315   3.301   6.844
 4293SOL    HW213779   6.459   3.365   6.889
 4294SOL     OW13780   4.295   2.449   5.947
 4294SOL    HW113781   4.330   2.489   5.862
 4294SOL    HW213782   4.322   2.506   6.024
 4295SOL     OW13783   3.820   0.216   4.447
 4295SOL    HW113784   3.764   0.197   4.527
 4295SOL    HW213785   3.766   0.199   4.364
 4296SOL     OW13786   2.156   1.879   0.722
 4296SOL    HW113787   2.090   1.954   0.717
 4296SOL    HW213788   2.200   1.879   0.812
 4297SOL     OW13789   5.400   0.294   4.877
 4297SOL    HW113790   5.403   0.364   4.949
 4297SOL    HW213791   5.320   0.236   4.892
 4298SOL     OW13792   2.606   5.751   1.223
 4298SOL    HW113793   2.594   5.653   1.202
 4298SOL    HW213794   2.551   5.805   1.158
 4299SOL     OW13795   0.624   3.640   5.994
 4299SOL    HW113796   0.643   3.726   6.042
 4299SOL    HW213797   0.576   3.659   5.909
 4300SOL     OW13798   3.498   1.260   6.774
 4300SOL    HW113799   3.470   1.356   6.774
 4300SOL    HW213800   3.417   1.201   6.783
 4301SOL     OW13801   1.932   2.017   0.474
 4301SOL    HW113802   1.857   2.037   0.537
 4301SOL    HW213803   2.018   2.054   0.512
 4302SOL     OW13804   1.018   6.324   6.692
 4302SOL    HW113805   1.047   6.359   6.782
 4302SOL    HW213806   1.093   6.271   6.652
 4303SOL     OW13807   6.882   4.199   2.581
 4303SOL    HW113808   6.843   4.270   2.639
 4303SOL    HW213809   6.808   4.150   2.534
 4304SOL     OW13810   3.214   3.401   4.351
 4304SOL    HW113811   3.115   3.384   4.350
 4304SOL    HW213812   3.254   3.369   4.265
 4305SOL     OW13813   6.276   1.012   3.871
 4305SOL    HW113814   6.183   1.001   3.836
 4305SOL    HW213815   6.338   0.955   3.818
 4306SOL     OW13816   6.736   4.509   6.216
 4306SOL    HW113817   6.828   4.538   6.190
 4306SOL    HW213818   6.702   4.568   6.289
 4307SOL     OW13819   4.551   4.075   5.677
 4307SOL    HW113820   4.480   4.128   5.632
 4307SOL    HW213821   4.604   4.025   5.609
 4308SOL     OW13822   5.196   5.708   4.802
 4308SOL    HW113823   5.098   5.696   4.816
 4308SOL    HW213824   5.234   5.762   4.877
 4309SOL     OW13825   1.489   1.541   0.692
 4309SOL    HW113826   1.531   1.546   0.601
 4309SOL    HW213827   1.398   1.501   0.684
 4310SOL     OW13828   1.876   2.142   2.748
 4310SOL    HW113829   1.967   2.179   2.730
 4310SOL    HW213830   1.865   2.127   2.847
 4311SOL     OW13831   1.105   5.808   3.634
 4311SOL    HW113832   1.140   5.737   3.573
 4311SOL    HW213833   1.111   5.897   3.588
 4312SOL     OW13834   2.260   5.871   2.167
 4312SOL    HW113835   2.348   5.841   2.203
 4312SOL    HW213836   2.234   5.812   2.091
 4313SOL     OW13837   5.029   1.337   1.572
 4313SOL    HW113838   4.998   1.401   1.502
 4313SOL    HW213839   5.126   1.351   1.590
 4314SOL     OW13840   4.989   2.795   3.285
 4314SOL    HW113841   5.002   2.808   3.187
 4314SOL    HW213842   4.922   2.723   3.301
 4315SOL     OW13843   2.677   0.887   1.799
 4315SOL    HW113844   2.609   0.930   1.740
 4315SOL    HW213845   2.653   0.904   1.895
 4316SOL     OW13846   5.532   0.452   1.062
 4316SOL    HW113847   5.508   0.464   0.966
 4316SOL    HW213848   5.621   0.407   1.070
 4317SOL     OW13849   3.139   1.444   4.176
 4317SOL    HW113850   3.118   1.414   4.083
 4317SOL    HW213851   3.221   1.501   4.174
 4318SOL     OW13852   0.877   3.651   3.425
 4318SOL    HW113853   0.896   3.666   3.328
 4318SOL    HW213854   0.917   3.725   3.479
 4319SOL     OW13855   2.535   3.322   6.595
 4319SOL    HW113856   2.620   3.376   6.591
 4319SOL    HW213857   2.557   3.228   6.621
 4320SOL     OW13858   1.299   6.621   2.633
 4320SOL    HW113859   1.321   6.682   2.557
 4320SOL    HW213860   1.346   6.654   2.716
 4321SOL     OW13861   6.607   0.649   5.425
 4321SOL    HW113862   6.662   0.728   5.399
 4321SOL    HW213863   6.559   0.613   5.345
 4322SOL     OW13864   6.430   1.083   6.508
 4322SOL    HW113865   6.476   1.028   6.439
 4322SOL    HW213866   6.405   1.026   6.586
 4323SOL     OW13867   5.489   2.660   2.613
 4323SOL    HW113868   5.443   2.743   2.582
 4323SOL    HW213869   5.554   2.682   2.685
 4324SOL     OW13870   5.638   3.775   6.585
 4324SOL    HW113871   5.632   3.687   6.631
 4324SOL    HW213872   5.656   3.760   6.487
 4325SOL     OW13873   2.176   0.926   6.707
 4325SOL    HW113874   2.268   0.906   6.672
 4325SOL    HW213875   2.115   0.941   6.630
 4326SOL     OW13876   6.359   3.355   5.282
 4326SOL    HW113877   6.435   3.291   5.278
 4326SOL    HW213878   6.321   3.368   5.191
 4327SOL     OW13879   5.787   5.376   2.416
 4327SOL    HW113880   5.710   5.315   2.397
 4327SOL    HW213881   5.869   5.342   2.369
 4328SOL     OW13882   4.850   4.625   6.246
 4328SOL    HW113883   4.810   4.657   6.159
 4328SOL    HW213884   4.908   4.545   6.228
 4329SOL     OW13885   3.840   1.510   5.144
 4329SOL    HW113886   3.860   1.604   5.173
 4329SOL    HW213887   3.915   1.476   5.087
 4330SOL     OW13888   1.777   0.379   5.744
 4330SOL    HW113889   1.716   0.438   5.796
 4330SOL    HW213890   1.733   0.351   5.659
 4331SOL     OW13891   5.384   2.560   0.170
 4331SOL    HW113892   5.379   2.593   0.076
 4331SOL    HW213893   5.426   2.630   0.228
 4332SOL     OW13894   4.845   3.142   2.257
 4332SOL    HW113895   4.821   3.091   2.174
 4332SOL    HW213896   4.794   3.228   2.258
 4333SOL     OW13897   5.592   1.517   4.465
 4333SOL    HW113898   5.512   1.499   4.522
 4333SOL    HW213899   5.672   1.534   4.523
 4334SOL     OW13900   3.132   1.967   1.927
 4334SOL    HW113901   3.124   1.906   1.848
 4334SOL    HW213902   3.041   1.997   1.955
 4335SOL     OW13903   3.086   4.005   4.502
 4335SOL    HW113904   3.030   4.081   4.469
 4335SOL    HW213905   3.167   4.041   4.548
 4336SOL     OW13906   1.337   6.411   5.128
 4336SOL    HW113907   1.275   6.399   5.050
 4336SOL    HW213908   1.413   6.346   5.121
 4337SOL     OW13909   0.316   4.851   0.027
 4337SOL    HW113910   0.242   4.867   6.979
 4337SOL    HW213911   0.334   4.935   0.078
 4338SOL     OW13912   5.726   6.266   4.321
 4338SOL    HW113913   5.779   6.203   4.264
 4338SOL    HW213914   5.725   6.357   4.280
 4339SOL     OW13915   6.605   2.189   5.210
 4339SOL    HW113916   6.592   2.267   5.272
 4339SOL    HW213917   6.540   2.117   5.235
 4340SOL     OW13918   5.544   3.623   1.843
 4340SOL    HW113919   5.526   3.668   1.930
 4340SOL    HW213920   5.497   3.672   1.769
 4341SOL     OW13921   1.654   3.806   2.053
 4341SOL    HW113922   1.611   3.723   2.021
 4341SOL    HW213923   1.750   3.808   2.024
 4342SOL     OW13924   0.432   2.521   2.697
 4342SOL    HW113925   0.348   2.574   2.707
 4342SOL    HW213926   0.452   2.472   2.782
 4343SOL     OW13927   2.992   1.071   0.646
 4343SOL    HW113928   3.089   1.070   0.666
 4343SOL    HW213929   2.951   0.983   0.669
 4344SOL     OW13930   1.492   3.868   3.045
 4344SOL    HW113931   1.454   3.861   3.137
 4344SOL    HW213932   1.550   3.949   3.039
 4345SOL     OW13933   2.048   2.591   5.485
 4345SOL    HW113934   2.107   2.575   5.406
 4345SOL    HW213935   1.997   2.676   5.472
 4346SOL     OW13936   2.008   3.068   1.901
 4346SOL    HW113937   1.991   3.015   1.984
 4346SOL    HW213938   1.927   3.065   1.842
 4347SOL     OW13939   6.499   0.151   2.078
 4347SOL    HW113940   6.547   0.068   2.105
 4347SOL    HW213941   6.405   0.129   2.053
 4348SOL     OW13942   1.038   3.665   1.365
 4348SOL    HW113943   1.047   3.756   1.325
 4348SOL    HW213944   0.949   3.657   1.408
 4349SOL     OW13945   0.348   1.247   3.792
 4349SOL    HW113946   0.282   1.297   3.848
 4349SOL    HW213947   0.335   1.269   3.696
 4350SOL     OW13948   5.283   2.349   4.490
 4350SOL    HW113949   5.248   2.369   4.582
 4350SOL    HW213950   5.212   2.370   4.423
 4351SOL     OW13951   3.217   5.596   2.735
 4351SOL    HW113952   3.178   5.506   2.714
 4351SOL    HW213953   3.275   5.625   2.659
 4352SOL     OW13954   0.690   2.203   1.911
 4352SOL    HW113955   0.686   2.126   1.975
 4352SOL    HW213956   0.608   2.203   1.854
 4353SOL     OW13957   2.153   5.878   6.649
 4353SOL    HW113958   2.084   5.949   6.634
 4353SOL    HW213959   2.240   5.921   6.675
 4354SOL     OW13960   2.158   0.038   6.899
 4354SOL    HW113961   2.232   0.019   6.835
 4354SOL    HW213962   2.133   0.135   6.894
 4355SOL     OW13963   3.965   0.651   1.019
 4355SOL    HW113964   3.929   0.738   0.985
 4355SOL    HW213965   3.892   0.599   1.062
 4356SOL     OW13966   4.494   4.229   0.714
 4356SOL    HW113967   4.455   4.173   0.641
 4356SOL    HW213968   4.436   4.309   0.729
 4357SOL     OW13969   6.485   0.240   0.399
 4357SOL    HW113970   6.394   0.279   0.387
 4357SOL    HW213971   6.553   0.306   0.366
 4358SOL     OW13972   1.077   6.108   1.695
 4358SOL    HW113973   1.027   6.104   1.609
 4358SOL    HW213974   1.156   6.048   1.690
 4359SOL     OW13975   0.741   1.972   4.122
 4359SOL    HW113976   0.835   2.007   4.125
 4359SOL    HW213977   0.741   1.882   4.079
 4360SOL     OW13978   0.681   3.361   1.578
 4360SOL    HW113979   0.605   3.426   1.583
 4360SOL    HW213980   0.659   3.290   1.512
 4361SOL     OW13981   4.744   2.380   2.089
 4361SOL    HW113982   4.753   2.472   2.127
 4361SOL    HW213983   4.647   2.357   2.081
 4362SOL     OW13984   6.295   4.042   5.346
 4362SOL    HW113985   6.226   4.096   5.299
 4362SOL    HW213986   6.357   4.001   5.279
 4363SOL     OW13987   5.231   3.102   5.470
 4363SOL    HW113988   5.184   3.083   5.384
 4363SOL    HW213989   5.246   3.017   5.520
 4364SOL     OW13990   3.456   4.118   4.338
 4364SOL    HW113991   3.443   4.136   4.241
 4364SOL    HW213992   3.501   4.029   4.350
 4365SOL     OW13993   4.164   2.250   2.703
 4365SOL    HW113994   4.075   2.216   2.672
 4365SOL    HW213995   4.202   2.312   2.635
 4366SOL     OW13996   6.262   6.267   1.490
 4366SOL    HW113997   6.209   6.351   1.496
 4366SOL    HW213998   6.208   6.190   1.526
 4367SOL     OW13999   1.107   5.475   5.621
 4367SOL    HW114000   1.080   5.567   5.592
 4367SOL    HW214001   1.164   5.482   5.703
 4368SOL     OW14002   5.407   4.630   1.840
 4368SOL    HW114003   5.448   4.645   1.931
 4368SOL    HW214004   5.368   4.538   1.837
 4369SOL     OW14005   4.783   4.625   2.441
 4369SOL    HW114006   4.880   4.631   2.416
 4369SOL    HW214007   4.756   4.529   2.445
 4370SOL     OW14008   5.758   4.521   4.236
 4370SOL    HW114009   5.757   4.556   4.142
 4370SOL    HW214010   5.664   4.514   4.270
 4371SOL     OW14011   6.439   0.513   1.821
 4371SOL    HW114012   6.362   0.573   1.843
 4371SOL    HW214013   6.502   0.561   1.760
 4372SOL     OW14014   4.756   1.597   3.158
 4372SOL    HW114015   4.776   1.519   3.217
 4372SOL    HW214016   4.658   1.615   3.158
 4373SOL     OW14017   6.539   1.837   6.551
 4373SOL    HW114018   6.561   1.797   6.639
 4373SOL    HW214019   6.486   1.772   6.497
 4374SOL     OW14020   1.620   1.971   2.448
 4374SOL    HW114021   1.656   2.063   2.441
 4374SOL    HW214022   1.559   1.953   2.371
 4375SOL     OW14023   2.537   6.293   4.342
 4375SOL    HW114024   2.612   6.228   4.357
 4375SOL    HW214025   2.552   6.375   4.397
 4376SOL     OW14026   6.491   0.521   2.407
 4376SOL    HW114027   6.504   0.423   2.415
 4376SOL    HW214028   6.578   0.564   2.382
 4377SOL     OW14029   5.874   4.023   7.001
 4377SOL    HW114030   5.961   4.071   7.005
 4377SOL    HW214031   5.818   4.049   0.062
 4378SOL     OW14032   2.181   0.351   3.750
 4378SOL    HW114033   2.271   0.319   3.782
 4378SOL    HW214034   2.112   0.284   3.776
 4379SOL     OW14035   2.706   1.259   4.701
 4379SOL    HW114036   2.747   1.232   4.614
 4379SOL    HW214037   2.777   1.296   4.761
 4380SOL     OW14038   1.332   1.586   1.728
 4380SOL    HW114039   1.422   1.548   1.703
 4380SOL    HW214040   1.324   1.678   1.692
 4381SOL     OW14041   1.710   5.978   5.231
 4381SOL    HW114042   1.778   5.979   5.304
 4381SOL    HW214043   1.656   5.894   5.238
 4382SOL     OW14044   6.611   3.876   4.786
 4382SOL    HW114045   6.689   3.836   4.738
 4382SOL    HW214046   6.536   3.811   4.787
 4383SOL     OW14047   5.359   2.600   6.068
 4383SOL    HW114048   5.433   2.600   6.001
 4383SOL    HW214049   5.304   2.683   6.057
 4384SOL     OW14050   0.074   6.604   3.059
 4384SOL    HW114051   0.037   6.666   2.991
 4384SOL    HW214052   0.104   6.656   3.139
 4385SOL     OW14053   5.691   1.800   4.590
 4385SOL    HW114054   5.670   1.854   4.509
 4385SOL    HW214055   5.612   1.801   4.652
 4386SOL     OW14056   1.501   3.265   5.465
 4386SOL    HW114057   1.592   3.247   5.502
 4386SOL    HW214058   1.437   3.195   5.498
 4387SOL     OW14059   0.199   2.702   0.802
 4387SOL    HW114060   0.137   2.633   0.839
 4387SOL    HW214061   0.283   2.658   0.770
 4388SOL     OW14062   4.942   1.888   6.239
 4388SOL    HW114063   4.960   1.797   6.200
 4388SOL    HW214064   5.029   1.932   6.260
 4389SOL     OW14065   0.096   3.623   1.527
 4389SOL    HW114066   0.074   3.573   1.610
 4389SOL    HW214067   0.045   3.709   1.525
 4390SOL     OW14068   5.735   0.955   1.001
 4390SOL    HW114069   5.817   0.987   1.048
 4390SOL    HW214070   5.740   0.855   0.990
 4391SOL     OW14071   1.890   5.682   6.099
 4391SOL    HW114072   1.947   5.711   6.175
 4391SOL    HW214073   1.798   5.721   6.109
 4392SOL     OW14074   1.196   1.562   4.135
 4392SOL    HW114075   1.210   1.661   4.147
 4392SOL    HW214076   1.208   1.516   4.223
 4393SOL     OW14077   5.189   6.984   1.462
 4393SOL    HW114078   5.270   0.012   1.499
 4393SOL    HW214079   5.216   6.896   1.422
 4394SOL     OW14080   1.791   0.110   1.235
 4394SOL    HW114081   1.848   0.058   1.172
 4394SOL    HW214082   1.753   0.048   1.304
 4395SOL     OW14083   2.686   6.124   1.305
 4395SOL    HW114084   2.593   6.092   1.320
 4395SOL    HW214085   2.745   6.047   1.282
 4396SOL     OW14086   1.954   0.807   3.329
 4396SOL    HW114087   1.965   0.867   3.408
 4396SOL    HW214088   1.857   0.795   3.310
 4397SOL     OW14089   2.913   1.953   3.933
 4397SOL    HW114090   2.920   1.943   3.834
 4397SOL    HW214091   2.893   1.865   3.975
 4398SOL     OW14092   2.119   3.054   6.102
 4398SOL    HW114093   2.080   3.116   6.170
 4398SOL    HW214094   2.218   3.069   6.096
 4399SOL     OW14095   3.045   6.241   2.403
 4399SOL    HW114096   3.048   6.142   2.419
 4399SOL    HW214097   3.136   6.280   2.416
 4400SOL     OW14098   1.971   6.544   4.196
 4400SOL    HW114099   2.028   6.558   4.277
 4400SOL    HW214100   1.951   6.633   4.154
 4401SOL     OW14101   3.244   6.453   5.542
 4401SOL    HW114102   3.177   6.455   5.616
 4401SOL    HW214103   3.335   6.436   5.579
 4402SOL     OW14104   1.181   0.278   3.161
 4402SOL    HW114105   1.136   0.247   3.245
 4402SOL    HW214106   1.263   0.222   3.144
 4403SOL     OW14107   1.359   5.367   1.069
 4403SOL    HW114108   1.441   5.361   1.127
 4403SOL    HW214109   1.309   5.450   1.092
 4404SOL     OW14110   0.976   5.617   6.131
 4404SOL    HW114111   1.026   5.637   6.216
 4404SOL    HW214112   0.952   5.520   6.128
 4405SOL     OW14113   2.168   4.534   3.767
 4405SOL    HW114114   2.267   4.525   3.774
 4405SOL    HW214115   2.139   4.508   3.674
 4406SOL     OW14116   6.052   3.457   2.247
 4406SOL    HW114117   6.005   3.525   2.190
 4406SOL    HW214118   6.041   3.367   2.206
 4407SOL     OW14119   0.229   6.347   2.311
 4407SOL    HW114120   0.308   6.309   2.262
 4407SOL    HW214121   0.151   6.351   2.249
 4408SOL     OW14122   3.927   0.304   0.876
 4408SOL    HW114123   3.943   0.209   0.849
 4408SOL    HW214124   3.876   0.306   0.962
 4409SOL     OW14125   3.898   0.857   2.296
 4409SOL    HW114126   3.934   0.875   2.387
 4409SOL    HW214127   3.847   0.937   2.264
 4410SOL     OW14128   1.257   6.050   1.070
 4410SOL    HW114129   1.197   6.118   1.113
 4410SOL    HW214130   1.203   5.973   1.039
 4411SOL     OW14131   3.195   4.654   5.547
 4411SOL    HW114132   3.295   4.664   5.542
 4411SOL    HW214133   3.162   4.601   5.470
 4412SOL     OW14134   4.445   6.752   3.206
 4412SOL    HW114135   4.425   6.656   3.187
 4412SOL    HW214136   4.409   6.777   3.296
 4413SOL     OW14137   3.659   0.185   4.221
 4413SOL    HW114138   3.679   0.272   4.175
 4413SOL    HW214139   3.570   0.151   4.190
 4414SOL     OW14140   4.701   4.436   1.916
 4414SOL    HW114141   4.629   4.385   1.963
 4414SOL    HW214142   4.772   4.461   1.982
 4415SOL     OW14143   3.131   3.346   1.669
 4415SOL    HW114144   3.081   3.390   1.743
 4415SOL    HW214145   3.074   3.343   1.587
 4416SOL     OW14146   4.270   2.265   4.040
 4416SOL    HW114147   4.243   2.175   4.076
 4416SOL    HW214148   4.358   2.256   3.993
 4417SOL     OW14149   0.527   3.527   3.750
 4417SOL    HW114150   0.508   3.476   3.666
 4417SOL    HW214151   0.599   3.594   3.733
 4418SOL     OW14152   6.352   0.510   0.631
 4418SOL    HW114153   6.438   0.510   0.581
 4418SOL    HW214154   6.366   0.547   0.723
 4419SOL     OW14155   6.254   5.651   6.248
 4419SOL    HW114156   6.266   5.676   6.152
 4419SOL    HW214157   6.328   5.589   6.275
 4420SOL     OW14158   3.727   2.348   0.904
 4420SOL    HW114159   3.649   2.329   0.963
 4420SOL    HW214160   3.746   2.268   0.847
 4421SOL     OW14161   1.581   2.553   4.619
 4421SOL    HW114162   1.654   2.485   4.606
 4421SOL    HW214163   1.503   2.529   4.561
 4422SOL     OW14164   0.099   4.899   6.895
 4422SOL    HW114165   0.012   4.851   6.884
 4422SOL    HW214166   0.126   4.940   6.807
 4423SOL     OW14167   5.484   3.935   5.689
 4423SOL    HW114168   5.507   3.973   5.779
 4423SOL    HW214169   5.567   3.896   5.648
 4424SOL     OW14170   4.999   5.912   4.350
 4424SOL    HW114171   4.941   5.856   4.290
 4424SOL    HW214172   5.037   5.855   4.423
 4425SOL     OW14173   1.942   5.959   1.566
 4425SOL    HW114174   1.959   5.959   1.468
 4425SOL    HW214175   1.879   6.034   1.589
 4426SOL     OW14176   1.132   0.130   3.742
 4426SOL    HW114177   1.098   0.038   3.758
 4426SOL    HW214178   1.062   0.197   3.768
 4427SOL     OW14179   3.456   5.930   3.316
 4427SOL    HW114180   3.374   5.985   3.331
 4427SOL    HW214181   3.468   5.866   3.393
 4428SOL     OW14182   5.668   0.629   3.613
 4428SOL    HW114183   5.751   0.683   3.628
 4428SOL    HW214184   5.589   0.679   3.647
 4429SOL     OW14185   2.985   5.595   3.671
 4429SOL    HW114186   3.081   5.576   3.649
 4429SOL    HW214187   2.930   5.586   3.589
 4430SOL     OW14188   5.417   4.742   4.902
 4430SOL    HW114189   5.490   4.678   4.879
 4430SOL    HW214190   5.452   4.836   4.895
 4431SOL     OW14191   3.471   0.563   3.643
 4431SOL    HW114192   3.435   0.494   3.706
 4431SOL    HW214193   3.420   0.648   3.654
 4432SOL     OW14194   1.387   3.598   6.077
 4432SOL    HW114195   1.475   3.646   6.084
 4432SOL    HW214196   1.359   3.593   5.981
 4433SOL     OW14197   1.072   1.081   4.875
 4433SOL    HW114198   1.123   1.068   4.790
 4433SOL    HW214199   1.136   1.099   4.950
 4434SOL     OW14200   6.976   1.404   1.985
 4434SOL    HW114201   0.010   1.319   1.981
 4434SOL    HW214202   6.935   1.423   1.895
 4435SOL     OW14203   2.693   4.197   0.408
 4435SOL    HW114204   2.609   4.200   0.354
 4435SOL    HW214205   2.762   4.143   0.360
 4436SOL     OW14206   4.428   2.001   1.455
 4436SOL    HW114207   4.372   2.080   1.482
 4436SOL    HW214208   4.406   1.974   1.362
 4437SOL     OW14209   0.320   3.823   1.750
 4437SOL    HW114210   0.257   3.897   1.726
 4437SOL    HW214211   0.374   3.850   1.830
 4438SOL     OW14212   4.052   0.216   6.474
 4438SOL    HW114213   4.025   0.167   6.391
 4438SOL    HW214214   4.151   0.207   6.487
 4439SOL     OW14215   2.598   6.696   2.412
 4439SOL    HW114216   2.633   6.707   2.505
 4439SOL    HW214217   2.652   6.627   2.363
 4440SOL     OW14218   2.201   4.876   0.726
 4440SOL    HW114219   2.157   4.899   0.639
 4440SOL    HW214220   2.137   4.891   0.801
 4441SOL     OW14221   0.593   1.320   6.958
 4441SOL    HW114222   0.564   1.332   6.863
 4441SOL    HW214223   0.650   1.398   6.985
 4442SOL     OW14224   1.932   4.406   6.883
 4442SOL    HW114225   1.933   4.503   6.907
 4442SOL    HW214226   1.896   4.395   6.790
 4443SOL     OW14227   0.392   5.235   6.496
 4443SOL    HW114228   0.411   5.185   6.412
 4443SOL    HW214229   0.293   5.246   6.506
 4444SOL     OW14230   5.384   4.257   0.230
 4444SOL    HW114231   5.461   4.297   0.180
 4444SOL    HW214232   5.300   4.270   0.178
 4445SOL     OW14233   0.441   5.966   6.971
 4445SOL    HW114234   0.473   5.906   0.026
 4445SOL    HW214235   0.345   5.945   6.951
 4446SOL     OW14236   5.301   1.082   0.833
 4446SOL    HW114237   5.229   1.149   0.847
 4446SOL    HW214238   5.271   0.993   0.869
 4447SOL     OW14239   5.307   5.095   5.532
 4447SOL    HW114240   5.391   5.085   5.585
 4447SOL    HW214241   5.330   5.123   5.439
 4448SOL     OW14242   3.392   6.865   2.172
 4448SOL    HW114243   3.439   6.946   2.207
 4448SOL    HW214244   3.351   6.814   2.247
 4449SOL     OW14245   3.718   1.198   6.271
 4449SOL    HW114246   3.815   1.179   6.261
 4449SOL    HW214247   3.703   1.297   6.275
 4450SOL     OW14248   3.435   0.547   0.664
 4450SOL    HW114249   3.372   0.560   0.741
 4450SOL    HW214250   3.390   0.493   0.593
 4451SOL     OW14251   4.740   4.214   3.402
 4451SOL    HW114252   4.829   4.256   3.420
 4451SOL    HW214253   4.667   4.276   3.431
 4452SOL     OW14254   4.969   6.449   4.626
 4452SOL    HW114255   4.996   6.357   4.657
 4452SOL    HW214256   4.935   6.443   4.532
 4453SOL     OW14257   0.527   3.131   1.152
 4453SOL    HW114258   0.527   3.093   1.060
 4453SOL    HW214259   0.439   3.174   1.170
 4454SOL     OW14260   1.015   2.168   0.706
 4454SOL    HW114261   1.069   2.251   0.703
 4454SOL    HW214262   0.939   2.180   0.769
 4455SOL     OW14263   6.792   5.970   4.892
 4455SOL    HW114264   6.744   5.988   4.978
 4455SOL    HW214265   6.827   6.056   4.855
 4456SOL     OW14266   1.902   0.278   4.077
 4456SOL    HW114267   1.863   0.363   4.114
 4456SOL    HW214268   1.841   0.202   4.097
 4457SOL     OW14269   0.917   2.111   5.188
 4457SOL    HW114270   0.847   2.044   5.162
 4457SOL    HW214271   0.998   2.063   5.221
 4458SOL     OW14272   2.163   3.749   0.692
 4458SOL    HW114273   2.206   3.838   0.675
 4458SOL    HW214274   2.125   3.713   0.607
 4459SOL     OW14275   1.595   2.644   3.771
 4459SOL    HW114276   1.514   2.673   3.821
 4459SOL    HW214277   1.576   2.558   3.722
 4460SOL     OW14278   6.961   3.167   4.049
 4460SOL    HW114279   6.881   3.199   4.100
 4460SOL    HW214280   0.002   3.245   4.027
 4461SOL     OW14281   2.787   0.778   1.091
 4461SOL    HW114282   2.787   0.775   1.191
 4461SOL    HW214283   2.765   0.687   1.055
 4462SOL     OW14284   5.930   4.705   1.880
 4462SOL    HW114285   5.858   4.773   1.886
 4462SOL    HW214286   5.889   4.613   1.876
 4463SOL     OW14287   6.220   2.118   1.019
 4463SOL    HW114288   6.221   2.215   1.045
 4463SOL    HW214289   6.162   2.067   1.083
 4464SOL     OW14290   0.577   5.810   0.119
 4464SOL    HW114291   0.581   5.722   0.168
 4464SOL    HW214292   0.621   5.800   0.030
 4465SOL     OW14293   1.947   5.862   0.728
 4465SOL    HW114294   1.857   5.893   0.759
 4465SOL    HW214295   1.952   5.869   0.628
 4466SOL     OW14296   1.740   2.056   3.472
 4466SOL    HW114297   1.745   1.983   3.540
 4466SOL    HW214298   1.763   2.143   3.515
 4467SOL     OW14299   3.691   5.499   3.139
 4467SOL    HW114300   3.642   5.547   3.067
 4467SOL    HW214301   3.709   5.562   3.215
 4468SOL     OW14302   1.391   3.653   1.755
 4468SOL    HW114303   1.323   3.585   1.784
 4468SOL    HW214304   1.361   3.695   1.669
 4469SOL     OW14305   2.907   6.694   1.144
 4469SOL    HW114306   2.892   6.689   1.243
 4469SOL    HW214307   2.845   6.630   1.098
 4470SOL     OW14308   1.153   0.556   2.173
 4470SOL    HW114309   1.169   0.590   2.081
 4470SOL    HW214310   1.102   0.624   2.225
 4471SOL     OW14311   1.681   1.545   6.096
 4471SOL    HW114312   1.732   1.564   6.180
 4471SOL    HW214313   1.730   1.584   6.018
 4472SOL     OW14314   1.711   3.293   1.059
 4472SOL    HW114315   1.700   3.392   1.058
 4472SOL    HW214316   1.770   3.267   1.135
 4473SOL     OW14317   0.377   3.358   4.612
 4473SOL    HW114318   0.475   3.368   4.597
 4473SOL    HW214319   0.349   3.412   4.692
 4474SOL     OW14320   2.964   0.157   1.682
 4474SOL    HW114321   2.883   0.148   1.625
 4474SOL    HW214322   2.946   0.219   1.758
 4475SOL     OW14323   0.782   3.668   1.488
 4475SOL    HW114324   0.756   3.592   1.548
 4475SOL    HW214325   0.727   3.748   1.510
 4476SOL     OW14326   4.889   1.628   4.170
 4476SOL    HW114327   4.821   1.555   4.172
 4476SOL    HW214328   4.981   1.588   4.166
 4477SOL     OW14329   1.976   0.282   5.917
 4477SOL    HW114330   1.908   0.349   5.890
 4477SOL    HW214331   1.959   0.196   5.869
 4478SOL     OW14332   1.568   0.228   7.006
 4478SOL    HW114333   1.545   0.279   6.923
 4478SOL    HW214334   1.618   0.288   0.051
 4479SOL     OW14335   0.906   2.859   0.431
 4479SOL    HW114336   0.949   2.832   0.518
 4479SOL    HW214337   0.820   2.906   0.450
 4480SOL     OW14338   0.604   6.372   4.215
 4480SOL    HW114339   0.660   6.343   4.137
 4480SOL    HW214340   0.621   6.311   4.293
 4481SOL     OW14341   2.396   4.496   6.479
 4481SOL    HW114342   2.354   4.582   6.448
 4481SOL    HW214343   2.442   4.452   6.402
 4482SOL     OW14344   2.803   5.320   6.516
 4482SOL    HW114345   2.712   5.279   6.517
 4482SOL    HW214346   2.811   5.386   6.591
 4483SOL     OW14347   0.436   3.013   1.538
 4483SOL    HW114348   0.511   3.001   1.603
 4483SOL    HW214349   0.378   3.089   1.568
 4484SOL     OW14350   2.701   2.521   6.822
 4484SOL    HW114351   2.665   2.567   6.903
 4484SOL    HW214352   2.678   2.424   6.827
 4485SOL     OW14353   5.593   2.932   4.531
 4485SOL    HW114354   5.549   3.000   4.473
 4485SOL    HW214355   5.585   2.842   4.489
 4486SOL     OW14356   4.495   4.914   5.488
 4486SOL    HW114357   4.460   4.863   5.410
 4486SOL    HW214358   4.425   4.919   5.559
 4487SOL     OW14359   1.169   2.917   0.319
 4487SOL    HW114360   1.232   2.854   0.364
 4487SOL    HW214361   1.075   2.891   0.342
 4488SOL     OW14362   0.067   3.940   4.068
 4488SOL    HW114363   0.136   4.009   4.087
 4488SOL    HW214364   0.062   3.875   4.144
 4489SOL     OW14365   3.822   5.608   5.448
 4489SOL    HW114366   3.893   5.678   5.442
 4489SOL    HW214367   3.820   5.555   5.363
 4490SOL     OW14368   5.030   1.807   0.823
 4490SOL    HW114369   4.967   1.857   0.882
 4490SOL    HW214370   5.082   1.873   0.767
 4491SOL     OW14371   1.136   2.740   3.002
 4491SOL    HW114372   1.197   2.707   2.930
 4491SOL    HW214373   1.060   2.791   2.960
 4492SOL     OW14374   5.688   0.474   1.399
 4492SOL    HW114375   5.647   0.490   1.489
 4492SOL    HW214376   5.663   0.383   1.367
 4493SOL     OW14377   4.789   0.948   5.155
 4493SOL    HW114378   4.703   0.921   5.197
 4493SOL    HW214379   4.805   1.045   5.171
 4494SOL     OW14380   0.615   0.779   0.815
 4494SOL    HW114381   0.706   0.807   0.787
 4494SOL    HW214382   0.563   0.750   0.735
 4495SOL     OW14383   4.587   5.957   1.984
 4495SOL    HW114384   4.556   5.874   1.938
 4495SOL    HW214385   4.553   5.958   2.078
 4496SOL     OW14386   3.296   6.123   6.358
 4496SOL    HW114387   3.313   6.140   6.455
 4496SOL    HW214388   3.227   6.187   6.324
 4497SOL     OW14389   4.053   1.755   6.298
 4497SOL    HW114390   4.145   1.790   6.316
 4497SOL    HW214391   4.017   1.710   6.380
 4498SOL     OW14392   0.648   5.897   5.533
 4498SOL    HW114393   0.601   5.940   5.610
 4498SOL    HW214394   0.649   5.798   5.546
 4499SOL     OW14395   5.774   1.938   2.124
 4499SOL    HW114396   5.782   1.870   2.051
 4499SOL    HW214397   5.856   1.996   2.124
 4500SOL     OW14398   3.592   6.170   6.944
 4500SOL    HW114399   3.526   6.095   6.944
 4500SOL    HW214400   3.578   6.227   6.863
 4501SOL     OW14401   5.462   0.972   2.592
 4501SOL    HW114402   5.423   1.027   2.666
 4501SOL    HW214403   5.407   0.983   2.510
 4502SOL     OW14404   0.543   3.230   6.740
 4502SOL    HW114405   0.612   3.286   6.692
 4502SOL    HW214406   0.452   3.251   6.703
 4503SOL     OW14407   3.177   0.090   2.361
 4503SOL    HW114408   3.135   0.129   2.443
 4503SOL    HW214409   3.165   7.008   2.362
 4504SOL     OW14410   0.533   2.005   3.038
 4504SOL    HW114411   0.556   2.046   3.126
 4504SOL    HW214412   0.570   2.062   2.964
 4505SOL     OW14413   6.014   3.910   2.792
 4505SOL    HW114414   6.106   3.948   2.794
 4505SOL    HW214415   6.006   3.839   2.862
 4506SOL     OW14416   5.200   3.174   4.748
 4506SOL    HW114417   5.247   3.245   4.695
 4506SOL    HW214418   5.101   3.184   4.735
 4507SOL     OW14419   6.622   2.791   3.370
 4507SOL    HW114420   6.566   2.841   3.303
 4507SOL    HW214421   6.712   2.773   3.332
 4508SOL     OW14422   0.850   5.200   0.518
 4508SOL    HW114423   0.922   5.179   0.453
 4508SOL    HW214424   0.761   5.181   0.476
 4509SOL     OW14425   4.870   2.980   2.651
 4509SOL    HW114426   4.830   2.919   2.719
 4509SOL    HW214427   4.862   2.939   2.560
 4510SOL     OW14428   4.313   1.318   4.602
 4510SOL    HW114429   4.312   1.244   4.534
 4510SOL    HW214430   4.220   1.354   4.612
 4511SOL     OW14431   0.663   4.262   0.901
 4511SOL    HW114432   0.608   4.206   0.839
 4511SOL    HW214433   0.760   4.251   0.879
 4512SOL     OW14434   3.221   2.487   5.778
 4512SOL    HW114435   3.242   2.513   5.873
 4512SOL    HW214436   3.123   2.498   5.762
 4513SOL     OW14437   1.606   6.399   0.233
 4513SOL    HW114438   1.661   6.429   0.155
 4513SOL    HW214439   1.646   6.317   0.273
 4514SOL     OW14440   3.032   3.499   6.875
 4514SOL    HW114441   3.024   3.400   6.888
 4514SOL    HW214442   2.947   3.543   6.903
 4515SOL     OW14443   4.249   0.003   6.199
 4515SOL    HW114444   4.279   6.929   6.174
 4515SOL    HW214445   4.324   0.052   6.243
 4516SOL     OW14446   3.600   1.569   5.035
 4516SOL    HW114447   3.568   1.498   4.973
 4516SOL    HW214448   3.685   1.541   5.078
 4517SOL     OW14449   3.983   0.416   5.724
 4517SOL    HW114450   3.940   0.432   5.813
 4517SOL    HW214451   3.991   0.503   5.675
 4518SOL     OW14452   1.832   0.582   0.777
 4518SOL    HW114453   1.779   0.578   0.862
 4518SOL    HW214454   1.784   0.638   0.710
 4519SOL     OW14455   5.297   6.268   6.507
 4519SOL    HW114456   5.352   6.200   6.555
 4519SOL    HW214457   5.355   6.345   6.479
 4520SOL     OW14458   4.553   6.564   4.981
 4520SOL    HW114459   4.462   6.600   5.000
 4520SOL    HW214460   4.601   6.548   5.067
 4521SOL     OW14461   4.717   2.748   4.955
 4521SOL    HW114462   4.724   2.659   5.000
 4521SOL    HW214463   4.673   2.813   5.017
 4522SOL     OW14464   5.050   4.253   3.386
 4522SOL    HW114465   5.035   4.316   3.309
 4522SOL    HW214466   5.104   4.175   3.354
 4523SOL     OW14467   0.342   3.308   6.388
 4523SOL    HW114468   0.261   3.290   6.332
 4523SOL    HW214469   0.415   3.245   6.364
 4524SOL     OW14470   0.654   3.198   3.019
 4524SOL    HW114471   0.683   3.266   2.952
 4524SOL    HW214472   0.556   3.183   3.012
 4525SOL     OW14473   2.972   1.949   5.453
 4525SOL    HW114474   3.003   2.026   5.509
 4525SOL    HW214475   2.884   1.971   5.412
 4526SOL     OW14476   0.399   7.012   5.437
 4526SOL    HW114477   0.369   6.951   5.510
 4526SOL    HW214478   0.330   0.066   5.424
 4527SOL     OW14479   6.301   0.475   2.913
 4527SOL    HW114480   6.399   0.494   2.913
 4527SOL    HW214481   6.276   0.426   2.997
 4528SOL     OW14482   3.983   0.868   5.264
 4528SOL    HW114483   3.897   0.920   5.262
 4528SOL    HW214484   3.961   0.770   5.264
 4529SOL     OW14485   2.480   1.146   5.557
 4529SOL    HW114486   2.512   1.057   5.525
 4529SOL    HW214487   2.558   1.205   5.576
 4530SOL     OW14488   2.824   6.018   5.168
 4530SOL    HW114489   2.923   6.011   5.158
 4530SOL    HW214490   2.798   6.114   5.177
 4531SOL     OW14491   0.748   5.084   5.942
 4531SOL    HW114492   0.812   5.044   5.877
 4531SOL    HW214493   0.655   5.077   5.906
 4532SOL     OW14494   5.742   0.789   2.725
 4532SOL    HW114495   5.831   0.744   2.729
 4532SOL    HW214496   5.734   0.852   2.802
 4533SOL     OW14497   2.561   0.591   2.063
 4533SOL    HW114498   2.590   0.683   2.038
 4533SOL    HW214499   2.532   0.590   2.158
 4534SOL     OW14500   4.539   1.734   4.295
 4534SOL    HW114501   4.601   1.656   4.306
 4534SOL    HW214502   4.557   1.801   4.367
 4535SOL     OW14503   2.649   1.851   0.634
 4535SOL    HW114504   2.612   1.943   0.633
 4535SOL    HW214505   2.620   1.802   0.551
 4536SOL     OW14506   2.897   1.264   5.916
 4536SOL    HW114507   2.990   1.230   5.929
 4536SOL    HW214508   2.836   1.188   5.898
 4537SOL     OW14509   3.815   2.962   3.794
 4537SOL    HW114510   3.738   2.923   3.844
 4537SOL    HW214511   3.882   2.999   3.858
 4538SOL     OW14512   0.046   2.402   0.557
 4538SOL    HW114513   0.029   2.308   0.589
 4538SOL    HW214514   0.142   2.426   0.574
 4539SOL     OW14515   0.985   5.753   5.213
 4539SOL    HW114516   0.957   5.809   5.291
 4539SOL    HW214517   0.931   5.669   5.211
 4540SOL     OW14518   0.539   0.750   6.758
 4540SOL    HW114519   0.572   0.815   6.689
 4540SOL    HW214520   0.615   0.727   6.820
 4541SOL     OW14521   4.583   2.740   5.961
 4541SOL    HW114522   4.649   2.667   5.975
 4541SOL    HW214523   4.567   2.752   5.863
 4542SOL     OW14524   6.895   2.549   1.309
 4542SOL    HW114525   6.947   2.577   1.390
 4542SOL    HW214526   6.957   2.507   1.243
 4543SOL     OW14527   3.746   2.436   0.082
 4543SOL    HW114528   3.780   2.375   0.011
 4543SOL    HW214529   3.741   2.387   0.169
 4544SOL     OW14530   5.905   5.673   0.772
 4544SOL    HW114531   5.830   5.694   0.709
 4544SOL    HW214532   5.956   5.594   0.737
 4545SOL     OW14533   2.001   3.123   5.569
 4545SOL    HW114534   2.067   3.056   5.534
 4545SOL    HW214535   2.046   3.184   5.633
 4546SOL     OW14536   3.350   1.635   6.733
 4546SOL    HW114537   3.276   1.626   6.666
 4546SOL    HW214538   3.438   1.638   6.685
 4547SOL     OW14539   6.638   0.151   0.087
 4547SOL    HW114540   6.594   0.096   0.157
 4547SOL    HW214541   6.726   0.184   0.121
 4548SOL     OW14542   2.252   2.766   2.838
 4548SOL    HW114543   2.210   2.698   2.778
 4548SOL    HW214544   2.329   2.725   2.886
 4549SOL     OW14545   5.852   3.530   3.798
 4549SOL    HW114546   5.936   3.573   3.831
 4549SOL    HW214547   5.782   3.601   3.786
 4550SOL     OW14548   0.890   4.332   2.975
 4550SOL    HW114549   0.809   4.389   2.989
 4550SOL    HW214550   0.959   4.355   3.044
 4551SOL     OW14551   1.245   3.584   4.734
 4551SOL    HW114552   1.293   3.658   4.779
 4551SOL    HW214553   1.267   3.497   4.780
 4552SOL     OW14554   5.714   0.953   1.390
 4552SOL    HW114555   5.707   0.894   1.470
 4552SOL    HW214556   5.742   0.899   1.311
 4553SOL     OW14557   5.816   5.141   6.113
 4553SOL    HW114558   5.896   5.150   6.172
 4553SOL    HW214559   5.747   5.083   6.157
 4554SOL     OW14560   0.296   6.150   2.594
 4554SOL    HW114561   0.266   6.240   2.627
 4554SOL    HW214562   0.355   6.162   2.515
 4555SOL     OW14563   1.242   0.920   6.643
 4555SOL    HW114564   1.243   0.927   6.544
 4555SOL    HW214565   1.283   1.002   6.683
 4556SOL     OW14566   5.778   3.798   6.053
 4556SOL    HW114567   5.780   3.898   6.057
 4556SOL    HW214568   5.854   3.765   5.997
 4557SOL     OW14569   6.196   5.190   2.896
 4557SOL    HW114570   6.227   5.187   2.801
 4557SOL    HW214571   6.167   5.098   2.924
 4558SOL     OW14572   6.838   3.646   5.760
 4558SOL    HW114573   6.758   3.644   5.701
 4558SOL    HW214574   6.834   3.725   5.820
 4559SOL     OW14575   0.031   2.424   2.599
 4559SOL    HW114576   0.109   2.368   2.570
 4559SOL    HW214577   0.064   2.513   2.631
 4560SOL     OW14578   6.105   4.913   2.620
 4560SOL    HW114579   6.112   4.913   2.720
 4560SOL    HW214580   6.028   4.855   2.593
 4561SOL     OW14581   3.800   2.091   4.733
 4561SOL    HW114582   3.846   2.029   4.795
 4561SOL    HW214583   3.866   2.157   4.696
 4562SOL     OW14584   2.462   1.277   1.126
 4562SOL    HW114585   2.401   1.264   1.047
 4562SOL    HW214586   2.555   1.293   1.094
 4563SOL     OW14587   0.325   3.252   1.666
 4563SOL    HW114588   0.391   3.260   1.740
 4563SOL    HW214589   0.327   3.335   1.611
 4564SOL     OW14590   0.594   4.095   1.925
 4564SOL    HW114591   0.513   4.107   1.983
 4564SOL    HW214592   0.591   4.006   1.881
 4565SOL     OW14593   1.788   6.333   5.269
 4565SOL    HW114594   1.791   6.253   5.208
 4565SOL    HW214595   1.774   6.301   5.363
 4566SOL     OW14596   6.150   4.279   2.030
 4566SOL    HW114597   6.138   4.180   2.019
 4566SOL    HW214598   6.144   4.302   2.128
 4567SOL     OW14599   0.405   0.632   6.496
 4567SOL    HW114600   0.468   0.560   6.525
 4567SOL    HW214601   0.326   0.634   6.558
 4568SOL     OW14602   0.622   5.599   3.308
 4568SOL    HW114603   0.633   5.500   3.295
 4568SOL    HW214604   0.572   5.637   3.230
 4569SOL     OW14605   2.558   0.749   3.223
 4569SOL    HW114606   2.629   0.817   3.204
 4569SOL    HW214607   2.472   0.796   3.242
 4570SOL     OW14608   5.812   5.751   1.657
 4570SOL    HW114609   5.779   5.785   1.569
 4570SOL    HW214610   5.736   5.745   1.721
 4571SOL     OW14611   3.000   3.535   6.232
 4571SOL    HW114612   2.980   3.600   6.305
 4571SOL    HW214613   3.096   3.508   6.237
 4572SOL     OW14614   2.893   2.978   1.574
 4572SOL    HW114615   2.859   2.919   1.500
 4572SOL    HW214616   2.961   2.929   1.627
 4573SOL     OW14617   1.790   6.202   1.579
 4573SOL    HW114618   1.784   6.294   1.618
 4573SOL    HW214619   1.782   6.208   1.479
 4574SOL     OW14620   5.947   1.846   0.771
 4574SOL    HW114621   6.025   1.827   0.832
 4574SOL    HW214622   5.933   1.768   0.711
 4575SOL     OW14623   6.686   6.624   4.862
 4575SOL    HW114624   6.645   6.676   4.936
 4575SOL    HW214625   6.729   6.687   4.797
 4576SOL     OW14626   2.585   4.962   5.057
 4576SOL    HW114627   2.670   4.940   5.105
 4576SOL    HW214628   2.604   4.983   4.961
 4577SOL     OW14629   2.076   1.411   3.059
 4577SOL    HW114630   2.156   1.424   3.002
 4577SOL    HW214631   2.003   1.369   3.005
 4578SOL     OW14632   1.365   1.163   1.866
 4578SOL    HW114633   1.417   1.126   1.789
 4578SOL    HW214634   1.428   1.189   1.939
 4579SOL     OW14635   3.677   1.419   2.185
 4579SOL    HW114636   3.579   1.399   2.192
 4579SOL    HW214637   3.699   1.449   2.092
 4580SOL     OW14638   0.011   2.716   0.306
 4580SOL    HW114639   0.041   2.733   0.400
 4580SOL    HW214640   0.061   2.776   0.243
 4581SOL     OW14641   3.398   0.127   1.974
 4581SOL    HW114642   3.371   0.114   1.878
 4581SOL    HW214643   3.318   0.157   2.026
 4582SOL     OW14644   6.054   1.156   3.126
 4582SOL    HW114645   6.117   1.219   3.174
 4582SOL    HW214646   5.981   1.128   3.189
 4583SOL     OW14647   1.680   6.874   6.509
 4583SOL    HW114648   1.589   6.844   6.483
 4583SOL    HW214649   1.740   6.794   6.518
 4584SOL     OW14650   1.708   0.570   5.517
 4584SOL    HW114651   1.775   0.515   5.466
 4584SOL    HW214652   1.628   0.588   5.460
 4585SOL     OW14653   1.320   3.375   3.256
 4585SOL    HW114654   1.337   3.301   3.191
 4585SOL    HW214655   1.378   3.363   3.337
 4586SOL     OW14656   5.404   4.369   6.800
 4586SOL    HW114657   5.498   4.373   6.766
 4586SOL    HW214658   5.343   4.337   6.727
 4587SOL     OW14659   3.186   3.651   4.510
 4587SOL    HW114660   3.206   3.594   4.430
 4587SOL    HW214661   3.089   3.641   4.534
 4588SOL     OW14662   2.942   4.195   5.583
 4588SOL    HW114663   2.935   4.167   5.488
 4588SOL    HW214664   3.019   4.147   5.626
 4589SOL     OW14665   5.319   6.876   2.212
 4589SOL    HW114666   5.269   6.962   2.205
 4589SOL    HW214667   5.338   6.841   2.121
 4590SOL     OW14668   3.329   5.399   1.792
 4590SOL    HW114669   3.396   5.461   1.749
 4590SOL    HW214670   3.352   5.305   1.770
 4591SOL     OW14671   1.788   0.329   5.345
 4591SOL    HW114672   1.887   0.342   5.341
 4591SOL    HW214673   1.744   0.379   5.269
 4592SOL     OW14674   2.137   1.584   4.163
 4592SOL    HW114675   2.107   1.670   4.205
 4592SOL    HW214676   2.123   1.509   4.228
 4593SOL     OW14677   0.981   6.217   4.204
 4593SOL    HW114678   0.897   6.256   4.167
 4593SOL    HW214679   1.007   6.136   4.151
 4594SOL     OW14680   1.851   0.422   2.582
 4594SOL    HW114681   1.900   0.335   2.580
 4594SOL    HW214682   1.916   0.496   2.601
 4595SOL     OW14683   5.117   1.742   6.091
 4595SOL    HW114684   5.095   1.694   6.006
 4595SOL    HW214685   5.128   1.675   6.165
 4596SOL     OW14686   0.703   0.855   2.353
 4596SOL    HW114687   0.771   0.919   2.316
 4596SOL    HW214688   0.628   0.906   2.394
 4597SOL     OW14689   2.788   6.222   6.749
 4597SOL    HW114690   2.851   6.245   6.823
 4597SOL    HW214691   2.695   6.215   6.785
 4598SOL     OW14692   2.211   5.629   0.047
 4598SOL    HW114693   2.278   5.660   0.114
 4598SOL    HW214694   2.129   5.595   0.094
 4599SOL     OW14695   2.290   5.136   3.372
 4599SOL    HW114696   2.375   5.127   3.424
 4599SOL    HW214697   2.246   5.222   3.395
 4600SOL     OW14698   6.832   6.153   6.284
 4600SOL    HW114699   6.922   6.166   6.244
 4600SOL    HW214700   6.810   6.055   6.287
 4601SOL     OW14701   1.271   1.154   5.057
 4601SOL    HW114702   1.278   1.232   5.118
 4601SOL    HW214703   1.329   1.167   4.977
 4602SOL     OW14704   2.816   2.155   6.936
 4602SOL    HW114705   2.912   2.182   6.931
 4602SOL    HW214706   2.762   2.212   6.874
 4603SOL     OW14707   5.077   6.257   0.978
 4603SOL    HW114708   4.996   6.274   1.034
 4603SOL    HW214709   5.141   6.200   1.030
 4604SOL     OW14710   4.958   0.279   5.829
 4604SOL    HW114711   5.012   0.209   5.783
 4604SOL    HW214712   5.018   0.342   5.878
 4605SOL     OW14713   3.406   0.273   2.408
 4605SOL    HW114714   3.394   0.286   2.506
 4605SOL    HW214715   3.344   0.202   2.376
 4606SOL     OW14716   6.728   6.767   3.861
 4606SOL    HW114717   6.661   6.832   3.897
 4606SOL    HW214718   6.808   6.818   3.827
 4607SOL     OW14719   1.708   2.976   2.111
 4607SOL    HW114720   1.726   3.072   2.131
 4607SOL    HW214721   1.647   2.939   2.181
 4608SOL     OW14722   6.851   3.534   4.885
 4608SOL    HW114723   6.852   3.507   4.789
 4608SOL    HW214724   6.758   3.525   4.921
 4609SOL     OW14725   4.511   5.874   6.908
 4609SOL    HW114726   4.525   5.925   6.993
 4609SOL    HW214727   4.419   5.834   6.908
 4610SOL     OW14728   5.074   2.864   0.687
 4610SOL    HW114729   5.036   2.862   0.595
 4610SOL    HW214730   5.174   2.867   0.682
 4611SOL     OW14731   1.272   0.477   6.150
 4611SOL    HW114732   1.213   0.549   6.187
 4611SOL    HW214733   1.215   0.406   6.109
 4612SOL     OW14734   2.131   6.863   1.674
 4612SOL    HW114735   2.124   6.881   1.772
 4612SOL    HW214736   2.219   6.897   1.640
 4613SOL     OW14737   1.600   4.945   2.014
 4613SOL    HW114738   1.641   4.983   1.931
 4613SOL    HW214739   1.550   5.018   2.062
 4614SOL     OW14740   6.549   3.468   4.293
 4614SOL    HW114741   6.540   3.560   4.329
 4614SOL    HW214742   6.465   3.417   4.310
 4615SOL     OW14743   0.761   2.524   0.635
 4615SOL    HW114744   0.707   2.581   0.573
 4615SOL    HW214745   0.807   2.452   0.583
 4616SOL     OW14746   6.136   3.171   4.664
 4616SOL    HW114747   6.146   3.091   4.723
 4616SOL    HW214748   6.054   3.222   4.692
 4617SOL     OW14749   0.687   2.637   2.730
 4617SOL    HW114750   0.725   2.683   2.650
 4617SOL    HW214751   0.604   2.588   2.704
 4618SOL     OW14752   2.362   4.436   5.863
 4618SOL    HW114753   2.358   4.526   5.820
 4618SOL    HW214754   2.313   4.369   5.807
 4619SOL     OW14755   3.762   6.369   5.416
 4619SOL    HW114756   3.749   6.425   5.334
 4619SOL    HW214757   3.823   6.416   5.479
 4620SOL     OW14758   1.428   5.424   2.968
 4620SOL    HW114759   1.499   5.454   3.032
 4620SOL    HW214760   1.467   5.420   2.876
 4621SOL     OW14761   4.801   0.460   2.110
 4621SOL    HW114762   4.777   0.519   2.187
 4621SOL    HW214763   4.801   0.364   2.141
 4622SOL     OW14764   4.641   5.541   1.347
 4622SOL    HW114765   4.614   5.482   1.271
 4622SOL    HW214766   4.643   5.488   1.432
 4623SOL     OW14767   2.876   5.061   1.233
 4623SOL    HW114768   2.820   5.017   1.302
 4623SOL    HW214769   2.818   5.095   1.159
 4624SOL     OW14770   4.249   1.370   2.430
 4624SOL    HW114771   4.176   1.425   2.391
 4624SOL    HW214772   4.275   1.298   2.366
 4625SOL     OW14773   2.034   5.640   1.318
 4625SOL    HW114774   1.957   5.595   1.364
 4625SOL    HW214775   2.051   5.596   1.230
 4626SOL     OW14776   4.115   3.855   1.858
 4626SOL    HW114777   4.044   3.887   1.921
 4626SOL    HW214778   4.149   3.932   1.805
 4627SOL     OW14779   5.864   6.695   5.034
 4627SOL    HW114780   5.931   6.721   5.104
 4627SOL    HW214781   5.905   6.628   4.972
 4628SOL     OW14782   5.714   5.251   4.034
 4628SOL    HW114783   5.653   5.177   4.006
 4628SOL    HW214784   5.728   5.247   4.132
 4629SOL     OW14785   2.114   6.153   6.439
 4629SOL    HW114786   2.116   6.209   6.356
 4629SOL    HW214787   2.154   6.204   6.514
 4630SOL     OW14788   1.635   3.684   2.386
 4630SOL    HW114789   1.709   3.688   2.319
 4630SOL    HW214790   1.591   3.774   2.392
 4631SOL     OW14791   0.355   0.444   3.542
 4631SOL    HW114792   0.391   0.445   3.449
 4631SOL    HW214793   0.426   0.414   3.605
 4632SOL     OW14794   3.384   4.913   2.686
 4632SOL    HW114795   3.341   4.991   2.640
 4632SOL    HW214796   3.461   4.881   2.630
 4633SOL     OW14797   4.880   1.305   4.366
 4633SOL    HW114798   4.904   1.264   4.454
 4633SOL    HW214799   4.962   1.316   4.311
 4634SOL     OW14800   3.111   3.725   4.884
 4634SOL    HW114801   3.091   3.681   4.972
 4634SOL    HW214802   3.208   3.715   4.863
 4635SOL     OW14803   5.161   5.794   0.696
 4635SOL    HW114804   5.119   5.718   0.647
 4635SOL    HW214805   5.219   5.846   0.633
 4636SOL     OW14806   2.083   5.897   0.419
 4636SOL    HW114807   1.985   5.889   0.433
 4636SOL    HW214808   2.124   5.806   0.419
 4637SOL     OW14809   2.129   0.445   2.007
 4637SOL    HW114810   2.122   0.361   1.952
 4637SOL    HW214811   2.148   0.421   2.102
 4638SOL     OW14812   3.356   5.123   6.645
 4638SOL    HW114813   3.290   5.195   6.663
 4638SOL    HW214814   3.448   5.155   6.668
 4639SOL     OW14815   2.081   2.224   0.920
 4639SOL    HW114816   2.159   2.261   0.869
 4639SOL    HW214817   1.997   2.241   0.869
 4640SOL     OW14818   6.634   3.085   6.022
 4640SOL    HW114819   6.726   3.109   5.991
 4640SOL    HW214820   6.604   3.151   6.092
 4641SOL     OW14821   0.748   5.676   4.080
 4641SOL    HW114822   0.795   5.636   4.001
 4641SOL    HW214823   0.715   5.603   4.140
 4642SOL     OW14824   0.341   1.837   3.150
 4642SOL    HW114825   0.384   1.883   3.072
 4642SOL    HW214826   0.398   1.761   3.180
 4643SOL     OW14827   0.456   2.041   6.974
 4643SOL    HW114828   0.530   2.049   0.022
 4643SOL    HW214829   0.483   2.085   6.888
 4644SOL     OW14830   1.385   1.017   0.835
 4644SOL    HW114831   1.459   0.971   0.785
 4644SOL    HW214832   1.422   1.096   0.884
 4645SOL     OW14833   1.253   1.611   3.717
 4645SOL    HW114834   1.224   1.566   3.632
 4645SOL    HW214835   1.258   1.542   3.790
 4646SOL     OW14836   1.831   4.788   3.545
 4646SOL    HW114837   1.927   4.786   3.519
 4646SOL    HW214838   1.781   4.852   3.486
 4647SOL     OW14839   1.469   6.709   2.882
 4647SOL    HW114840   1.551   6.738   2.833
 4647SOL    HW214841   1.493   6.638   2.949
 4648SOL     OW14842   2.486   1.682   4.439
 4648SOL    HW114843   2.394   1.721   4.440
 4648SOL    HW214844   2.480   1.583   4.428
 4649SOL     OW14845   5.771   0.468   0.614
 4649SOL    HW114846   5.858   0.489   0.568
 4649SOL    HW214847   5.725   0.552   0.639
 4650SOL     OW14848   5.586   5.928   1.133
 4650SOL    HW114849   5.553   5.861   1.200
 4650SOL    HW214850   5.671   5.895   1.092
 4651SOL     OW14851   5.841   3.200   6.178
 4651SOL    HW114852   5.833   3.295   6.209
 4651SOL    HW214853   5.805   3.193   6.085
 4652SOL     OW14854   0.396   6.361   3.998
 4652SOL    HW114855   0.337   6.279   3.994
 4652SOL    HW214856   0.476   6.341   4.053
 4653SOL     OW14857   5.456   5.621   0.566
 4653SOL    HW114858   5.415   5.606   0.476
 4653SOL    HW214859   5.384   5.638   0.633
 4654SOL     OW14860   0.341   6.733   5.083
 4654SOL    HW114861   0.386   6.665   5.025
 4654SOL    HW214862   0.394   6.817   5.084
 4655SOL     OW14863   4.450   2.676   1.316
 4655SOL    HW114864   4.483   2.702   1.406
 4655SOL    HW214865   4.359   2.716   1.301
 4656SOL     OW14866   1.185   1.054   1.002
 4656SOL    HW114867   1.107   0.996   0.978
 4656SOL    HW214868   1.250   1.054   0.926
 4657SOL     OW14869   5.382   6.624   1.660
 4657SOL    HW114870   5.336   6.642   1.573
 4657SOL    HW214871   5.331   6.556   1.711
 4658SOL     OW14872   2.632   2.502   5.988
 4658SOL    HW114873   2.710   2.545   6.033
 4658SOL    HW214874   2.622   2.408   6.021
 4659SOL     OW14875   3.351   5.123   0.330
 4659SOL    HW114876   3.291   5.066   0.274
 4659SOL    HW214877   3.313   5.215   0.338
 4660SOL     OW14878   1.454   6.678   4.023
 4660SOL    HW114879   1.421   6.756   3.970
 4660SOL    HW214880   1.506   6.711   4.102
 4661SOL     OW14881   1.067   3.066   5.263
 4661SOL    HW114882   1.126   3.147   5.271
 4661SOL    HW214883   1.097   3.011   5.185
 4662SOL     OW14884   2.636   6.278   4.792
 4662SOL    HW114885   2.592   6.313   4.874
 4662SOL    HW214886   2.575   6.213   4.747
 4663SOL     OW14887   1.735   6.755   0.159
 4663SOL    HW114888   1.703   6.810   0.083
 4663SOL    HW214889   1.657   6.710   0.203
 4664SOL     OW14890   6.482   5.784   6.904
 4664SOL    HW114891   6.446   5.693   6.881
 4664SOL    HW214892   6.541   5.816   6.829
 4665SOL     OW14893   2.311   0.754   4.615
 4665SOL    HW114894   2.317   0.684   4.686
 4665SOL    HW214895   2.219   0.794   4.615
 4666SOL     OW14896   2.135   2.006   5.727
 4666SOL    HW114897   2.206   1.957   5.777
 4666SOL    HW214898   2.155   2.104   5.728
 4667SOL     OW14899   6.679   3.635   1.493
 4667SOL    HW114900   6.701   3.537   1.495
 4667SOL    HW214901   6.591   3.650   1.537
 4668SOL     OW14902   4.298   2.340   4.614
 4668SOL    HW114903   4.385   2.387   4.627
 4668SOL    HW214904   4.259   2.367   4.526
 4669SOL     OW14905   5.424   6.716   6.813
 4669SOL    HW114906   5.384   6.632   6.849
 4669SOL    HW214907   5.399   6.793   6.872
 4670SOL     OW14908   0.817   3.162   0.786
 4670SOL    HW114909   0.830   3.262   0.785
 4670SOL    HW214910   0.905   3.117   0.795
 4671SOL     OW14911   7.008   3.810   0.055
 4671SOL    HW114912   6.991   3.795   0.152
 4671SOL    HW214913   6.972   3.899   0.028
 4672SOL     OW14914   2.955   4.130   5.897
 4672SOL    HW114915   2.999   4.077   5.824
 4672SOL    HW214916   2.884   4.075   5.940
 4673SOL     OW14917   5.773   0.315   6.933
 4673SOL    HW114918   5.762   0.221   6.966
 4673SOL    HW214919   5.809   0.372   7.007
 4674SOL     OW14920   1.023   1.945   0.527
 4674SOL    HW114921   0.945   1.902   0.573
 4674SOL    HW214922   1.032   2.039   0.559
 4675SOL     OW14923   2.439   6.350   0.155
 4675SOL    HW114924   2.479   6.441   0.158
 4675SOL    HW214925   2.433   6.313   0.248
 4676SOL     OW14926   0.657   5.990   3.656
 4676SOL    HW114927   0.658   5.923   3.730
 4676SOL    HW214928   0.564   6.025   3.644
 4677SOL     OW14929   4.518   0.672   6.564
 4677SOL    HW114930   4.456   0.642   6.492
 4677SOL    HW214931   4.559   0.592   6.607
 4678SOL     OW14932   2.373   4.848   0.413
 4678SOL    HW114933   2.309   4.774   0.393
 4678SOL    HW214934   2.361   4.921   0.345
 4679SOL     OW14935   3.013   0.760   6.383
 4679SOL    HW114936   3.017   0.719   6.292
 4679SOL    HW214937   2.922   0.796   6.400
 4680SOL     OW14938   1.995   4.943   0.912
 4680SOL    HW114939   1.908   4.983   0.882
 4680SOL    HW214940   2.051   5.014   0.956
 4681SOL     OW14941   0.060   5.638   5.223
 4681SOL    HW114942   6.982   5.611   5.230
 4681SOL    HW214943   0.113   5.594   5.295
 4682SOL     OW14944   4.145   6.330   0.942
 4682SOL    HW114945   4.161   6.407   0.880
 4682SOL    HW214946   4.232   6.301   0.981
 4683SOL     OW14947   5.932   4.145   2.548
 4683SOL    HW114948   6.020   4.157   2.594
 4683SOL    HW214949   5.870   4.095   2.609
 4684SOL     OW14950   1.516   2.096   4.887
 4684SOL    HW114951   1.494   2.188   4.854
 4684SOL    HW214952   1.614   2.079   4.874
 4685SOL     OW14953   4.766   5.209   4.771
 4685SOL    HW114954   4.815   5.206   4.858
 4685SOL    HW214955   4.717   5.296   4.764
 4686SOL     OW14956   4.584   5.589   6.244
 4686SOL    HW114957   4.576   5.686   6.269
 4686SOL    HW214958   4.640   5.581   6.161
 4687SOL     OW14959   6.367   5.275   4.847
 4687SOL    HW114960   6.400   5.355   4.797
 4687SOL    HW214961   6.383   5.192   4.793
 4688SOL     OW14962   0.227   2.818   6.657
 4688SOL    HW114963   0.222   2.911   6.695
 4688SOL    HW214964   0.277   2.760   6.721
 4689SOL     OW14965   0.185   6.295   4.960
 4689SOL    HW114966   0.151   6.264   5.049
 4689SOL    HW214967   0.187   6.395   4.959
 4690SOL     OW14968   1.681   1.640   6.923
 4690SOL    HW114969   1.669   1.543   6.905
 4690SOL    HW214970   1.617   1.693   6.868
 4691SOL     OW14971   2.716   5.349   0.887
 4691SOL    HW114972   2.676   5.440   0.887
 4691SOL    HW214973   2.692   5.302   0.972
 4692SOL     OW14974   0.421   5.227   3.418
 4692SOL    HW114975   0.430   5.181   3.329
 4692SOL    HW214976   0.330   5.266   3.427
 4693SOL     OW14977   0.623   0.994   4.054
 4693SOL    HW114978   0.533   1.038   4.051
 4693SOL    HW214979   0.622   0.921   4.123
 4694SOL     OW14980   1.777   1.876   0.056
 4694SOL    HW114981   1.711   1.845   7.005
 4694SOL    HW214982   1.837   1.800   0.080
 4695SOL     OW14983   3.721   3.237   2.316
 4695SOL    HW114984   3.777   3.159   2.287
 4695SOL    HW214985   3.764   3.322   2.285
 4696SOL     OW14986   6.883   3.205   6.253
 4696SOL    HW114987   6.876   3.144   6.332
 4696SOL    HW214988   6.975   3.199   6.215
 4697SOL     OW14989   0.736   4.881   0.127
 4697SOL    HW114990   0.725   4.783   0.146
 4697SOL    HW214991   0.728   4.896   0.028
 4698SOL     OW14992   5.491   3.843   0.882
 4698SOL    HW114993   5.410   3.813   0.932
 4698SOL    HW214994   5.553   3.765   0.870
 4699SOL     OW14995   6.969   0.626   2.334
 4699SOL    HW114996   6.997   0.591   2.244
 4699SOL    HW214997   6.967   0.550   2.400
 4700SOL     OW14998   5.007   1.517   1.089
 4700SOL    HW114999   5.081   1.531   1.023
 4700SOL    HW215000   4.971   1.424   1.080
 4701SOL     OW15001   0.778   1.250   0.454
 4701SOL    HW115002   0.732   1.318   0.397
 4701SOL    HW215003   0.860   1.291   0.495
 4702SOL     OW15004   3.580   3.848   0.581
 4702SOL    HW115005   3.532   3.821   0.665
 4702SOL    HW215006   3.635   3.929   0.599
 4703SOL     OW15007   1.767   0.705   2.346
 4703SOL    HW115008   1.678   0.664   2.330
 4703SOL    HW215009   1.777   0.726   2.444
 4704SOL     OW15010   6.288   6.572   0.609
 4704SOL    HW115011   6.317   6.524   0.692
 4704SOL    HW215012   6.336   6.660   0.602
 4705SOL     OW15013   3.520   3.507   4.078
 4705SOL    HW115014   3.578   3.583   4.108
 4705SOL    HW215015   3.530   3.431   4.143
 4706SOL     OW15016   4.279   5.763   6.905
 4706SOL    HW115017   4.283   5.702   6.984
 4706SOL    HW215018   4.211   5.729   6.840
 4707SOL     OW15019   2.538   5.458   0.579
 4707SOL    HW115020   2.463   5.398   0.551
 4707SOL    HW215021   2.501   5.538   0.626
 4708SOL     OW15022   2.556   2.726   1.576
 4708SOL    HW115023   2.582   2.670   1.654
 4708SOL    HW215024   2.610   2.810   1.575
 4709SOL     OW15025   4.227   5.069   5.471
 4709SOL    HW115026   4.170   5.145   5.503
 4709SOL    HW215027   4.175   5.014   5.405
 4710SOL     OW15028   4.415   1.285   0.251
 4710SOL    HW115029   4.319   1.311   0.262
 4710SOL    HW215030   4.423   1.185   0.251
 4711SOL     OW15031   3.493   0.299   2.653
 4711SOL    HW115032   3.427   0.256   2.714
 4711SOL    HW215033   3.586   0.271   2.678
 4712SOL     OW15034   2.378   4.449   0.568
 4712SOL    HW115035   2.418   4.496   0.490
 4712SOL    HW215036   2.377   4.510   0.647
 4713SOL     OW15037   1.589   5.672   0.878
 4713SOL    HW115038   1.536   5.738   0.824
 4713SOL    HW215039   1.668   5.641   0.824
 4714SOL     OW15040   2.911   2.370   1.160
 4714SOL    HW115041   2.856   2.290   1.137
 4714SOL    HW215042   2.878   2.449   1.107
 4715SOL     OW15043   0.002   2.752   3.666
 4715SOL    HW115044   6.981   2.671   3.711
 4715SOL    HW215045   6.991   2.834   3.714
 4716SOL     OW15046   3.430   5.885   0.254
 4716SOL    HW115047   3.400   5.970   0.211
 4716SOL    HW215048   3.523   5.863   0.224
 4717SOL     OW15049   1.282   6.017   3.266
 4717SOL    HW115050   1.338   5.934   3.264
 4717SOL    HW215051   1.253   6.039   3.173
 4718SOL     OW15052   5.858   0.914   5.995
 4718SOL    HW115053   5.884   0.969   6.074
 4718SOL    HW215054   5.804   0.969   5.931
 4719SOL     OW15055   4.228   3.486   1.355
 4719SOL    HW115056   4.178   3.471   1.440
 4719SOL    HW215057   4.231   3.584   1.336
 4720SOL     OW15058   2.424   0.550   5.588
 4720SOL    HW115059   2.425   0.516   5.494
 4720SOL    HW215060   2.354   0.501   5.641
 4721SOL     OW15061   1.828   2.214   1.556
 4721SOL    HW115062   1.855   2.118   1.566
 4721SOL    HW215063   1.755   2.235   1.621
 4722SOL     OW15064   2.279   6.727   0.725
 4722SOL    HW115065   2.269   6.632   0.697
 4722SOL    HW215066   2.199   6.755   0.778
 4723SOL     OW15067   3.004   6.859   0.070
 4723SOL    HW115068   2.992   6.958   0.071
 4723SOL    HW215069   2.960   6.821   7.006
 4724SOL     OW15070   3.908   6.727   1.997
 4724SOL    HW115071   3.951   6.793   1.935
 4724SOL    HW215072   3.853   6.662   1.943
 4725SOL     OW15073   4.982   6.618   3.686
 4725SOL    HW115074   4.950   6.712   3.701
 4725SOL    HW215075   4.912   6.554   3.717
 4726SOL     OW15076   0.401   4.403   6.459
 4726SOL    HW115077   0.388   4.306   6.437
 4726SOL    HW215078   0.495   4.418   6.490
 4727SOL     OW15079   6.848   5.751   0.126
 4727SOL    HW115080   6.750   5.773   0.128
 4727SOL    HW215081   6.859   5.653   0.108
 4728SOL     OW15082   0.281   0.872   6.458
 4728SOL    HW115083   0.219   0.907   6.528
 4728SOL    HW215084   0.354   0.820   6.502
 4729SOL     OW15085   3.464   0.445   1.865
 4729SOL    HW115086   3.386   0.422   1.806
 4729SOL    HW215087   3.458   0.393   1.950
 4730SOL     OW15088   2.222   6.679   5.138
 4730SOL    HW115089   2.149   6.610   5.138
 4730SOL    HW215090   2.300   6.644   5.086
 4731SOL     OW15091   5.608   1.558   4.801
 4731SOL    HW115092   5.691   1.594   4.843
 4731SOL    HW215093   5.629   1.474   4.751
 4732SOL     OW15094   0.183   3.004   0.289
 4732SOL    HW115095   0.221   2.994   0.197
 4732SOL    HW215096   0.110   3.072   0.288
 4733SOL     OW15097   6.932   3.934   3.057
 4733SOL    HW115098   6.964   3.943   3.152
 4733SOL    HW215099   7.009   3.949   2.995
 4734SOL     OW15100   4.098   4.334   6.258
 4734SOL    HW115101   4.054   4.366   6.174
 4734SOL    HW215102   4.048   4.370   6.337
 4735SOL     OW15103   1.318   4.579   3.854
 4735SOL    HW115104   1.240   4.619   3.806
 4735SOL    HW215105   1.289   4.494   3.899
 4736SOL     OW15106   0.992   0.794   0.321
 4736SOL    HW115107   1.025   0.802   0.227
 4736SOL    HW215108   0.894   0.774   0.320
 4737SOL     OW15109   2.165   5.499   1.586
 4737SOL    HW115110   2.122   5.423   1.536
 4737SOL    HW215111   2.245   5.531   1.536
 4738SOL     OW15112   0.563   6.468   2.576
 4738SOL    HW115113   0.490   6.503   2.518
 4738SOL    HW215114   0.557   6.368   2.580
 4739SOL     OW15115   4.472   0.921   1.451
 4739SOL    HW115116   4.433   0.886   1.536
 4739SOL    HW215117   4.561   0.879   1.435
 4740SOL     OW15118   1.336   1.604   2.695
 4740SOL    HW115119   1.270   1.549   2.746
 4740SOL    HW215120   1.400   1.543   2.648
 4741SOL     OW15121   4.251   3.755   1.392
 4741SOL    HW115122   4.285   3.776   1.483
 4741SOL    HW215123   4.251   3.837   1.336
 4742SOL     OW15124   3.172   7.001   0.594
 4742SOL    HW115125   3.112   7.012   0.514
 4742SOL    HW215126   3.157   6.910   0.633
 4743SOL     OW15127   2.543   4.804   1.582
 4743SOL    HW115128   2.534   4.718   1.532
 4743SOL    HW215129   2.559   4.784   1.679
 4744SOL     OW15130   2.237   6.105   0.853
 4744SOL    HW115131   2.322   6.154   0.869
 4744SOL    HW215132   2.175   6.119   0.930
 4745SOL     OW15133   1.363   4.408   0.479
 4745SOL    HW115134   1.309   4.344   0.425
 4745SOL    HW215135   1.352   4.386   0.576
 4746SOL     OW15136   4.871   5.995   4.717
 4746SOL    HW115137   4.807   6.043   4.657
 4746SOL    HW215138   4.824   5.918   4.761
 4747SOL     OW15139   1.430   2.311   1.265
 4747SOL    HW115140   1.365   2.240   1.292
 4747SOL    HW215141   1.451   2.369   1.343
 4748SOL     OW15142   1.569   0.107   3.397
 4748SOL    HW115143   1.510   0.152   3.330
 4748SOL    HW215144   1.520   0.102   3.485
 4749SOL     OW15145   1.884   0.513   0.131
 4749SOL    HW115146   1.899   0.415   0.123
 4749SOL    HW215147   1.787   0.531   0.149
 4750SOL     OW15148   5.686   3.517   5.731
 4750SOL    HW115149   5.748   3.567   5.670
 4750SOL    HW215150   5.717   3.422   5.739
 4751SOL     OW15151   4.644   0.515   3.248
 4751SOL    HW115152   4.545   0.522   3.254
 4751SOL    HW215153   4.670   0.467   3.165
 4752SOL     OW15154   4.420   1.989   6.958
 4752SOL    HW115155   4.413   2.008   6.860
 4752SOL    HW215156   4.510   2.018   6.991
 4753SOL     OW15157   3.308   5.889   5.226
 4753SOL    HW115158   3.227   5.831   5.230
 4753SOL    HW215159   3.309   5.950   5.306
 4754SOL     OW15160   4.854   4.699   5.937
 4754SOL    HW115161   4.811   4.611   5.914
 4754SOL    HW215162   4.903   4.734   5.857
 4755SOL     OW15163   1.524   0.793   1.804
 4755SOL    HW115164   1.593   0.756   1.741
 4755SOL    HW215165   1.569   0.854   1.869
 4756SOL     OW15166   6.122   4.094   6.621
 4756SOL    HW115167   6.078   4.177   6.588
 4756SOL    HW215168   6.055   4.021   6.629
 4757SOL     OW15169   2.075   3.908   1.620
 4757SOL    HW115170   2.160   3.924   1.670
 4757SOL    HW215171   2.048   3.992   1.573
 4758SOL     OW15172   2.513   6.887   3.191
 4758SOL    HW115173   2.603   6.863   3.229
 4758SOL    HW215174   2.510   6.861   3.095
 4759SOL     OW15175   0.994   4.732   1.220
 4759SOL    HW115176   0.952   4.651   1.262
 4759SOL    HW215177   0.962   4.742   1.126
 4760SOL     OW15178   2.086   6.074   1.079
 4760SOL    HW115179   2.028   6.026   1.144
 4760SOL    HW215180   2.145   6.139   1.128
 4761SOL     OW15181   6.769   6.346   1.369
 4761SOL    HW115182   6.809   6.437   1.354
 4761SOL    HW215183   6.831   6.291   1.425
 4762SOL     OW15184   2.252   6.668   2.122
 4762SOL    HW115185   2.174   6.724   2.151
 4762SOL    HW215186   2.230   6.624   2.035
 4763SOL     OW15187   5.085   5.016   1.732
 4763SOL    HW115188   5.101   4.919   1.710
 4763SOL    HW215189   5.138   5.040   1.813
 4764SOL     OW15190   4.021   4.037   6.321
 4764SOL    HW115191   3.994   4.112   6.261
 4764SOL    HW215192   4.112   4.055   6.359
 4765SOL     OW15193   3.294   1.488   4.651
 4765SOL    HW115194   3.298   1.403   4.597
 4765SOL    HW215195   3.246   1.558   4.599
 4766SOL     OW15196   0.529   6.881   3.958
 4766SOL    HW115197   0.484   6.876   4.048
 4766SOL    HW215198   0.620   6.840   3.965
 4767SOL     OW15199   1.679   4.081   4.661
 4767SOL    HW115200   1.691   4.134   4.745
 4767SOL    HW215201   1.764   4.084   4.609
 4768SOL     OW15202   3.811   2.922   6.868
 4768SOL    HW115203   3.889   2.958   6.817
 4768SOL    HW215204   3.750   2.873   6.805
 4769SOL     OW15205   3.188   5.434   1.513
 4769SOL    HW115206   3.168   5.338   1.495
 4769SOL    HW215207   3.220   5.445   1.607
 4770SOL     OW15208   0.397   1.355   5.741
 4770SOL    HW115209   0.382   1.262   5.707
 4770SOL    HW215210   0.368   1.360   5.836
 4771SOL     OW15211   2.060   6.912   4.757
 4771SOL    HW115212   2.122   6.982   4.723
 4771SOL    HW215213   2.074   6.901   4.856
 4772SOL     OW15214   2.789   5.896   2.228
 4772SOL    HW115215   2.780   5.855   2.319
 4772SOL    HW215216   2.854   5.842   2.174
 4773SOL     OW15217   2.053   5.019   5.115
 4773SOL    HW115218   2.104   4.950   5.165
 4773SOL    HW215219   1.997   4.975   5.045
 4774SOL     OW15220   1.485   3.871   0.024
 4774SOL    HW115221   1.394   3.877   7.001
 4774SOL    HW215222   1.489   3.931   0.104
 4775SOL     OW15223   5.949   6.378   4.786
 4775SOL    HW115224   6.015   6.325   4.734
 4775SOL    HW215225   5.937   6.337   4.877
 4776SOL     OW15226   0.730   0.888   5.855
 4776SOL    HW115227   0.729   0.870   5.953
 4776SOL    HW215228   0.690   0.978   5.838
 4777SOL     OW15229   0.961   6.532   1.489
 4777SOL    HW115230   0.934   6.474   1.565
 4777SOL    HW215231   0.972   6.626   1.521
 4778SOL     OW15232   1.637   2.668   5.604
 4778SOL    HW115233   1.559   2.711   5.559
 4778SOL    HW215234   1.722   2.709   5.570
 4779SOL     OW15235   5.135   1.355   3.525
 4779SOL    HW115236   5.069   1.281   3.532
 4779SOL    HW215237   5.100   1.425   3.463
 4780SOL     OW15238   6.438   3.275   4.910
 4780SOL    HW115239   6.395   3.187   4.932
 4780SOL    HW215240   6.408   3.305   4.820
 4781SOL     OW15241   2.488   6.414   3.046
 4781SOL    HW115242   2.513   6.403   2.950
 4781SOL    HW215243   2.406   6.470   3.053
 4782SOL     OW15244   6.565   6.093   4.200
 4782SOL    HW115245   6.507   6.028   4.152
 4782SOL    HW215246   6.617   6.046   4.271
 4783SOL     OW15247   6.409   3.456   1.162
 4783SOL    HW115248   6.364   3.432   1.076
 4783SOL    HW215249   6.345   3.501   1.222
 4784SOL     OW15250   5.223   2.783   6.692
 4784SOL    HW115251   5.268   2.752   6.609
 4784SOL    HW215252   5.211   2.882   6.689
 4785SOL     OW15253   0.876   5.572   3.866
 4785SOL    HW115254   0.864   5.473   3.876
 4785SOL    HW215255   0.852   5.598   3.772
 4786SOL     OW15256   2.091   6.379   0.002
 4786SOL    HW115257   2.025   6.440   0.048
 4786SOL    HW215258   2.091   6.290   0.047
 4787SOL     OW15259   3.348   1.265   4.249
 4787SOL    HW115260   3.311   1.287   4.339
 4787SOL    HW215261   3.276   1.225   4.192
 4788SOL     OW15262   5.479   6.229   6.820
 4788SOL    HW115263   5.463   6.141   6.865
 4788SOL    HW215264   5.576   6.253   6.828
 4789SOL     OW15265   5.246   1.142   2.620
 4789SOL    HW115266   5.181   1.217   2.623
 4789SOL    HW215267   5.199   1.057   2.596
 4790SOL     OW15268   6.462   2.311   4.920
 4790SOL    HW115269   6.487   2.406   4.898
 4790SOL    HW215270   6.430   2.307   5.014
 4791SOL     OW15271   6.939   1.612   0.077
 4791SOL    HW115272   7.001   1.612   7.016
 4791SOL    HW215273   6.993   1.619   0.161
 4792SOL     OW15274   2.253   2.495   3.139
 4792SOL    HW115275   2.163   2.529   3.167
 4792SOL    HW215276   2.318   2.507   3.214
 4793SOL     OW15277   0.567   4.143   5.592
 4793SOL    HW115278   0.626   4.118   5.515
 4793SOL    HW215279   0.536   4.237   5.581
 4794SOL     OW15280   4.152   0.943   4.271
 4794SOL    HW115281   4.249   0.929   4.251
 4794SOL    HW215282   4.101   0.951   4.185
 4795SOL     OW15283   0.709   0.696   5.413
 4795SOL    HW115284   0.745   0.689   5.506
 4795SOL    HW215285   0.628   0.755   5.413
 4796SOL     OW15286   3.524   1.381   4.819
 4796SOL    HW115287   3.584   1.310   4.783
 4796SOL    HW215288   3.527   1.461   4.759
 4797SOL     OW15289   1.192   6.091   4.646
 4797SOL    HW115290   1.118   6.041   4.691
 4797SOL    HW215291   1.254   6.026   4.602
 4798SOL     OW15292   4.325   4.608   6.203
 4798SOL    HW115293   4.233   4.620   6.241
 4798SOL    HW215294   4.372   4.697   6.203
 4799SOL     OW15295   3.489   3.208   6.220
 4799SOL    HW115296   3.574   3.186   6.267
 4799SOL    HW215297   3.417   3.147   6.252
 4800SOL     OW15298   1.052   5.129   0.316
 4800SOL    HW115299   1.137   5.172   0.346
 4800SOL    HW215300   1.052   5.121   0.216
 4801SOL     OW15301   4.869   2.634   1.802
 4801SOL    HW115302   4.809   2.554   1.806
 4801SOL    HW215303   4.943   2.624   1.868
 4802SOL     OW15304   6.856   0.006   3.335
 4802SOL    HW115305   6.795   0.070   3.382
 4802SOL    HW215306   6.950   0.019   3.368
 4803SOL     OW15307   5.192   3.581   6.263
 4803SOL    HW115308   5.149   3.628   6.340
 4803SOL    HW215309   5.171   3.483   6.267
 4804SOL     OW15310   4.957   1.588   0.620
 4804SOL    HW115311   4.972   1.674   0.671
 4804SOL    HW215312   4.859   1.569   0.615
 4805SOL     OW15313   6.213   1.395   0.845
 4805SOL    HW115314   6.296   1.427   0.798
 4805SOL    HW215315   6.178   1.468   0.903
 4806SOL     OW15316   0.874   0.874   2.760
 4806SOL    HW115317   0.887   0.972   2.747
 4806SOL    HW215318   0.945   0.824   2.710
 4807SOL     OW15319   1.064   3.167   5.931
 4807SOL    HW115320   0.964   3.176   5.939
 4807SOL    HW215321   1.106   3.193   6.017
 4808SOL     OW15322   3.989   5.890   0.236
 4808SOL    HW115323   3.967   5.920   0.329
 4808SOL    HW215324   4.087   5.898   0.220
 4809SOL     OW15325   3.645   4.921   1.526
 4809SOL    HW115326   3.551   4.939   1.556
 4809SOL    HW215327   3.672   4.991   1.460
 4810SOL     OW15328   0.645   4.376   3.325
 4810SOL    HW115329   0.684   4.284   3.316
 4810SOL    HW215330   0.555   4.378   3.282
 4811SOL     OW15331   3.378   4.194   4.091
 4811SOL    HW115332   3.320   4.274   4.078
 4811SOL    HW215333   3.463   4.206   4.039
 4812SOL     OW15334   0.119   0.356   2.315
 4812SOL    HW115335   0.074   0.321   2.233
 4812SOL    HW215336   0.147   0.278   2.372
 4813SOL     OW15337   6.302   1.324   5.903
 4813SOL    HW115338   6.293   1.226   5.883
 4813SOL    HW215339   6.302   1.337   6.003
 4814SOL     OW15340   6.697   4.233   1.712
 4814SOL    HW115341   6.772   4.183   1.755
 4814SOL    HW215342   6.680   4.318   1.762
 4815SOL     OW15343   5.185   5.062   2.910
 4815SOL    HW115344   5.099   5.090   2.868
 4815SOL    HW215345   5.183   4.963   2.927
 4816SOL     OW15346   1.467   0.496   2.010
 4816SOL    HW115347   1.403   0.557   1.964
 4816SOL    HW215348   1.488   0.531   2.101
 4817SOL     OW15349   4.344   1.976   1.191
 4817SOL    HW115350   4.244   1.980   1.198
 4817SOL    HW215351   4.374   2.042   1.122
 4818SOL     OW15352   3.645   0.073   5.162
 4818SOL    HW115353   3.731   0.118   5.140
 4818SOL    HW215354   3.569   0.134   5.139
 4819SOL     OW15355   2.196   0.187   0.413
 4819SOL    HW115356   2.222   0.226   0.502
 4819SOL    HW215357   2.252   0.107   0.394
 4820SOL     OW15358   6.222   3.919   2.017
 4820SOL    HW115359   6.226   3.866   2.102
 4820SOL    HW215360   6.127   3.926   1.986
 4821SOL     OW15361   6.678   4.470   1.362
 4821SOL    HW115362   6.587   4.506   1.342
 4821SOL    HW215363   6.675   4.370   1.366
 4822SOL     OW15364   2.190   3.782   3.093
 4822SOL    HW115365   2.245   3.702   3.116
 4822SOL    HW215366   2.123   3.758   3.022
 4823SOL     OW15367   1.008   0.958   4.105
 4823SOL    HW115368   1.008   0.859   4.111
 4823SOL    HW215369   0.949   0.988   4.030
 4824SOL     OW15370   5.359   2.871   2.466
 4824SOL    HW115371   5.272   2.840   2.505
 4824SOL    HW215372   5.363   2.843   2.370
 4825SOL     OW15373   0.968   3.489   2.679
 4825SOL    HW115374   1.055   3.474   2.632
 4825SOL    HW215375   0.914   3.555   2.628
 4826SOL     OW15376   6.721   6.052   0.300
 4826SOL    HW115377   6.694   6.109   0.378
 4826SOL    HW215378   6.652   5.983   0.283
 4827SOL     OW15379   4.642   0.891   1.146
 4827SOL    HW115380   4.686   0.881   1.235
 4827SOL    HW215381   4.693   0.838   1.078
 4828SOL     OW15382   5.299   4.060   0.844
 4828SOL    HW115383   5.369   3.989   0.846
 4828SOL    HW215384   5.343   4.148   0.823
 4829SOL     OW15385   3.264   0.814   6.414
 4829SOL    HW115386   3.277   0.911   6.393
 4829SOL    HW215387   3.167   0.796   6.429
 4830SOL     OW15388   4.423   6.988   4.821
 4830SOL    HW115389   4.348   6.946   4.871
 4830SOL    HW215390   4.477   0.028   4.882
 4831SOL     OW15391   6.046   4.010   5.750
 4831SOL    HW115392   5.998   4.069   5.685
 4831SOL    HW215393   6.072   3.925   5.705
 4832SOL     OW15394   2.561   3.695   6.074
 4832SOL    HW115395   2.628   3.625   6.096
 4832SOL    HW215396   2.586   3.740   5.988
 4833SOL     OW15397   4.264   1.179   2.624
 4833SOL    HW115398   4.265   1.255   2.559
 4833SOL    HW215399   4.174   1.170   2.666
 4834SOL     OW15400   4.583   1.846   2.132
 4834SOL    HW115401   4.514   1.870   2.064
 4834SOL    HW215402   4.585   1.747   2.143
 4835SOL     OW15403   1.877   0.162   6.845
 4835SOL    HW115404   1.927   0.169   6.759
 4835SOL    HW215405   1.942   0.150   6.921
 4836SOL     OW15406   5.393   1.757   4.180
 4836SOL    HW115407   5.400   1.788   4.085
 4836SOL    HW215408   5.424   1.830   4.241
 4837SOL     OW15409   2.371   3.498   6.978
 4837SOL    HW115410   2.467   3.473   6.968
 4837SOL    HW215411   2.353   3.522   0.056
 4838SOL     OW15412   3.743   5.303   2.315
 4838SOL    HW115413   3.713   5.228   2.374
 4838SOL    HW215414   3.676   5.377   2.319
 4839SOL     OW15415   0.312   5.564   6.010
 4839SOL    HW115416   0.400   5.520   5.991
 4839SOL    HW215417   0.312   5.657   5.973
 4840SOL     OW15418   6.860   6.379   0.123
 4840SOL    HW115419   6.894   6.331   0.205
 4840SOL    HW215420   6.766   6.410   0.140
 4841SOL     OW15421   2.711   5.131   2.486
 4841SOL    HW115422   2.757   5.046   2.512
 4841SOL    HW215423   2.613   5.115   2.478
 4842SOL     OW15424   5.298   6.160   1.226
 4842SOL    HW115425   5.378   6.148   1.286
 4842SOL    HW215426   5.274   6.072   1.185
 4843SOL     OW15427   6.758   3.530   0.173
 4843SOL    HW115428   6.735   3.584   0.254
 4843SOL    HW215429   6.849   3.556   0.141
 4844SOL     OW15430   5.786   1.928   6.261
 4844SOL    HW115431   5.861   1.863   6.277
 4844SOL    HW215432   5.700   1.888   6.293
 4845SOL     OW15433   5.599   5.733   3.579
 4845SOL    HW115434   5.640   5.646   3.551
 4845SOL    HW215435   5.508   5.740   3.540
 4846SOL     OW15436   1.659   3.500   0.568
 4846SOL    HW115437   1.737   3.508   0.507
 4846SOL    HW215438   1.581   3.549   0.530
 4847SOL     OW15439   3.632   1.822   4.991
 4847SOL    HW115440   3.629   1.725   5.013
 4847SOL    HW215441   3.575   1.840   4.911
 4848SOL     OW15442   2.560   2.047   2.245
 4848SOL    HW115443   2.479   2.065   2.190
 4848SOL    HW215444   2.558   2.104   2.328
 4849SOL     OW15445   0.757   6.665   0.740
 4849SOL    HW115446   0.811   6.714   0.808
 4849SOL    HW215447   0.789   6.571   0.734
 4850SOL     OW15448   4.624   0.816   2.387
 4850SOL    HW115449   4.645   0.904   2.430
 4850SOL    HW215450   4.577   0.757   2.453
 4851SOL     OW15451   4.839   5.923   5.155
 4851SOL    HW115452   4.926   5.970   5.140
 4851SOL    HW215453   4.764   5.982   5.125
 4852SOL     OW15454   1.892   0.673   6.697
 4852SOL    HW115455   1.803   0.643   6.730
 4852SOL    HW215456   1.904   0.645   6.601
 4853SOL     OW15457   3.337   1.349   2.177
 4853SOL    HW115458   3.244   1.335   2.143
 4853SOL    HW215459   3.383   1.418   2.122
 4854SOL     OW15460   5.248   6.750   1.964
 4854SOL    HW115461   5.328   6.699   1.932
 4854SOL    HW215462   5.206   6.701   2.040
 4855SOL     OW15463   6.246   1.968   2.652
 4855SOL    HW115464   6.177   1.896   2.665
 4855SOL    HW215465   6.265   1.979   2.555
 4856SOL     OW15466   2.704   4.758   3.530
 4856SOL    HW115467   2.654   4.842   3.552
 4856SOL    HW215468   2.735   4.715   3.614
 4857SOL     OW15469   0.318   2.296   5.795
 4857SOL    HW115470   0.245   2.352   5.757
 4857SOL    HW215471   0.301   2.200   5.775
 4858SOL     OW15472   1.785   2.367   4.740
 4858SOL    HW115473   1.874   2.409   4.754
 4858SOL    HW215474   1.794   2.292   4.674
 4859SOL     OW15475   2.010   6.149   4.618
 4859SOL    HW115476   1.991   6.055   4.649
 4859SOL    HW215477   1.985   6.158   4.522
 4860SOL     OW15478   4.837   4.793   1.497
 4860SOL    HW115479   4.746   4.836   1.498
 4860SOL    HW215480   4.831   4.701   1.459
 4861SOL     OW15481   4.871   4.177   5.298
 4861SOL    HW115482   4.863   4.264   5.249
 4861SOL    HW215483   4.882   4.195   5.396
 4862SOL     OW15484   2.338   6.183   2.291
 4862SOL    HW115485   2.327   6.115   2.363
 4862SOL    HW215486   2.432   6.181   2.257
 4863SOL     OW15487   5.760   4.015   0.254
 4863SOL    HW115488   5.681   3.968   0.293
 4863SOL    HW215489   5.779   4.098   0.306
 4864SOL     OW15490   3.306   1.087   3.557
 4864SOL    HW115491   3.327   1.182   3.581
 4864SOL    HW215492   3.310   1.075   3.458
 4865SOL     OW15493   2.770   5.542   4.370
 4865SOL    HW115494   2.866   5.559   4.390
 4865SOL    HW215495   2.722   5.518   4.455
 4866SOL     OW15496   6.756   3.921   1.148
 4866SOL    HW115497   6.663   3.957   1.141
 4866SOL    HW215498   6.752   3.821   1.147
 4867SOL     OW15499   4.862   6.695   3.071
 4867SOL    HW115500   4.787   6.653   3.020
 4867SOL    HW215501   4.830   6.721   3.162
 4868SOL     OW15502   6.562   4.478   1.675
 4868SOL    HW115503   6.633   4.488   1.605
 4868SOL    HW215504   6.498   4.406   1.648
 4869SOL     OW15505   0.526   1.356   6.156
 4869SOL    HW115506   0.445   1.407   6.129
 4869SOL    HW215507   0.570   1.400   6.234
 4870SOL     OW15508   0.908   5.973   2.070
 4870SOL    HW115509   0.836   6.018   2.122
 4870SOL    HW215510   0.874   5.948   1.980
 4871SOL     OW15511   1.462   1.088   3.830
 4871SOL    HW115512   1.371   1.129   3.830
 4871SOL    HW215513   1.476   1.035   3.747
 4872SOL     OW15514   6.185   6.900   3.474
 4872SOL    HW115515   6.161   6.968   3.542
 4872SOL    HW215516   6.116   6.827   3.473
 4873SOL     OW15517   6.749   6.210   5.360
 4873SOL    HW115518   6.683   6.209   5.435
 4873SOL    HW215519   6.822   6.275   5.382
 4874SOL     OW15520   4.836   3.007   3.376
 4874SOL    HW115521   4.816   3.081   3.312
 4874SOL    HW215522   4.903   2.944   3.336
 4875SOL     OW15523   5.495   6.151   6.177
 4875SOL    HW115524   5.582   6.132   6.132
 4875SOL    HW215525   5.429   6.079   6.154
 4876SOL     OW15526   1.633   1.643   3.029
 4876SOL    HW115527   1.676   1.643   2.938
 4876SOL    HW215528   1.702   1.624   3.098
 4877SOL     OW15529   0.886   1.389   4.121
 4877SOL    HW115530   0.955   1.450   4.160
 4877SOL    HW215531   0.905   1.375   4.024
 4878SOL     OW15532   6.653   1.786   2.892
 4878SOL    HW115533   6.677   1.830   2.978
 4878SOL    HW215534   6.702   1.832   2.817
 4879SOL     OW15535   4.469   1.832   2.978
 4879SOL    HW115536   4.464   1.762   3.050
 4879SOL    HW215537   4.450   1.922   3.017
 4880SOL     OW15538   6.145   2.564   6.232
 4880SOL    HW115539   6.244   2.549   6.233
 4880SOL    HW215540   6.126   2.662   6.242
 4881SOL     OW15541   1.480   2.954   1.957
 4881SOL    HW115542   1.414   2.991   2.022
 4881SOL    HW215543   1.563   3.009   1.959
 4882SOL     OW15544   4.514   2.491   4.963
 4882SOL    HW115545   4.422   2.527   4.982
 4882SOL    HW215546   4.507   2.395   4.938
 4883SOL     OW15547   5.264   3.834   1.309
 4883SOL    HW115548   5.245   3.738   1.291
 4883SOL    HW215549   5.258   3.886   1.223
 4884SOL     OW15550   2.112   6.251   1.682
 4884SOL    HW115551   2.092   6.199   1.765
 4884SOL    HW215552   2.026   6.274   1.636
 4885SOL     OW15553   1.627   5.076   1.140
 4885SOL    HW115554   1.549   5.025   1.177
 4885SOL    HW215555   1.624   5.074   1.040
 4886SOL     OW15556   3.490   1.111   2.237
 4886SOL    HW115557   3.421   1.183   2.238
 4886SOL    HW215558   3.444   1.022   2.244
 4887SOL     OW15559   0.927   6.727   2.107
 4887SOL    HW115560   0.997   6.687   2.047
 4887SOL    HW215561   0.955   6.715   2.202
 4888SOL     OW15562   3.392   6.668   2.957
 4888SOL    HW115563   3.377   6.605   3.033
 4888SOL    HW215564   3.478   6.718   2.973
 4889SOL     OW15565   6.400   2.053   3.714
 4889SOL    HW115566   6.465   2.128   3.716
 4889SOL    HW215567   6.402   2.003   3.800
 4890SOL     OW15568   0.506   0.826   4.899
 4890SOL    HW115569   0.491   0.921   4.870
 4890SOL    HW215570   0.604   0.806   4.899
 4891SOL     OW15571   2.341   5.330   5.995
 4891SOL    HW115572   2.437   5.322   6.022
 4891SOL    HW215573   2.332   5.310   5.898
 4892SOL     OW15574   5.747   6.668   2.711
 4892SOL    HW115575   5.820   6.626   2.765
 4892SOL    HW215576   5.787   6.722   2.637
 4893SOL     OW15577   0.195   3.600   1.908
 4893SOL    HW115578   0.232   3.667   1.973
 4893SOL    HW215579   0.178   3.645   1.820
 4894SOL     OW15580   4.376   6.424   2.279
 4894SOL    HW115581   4.469   6.388   2.279
 4894SOL    HW215582   4.363   6.485   2.200
 4895SOL     OW15583   6.983   4.780   3.505
 4895SOL    HW115584   6.948   4.872   3.522
 4895SOL    HW215585   0.063   4.776   3.525
 4896SOL     OW15586   1.727   4.589   3.687
 4896SOL    HW115587   1.629   4.601   3.667
 4896SOL    HW215588   1.779   4.660   3.639
 4897SOL     OW15589   1.498   6.197   5.027
 4897SOL    HW115590   1.436   6.168   4.954
 4897SOL    HW215591   1.592   6.175   5.001
 4898SOL     OW15592   3.682   2.061   4.302
 4898SOL    HW115593   3.683   1.961   4.292
 4898SOL    HW215594   3.636   2.086   4.386
 4899SOL     OW15595   0.422   5.396   1.732
 4899SOL    HW115596   0.485   5.389   1.654
 4899SOL    HW215597   0.357   5.470   1.714
 4900SOL     OW15598   4.002   6.012   5.763
 4900SOL    HW115599   3.998   6.083   5.833
 4900SOL    HW215600   4.093   6.009   5.722
 4901SOL     OW15601   0.784   1.321   5.994
 4901SOL    HW115602   0.696   1.366   6.012
 4901SOL    HW215603   0.859   1.382   6.019
 4902SOL     OW15604   2.054   0.258   6.174
 4902SOL    HW115605   1.980   0.300   6.226
 4902SOL    HW215606   2.032   0.263   6.076
 4903SOL     OW15607   5.487   5.066   1.252
 4903SOL    HW115608   5.554   4.996   1.230
 4903SOL    HW215609   5.506   5.149   1.199
 4904SOL     OW15610   1.205   0.426   0.292
 4904SOL    HW115611   1.243   0.379   0.372
 4904SOL    HW215612   1.264   0.410   0.213
 4905SOL     OW15613   3.369   6.477   3.158
 4905SOL    HW115614   3.299   6.411   3.187
 4905SOL    HW215615   3.429   6.435   3.090
 4906SOL     OW15616   5.680   2.895   4.804
 4906SOL    HW115617   5.649   2.814   4.854
 4906SOL    HW215618   5.640   2.896   4.713
 4907SOL     OW15619   4.525   1.241   6.908
 4907SOL    HW115620   4.564   1.317   6.961
 4907SOL    HW215621   4.432   1.222   6.941
 4908SOL     OW15622   4.991   0.224   0.262
 4908SOL    HW115623   4.974   0.272   0.176
 4908SOL    HW215624   4.940   0.138   0.263
 4909SOL     OW15625   5.876   3.879   3.653
 4909SOL    HW115626   5.868   3.874   3.753
 4909SOL    HW215627   5.801   3.934   3.617
 4910SOL     OW15628   4.845   0.861   6.021
 4910SOL    HW115629   4.843   0.909   6.109
 4910SOL    HW215630   4.851   0.927   5.947
 4911SOL     OW15631   1.026   2.518   1.964
 4911SOL    HW115632   1.122   2.507   1.937
 4911SOL    HW215633   1.021   2.568   2.051
 4912SOL     OW15634   6.397   2.730   5.070
 4912SOL    HW115635   6.406   2.658   5.001
 4912SOL    HW215636   6.468   2.718   5.139
 4913SOL     OW15637   6.634   3.109   4.928
 4913SOL    HW115638   6.720   3.141   4.888
 4913SOL    HW215639   6.567   3.184   4.927
 4914SOL     OW15640   4.432   0.994   4.221
 4914SOL    HW115641   4.411   1.054   4.143
 4914SOL    HW215642   4.530   0.977   4.223
 4915SOL     OW15643   3.527   5.710   5.444
 4915SOL    HW115644   3.565   5.622   5.416
 4915SOL    HW215645   3.573   5.784   5.394
 4916SOL     OW15646   6.179   1.265   3.920
 4916SOL    HW115647   6.135   1.297   3.837
 4916SOL    HW215648   6.239   1.188   3.899
 4917SOL     OW15649   4.336   6.458   0.533
 4917SOL    HW115650   4.308   6.428   0.625
 4917SOL    HW215651   4.333   6.558   0.528
 4918SOL     OW15652   6.735   5.626   1.934
 4918SOL    HW115653   6.658   5.680   1.967
 4918SOL    HW215654   6.773   5.670   1.852
 4919SOL     OW15655   4.096   3.767   2.159
 4919SOL    HW115656   4.169   3.771   2.091
 4919SOL    HW215657   4.010   3.795   2.117
 4920SOL     OW15658   6.093   0.930   4.780
 4920SOL    HW115659   6.046   0.979   4.706
 4920SOL    HW215660   6.192   0.939   4.768
 4921SOL     OW15661   0.169   0.186   2.094
 4921SOL    HW115662   0.156   0.148   2.003
 4921SOL    HW215663   0.258   0.157   2.130
 4922SOL     OW15664   4.015   2.372   5.943
 4922SOL    HW115665   4.022   2.362   5.844
 4922SOL    HW215666   4.091   2.429   5.975
 4923SOL     OW15667   3.756   1.761   2.943
 4923SOL    HW115668   3.749   1.787   2.847
 4923SOL    HW215669   3.693   1.818   2.997
 4924SOL     OW15670   2.558   1.414   5.904
 4924SOL    HW115671   2.623   1.418   5.828
 4924SOL    HW215672   2.471   1.377   5.870
 4925SOL     OW15673   4.410   6.871   3.475
 4925SOL    HW115674   4.330   6.908   3.521
 4925SOL    HW215675   4.490   6.929   3.494
 4926SOL     OW15676   5.467   2.237   1.489
 4926SOL    HW115677   5.560   2.235   1.526
 4926SOL    HW215678   5.404   2.274   1.557
 4927SOL     OW15679   3.597   1.597   6.627
 4927SOL    HW115680   3.601   1.542   6.544
 4927SOL    HW215681   3.623   1.691   6.606
 4928SOL     OW15682   0.893   2.042   1.072
 4928SOL    HW115683   0.904   2.035   1.171
 4928SOL    HW215684   0.940   2.123   1.038
 4929SOL     OW15685   6.837   6.738   4.172
 4929SOL    HW115686   6.762   6.720   4.236
 4929SOL    HW215687   6.814   6.700   4.082
 4930SOL     OW15688   5.723   6.711   1.568
 4930SOL    HW115689   5.684   6.780   1.628
 4930SOL    HW215690   5.655   6.684   1.499
 4931SOL     OW15691   6.215   6.311   1.866
 4931SOL    HW115692   6.152   6.379   1.903
 4931SOL    HW215693   6.215   6.230   1.926
 4932SOL     OW15694   2.835   3.547   2.375
 4932SOL    HW115695   2.878   3.582   2.292
 4932SOL    HW215696   2.844   3.614   2.449
 4933SOL     OW15697   3.364   5.802   4.867
 4933SOL    HW115698   3.422   5.793   4.948
 4933SOL    HW215699   3.268   5.792   4.892
 4934SOL     OW15700   3.823   5.192   3.397
 4934SOL    HW115701   3.849   5.288   3.387
 4934SOL    HW215702   3.727   5.180   3.372
 4935SOL     OW15703   0.813   2.052   6.182
 4935SOL    HW115704   0.796   1.971   6.127
 4935SOL    HW215705   0.829   2.025   6.278
 4936SOL     OW15706   2.950   3.869   0.984
 4936SOL    HW115707   3.039   3.891   0.945
 4936SOL    HW215708   2.894   3.952   0.988
 4937SOL     OW15709   5.172   3.352   5.137
 4937SOL    HW115710   5.271   3.337   5.136
 4937SOL    HW215711   5.144   3.397   5.052
 4938SOL     OW15712   3.534   5.981   6.253
 4938SOL    HW115713   3.454   6.024   6.294
 4938SOL    HW215714   3.506   5.900   6.202
 4939SOL     OW15715   4.737   3.260   5.730
 4939SOL    HW115716   4.717   3.349   5.771
 4939SOL    HW215717   4.690   3.188   5.781
 4940SOL     OW15718   2.497   6.072   4.607
 4940SOL    HW115719   2.488   6.047   4.511
 4940SOL    HW215720   2.423   6.133   4.633
 4941SOL     OW15721   5.110   1.070   0.537
 4941SOL    HW115722   5.143   1.165   0.539
 4941SOL    HW215723   5.062   1.051   0.622
 4942SOL     OW15724   4.968   3.482   5.258
 4942SOL    HW115725   5.026   3.426   5.198
 4942SOL    HW215726   4.908   3.540   5.202
 4943SOL     OW15727   3.913   2.667   1.197
 4943SOL    HW115728   4.002   2.627   1.217
 4943SOL    HW215729   3.924   2.765   1.180
 4944SOL     OW15730   2.209   4.696   2.216
 4944SOL    HW115731   2.118   4.736   2.206
 4944SOL    HW215732   2.213   4.610   2.165
 4945SOL     OW15733   0.386   6.530   3.784
 4945SOL    HW115734   0.383   6.624   3.818
 4945SOL    HW215735   0.402   6.467   3.860
 4946SOL     OW15736   1.229   3.510   2.564
 4946SOL    HW115737   1.284   3.590   2.542
 4946SOL    HW215738   1.281   3.449   2.623
 4947SOL     OW15739   0.893   6.440   0.815
 4947SOL    HW115740   0.898   6.468   0.910
 4947SOL    HW215741   0.836   6.358   0.807
 4948SOL     OW15742   2.202   0.898   2.010
 4948SOL    HW115743   2.264   0.976   2.018
 4948SOL    HW215744   2.254   0.817   1.984
 4949SOL     OW15745   5.333   1.526   4.876
 4949SOL    HW115746   5.291   1.606   4.919
 4949SOL    HW215747   5.430   1.544   4.860
 4950SOL     OW15748   3.043   5.343   4.723
 4950SOL    HW115749   3.019   5.278   4.796
 4950SOL    HW215750   3.055   5.434   4.763
 4951SOL     OW15751   4.571   2.400   4.532
 4951SOL    HW115752   4.629   2.467   4.578
 4951SOL    HW215753   4.571   2.315   4.584
 4952SOL     OW15754   0.073   6.394   5.631
 4952SOL    HW115755   0.030   6.455   5.697
 4952SOL    HW215756   0.168   6.377   5.658
 4953SOL     OW15757   2.022   5.472   1.823
 4953SOL    HW115758   2.036   5.375   1.844
 4953SOL    HW215759   2.081   5.498   1.747
 4954SOL     OW15760   5.398   5.416   6.449
 4954SOL    HW115761   5.496   5.399   6.450
 4954SOL    HW215762   5.381   5.515   6.450
 4955SOL     OW15763   1.624   6.921   1.501
 4955SOL    HW115764   1.714   6.947   1.538
 4955SOL    HW215765   1.568   6.883   1.575
 4956SOL     OW15766   4.424   6.831   4.585
 4956SOL    HW115767   4.514   6.788   4.580
 4956SOL    HW215768   4.426   6.905   4.652
 4957SOL     OW15769   0.792   0.252   3.457
 4957SOL    HW115770   0.757   0.275   3.366
 4957SOL    HW215771   0.889   0.228   3.450
 4958SOL     OW15772   0.963   5.622   6.875
 4958SOL    HW115773   0.932   5.556   6.806
 4958SOL    HW215774   0.958   5.715   6.838
 4959SOL     OW15775   1.150   1.270   1.669
 4959SOL    HW115776   1.201   1.236   1.748
 4959SOL    HW215777   1.061   1.226   1.665
 4960SOL     OW15778   4.062   6.843   4.626
 4960SOL    HW115779   4.111   6.769   4.673
 4960SOL    HW215780   4.043   6.917   4.690
 4961SOL     OW15781   4.829   0.912   4.766
 4961SOL    HW115782   4.792   0.824   4.795
 4961SOL    HW215783   4.807   0.926   4.669
 4962SOL     OW15784   7.014   2.149   0.585
 4962SOL    HW115785   0.020   2.107   0.498
 4962SOL    HW215786   6.995   2.077   0.652
 4963SOL     OW15787   0.493   4.872   1.806
 4963SOL    HW115788   0.461   4.966   1.794
 4963SOL    HW215789   0.441   4.811   1.746
 4964SOL     OW15790   3.223   6.671   3.428
 4964SOL    HW115791   3.236   6.576   3.457
 4964SOL    HW215792   3.133   6.680   3.385
 4965SOL     OW15793   6.254   0.628   4.343
 4965SOL    HW115794   6.310   0.558   4.387
 4965SOL    HW215795   6.310   0.710   4.329
 4966SOL     OW15796   3.038   4.955   4.297
 4966SOL    HW115797   3.034   5.042   4.246
 4966SOL    HW215798   3.101   4.965   4.373
 4967SOL     OW15799   4.002   2.728   5.591
 4967SOL    HW115800   4.083   2.757   5.539
 4967SOL    HW215801   3.937   2.685   5.529
 4968SOL     OW15802   6.031   3.309   5.352
 4968SOL    HW115803   6.028   3.231   5.415
 4968SOL    HW215804   6.078   3.283   5.268
 4969SOL     OW15805   1.366   1.096   2.232
 4969SOL    HW115806   1.321   1.170   2.281
 4969SOL    HW215807   1.441   1.133   2.178
 4970SOL     OW15808   0.692   2.156   5.352
 4970SOL    HW115809   0.771   2.095   5.344
 4970SOL    HW215810   0.608   2.103   5.349
 4971SOL     OW15811   5.070   6.512   3.444
 4971SOL    HW115812   5.086   6.587   3.508
 4971SOL    HW215813   5.094   6.541   3.352
 4972SOL     OW15814   1.663   3.254   6.692
 4972SOL    HW115815   1.700   3.305   6.614
 4972SOL    HW215816   1.604   3.180   6.659
 4973SOL     OW15817   5.379   6.469   2.681
 4973SOL    HW115818   5.390   6.562   2.714
 4973SOL    HW215819   5.356   6.470   2.584
 4974SOL     OW15820   5.526   6.599   2.379
 4974SOL    HW115821   5.460   6.525   2.392
 4974SOL    HW215822   5.494   6.681   2.426
 4975SOL     OW15823   6.060   5.712   0.365
 4975SOL    HW115824   5.962   5.731   0.376
 4975SOL    HW215825   6.076   5.614   0.376
 4976SOL     OW15826   3.712   0.374   5.564
 4976SOL    HW115827   3.745   0.305   5.628
 4976SOL    HW215828   3.789   0.411   5.512
 4977SOL     OW15829   3.317   3.452   0.957
 4977SOL    HW115830   3.309   3.377   0.892
 4977SOL    HW215831   3.245   3.444   1.026
 4978SOL     OW15832   5.429   2.860   6.416
 4978SOL    HW115833   5.445   2.761   6.416
 4978SOL    HW215834   5.477   2.902   6.340
 4979SOL     OW15835   1.407   0.485   5.730
 4979SOL    HW115836   1.399   0.424   5.651
 4979SOL    HW215837   1.395   0.580   5.701
 4980SOL     OW15838   3.233   5.106   2.050
 4980SOL    HW115839   3.272   5.149   2.131
 4980SOL    HW215840   3.159   5.163   2.014
 4981SOL     OW15841   3.891   6.512   5.613
 4981SOL    HW115842   3.902   6.609   5.634
 4981SOL    HW215843   3.865   6.463   5.696
 4982SOL     OW15844   2.301   3.395   0.617
 4982SOL    HW115845   2.209   3.387   0.579
 4982SOL    HW215846   2.311   3.483   0.664
 4983SOL     OW15847   5.169   3.149   4.304
 4983SOL    HW115848   5.090   3.117   4.357
 4983SOL    HW215849   5.156   3.245   4.279
 4984SOL     OW15850   4.900   3.793   3.190
 4984SOL    HW115851   4.858   3.879   3.219
 4984SOL    HW215852   4.922   3.798   3.092
 4985SOL     OW15853   5.562   4.835   2.580
 4985SOL    HW115854   5.504   4.794   2.510
 4985SOL    HW215855   5.505   4.890   2.642
 4986SOL     OW15856   5.159   4.743   2.680
 4986SOL    HW115857   5.146   4.677   2.754
 4986SOL    HW215858   5.245   4.792   2.694
 4987SOL     OW15859   0.021   3.286   1.557
 4987SOL    HW115860   7.002   3.310   1.467
 4987SOL    HW215861   0.067   3.198   1.552
 4988SOL     OW15862   0.599   1.319   4.119
 4988SOL    HW115863   0.691   1.354   4.105
 4988SOL    HW215864   0.598   1.259   4.199
 4989SOL     OW15865   0.440   1.147   0.381
 4989SOL    HW115866   0.516   1.082   0.385
 4989SOL    HW215867   0.354   1.097   0.379
 4990SOL     OW15868   1.690   1.855   5.433
 4990SOL    HW115869   1.643   1.940   5.410
 4990SOL    HW215870   1.701   1.800   5.350
 4991SOL     OW15871   0.952   3.034   4.097
 4991SOL    HW115872   0.853   3.031   4.081
 4991SOL    HW215873   0.980   2.951   4.147
 4992SOL     OW15874   3.492   0.556   5.615
 4992SOL    HW115875   3.559   0.483   5.626
 4992SOL    HW215876   3.532   0.631   5.562
 4993SOL     OW15877   2.988   5.915   3.668
 4993SOL    HW115878   3.051   5.856   3.617
 4993SOL    HW215879   2.917   5.859   3.711
 4994SOL     OW15880   0.194   0.148   2.472
 4994SOL    HW115881   0.166   0.106   2.558
 4994SOL    HW215882   0.220   0.076   2.408
 4995SOL     OW15883   5.747   2.205   6.355
 4995SOL    HW115884   5.796   2.273   6.301
 4995SOL    HW215885   5.776   2.113   6.326
 4996SOL     OW15886   1.035   1.255   3.230
 4996SOL    HW115887   0.982   1.204   3.298
 4996SOL    HW215888   1.018   1.353   3.241
 4997SOL     OW15889   0.412   2.865   3.175
 4997SOL    HW115890   0.490   2.870   3.236
 4997SOL    HW215891   0.421   2.784   3.116
 4998SOL     OW15892   1.662   5.711   4.527
 4998SOL    HW115893   1.628   5.627   4.486
 4998SOL    HW215894   1.598   5.742   4.597
 4999SOL     OW15895   5.778   5.279   1.096
 4999SOL    HW115896   5.794   5.206   1.163
 4999SOL    HW215897   5.835   5.263   1.015
 5000SOL     OW15898   0.332   6.365   4.508
 5000SOL    HW115899   0.353   6.306   4.586
 5000SOL    HW215900   0.236   6.353   4.482
 5001SOL     OW15901   3.452   4.471   5.655
 5001SOL    HW115902   3.533   4.447   5.601
 5001SOL    HW215903   3.396   4.390   5.668
 5002SOL     OW15904   2.317   0.947   2.294
 5002SOL    HW115905   2.251   0.921   2.223
 5002SOL    HW215906   2.330   0.870   2.357
 5003SOL     OW15907   6.451   5.665   2.957
 5003SOL    HW115908   6.513   5.691   2.883
 5003SOL    HW215909   6.452   5.735   3.028
 5004SOL     OW15910   3.376   6.163   0.152
 5004SOL    HW115911   3.288   6.140   0.192
 5004SOL    HW215912   3.434   6.207   0.221
 5005SOL     OW15913   4.908   2.863   0.041
 5005SOL    HW115914   4.979   2.815   7.009
 5005SOL    HW215915   4.941   2.954   0.068
 5006SOL     OW15916   5.157   5.800   4.564
 5006SOL    HW115917   5.189   5.894   4.554
 5006SOL    HW215918   5.166   5.771   4.659
 5007SOL     OW15919   3.707   1.227   5.315
 5007SOL    HW115920   3.739   1.275   5.396
 5007SOL    HW215921   3.776   1.233   5.243
 5008SOL     OW15922   5.933   1.063   3.572
 5008SOL    HW115923   5.900   0.993   3.508
 5008SOL    HW215924   5.952   1.022   3.660
 5009SOL     OW15925   1.477   6.510   3.159
 5009SOL    HW115926   1.516   6.468   3.077
 5009SOL    HW215927   1.476   6.443   3.233
 5010SOL     OW15928   4.156   3.628   4.200
 5010SOL    HW115929   4.146   3.559   4.128
 5010SOL    HW215930   4.253   3.648   4.213
 5011SOL     OW15931   0.929   2.867   2.895
 5011SOL    HW115932   0.835   2.838   2.913
 5011SOL    HW215933   0.948   2.860   2.798
 5012SOL     OW15934   6.652   2.065   6.620
 5012SOL    HW115935   6.615   1.978   6.586
 5012SOL    HW215936   6.738   2.047   6.667
 5013SOL     OW15937   3.993   1.642   6.542
 5013SOL    HW115938   3.940   1.574   6.591
 5013SOL    HW215939   4.077   1.662   6.593
 5014SOL     OW15940   6.034   6.381   0.089
 5014SOL    HW115941   6.081   6.310   0.036
 5014SOL    HW215942   6.094   6.460   0.098
 5015SOL     OW15943   4.673   2.686   3.883
 5015SOL    HW115944   4.724   2.667   3.800
 5015SOL    HW215945   4.737   2.705   3.958
 5016SOL     OW15946   2.500   0.185   3.144
 5016SOL    HW115947   2.561   0.252   3.101
 5016SOL    HW215948   2.552   0.104   3.170
 5017SOL     OW15949   2.368   3.029   1.232
 5017SOL    HW115950   2.293   3.016   1.168
 5017SOL    HW215951   2.369   2.956   1.299
 5018SOL     OW15952   6.037   5.569   3.757
 5018SOL    HW115953   5.977   5.493   3.782
 5018SOL    HW215954   6.118   5.568   3.817
 5019SOL     OW15955   1.950   4.668   7.014
 5019SOL    HW115956   1.881   4.728   6.973
 5019SOL    HW215957   2.039   4.713   7.013
 5020SOL     OW15958   5.295   5.062   6.613
 5020SOL    HW115959   5.329   5.013   6.693
 5020SOL    HW215960   5.212   5.113   6.638
 5021SOL     OW15961   1.590   4.313   5.987
 5021SOL    HW115962   1.502   4.264   5.995
 5021SOL    HW215963   1.613   4.354   6.075
 5022SOL     OW15964   1.450   5.457   0.337
 5022SOL    HW115965   1.516   5.405   0.391
 5022SOL    HW215966   1.496   5.534   0.293
 5023SOL     OW15967   6.181   3.050   2.570
 5023SOL    HW115968   6.264   3.074   2.622
 5023SOL    HW215969   6.125   2.987   2.624
 5024SOL     OW15970   6.285   3.850   4.422
 5024SOL    HW115971   6.257   3.796   4.342
 5024SOL    HW215972   6.234   3.936   4.424
 5025SOL     OW15973   5.377   1.128   3.123
 5025SOL    HW115974   5.376   1.158   3.218
 5025SOL    HW215975   5.419   1.199   3.066
 5026SOL     OW15976   0.244   6.570   4.077
 5026SOL    HW115977   0.298   6.488   4.062
 5026SOL    HW215978   0.264   6.608   4.167
 5027SOL     OW15979   1.178   6.861   3.471
 5027SOL    HW115980   1.130   6.884   3.386
 5027SOL    HW215981   1.247   6.791   3.452
 5028SOL     OW15982   0.194   0.504   2.898
 5028SOL    HW115983   0.244   0.433   2.847
 5028SOL    HW215984   0.118   0.462   2.947
 5029SOL     OW15985   0.110   1.526   1.237
 5029SOL    HW115986   0.026   1.579   1.247
 5029SOL    HW215987   0.166   1.536   1.319
 5030SOL     OW15988   1.141   6.270   0.216
 5030SOL    HW115989   1.203   6.222   0.278
 5030SOL    HW215990   1.133   6.366   0.244
 5031SOL     OW15991   5.412   0.436   4.174
 5031SOL    HW115992   5.427   0.533   4.190
 5031SOL    HW215993   5.447   0.384   4.252
 5032SOL     OW15994   2.188   5.587   0.872
 5032SOL    HW115995   2.165   5.535   0.954
 5032SOL    HW215996   2.158   5.682   0.883
 5033SOL     OW15997   2.133   4.136   5.411
 5033SOL    HW115998   2.074   4.096   5.481
 5033SOL    HW215999   2.169   4.224   5.444
 5034SOL     OW16000   6.550   3.171   0.949
 5034SOL    HW116001   6.642   3.198   0.976
 5034SOL    HW216002   6.555   3.098   0.881
 5035SOL     OW16003   5.160   4.497   0.457
 5035SOL    HW116004   5.255   4.505   0.426
 5035SOL    HW216005   5.105   4.455   0.384
 5036SOL     OW16006   1.367   0.100   1.480
 5036SOL    HW116007   1.379   0.019   1.422
 5036SOL    HW216008   1.315   0.169   1.430
 5037SOL     OW16009   4.467   2.319   4.303
 5037SOL    HW116010   4.461   2.220   4.314
 5037SOL    HW216011   4.507   2.359   4.386
 5038SOL     OW16012   1.731   6.591   5.274
 5038SOL    HW116013   1.733   6.587   5.374
 5038SOL    HW216014   1.741   6.499   5.237
 5039SOL     OW16015   2.129   2.064   5.187
 5039SOL    HW116016   2.177   2.134   5.134
 5039SOL    HW216017   2.188   2.030   5.260
 5040SOL     OW16018   3.104   4.000   5.710
 5040SOL    HW116019   3.084   3.931   5.640
 5040SOL    HW216020   3.196   3.984   5.747
 5041SOL     OW16021   1.460   4.486   0.936
 5041SOL    HW116022   1.552   4.506   0.969
 5041SOL    HW216023   1.424   4.405   0.984
 5042SOL     OW16024   5.229   2.385   6.298
 5042SOL    HW116025   5.155   2.448   6.273
 5042SOL    HW216026   5.255   2.330   6.218
 5043SOL     OW16027   3.829   0.855   3.683
 5043SOL    HW116028   3.875   0.920   3.623
 5043SOL    HW216029   3.741   0.892   3.712
 5044SOL     OW16030   6.626   5.018   3.508
 5044SOL    HW116031   6.528   5.040   3.517
 5044SOL    HW216032   6.651   4.949   3.576
 5045SOL     OW16033   5.972   2.329   6.763
 5045SOL    HW116034   5.983   2.233   6.738
 5045SOL    HW216035   5.928   2.335   6.853
 5046SOL     OW16036   3.524   2.825   5.102
 5046SOL    HW116037   3.480   2.749   5.149
 5046SOL    HW216038   3.624   2.818   5.114
 5047SOL     OW16039   0.775   0.601   2.431
 5047SOL    HW116040   0.703   0.548   2.476
 5047SOL    HW216041   0.747   0.697   2.425
 5048SOL     OW16042   6.323   2.815   1.465
 5048SOL    HW116043   6.287   2.750   1.398
 5048SOL    HW216044   6.267   2.812   1.548
 5049SOL     OW16045   1.035   2.420   2.405
 5049SOL    HW116046   1.114   2.394   2.351
 5049SOL    HW216047   0.980   2.486   2.355
 5050SOL     OW16048   0.958   3.246   2.041
 5050SOL    HW116049   1.019   3.325   2.050
 5050SOL    HW216050   0.876   3.261   2.095
 5051SOL     OW16051   3.087   5.691   0.595
 5051SOL    HW116052   3.187   5.681   0.592
 5051SOL    HW216053   3.048   5.618   0.652
 5052SOL     OW16054   5.528   4.896   1.021
 5052SOL    HW116055   5.603   4.837   0.991
 5052SOL    HW216056   5.466   4.845   1.080
 5053SOL     OW16057   2.729   4.441   0.564
 5053SOL    HW116058   2.673   4.432   0.646
 5053SOL    HW216059   2.710   4.365   0.502
 5054SOL     OW16060   3.945   6.013   4.952
 5054SOL    HW116061   3.877   6.012   4.878
 5054SOL    HW216062   3.928   6.091   5.012
 5055SOL     OW16063   0.938   1.682   4.968
 5055SOL    HW116064   0.895   1.743   4.901
 5055SOL    HW216065   1.012   1.730   5.015
 5056SOL     OW16066   1.060   2.635   5.160
 5056SOL    HW116067   0.998   2.601   5.231
 5056SOL    HW216068   1.101   2.557   5.112
 5057SOL     OW16069   0.157   4.918   2.663
 5057SOL    HW116070   0.166   4.890   2.567
 5057SOL    HW216071   0.202   5.006   2.676
 5058SOL     OW16072   4.161   4.544   6.569
 5058SOL    HW116073   4.240   4.603   6.552
 5058SOL    HW216074   4.192   4.451   6.587
 5059SOL     OW16075   3.692   1.879   3.862
 5059SOL    HW116076   3.675   1.978   3.860
 5059SOL    HW216077   3.768   1.857   3.801
 5060SOL     OW16078   0.573   3.343   5.393
 5060SOL    HW116079   0.574   3.305   5.485
 5060SOL    HW216080   0.667   3.347   5.358
 5061SOL     OW16081   3.630   2.967   5.467
 5061SOL    HW116082   3.643   2.970   5.368
 5061SOL    HW216083   3.716   2.941   5.511
 5062SOL     OW16084   5.099   1.350   2.662
 5062SOL    HW116085   5.044   1.420   2.617
 5062SOL    HW216086   5.063   1.333   2.753
 5063SOL     OW16087   1.125   0.272   2.804
 5063SOL    HW116088   1.061   0.257   2.729
 5063SOL    HW216089   1.089   0.230   2.887
 5064SOL     OW16090   4.645   5.676   0.997
 5064SOL    HW116091   4.555   5.719   0.989
 5064SOL    HW216092   4.689   5.709   1.081
 5065SOL     OW16093   2.292   6.830   2.811
 5065SOL    HW116094   2.316   6.782   2.727
 5065SOL    HW216095   2.242   6.914   2.789
 5066SOL     OW16096   2.473   4.529   1.738
 5066SOL    HW116097   2.556   4.579   1.764
 5066SOL    HW216098   2.399   4.593   1.720
 5067SOL     OW16099   4.400   3.080   1.376
 5067SOL    HW116100   4.424   3.024   1.455
 5067SOL    HW216101   4.474   3.076   1.309
 5068SOL     OW16102   3.108   6.022   0.250
 5068SOL    HW116103   3.168   6.026   0.331
 5068SOL    HW216104   3.014   6.040   0.278
 5069SOL     OW16105   3.296   5.227   5.634
 5069SOL    HW116106   3.308   5.189   5.726
 5069SOL    HW216107   3.231   5.172   5.583
 5070SOL     OW16108   6.265   2.788   3.784
 5070SOL    HW116109   6.315   2.744   3.709
 5070SOL    HW216110   6.175   2.817   3.752
 5071SOL     OW16111   3.113   0.519   4.256
 5071SOL    HW116112   3.041   0.468   4.210
 5071SOL    HW216113   3.199   0.467   4.253
 5072SOL     OW16114   1.174   1.381   0.303
 5072SOL    HW116115   1.140   1.344   0.389
 5072SOL    HW216116   1.242   1.452   0.322
 5073SOL     OW16117   2.505   0.233   2.307
 5073SOL    HW116118   2.440   0.224   2.231
 5073SOL    HW216119   2.517   0.144   2.351
 5074SOL     OW16120   3.458   2.109   1.809
 5074SOL    HW116121   3.375   2.165   1.815
 5074SOL    HW216122   3.538   2.169   1.806
 5075SOL     OW16123   1.269   3.279   0.070
 5075SOL    HW116124   1.296   3.186   0.045
 5075SOL    HW216125   1.209   3.276   0.151
 5076SOL     OW16126   5.611   6.720   6.625
 5076SOL    HW116127   5.623   6.623   6.605
 5076SOL    HW216128   5.542   6.731   6.697
 5077SOL     OW16129   0.938   4.465   3.891
 5077SOL    HW116130   0.921   4.564   3.883
 5077SOL    HW216131   0.917   4.421   3.803
 5078SOL     OW16132   0.604   1.357   3.850
 5078SOL    HW116133   0.601   1.395   3.943
 5078SOL    HW216134   0.539   1.282   3.842
 5079SOL     OW16135   1.675   2.696   6.061
 5079SOL    HW116136   1.615   2.663   5.988
 5079SOL    HW216137   1.770   2.672   6.039
 5080SOL     OW16138   5.676   5.300   6.473
 5080SOL    HW116139   5.776   5.294   6.472
 5080SOL    HW216140   5.641   5.256   6.555
 5081SOL     OW16141   3.044   5.418   5.525
 5081SOL    HW116142   2.986   5.438   5.445
 5081SOL    HW216143   3.113   5.489   5.535
 5082SOL     OW16144   5.830   6.185   1.997
 5082SOL    HW116145   5.886   6.156   1.920
 5082SOL    HW216146   5.780   6.268   1.973
 5083SOL     OW16147   2.374   6.908   3.412
 5083SOL    HW116148   2.422   6.893   3.326
 5083SOL    HW216149   2.440   6.924   3.485
 5084SOL     OW16150   1.347   4.750   5.285
 5084SOL    HW116151   1.405   4.676   5.320
 5084SOL    HW216152   1.400   4.835   5.283
 5085SOL     OW16153   0.198   3.836   6.452
 5085SOL    HW116154   0.261   3.775   6.405
 5085SOL    HW216155   0.249   3.913   6.492
 5086SOL     OW16156   2.443   4.795   2.303
 5086SOL    HW116157   2.361   4.748   2.270
 5086SOL    HW216158   2.517   4.729   2.315
 5087SOL     OW16159   6.719   5.061   2.177
 5087SOL    HW116160   6.715   5.022   2.085
 5087SOL    HW216161   6.675   4.998   2.241
 5088SOL     OW16162   5.025   5.957   1.892
 5088SOL    HW116163   4.959   5.971   1.965
 5088SOL    HW216164   5.068   5.867   1.903
 5089SOL     OW16165   5.762   4.941   4.801
 5089SOL    HW116166   5.828   4.961   4.729
 5089SOL    HW216167   5.804   4.881   4.869
 5090SOL     OW16168   3.164   0.165   5.085
 5090SOL    HW116169   3.095   0.216   5.136
 5090SOL    HW216170   3.155   0.067   5.105
 5091SOL     OW16171   6.498   6.993   0.315
 5091SOL    HW116172   6.474   0.063   0.356
 5091SOL    HW216173   6.421   6.961   0.259
 5092SOL     OW16174   2.906   3.576   4.514
 5092SOL    HW116175   2.910   3.657   4.572
 5092SOL    HW216176   2.817   3.571   4.469
 5093SOL     OW16177   2.113   1.807   2.429
 5093SOL    HW116178   2.197   1.848   2.466
 5093SOL    HW216179   2.034   1.862   2.456
 5094SOL     OW16180   2.522   5.800   5.811
 5094SOL    HW116181   2.541   5.882   5.866
 5094SOL    HW216182   2.502   5.723   5.871
 5095SOL     OW16183   6.585   0.492   2.934
 5095SOL    HW116184   6.574   0.471   2.837
 5095SOL    HW216185   6.674   0.535   2.950
 5096SOL     OW16186   5.222   2.509   5.769
 5096SOL    HW116187   5.290   2.465   5.710
 5096SOL    HW216188   5.262   2.528   5.858
 5097SOL     OW16189   0.920   6.529   6.514
 5097SOL    HW116190   0.931   6.459   6.585
 5097SOL    HW216191   1.009   6.570   6.495
 5098SOL     OW16192   3.726   2.127   1.657
 5098SOL    HW116193   3.765   2.177   1.579
 5098SOL    HW216194   3.714   2.190   1.734
 5099SOL     OW16195   0.946   6.783   1.700
 5099SOL    HW116196   0.850   6.765   1.717
 5099SOL    HW216197   0.963   6.882   1.709
 5100SOL     OW16198   5.451   3.803   2.532
 5100SOL    HW116199   5.353   3.819   2.543
 5100SOL    HW216200   5.467   3.742   2.455
 5101SOL     OW16201   3.746   6.877   6.213
 5101SOL    HW116202   3.758   6.953   6.277
 5101SOL    HW216203   3.649   6.862   6.197
 5102SOL     OW16204   5.101   4.740   4.680
 5102SOL    HW116205   5.116   4.790   4.765
 5102SOL    HW216206   5.066   4.649   4.701
 5103SOL     OW16207   1.475   0.492   5.977
 5103SOL    HW116208   1.458   0.457   5.884
 5103SOL    HW216209   1.397   0.470   6.035
 5104SOL     OW16210   3.744   4.617   1.608
 5104SOL    HW116211   3.824   4.558   1.593
 5104SOL    HW216212   3.683   4.574   1.675
 5105SOL     OW16213   3.694   3.172   6.383
 5105SOL    HW116214   3.696   3.129   6.473
 5105SOL    HW216215   3.784   3.212   6.364
 5106SOL     OW16216   4.443   2.986   0.924
 5106SOL    HW116217   4.454   2.968   0.826
 5106SOL    HW216218   4.382   2.917   0.964
 5107SOL     OW16219   4.957   3.413   0.949
 5107SOL    HW116220   4.958   3.421   0.849
 5107SOL    HW216221   5.003   3.493   0.988
 5108SOL     OW16222   4.475   4.541   6.572
 5108SOL    HW116223   4.558   4.584   6.536
 5108SOL    HW216224   4.497   4.450   6.605
 5109SOL     OW16225   1.712   2.957   1.262
 5109SOL    HW116226   1.709   2.891   1.337
 5109SOL    HW216227   1.641   2.935   1.195
 5110SOL     OW16228   5.237   0.489   6.334
 5110SOL    HW116229   5.192   0.418   6.388
 5110SOL    HW216230   5.233   0.464   6.237
 5111SOL     OW16231   0.852   6.363   5.247
 5111SOL    HW116232   0.816   6.455   5.260
 5111SOL    HW216233   0.783   6.296   5.273
 5112SOL     OW16234   0.339   0.348   2.701
 5112SOL    HW116235   0.306   0.372   2.610
 5112SOL    HW216236   0.349   0.249   2.708
 5113SOL     OW16237   2.350   4.569   0.133
 5113SOL    HW116238   2.307   4.507   0.067
 5113SOL    HW216239   2.437   4.530   0.163
 5114SOL     OW16240   4.493   6.005   1.067
 5114SOL    HW116241   4.526   5.987   1.159
 5114SOL    HW216242   4.446   5.924   1.032
 5115SOL     OW16243   1.605   4.059   0.988
 5115SOL    HW116244   1.572   4.008   0.909
 5115SOL    HW216245   1.704   4.064   0.985
 5116SOL     OW16246   1.853   6.665   6.635
 5116SOL    HW116247   1.951   6.681   6.645
 5116SOL    HW216248   1.816   6.632   6.722
 5117SOL     OW16249   1.529   2.152   3.932
 5117SOL    HW116250   1.586   2.071   3.915
 5117SOL    HW216251   1.500   2.152   4.028
 5118SOL     OW16252   5.390   5.719   6.467
 5118SOL    HW116253   5.296   5.727   6.434
 5118SOL    HW216254   5.414   5.802   6.518
 5119SOL     OW16255   5.186   1.549   0.453
 5119SOL    HW116256   5.213   1.645   0.446
 5119SOL    HW216257   5.102   1.542   0.506
 5120SOL     OW16258   5.072   0.101   5.156
 5120SOL    HW116259   5.128   0.027   5.192
 5120SOL    HW216260   5.011   0.134   5.228
 5121SOL     OW16261   2.181   3.962   6.519
 5121SOL    HW116262   2.141   4.037   6.572
 5121SOL    HW216263   2.239   4.000   6.447
 5122SOL     OW16264   5.188   5.443   3.487
 5122SOL    HW116265   5.173   5.344   3.493
 5122SOL    HW216266   5.153   5.476   3.399
 5123SOL     OW16267   4.930   2.576   2.273
 5123SOL    HW116268   5.012   2.632   2.286
 5123SOL    HW216269   4.865   2.626   2.215
 5124SOL     OW16270   2.035   6.530   3.418
 5124SOL    HW116271   2.085   6.582   3.349
 5124SOL    HW216272   1.936   6.542   3.404
 5125SOL     OW16273   0.405   1.623   3.921
 5125SOL    HW116274   0.387   1.545   3.981
 5125SOL    HW216275   0.348   1.700   3.948
 5126SOL     OW16276   2.512   6.635   0.451
 5126SOL    HW116277   2.524   6.712   0.514
 5126SOL    HW216278   2.586   6.634   0.385
 5127SOL     OW16279   1.976   5.563   0.162
 5127SOL    HW116280   1.908   5.590   0.094
 5127SOL    HW216281   1.930   5.537   0.247
 5128SOL     OW16282   6.500   5.972   1.780
 5128SOL    HW116283   6.523   6.068   1.793
 5128SOL    HW216284   6.515   5.923   1.866
 5129SOL     OW16285   5.903   0.085   1.057
 5129SOL    HW116286   5.974   0.111   0.991
 5129SOL    HW216287   5.882   7.006   1.047
 5130SOL     OW16288   6.395   5.063   3.317
 5130SOL    HW116289   6.312   5.085   3.368
 5130SOL    HW216290   6.449   5.146   3.303
 5131SOL     OW16291   2.295   2.426   3.646
 5131SOL    HW116292   2.285   2.518   3.609
 5131SOL    HW216293   2.233   2.415   3.724
 5132SOL     OW16294   2.809   5.015   5.610
 5132SOL    HW116295   2.811   5.113   5.628
 5132SOL    HW216296   2.776   4.967   5.692
 5133SOL     OW16297   3.859   6.495   6.422
 5133SOL    HW116298   3.773   6.445   6.426
 5133SOL    HW216299   3.896   6.489   6.330
 5134SOL     OW16300   0.403   3.875   1.070
 5134SOL    HW116301   0.370   3.792   1.114
 5134SOL    HW216302   0.347   3.953   1.098
 5135SOL     OW16303   6.610   1.610   5.145
 5135SOL    HW116304   6.632   1.704   5.171
 5135SOL    HW216305   6.551   1.611   5.065
 5136SOL     OW16306   4.450   1.361   4.315
 5136SOL    HW116307   4.406   1.408   4.391
 5136SOL    HW216308   4.381   1.335   4.247
 5137SOL     OW16309   3.926   4.431   6.056
 5137SOL    HW116310   3.899   4.342   6.018
 5137SOL    HW216311   3.853   4.497   6.040
 5138SOL     OW16312   2.680   4.001   5.547
 5138SOL    HW116313   2.704   3.921   5.602
 5138SOL    HW216314   2.744   4.075   5.566
 5139SOL     OW16315   1.127   6.774   3.711
 5139SOL    HW116316   1.032   6.740   3.711
 5139SOL    HW216317   1.147   6.817   3.624
 5140SOL     OW16318   3.463   2.714   1.202
 5140SOL    HW116319   3.489   2.643   1.267
 5140SOL    HW216320   3.473   2.804   1.246
 5141SOL     OW16321   5.604   2.859   6.798
 5141SOL    HW116322   5.697   2.867   6.763
 5141SOL    HW216323   5.606   2.842   6.896
 5142SOL     OW16324   5.244   4.068   4.593
 5142SOL    HW116325   5.255   3.977   4.632
 5142SOL    HW216326   5.168   4.068   4.527
 5143SOL     OW16327   6.726   5.358   4.049
 5143SOL    HW116328   6.814   5.316   4.027
 5143SOL    HW216329   6.731   5.399   4.140
 5144SOL     OW16330   1.456   1.384   5.556
 5144SOL    HW116331   1.480   1.441   5.634
 5144SOL    HW216332   1.356   1.373   5.552
 5145SOL     OW16333   2.075   5.358   6.059
 5145SOL    HW116334   2.175   5.366   6.061
 5145SOL    HW216335   2.037   5.427   5.998
 5146SOL     OW16336   2.931   4.519   6.768
 5146SOL    HW116337   2.913   4.475   6.856
 5146SOL    HW216338   2.925   4.451   6.695
 5147SOL     OW16339   6.033   4.360   6.627
 5147SOL    HW116340   6.128   4.389   6.619
 5147SOL    HW216341   5.973   4.430   6.589
 5148SOL     OW16342   0.495   5.969   1.348
 5148SOL    HW116343   0.589   5.960   1.317
 5148SOL    HW216344   0.436   5.906   1.296
 5149SOL     OW16345   6.286   1.513   4.240
 5149SOL    HW116346   6.198   1.477   4.210
 5149SOL    HW216347   6.276   1.556   4.330
 5150SOL     OW16348   1.785   5.421   4.149
 5150SOL    HW116349   1.713   5.423   4.080
 5150SOL    HW216350   1.805   5.326   4.174
 5151SOL     OW16351   4.607   0.935   6.490
 5151SOL    HW116352   4.586   0.840   6.514
 5151SOL    HW216353   4.620   0.988   6.573
 5152SOL     OW16354   0.990   4.504   0.142
 5152SOL    HW116355   1.049   4.425   0.127
 5152SOL    HW216356   0.962   4.543   0.055
 5153SOL     OW16357   1.469   1.859   0.615
 5153SOL    HW116358   1.501   1.834   0.706
 5153SOL    HW216359   1.404   1.790   0.582
 5154SOL     OW16360   1.888   2.817   5.505
 5154SOL    HW116361   1.903   2.885   5.433
 5154SOL    HW216362   1.891   2.862   5.594
 5155SOL     OW16363   3.774   0.036   2.211
 5155SOL    HW116364   3.682   0.027   2.249
 5155SOL    HW216365   3.797   0.133   2.203
 5156SOL     OW16366   6.170   2.527   5.442
 5156SOL    HW116367   6.132   2.614   5.473
 5156SOL    HW216368   6.259   2.543   5.400
 5157SOL     OW16369   5.187   2.893   3.450
 5157SOL    HW116370   5.169   2.914   3.546
 5157SOL    HW216371   5.117   2.831   3.416
 5158SOL     OW16372   3.647   1.673   1.254
 5158SOL    HW116373   3.728   1.729   1.268
 5158SOL    HW216374   3.628   1.665   1.156
 5159SOL     OW16375   1.376   2.988   4.204
 5159SOL    HW116376   1.358   2.921   4.276
 5159SOL    HW216377   1.470   3.020   4.211
 5160SOL     OW16378   1.911   3.699   4.795
 5160SOL    HW116379   1.924   3.721   4.892
 5160SOL    HW216380   1.816   3.671   4.780
 5161SOL     OW16381   0.993   3.075   4.874
 5161SOL    HW116382   0.978   3.037   4.782
 5161SOL    HW216383   1.026   3.003   4.935
 5162SOL     OW16384   6.430   6.253   3.880
 5162SOL    HW116385   6.361   6.321   3.859
 5162SOL    HW216386   6.465   6.267   3.973
 5163SOL     OW16387   5.318   4.495   1.551
 5163SOL    HW116388   5.355   4.461   1.638
 5163SOL    HW216389   5.270   4.581   1.568
 5164SOL     OW16390   5.772   3.841   5.688
 5164SOL    HW116391   5.825   3.785   5.752
 5164SOL    HW216392   5.779   3.937   5.714
 5165SOL     OW16393   6.090   4.622   4.008
 5165SOL    HW116394   6.131   4.552   3.949
 5165SOL    HW216395   6.148   4.703   4.007
 5166SOL     OW16396   1.964   5.431   2.115
 5166SOL    HW116397   1.998   5.431   2.021
 5166SOL    HW216398   1.938   5.524   2.141
 5167SOL     OW16399   0.324   6.407   5.816
 5167SOL    HW116400   0.284   6.350   5.887
 5167SOL    HW216401   0.352   6.495   5.855
 5168SOL     OW16402   4.285   2.327   3.210
 5168SOL    HW116403   4.306   2.353   3.115
 5168SOL    HW216404   4.363   2.350   3.268
 5169SOL     OW16405   3.353   3.972   6.351
 5169SOL    HW116406   3.325   4.058   6.308
 5169SOL    HW216407   3.346   3.898   6.283
 5170SOL     OW16408   5.696   4.281   4.575
 5170SOL    HW116409   5.795   4.290   4.572
 5170SOL    HW216410   5.671   4.202   4.632
 5171SOL     OW16411   2.199   5.267   4.575
 5171SOL    HW116412   2.246   5.232   4.656
 5171SOL    HW216413   2.149   5.350   4.597
 5172SOL     OW16414   0.991   4.750   2.350
 5172SOL    HW116415   1.044   4.666   2.361
 5172SOL    HW216416   0.956   4.755   2.256
 5173SOL     OW16417   5.472   2.670   6.665
 5173SOL    HW116418   5.545   2.612   6.628
 5173SOL    HW216419   5.511   2.746   6.716
 5174SOL     OW16420   1.362   4.509   6.154
 5174SOL    HW116421   1.387   4.601   6.182
 5174SOL    HW216422   1.380   4.498   6.056
 5175SOL     OW16423   0.819   4.662   0.266
 5175SOL    HW116424   0.867   4.713   0.338
 5175SOL    HW216425   0.886   4.618   0.206
 5176SOL     OW16426   4.720   3.577   0.552
 5176SOL    HW116427   4.757   3.662   0.513
 5176SOL    HW216428   4.675   3.597   0.639
 5177SOL     OW16429   5.230   6.672   6.302
 5177SOL    HW116430   5.139   6.633   6.314
 5177SOL    HW216431   5.254   6.670   6.205
 5178SOL     OW16432   2.419   2.546   1.899
 5178SOL    HW116433   2.380   2.455   1.915
 5178SOL    HW216434   2.399   2.605   1.977
 5179SOL     OW16435   3.741   6.357   5.780
 5179SOL    HW116436   3.675   6.377   5.853
 5179SOL    HW216437   3.692   6.350   5.693
 5180SOL     OW16438   2.946   2.380   1.441
 5180SOL    HW116439   2.938   2.382   1.341
 5180SOL    HW216440   3.041   2.358   1.466
 5181SOL     OW16441   4.176   6.646   2.998
 5181SOL    HW116442   4.170   6.612   3.092
 5181SOL    HW216443   4.102   6.606   2.944
 5182SOL     OW16444   5.692   4.491   1.633
 5182SOL    HW116445   5.627   4.556   1.595
 5182SOL    HW216446   5.642   4.416   1.678
 5183SOL     OW16447   4.681   0.152   1.846
 5183SOL    HW116448   4.585   0.181   1.850
 5183SOL    HW216449   4.703   0.125   1.752
 5184SOL     OW16450   0.860   0.654   2.929
 5184SOL    HW116451   0.862   0.721   2.855
 5184SOL    HW216452   0.950   0.610   2.936
 5185SOL     OW16453   3.521   0.303   2.152
 5185SOL    HW116454   3.496   0.207   2.145
 5185SOL    HW216455   3.620   0.311   2.166
 5186SOL     OW16456   6.398   4.211   0.342
 5186SOL    HW116457   6.405   4.305   0.376
 5186SOL    HW216458   6.459   4.153   0.396
 5187SOL     OW16459   5.671   1.894   3.735
 5187SOL    HW116460   5.704   1.987   3.716
 5187SOL    HW216461   5.643   1.851   3.649
 5188SOL     OW16462   0.895   3.905   6.021
 5188SOL    HW116463   0.860   3.902   5.928
 5188SOL    HW216464   0.964   3.833   6.033
 5189SOL     OW16465   4.520   5.145   6.373
 5189SOL    HW116466   4.444   5.126   6.435
 5189SOL    HW216467   4.498   5.111   6.282
 5190SOL     OW16468   1.468   2.396   3.765
 5190SOL    HW116469   1.524   2.407   3.847
 5190SOL    HW216470   1.455   2.298   3.746
 5191SOL     OW16471   3.392   0.789   1.309
 5191SOL    HW116472   3.490   0.808   1.312
 5191SOL    HW216473   3.341   0.874   1.323
 5192SOL     OW16474   6.268   5.558   2.785
 5192SOL    HW116475   6.332   5.573   2.860
 5192SOL    HW216476   6.176   5.542   2.822
 5193SOL     OW16477   4.911   3.919   3.501
 5193SOL    HW116478   4.926   3.992   3.434
 5193SOL    HW216479   4.818   3.926   3.537
 5194SOL     OW16480   5.620   0.619   5.181
 5194SOL    HW116481   5.630   0.641   5.278
 5194SOL    HW216482   5.709   0.596   5.143
 5195SOL     OW16483   6.244   6.411   5.534
 5195SOL    HW116484   6.243   6.318   5.496
 5195SOL    HW216485   6.315   6.417   5.604
 5196SOL     OW16486   0.152   4.149   1.496
 5196SOL    HW116487   0.252   4.145   1.489
 5196SOL    HW216488   0.125   4.127   1.590
 5197SOL     OW16489   2.688   5.718   4.997
 5197SOL    HW116490   2.754   5.665   4.943
 5197SOL    HW216491   2.703   5.701   5.094
 5198SOL     OW16492   4.073   6.584   5.186
 5198SOL    HW116493   4.000   6.652   5.181
 5198SOL    HW216494   4.091   6.561   5.281
 5199SOL     OW16495   1.996   5.293   1.412
 5199SOL    HW116496   1.964   5.242   1.333
 5199SOL    HW216497   1.930   5.284   1.487
 5200SOL     OW16498   0.267   1.289   5.112
 5200SOL    HW116499   0.237   1.367   5.057
 5200SOL    HW216500   0.189   1.252   5.162
 5201SOL     OW16501   6.232   5.193   3.746
 5201SOL    HW116502   6.311   5.214   3.688
 5201SOL    HW216503   6.191   5.107   3.716
 5202SOL     OW16504   3.537   2.784   5.863
 5202SOL    HW116505   3.601   2.708   5.851
 5202SOL    HW216506   3.455   2.767   5.808
 5203SOL     OW16507   1.630   0.259   0.812
 5203SOL    HW116508   1.557   0.244   0.879
 5203SOL    HW216509   1.693   0.328   0.847
 5204SOL     OW16510   3.149   0.645   0.340
 5204SOL    HW116511   3.210   0.718   0.369
 5204SOL    HW216512   3.101   0.607   0.419
 5205SOL     OW16513   0.237   5.505   0.508
 5205SOL    HW116514   0.216   5.417   0.464
 5205SOL    HW216515   0.330   5.532   0.485
 5206SOL     OW16516   1.116   4.377   4.479
 5206SOL    HW116517   1.062   4.294   4.467
 5206SOL    HW216518   1.135   4.418   4.390
 5207SOL     OW16519   0.313   0.394   4.160
 5207SOL    HW116520   0.278   0.452   4.086
 5207SOL    HW216521   0.322   0.300   4.128
 5208SOL     OW16522   4.615   2.135   0.137
 5208SOL    HW116523   4.641   2.190   0.216
 5208SOL    HW216524   4.623   2.038   0.160
 5209SOL     OW16525   5.337   5.769   2.812
 5209SOL    HW116526   5.274   5.846   2.802
 5209SOL    HW216527   5.286   5.683   2.809
 5210SOL     OW16528   5.367   4.659   0.301
 5210SOL    HW116529   5.311   4.691   0.225
 5210SOL    HW216530   5.464   4.665   0.275
 5211SOL     OW16531   4.946   3.265   4.606
 5211SOL    HW116532   4.897   3.278   4.692
 5211SOL    HW216533   4.882   3.239   4.535
 5212SOL     OW16534   0.962   3.492   0.914
 5212SOL    HW116535   0.886   3.558   0.920
 5212SOL    HW216536   1.049   3.541   0.913
 5213SOL     OW16537   3.958   3.085   2.814
 5213SOL    HW116538   4.039   3.029   2.828
 5213SOL    HW216539   3.923   3.116   2.903
 5214SOL     OW16540   5.231   3.781   5.734
 5214SOL    HW116541   5.248   3.709   5.802
 5214SOL    HW216542   5.309   3.844   5.732
 5215SOL     OW16543   6.748   3.679   4.614
 5215SOL    HW116544   6.696   3.598   4.640
 5215SOL    HW216545   6.706   3.722   4.534
 5216SOL     OW16546   4.992   5.696   1.117
 5216SOL    HW116547   4.912   5.717   1.173
 5216SOL    HW216548   4.994   5.754   1.036
 5217SOL     OW16549   4.292   6.260   4.310
 5217SOL    HW116550   4.382   6.273   4.269
 5217SOL    HW216551   4.221   6.272   4.240
 5218SOL     OW16552   0.454   6.800   0.811
 5218SOL    HW116553   0.512   6.880   0.823
 5218SOL    HW216554   0.388   6.817   0.737
 5219SOL     OW16555   3.118   1.554   4.869
 5219SOL    HW116556   3.193   1.538   4.805
 5219SOL    HW216557   3.085   1.648   4.859
 5220SOL     OW16558   1.914   4.283   4.119
 5220SOL    HW116559   1.838   4.322   4.067
 5220SOL    HW216560   1.991   4.347   4.118
 5221SOL     OW16561   6.533   6.371   0.957
 5221SOL    HW116562   6.616   6.381   0.902
 5221SOL    HW216563   6.459   6.426   0.918
 5222SOL     OW16564   5.045   4.202   0.822
 5222SOL    HW116565   5.130   4.151   0.833
 5222SOL    HW216566   4.969   4.148   0.859
 5223SOL     OW16567   0.444   2.636   1.221
 5223SOL    HW116568   0.516   2.602   1.160
 5223SOL    HW216569   0.383   2.697   1.169
 5224SOL     OW16570   0.334   2.902   5.328
 5224SOL    HW116571   0.268   2.965   5.289
 5224SOL    HW216572   0.423   2.917   5.286
 5225SOL     OW16573   0.239   1.530   4.996
 5225SOL    HW116574   0.295   1.554   4.916
 5225SOL    HW216575   0.159   1.590   5.000
 5226SOL     OW16576   0.802   6.607   3.598
 5226SOL    HW116577   0.883   6.586   3.544
 5226SOL    HW216578   0.738   6.530   3.593
 5227SOL     OW16579   6.821   2.855   5.453
 5227SOL    HW116580   6.850   2.793   5.526
 5227SOL    HW216581   6.745   2.911   5.486
 5228SOL     OW16582   1.617   2.259   5.797
 5228SOL    HW116583   1.701   2.212   5.770
 5228SOL    HW216584   1.584   2.315   5.720
 5229SOL     OW16585   3.674   0.677   5.973
 5229SOL    HW116586   3.689   0.770   5.941
 5229SOL    HW216587   3.620   0.678   6.057
 5230SOL     OW16588   6.833   6.650   2.027
 5230SOL    HW116589   6.909   6.708   2.056
 5230SOL    HW216590   6.809   6.672   1.932
 5231SOL     OW16591   6.839   2.094   2.136
 5231SOL    HW116592   6.784   2.107   2.218
 5231SOL    HW216593   6.795   2.026   2.077
 5232SOL     OW16594   2.418   2.804   5.546
 5232SOL    HW116595   2.329   2.779   5.582
 5232SOL    HW216596   2.419   2.790   5.447
 5233SOL     OW16597   3.098   0.105   2.816
 5233SOL    HW116598   3.197   0.101   2.830
 5233SOL    HW216599   3.066   0.017   2.780
 5234SOL     OW16600   2.362   1.920   0.129
 5234SOL    HW116601   2.434   1.852   0.117
 5234SOL    HW216602   2.278   1.889   0.083
 5235SOL     OW16603   2.394   2.022   1.296
 5235SOL    HW116604   2.475   2.055   1.344
 5235SOL    HW216605   2.339   2.100   1.265
 5236SOL     OW16606   4.060   5.779   1.900
 5236SOL    HW116607   4.114   5.715   1.845
 5236SOL    HW216608   4.074   5.872   1.866
 5237SOL     OW16609   1.853   1.827   3.647
 5237SOL    HW116610   1.873   1.730   3.640
 5237SOL    HW216611   1.933   1.880   3.620
 5238SOL     OW16612   1.219   6.496   3.059
 5238SOL    HW116613   1.226   6.444   2.975
 5238SOL    HW216614   1.311   6.520   3.091
 5239SOL     OW16615   2.523   3.691   1.359
 5239SOL    HW116616   2.536   3.619   1.290
 5239SOL    HW216617   2.428   3.692   1.388
 5240SOL     OW16618   2.229   3.746   5.615
 5240SOL    HW116619   2.132   3.737   5.635
 5240SOL    HW216620   2.246   3.722   5.519
 5241SOL     OW16621   0.976   5.436   2.542
 5241SOL    HW116622   1.010   5.522   2.580
 5241SOL    HW216623   1.052   5.384   2.502
 5242SOL     OW16624   4.826   0.377   6.466
 5242SOL    HW116625   4.880   0.293   6.469
 5242SOL    HW216626   4.814   0.405   6.371
 5243SOL     OW16627   2.779   6.794   2.654
 5243SOL    HW116628   2.750   6.752   2.740
 5243SOL    HW216629   2.860   6.851   2.670
 5244SOL     OW16630   4.737   3.048   0.714
 5244SOL    HW116631   4.705   3.126   0.767
 5244SOL    HW216632   4.768   2.976   0.775
 5245SOL     OW16633   4.325   3.802   1.641
 5245SOL    HW116634   4.267   3.744   1.699
 5245SOL    HW216635   4.311   3.898   1.665
 5246SOL     OW16636   5.913   3.142   1.331
 5246SOL    HW116637   5.932   3.142   1.429
 5246SOL    HW216638   5.984   3.194   1.283
 5247SOL     OW16639   3.806   2.056   6.138
 5247SOL    HW116640   3.770   2.137   6.091
 5247SOL    HW216641   3.846   1.993   6.071
 5248SOL     OW16642   6.496   1.283   3.667
 5248SOL    HW116643   6.419   1.318   3.614
 5248SOL    HW216644   6.560   1.235   3.607
 5249SOL     OW16645   0.545   4.866   6.614
 5249SOL    HW116646   0.565   4.780   6.567
 5249SOL    HW216647   0.585   4.942   6.561
 5250SOL     OW16648   2.287   5.863   1.030
 5250SOL    HW116649   2.377   5.905   1.041
 5250SOL    HW216650   2.223   5.930   0.993
 5251SOL     OW16651   0.655   4.812   0.516
 5251SOL    HW116652   0.608   4.854   0.594
 5251SOL    HW216653   0.741   4.771   0.548
 5252SOL     OW16654   3.814   0.296   2.128
 5252SOL    HW116655   3.880   0.338   2.189
 5252SOL    HW216656   3.810   0.347   2.042
 5253SOL     OW16657   6.443   5.560   4.403
 5253SOL    HW116658   6.455   5.461   4.411
 5253SOL    HW216659   6.501   5.595   4.330
 5254SOL     OW16660   6.145   0.150   3.059
 5254SOL    HW116661   6.195   0.219   3.111
 5254SOL    HW216662   6.089   0.195   2.988
 5255SOL     OW16663   6.290   1.876   5.067
 5255SOL    HW116664   6.249   1.899   4.979
 5255SOL    HW216665   6.322   1.781   5.066
 5256SOL     OW16666   6.511   1.482   2.579
 5256SOL    HW116667   6.443   1.552   2.604
 5256SOL    HW216668   6.566   1.460   2.659
 5257SOL     OW16669   3.631   0.991   6.120
 5257SOL    HW116670   3.672   1.053   6.187
 5257SOL    HW216671   3.583   0.917   6.168
 5258SOL     OW16672   4.299   1.499   3.236
 5258SOL    HW116673   4.269   1.467   3.146
 5258SOL    HW216674   4.283   1.428   3.304
 5259SOL     OW16675   6.217   5.600   3.123
 5259SOL    HW116676   6.283   5.553   3.182
 5259SOL    HW216677   6.263   5.634   3.041
 5260SOL     OW16678   2.195   1.158   0.817
 5260SOL    HW116679   2.189   1.257   0.829
 5260SOL    HW216680   2.130   1.130   0.745
 5261SOL     OW16681   5.992   4.261   0.475
 5261SOL    HW116682   6.012   4.172   0.516
 5261SOL    HW216683   5.975   4.250   0.377
 5262SOL     OW16684   2.086   0.818   2.848
 5262SOL    HW116685   2.044   0.791   2.934
 5262SOL    HW216686   2.047   0.905   2.818
 5263SOL     OW16687   2.102   0.140   2.441
 5263SOL    HW116688   2.034   0.126   2.514
 5263SOL    HW216689   2.185   0.090   2.463
 5264SOL     OW16690   6.423   2.148   1.662
 5264SOL    HW116691   6.384   2.184   1.747
 5264SOL    HW216692   6.397   2.052   1.652
 5265SOL     OW16693   6.462   4.567   4.252
 5265SOL    HW116694   6.444   4.523   4.340
 5265SOL    HW216695   6.478   4.496   4.183
 5266SOL     OW16696   2.124   0.687   0.824
 5266SOL    HW116697   2.026   0.670   0.816
 5266SOL    HW216698   2.167   0.681   0.734
 5267SOL     OW16699   5.133   2.873   4.189
 5267SOL    HW116700   5.137   2.969   4.216
 5267SOL    HW216701   5.182   2.860   4.103
 5268SOL     OW16702   5.452   0.786   5.943
 5268SOL    HW116703   5.375   0.849   5.939
 5268SOL    HW216704   5.458   0.747   6.035
 5269SOL     OW16705   0.404   6.199   3.453
 5269SOL    HW116706   0.358   6.238   3.533
 5269SOL    HW216707   0.384   6.101   3.447
 5270SOL     OW16708   0.671   2.291   6.199
 5270SOL    HW116709   0.704   2.197   6.189
 5270SOL    HW216710   0.747   2.355   6.186
 5271SOL     OW16711   0.122   5.095   3.355
 5271SOL    HW116712   0.179   5.063   3.280
 5271SOL    HW216713   0.025   5.085   3.331
 5272SOL     OW16714   4.581   0.754   0.493
 5272SOL    HW116715   4.495   0.711   0.467
 5272SOL    HW216716   4.589   0.843   0.448
 5273SOL     OW16717   0.835   2.682   3.394
 5273SOL    HW116718   0.864   2.734   3.314
 5273SOL    HW216719   0.875   2.591   3.392
 5274SOL     OW16720   4.461   5.238   2.113
 5274SOL    HW116721   4.438   5.163   2.176
 5274SOL    HW216722   4.558   5.259   2.122
 5275SOL     OW16723   4.364   1.559   6.494
 5275SOL    HW116724   4.314   1.615   6.560
 5275SOL    HW216725   4.437   1.613   6.453
 5276SOL     OW16726   4.316   6.029   2.838
 5276SOL    HW116727   4.340   6.007   2.744
 5276SOL    HW216728   4.235   6.088   2.839
 5277SOL     OW16729   2.023   2.407   1.543
 5277SOL    HW116730   1.965   2.328   1.521
 5277SOL    HW216731   2.003   2.439   1.635
 5278SOL     OW16732   4.446   5.052   1.029
 5278SOL    HW116733   4.424   4.974   1.088
 5278SOL    HW216734   4.524   5.101   1.068
 5279SOL     OW16735   2.958   5.459   2.230
 5279SOL    HW116736   2.963   5.369   2.188
 5279SOL    HW216737   2.889   5.458   2.302
 5280SOL     OW16738   4.873   6.461   4.367
 5280SOL    HW116739   4.900   6.385   4.307
 5280SOL    HW216740   4.908   6.547   4.329
 5281SOL     OW16741   0.333   1.838   1.454
 5281SOL    HW116742   0.411   1.888   1.418
 5281SOL    HW216743   0.333   1.744   1.419
 5282SOL     OW16744   4.016   1.876   2.615
 5282SOL    HW116745   4.070   1.897   2.533
 5282SOL    HW216746   4.075   1.838   2.686
 5283SOL     OW16747   5.048   4.694   5.755
 5283SOL    HW116748   5.075   4.648   5.840
 5283SOL    HW216749   5.127   4.700   5.695
 5284SOL     OW16750   5.434   2.995   3.565
 5284SOL    HW116751   5.364   2.980   3.495
 5284SOL    HW216752   5.415   3.081   3.613
 5285SOL     OW16753   3.273   5.494   3.624
 5285SOL    HW116754   3.266   5.395   3.639
 5285SOL    HW216755   3.332   5.511   3.544
 5286SOL     OW16756   2.329   4.595   1.457
 5286SOL    HW116757   2.287   4.517   1.411
 5286SOL    HW216758   2.279   4.615   1.541
 5287SOL     OW16759   1.430   1.900   1.353
 5287SOL    HW116760   1.482   1.916   1.269
 5287SOL    HW216761   1.357   1.968   1.360
 5288SOL     OW16762   3.787   6.902   1.168
 5288SOL    HW116763   3.847   6.848   1.228
 5288SOL    HW216764   3.727   6.959   1.224
 5289SOL     OW16765   2.110   5.434   1.096
 5289SOL    HW116766   2.188   5.442   1.157
 5289SOL    HW216767   2.078   5.339   1.095
 5290SOL     OW16768   4.913   6.138   0.767
 5290SOL    HW116769   4.916   6.176   0.860
 5290SOL    HW216770   4.818   6.126   0.738
 5291SOL     OW16771   1.719   5.065   5.956
 5291SOL    HW116772   1.791   5.134   5.965
 5291SOL    HW216773   1.729   5.018   5.869
 5292SOL     OW16774   4.722   2.499   5.975
 5292SOL    HW116775   4.790   2.506   5.902
 5292SOL    HW216776   4.713   2.404   6.003
 5293SOL     OW16777   0.554   0.298   4.212
 5293SOL    HW116778   0.553   0.203   4.179
 5293SOL    HW216779   0.463   0.337   4.201
 5294SOL     OW16780   5.352   1.813   5.519
 5294SOL    HW116781   5.373   1.904   5.553
 5294SOL    HW216782   5.272   1.777   5.568
 5295SOL     OW16783   6.022   1.292   1.628
 5295SOL    HW116784   6.077   1.234   1.687
 5295SOL    HW216785   5.954   1.342   1.682
 5296SOL     OW16786   0.962   4.475   0.625
 5296SOL    HW116787   0.951   4.408   0.551
 5296SOL    HW216788   1.056   4.473   0.659
 5297SOL     OW16789   1.955   3.201   1.521
 5297SOL    HW116790   1.939   3.127   1.586
 5297SOL    HW216791   2.053   3.221   1.516
 5298SOL     OW16792   0.914   5.012   1.122
 5298SOL    HW116793   0.839   5.079   1.124
 5298SOL    HW216794   0.909   4.955   1.204
 5299SOL     OW16795   3.174   0.486   2.537
 5299SOL    HW116796   3.192   0.554   2.608
 5299SOL    HW216797   3.117   0.525   2.466
 5300SOL     OW16798   6.782   5.346   3.238
 5300SOL    HW116799   6.836   5.353   3.154
 5300SOL    HW216800   6.805   5.422   3.299
 5301SOL     OW16801   4.238   1.693   0.462
 5301SOL    HW116802   4.231   1.706   0.363
 5301SOL    HW216803   4.236   1.783   0.507
 5302SOL     OW16804   6.523   4.700   2.855
 5302SOL    HW116805   6.520   4.793   2.892
 5302SOL    HW216806   6.547   4.636   2.927
 5303SOL     OW16807   0.788   4.919   3.633
 5303SOL    HW116808   0.779   4.935   3.535
 5303SOL    HW216809   0.704   4.879   3.669
 5304SOL     OW16810   5.472   1.797   6.020
 5304SOL    HW116811   5.439   1.710   5.985
 5304SOL    HW216812   5.429   1.872   5.969
 5305SOL     OW16813   2.791   1.055   3.013
 5305SOL    HW116814   2.695   1.039   2.992
 5305SOL    HW216815   2.806   1.153   3.028
 5306SOL     OW16816   2.522   0.208   5.483
 5306SOL    HW116817   2.497   0.116   5.453
 5306SOL    HW216818   2.454   0.242   5.548
 5307SOL     OW16819   5.085   6.740   6.699
 5307SOL    HW116820   5.074   6.803   6.776
 5307SOL    HW216821   5.173   6.693   6.707
 5308SOL     OW16822   6.701   0.802   2.956
 5308SOL    HW116823   6.730   0.897   2.968
 5308SOL    HW216824   6.751   0.762   2.879
 5309SOL     OW16825   3.630   3.779   3.889
 5309SOL    HW116826   3.556   3.828   3.843
 5309SOL    HW216827   3.718   3.821   3.867
 5310SOL     OW16828   4.840   2.012   0.805
 5310SOL    HW116829   4.768   2.008   0.875
 5310SOL    HW216830   4.801   1.986   0.717
 5311SOL     OW16831   1.513   6.110   0.033
 5311SOL    HW116832   1.612   6.099   0.035
 5311SOL    HW216833   1.476   6.067   6.969
 5312SOL     OW16834   0.524   3.489   2.184
 5312SOL    HW116835   0.497   3.567   2.240
 5312SOL    HW216836   0.442   3.445   2.146
 5313SOL     OW16837   1.449   5.854   0.692
 5313SOL    HW116838   1.353   5.830   0.707
 5313SOL    HW216839   1.459   5.897   0.603
 5314SOL     OW16840   3.672   5.190   0.548
 5314SOL    HW116841   3.653   5.099   0.512
 5314SOL    HW216842   3.685   5.185   0.648
 5315SOL     OW16843   4.744   2.550   2.672
 5315SOL    HW116844   4.721   2.453   2.680
 5315SOL    HW216845   4.691   2.592   2.598
 5316SOL     OW16846   6.369   5.023   3.927
 5316SOL    HW116847   6.319   5.090   3.872
 5316SOL    HW216848   6.322   5.010   4.014
 5317SOL     OW16849   5.488   6.033   2.669
 5317SOL    HW116850   5.482   5.940   2.705
 5317SOL    HW216851   5.581   6.069   2.684
 5318SOL     OW16852   6.973   2.645   5.040
 5318SOL    HW116853   0.036   2.641   5.099
 5318SOL    HW216854   6.909   2.574   5.066
 5319SOL     OW16855   4.275   6.895   1.210
 5319SOL    HW116856   4.285   6.814   1.154
 5319SOL    HW216857   4.208   6.957   1.169
 5320SOL     OW16858   5.331   3.144   5.970
 5320SOL    HW116859   5.409   3.207   5.964
 5320SOL    HW216860   5.261   3.171   5.904
 5321SOL     OW16861   1.494   5.190   5.818
 5321SOL    HW116862   1.424   5.123   5.793
 5321SOL    HW216863   1.565   5.145   5.873
 5322SOL     OW16864   3.493   6.390   0.306
 5322SOL    HW116865   3.546   6.401   0.390
 5322SOL    HW216866   3.396   6.406   0.325
 5323SOL     OW16867   5.783   3.038   0.385
 5323SOL    HW116868   5.718   3.008   0.455
 5323SOL    HW216869   5.733   3.067   0.304
 5324SOL     OW16870   3.775   3.544   1.782
 5324SOL    HW116871   3.832   3.496   1.849
 5324SOL    HW216872   3.687   3.498   1.773
 5325SOL     OW16873   4.666   6.160   3.496
 5325SOL    HW116874   4.747   6.214   3.471
 5325SOL    HW216875   4.659   6.081   3.435
 5326SOL     OW16876   6.549   6.889   2.113
 5326SOL    HW116877   6.632   6.839   2.140
 5326SOL    HW216878   6.469   6.831   2.130
 5327SOL     OW16879   6.578   0.795   4.396
 5327SOL    HW116880   6.588   0.753   4.306
 5327SOL    HW216881   6.634   0.877   4.401
 5328SOL     OW16882   3.748   4.997   1.253
 5328SOL    HW116883   3.790   4.914   1.215
 5328SOL    HW216884   3.658   5.011   1.212
 5329SOL     OW16885   6.873   4.768   6.944
 5329SOL    HW116886   6.883   4.703   0.002
 5329SOL    HW216887   6.793   4.825   6.960
 5330SOL     OW16888   4.489   4.505   6.982
 5330SOL    HW116889   4.438   4.573   6.929
 5330SOL    HW216890   4.557   4.552   0.021
 5331SOL     OW16891   4.822   2.988   6.716
 5331SOL    HW116892   4.815   2.937   6.630
 5331SOL    HW216893   4.916   2.984   6.749
 5332SOL     OW16894   6.039   2.571   0.252
 5332SOL    HW116895   6.064   2.475   0.237
 5332SOL    HW216896   6.121   2.628   0.243
 5333SOL     OW16897   1.680   1.934   3.915
 5333SOL    HW116898   1.672   1.892   3.824
 5333SOL    HW216899   1.776   1.929   3.945
 5334SOL     OW16900   3.678   5.509   1.795
 5334SOL    HW116901   3.748   5.516   1.866
 5334SOL    HW216902   3.680   5.418   1.755
 5335SOL     OW16903   6.988   4.486   1.195
 5335SOL    HW116904   6.904   4.529   1.228
 5335SOL    HW216905   0.048   4.545   1.216
 5336SOL     OW16906   1.756   3.133   4.501
 5336SOL    HW116907   1.803   3.150   4.587
 5336SOL    HW216908   1.665   3.097   4.520
 5337SOL     OW16909   6.053   5.441   0.400
 5337SOL    HW116910   6.008   5.364   0.355
 5337SOL    HW216911   6.152   5.432   0.391
 5338SOL     OW16912   6.134   3.370   0.917
 5338SOL    HW116913   6.230   3.397   0.912
 5338SOL    HW216914   6.119   3.314   0.998
 5339SOL     OW16915   5.307   3.913   2.902
 5339SOL    HW116916   5.379   3.948   2.841
 5339SOL    HW216917   5.278   3.822   2.870
 5340SOL     OW16918   5.884   3.094   2.877
 5340SOL    HW116919   5.913   3.047   2.961
 5340SOL    HW216920   5.957   3.156   2.848
 5341SOL     OW16921   4.166   5.060   3.934
 5341SOL    HW116922   4.200   4.975   3.974
 5341SOL    HW216923   4.119   5.039   3.848
 5342SOL     OW16924   5.921   6.883   4.731
 5342SOL    HW116925   5.959   6.887   4.639
 5342SOL    HW216926   5.881   6.792   4.747
 5343SOL     OW16927   3.353   3.263   6.814
 5343SOL    HW116928   3.302   3.285   6.732
 5343SOL    HW216929   3.291   3.261   6.893
 5344SOL     OW16930   1.032   2.259   6.385
 5344SOL    HW116931   1.007   2.331   6.320
 5344SOL    HW216932   0.970   2.181   6.374
 5345SOL     OW16933   4.580   1.454   0.129
 5345SOL    HW116934   4.508   1.401   0.173
 5345SOL    HW216935   4.667   1.404   0.135
 5346SOL     OW16936   3.090   6.190   3.714
 5346SOL    HW116937   3.053   6.102   3.686
 5346SOL    HW216938   3.021   6.261   3.703
 5347SOL     OW16939   6.379   1.946   4.218
 5347SOL    HW116940   6.419   1.902   4.138
 5347SOL    HW216941   6.286   1.976   4.197
 5348SOL     OW16942   5.581   2.811   3.443
 5348SOL    HW116943   5.626   2.850   3.363
 5348SOL    HW216944   5.525   2.880   3.487
 5349SOL     OW16945   0.936   3.494   1.875
 5349SOL    HW116946   1.022   3.471   1.920
 5349SOL    HW216947   0.949   3.495   1.776
 5350SOL     OW16948   1.088   6.540   0.294
 5350SOL    HW116949   1.004   6.589   0.317
 5350SOL    HW216950   1.130   6.581   0.214
 5351SOL     OW16951   6.587   6.495   3.257
 5351SOL    HW116952   6.582   6.506   3.157
 5351SOL    HW216953   6.518   6.552   3.300
 5352SOL     OW16954   1.300   3.221   5.213
 5352SOL    HW116955   1.316   3.153   5.141
 5352SOL    HW216956   1.386   3.240   5.260
 5353SOL     OW16957   3.919   5.459   3.394
 5353SOL    HW116958   3.898   5.546   3.349
 5353SOL    HW216959   4.017   5.442   3.392
 5354SOL     OW16960   4.619   6.097   0.690
 5354SOL    HW116961   4.553   6.121   0.762
 5354SOL    HW216962   4.592   6.142   0.605
 5355SOL     OW16963   5.402   4.255   4.946
 5355SOL    HW116964   5.331   4.259   4.876
 5355SOL    HW216965   5.485   4.216   4.907
 5356SOL     OW16966   0.490   5.408   0.767
 5356SOL    HW116967   0.404   5.360   0.751
 5356SOL    HW216968   0.497   5.486   0.705
 5357SOL     OW16969   5.883   3.495   2.858
 5357SOL    HW116970   5.807   3.530   2.804
 5357SOL    HW216971   5.948   3.448   2.798
 5358SOL     OW16972   4.218   1.523   6.964
 5358SOL    HW116973   4.213   1.607   0.001
 5358SOL    HW216974   4.168   1.450   7.011
 5359SOL     OW16975   3.695   2.694   0.003
 5359SOL    HW116976   3.721   2.604   0.038
 5359SOL    HW216977   3.737   2.709   6.932
 5360SOL     OW16978   5.792   4.866   4.054
 5360SOL    HW116979   5.715   4.912   4.099
 5360SOL    HW216980   5.764   4.774   4.027
 5361SOL     OW16981   2.255   5.587   2.428
 5361SOL    HW116982   2.226   5.500   2.390
 5361SOL    HW216983   2.181   5.625   2.484
 5362SOL     OW16984   5.263   0.948   2.033
 5362SOL    HW116985   5.233   0.880   2.101
 5362SOL    HW216986   5.305   0.901   1.956
 5363SOL     OW16987   5.587   5.641   3.239
 5363SOL    HW116988   5.598   5.729   3.193
 5363SOL    HW216989   5.515   5.648   3.308
 5364SOL     OW16990   4.838   1.416   2.796
 5364SOL    HW116991   4.867   1.357   2.871
 5364SOL    HW216992   4.744   1.393   2.769
 5365SOL     OW16993   3.216   3.048   4.273
 5365SOL    HW116994   3.248   3.131   4.227
 5365SOL    HW216995   3.134   3.068   4.326
 5366SOL     OW16996   6.240   5.989   2.727
 5366SOL    HW116997   6.285   6.049   2.793
 5366SOL    HW216998   6.163   5.944   2.770
 5367SOL     OW16999   6.225   6.087   1.732
 5367SOL    HW117000   6.301   6.041   1.778
 5367SOL    HW217001   6.209   6.176   1.775
 5368SOL     OW17002   6.404   5.938   4.031
 5368SOL    HW117003   6.400   5.962   3.934
 5368SOL    HW217004   6.366   5.846   4.045
 5369SOL     OW17005   2.934   5.322   3.159
 5369SOL    HW117006   2.910   5.418   3.142
 5369SOL    HW217007   2.965   5.280   3.073
 5370SOL     OW17008   1.768   3.486   0.818
 5370SOL    HW117009   1.717   3.483   0.731
 5370SOL    HW217010   1.725   3.552   0.879
 5371SOL     OW17011   5.682   5.129   4.528
 5371SOL    HW117012   5.766   5.125   4.582
 5371SOL    HW217013   5.622   5.053   4.553
 5372SOL     OW17014   1.823   0.133   3.047
 5372SOL    HW117015   1.777   0.183   2.974
 5372SOL    HW217016   1.769   0.052   3.072
 5373SOL     OW17017   3.048   1.984   6.745
 5373SOL    HW117018   2.963   1.931   6.739
 5373SOL    HW217019   3.044   2.044   6.825
 5374SOL     OW17020   1.981   4.467   2.349
 5374SOL    HW117021   1.905   4.436   2.407
 5374SOL    HW217022   2.058   4.405   2.360
 5375SOL     OW17023   2.264   4.387   4.734
 5375SOL    HW117024   2.208   4.453   4.784
 5375SOL    HW217025   2.329   4.345   4.797
 5376SOL     OW17026   0.636   0.415   6.039
 5376SOL    HW117027   0.641   0.315   6.035
 5376SOL    HW217028   0.706   0.454   5.978
 5377SOL     OW17029   1.920   1.111   3.236
 5377SOL    HW117030   1.883   1.193   3.280
 5377SOL    HW217031   1.877   1.029   3.275
 5378SOL     OW17032   4.914   0.957   2.317
 5378SOL    HW117033   4.844   0.962   2.247
 5378SOL    HW217034   4.977   1.035   2.307
 5379SOL     OW17035   1.729   2.166   5.382
 5379SOL    HW117036   1.811   2.157   5.437
 5379SOL    HW217037   1.754   2.182   5.286
 5380SOL     OW17038   4.506   6.340   1.765
 5380SOL    HW117039   4.601   6.312   1.785
 5380SOL    HW217040   4.506   6.433   1.729
 5381SOL     OW17041   4.408   0.627   4.181
 5381SOL    HW117042   4.368   0.714   4.211
 5381SOL    HW217043   4.391   0.614   4.084
 5382SOL     OW17044   4.603   1.424   1.409
 5382SOL    HW117045   4.574   1.512   1.445
 5382SOL    HW217046   4.691   1.435   1.361
 5383SOL     OW17047   2.357   2.558   4.551
 5383SOL    HW117048   2.317   2.506   4.476
 5383SOL    HW217049   2.393   2.645   4.516
 5384SOL     OW17050   5.933   5.134   4.680
 5384SOL    HW117051   5.939   5.210   4.615
 5384SOL    HW217052   6.005   5.068   4.661
 5385SOL     OW17053   3.920   3.469   6.176
 5385SOL    HW117054   4.014   3.503   6.171
 5385SOL    HW217055   3.915   3.393   6.242
 5386SOL     OW17056   5.300   4.541   4.623
 5386SOL    HW117057   5.288   4.535   4.524
 5386SOL    HW217058   5.240   4.612   4.659
 5387SOL     OW17059   1.056   1.840   3.763
 5387SOL    HW117060   1.148   1.806   3.745
 5387SOL    HW217061   1.053   1.938   3.745
 5388SOL     OW17062   0.728   6.704   2.582
 5388SOL    HW117063   0.826   6.686   2.582
 5388SOL    HW217064   0.679   6.617   2.595
 5389SOL     OW17065   4.553   2.148   3.969
 5389SOL    HW117066   4.546   2.086   3.891
 5389SOL    HW217067   4.646   2.144   4.007
 5390SOL     OW17068   0.364   2.631   3.034
 5390SOL    HW117069   0.424   2.553   3.017
 5390SOL    HW217070   0.275   2.598   3.068
 5391SOL     OW17071   3.021   2.997   0.718
 5391SOL    HW117072   3.103   2.944   0.738
 5391SOL    HW217073   2.944   2.961   0.769
 5392SOL     OW17074   5.617   1.096   3.688
 5392SOL    HW117075   5.660   1.098   3.778
 5392SOL    HW217076   5.659   1.167   3.630
 5393SOL     OW17077   4.731   2.150   5.094
 5393SOL    HW117078   4.763   2.210   5.022
 5393SOL    HW217079   4.806   2.130   5.157
 5394SOL     OW17080   1.402   1.889   1.904
 5394SOL    HW117081   1.400   1.842   1.816
 5394SOL    HW217082   1.323   1.951   1.911
 5395SOL     OW17083   6.576   1.677   0.625
 5395SOL    HW117084   6.635   1.758   0.618
 5395SOL    HW217085   6.605   1.609   0.558
 5396SOL     OW17086   4.637   3.996   0.327
 5396SOL    HW117087   4.724   3.998   0.277
 5396SOL    HW217088   4.654   3.983   0.424
 5397SOL     OW17089   0.379   1.234   2.475
 5397SOL    HW117090   0.300   1.274   2.429
 5397SOL    HW217091   0.366   1.242   2.574
 5398SOL     OW17092   5.940   2.102   2.610
 5398SOL    HW117093   5.968   2.132   2.701
 5398SOL    HW217094   5.927   2.002   2.610
 5399SOL     OW17095   1.714   1.999   0.308
 5399SOL    HW117096   1.725   1.943   0.226
 5399SOL    HW217097   1.799   2.000   0.360
 5400SOL     OW17098   4.704   3.085   1.619
 5400SOL    HW117099   4.696   3.049   1.712
 5400SOL    HW217100   4.788   3.051   1.577
 5401SOL     OW17101   5.887   2.703   1.340
 5401SOL    HW117102   5.843   2.623   1.298
 5401SOL    HW217103   5.860   2.786   1.292
 5402SOL     OW17104   1.822   6.563   2.178
 5402SOL    HW117105   1.752   6.605   2.236
 5402SOL    HW217106   1.901   6.538   2.234
 5403SOL     OW17107   4.972   3.080   0.231
 5403SOL    HW117108   4.913   3.083   0.312
 5403SOL    HW217109   4.922   3.114   0.152
 5404SOL     OW17110   5.882   0.535   0.014
 5404SOL    HW117111   5.800   0.567   0.063
 5404SOL    HW217112   5.943   0.611   7.014
 5405SOL     OW17113   0.584   5.118   0.439
 5405SOL    HW117114   0.598   5.033   0.489
 5405SOL    HW217115   0.514   5.173   0.486
 5406SOL     OW17116   2.507   0.828   6.323
 5406SOL    HW117117   2.536   0.814   6.228
 5406SOL    HW217118   2.412   0.798   6.334
 5407SOL     OW17119   2.082   0.107   2.975
 5407SOL    HW117120   2.140   0.095   3.055
 5407SOL    HW217121   1.988   0.124   3.005
 5408SOL     OW17122   2.714   1.216   4.223
 5408SOL    HW117123   2.808   1.222   4.257
 5408SOL    HW217124   2.709   1.258   4.133
 5409SOL     OW17125   0.731   3.292   2.184
 5409SOL    HW117126   0.729   3.257   2.278
 5409SOL    HW217127   0.670   3.371   2.177
 5410SOL     OW17128   0.662   2.511   1.110
 5410SOL    HW117129   0.709   2.429   1.076
 5410SOL    HW217130   0.703   2.592   1.068
 5411SOL     OW17131   3.359   5.496   6.865
 5411SOL    HW117132   3.316   5.408   6.886
 5411SOL    HW217133   3.387   5.497   6.769
 5412SOL     OW17134   0.288   2.201   6.097
 5412SOL    HW117135   0.294   2.117   6.043
 5412SOL    HW217136   0.293   2.280   6.036
 5413SOL     OW17137   0.387   6.074   4.614
 5413SOL    HW117138   0.307   6.015   4.606
 5413SOL    HW217139   0.470   6.020   4.598
 5414SOL     OW17140   5.550   4.846   5.197
 5414SOL    HW117141   5.592   4.764   5.158
 5414SOL    HW217142   5.451   4.834   5.201
 5415SOL     OW17143   4.200   0.794   0.363
 5415SOL    HW117144   4.146   0.725   0.314
 5415SOL    HW217145   4.167   0.801   0.457
 5416SOL     OW17146   3.281   5.685   6.604
 5416SOL    HW117147   3.266   5.736   6.689
 5416SOL    HW217148   3.260   5.744   6.526
 5417SOL     OW17149   4.375   0.295   4.528
 5417SOL    HW117150   4.379   0.196   4.513
 5417SOL    HW217151   4.366   0.342   4.439
 5418SOL     OW17152   0.316   3.358   5.048
 5418SOL    HW117153   0.257   3.292   5.000
 5418SOL    HW217154   0.274   3.383   5.135
 5419SOL     OW17155   4.270   0.257   5.684
 5419SOL    HW117156   4.364   0.238   5.710
 5419SOL    HW217157   4.235   0.333   5.739
 5420SOL     OW17158   0.790   1.380   2.060
 5420SOL    HW117159   0.880   1.421   2.043
 5420SOL    HW217160   0.763   1.325   1.980
 5421SOL     OW17161   3.743   4.974   2.155
 5421SOL    HW117162   3.703   4.893   2.113
 5421SOL    HW217163   3.670   5.037   2.183
 5422SOL     OW17164   2.542   4.961   3.619
 5422SOL    HW117165   2.445   4.956   3.596
 5422SOL    HW217166   2.553   5.015   3.702
 5423SOL     OW17167   5.264   6.494   2.410
 5423SOL    HW117168   5.255   6.471   2.313
 5423SOL    HW217169   5.185   6.549   2.439
 5424SOL     OW17170   4.539   3.962   5.370
 5424SOL    HW117171   4.501   4.040   5.420
 5424SOL    HW217172   4.511   3.877   5.414
 5425SOL     OW17173   1.311   3.932   5.823
 5425SOL    HW117174   1.314   3.946   5.922
 5425SOL    HW217175   1.222   3.896   5.797
 5426SOL     OW17176   6.505   5.663   1.535
 5426SOL    HW117177   6.500   5.763   1.540
 5426SOL    HW217178   6.459   5.632   1.452
 5427SOL     OW17179   4.104   2.803   6.381
 5427SOL    HW117180   4.198   2.830   6.404
 5427SOL    HW217181   4.074   2.853   6.300
 5428SOL     OW17182   5.663   5.650   2.404
 5428SOL    HW117183   5.687   5.563   2.447
 5428SOL    HW217184   5.716   5.724   2.447
 5429SOL     OW17185   3.450   0.308   5.171
 5429SOL    HW117186   3.455   0.321   5.072
 5429SOL    HW217187   3.360   0.335   5.204
 5430SOL     OW17188   2.967   3.882   5.187
 5430SOL    HW117189   2.961   3.920   5.095
 5430SOL    HW217190   2.877   3.887   5.231
 5431SOL     OW17191   3.832   4.394   0.535
 5431SOL    HW117192   3.787   4.473   0.494
 5431SOL    HW217193   3.842   4.322   0.466
 5432SOL     OW17194   0.253   5.479   6.748
 5432SOL    HW117195   0.195   5.486   6.829
 5432SOL    HW217196   0.307   5.563   6.738
 5433SOL     OW17197   2.547   0.663   1.472
 5433SOL    HW117198   2.607   0.587   1.447
 5433SOL    HW217199   2.480   0.631   1.539
 5434SOL     OW17200   5.250   0.873   5.175
 5434SOL    HW117201   5.189   0.809   5.220
 5434SOL    HW217202   5.205   0.913   5.095
 5435SOL     OW17203   6.411   4.809   0.911
 5435SOL    HW117204   6.451   4.828   1.001
 5435SOL    HW217205   6.451   4.872   0.844
 5436SOL     OW17206   0.921   3.901   3.048
 5436SOL    HW117207   0.914   3.955   3.131
 5436SOL    HW217208   0.898   3.958   2.969
 5437SOL     OW17209   3.752   5.616   1.438
 5437SOL    HW117210   3.715   5.667   1.360
 5437SOL    HW217211   3.804   5.679   1.497
 5438SOL     OW17212   4.953   5.731   2.677
 5438SOL    HW117213   4.922   5.813   2.724
 5438SOL    HW217214   5.015   5.679   2.736
 5439SOL     OW17215   1.039   4.242   1.756
 5439SOL    HW117216   1.052   4.146   1.731
 5439SOL    HW217217   1.128   4.286   1.767
 5440SOL     OW17218   6.176   7.005   3.734
 5440SOL    HW117219   6.252   6.946   3.761
 5440SOL    HW217220   6.150   0.046   3.811
 5441SOL     OW17221   5.784   2.931   3.910
 5441SOL    HW117222   5.820   2.980   3.830
 5441SOL    HW217223   5.826   2.840   3.915
 5442SOL     OW17224   3.508   6.777   6.233
 5442SOL    HW117225   3.412   6.768   6.207
 5442SOL    HW217226   3.552   6.687   6.226
 5443SOL     OW17227   4.487   1.029   3.464
 5443SOL    HW117228   4.555   0.959   3.484
 5443SOL    HW217229   4.467   1.029   3.365
 5444SOL     OW17230   5.978   1.529   5.070
 5444SOL    HW117231   5.986   1.461   4.997
 5444SOL    HW217232   6.009   1.489   5.156
 5445SOL     OW17233   5.919   5.956   5.070
 5445SOL    HW117234   5.844   5.894   5.046
 5445SOL    HW217235   6.006   5.910   5.051
 5446SOL     OW17236   6.962   4.620   6.077
 5446SOL    HW117237   0.005   4.664   6.143
 5446SOL    HW217238   7.014   4.594   5.996
 5447SOL     OW17239   0.390   2.165   1.158
 5447SOL    HW117240   0.457   2.169   1.232
 5447SOL    HW217241   0.302   2.198   1.191
 5448SOL     OW17242   4.734   4.889   3.116
 5448SOL    HW117243   4.739   4.985   3.143
 5448SOL    HW217244   4.676   4.879   3.036
 5449SOL     OW17245   2.948   0.912   1.844
 5449SOL    HW117246   3.012   0.913   1.767
 5449SOL    HW217247   2.856   0.897   1.810
 5450SOL     OW17248   4.511   5.445   1.629
 5450SOL    HW117249   4.424   5.412   1.593
 5450SOL    HW217250   4.580   5.374   1.620
 5451SOL     OW17251   6.590   0.047   2.819
 5451SOL    HW117252   6.641   6.979   2.817
 5451SOL    HW217253   6.534   0.052   2.901
 5452SOL     OW17254   2.179   4.464   2.085
 5452SOL    HW117255   2.101   4.505   2.038
 5452SOL    HW217256   2.150   4.380   2.132
 5453SOL     OW17257   5.955   4.110   3.244
 5453SOL    HW117258   5.891   4.049   3.197
 5453SOL    HW217259   5.910   4.150   3.324
 5454SOL     OW17260   6.136   4.529   2.588
 5454SOL    HW117261   6.156   4.583   2.669
 5454SOL    HW217262   6.091   4.587   2.520
 5455SOL     OW17263   2.141   1.713   3.916
 5455SOL    HW117264   2.228   1.731   3.872
 5455SOL    HW217265   2.152   1.639   3.983
 5456SOL     OW17266   5.331   2.078   1.027
 5456SOL    HW117267   5.347   2.054   1.123
 5456SOL    HW217268   5.390   2.154   1.001
 5457SOL     OW17269   5.824   1.271   6.804
 5457SOL    HW117270   5.752   1.281   6.735
 5457SOL    HW217271   5.784   1.252   6.893
 5458SOL     OW17272   6.083   3.043   0.481
 5458SOL    HW117273   5.986   3.025   0.466
 5458SOL    HW217274   6.123   2.968   0.533
 5459SOL     OW17275   1.734   3.117   5.541
 5459SOL    HW117276   1.834   3.117   5.544
 5459SOL    HW217277   1.697   3.120   5.634
 5460SOL     OW17278   1.311   1.176   1.436
 5460SOL    HW117279   1.290   1.078   1.438
 5460SOL    HW217280   1.272   1.221   1.517
 5461SOL     OW17281   6.149   0.944   5.307
 5461SOL    HW117282   6.067   0.934   5.363
 5461SOL    HW217283   6.125   0.929   5.211
 5462SOL     OW17284   4.732   3.904   6.396
 5462SOL    HW117285   4.786   3.844   6.337
 5462SOL    HW217286   4.688   3.975   6.341
 5463SOL     OW17287   0.785   2.810   6.509
 5463SOL    HW117288   0.750   2.738   6.570
 5463SOL    HW217289   0.738   2.805   6.421
 5464SOL     OW17290   1.036   5.769   5.640
 5464SOL    HW117291   1.125   5.813   5.627
 5464SOL    HW217292   1.017   5.761   5.738
 5465SOL     OW17293   0.055   6.666   4.326
 5465SOL    HW117294   6.998   6.721   4.288
 5465SOL    HW217295   0.027   6.570   4.330
 5466SOL     OW17296   6.005   2.935   5.153
 5466SOL    HW117297   6.105   2.933   5.144
 5466SOL    HW217298   5.968   2.847   5.126
 5467SOL     OW17299   4.767   2.946   4.458
 5467SOL    HW117300   4.797   2.914   4.548
 5467SOL    HW217301   4.749   2.867   4.399
 5468SOL     OW17302   6.989   1.163   1.164
 5468SOL    HW117303   0.023   1.213   1.094
 5468SOL    HW217304   6.895   1.152   1.133
 5469SOL     OW17305   3.017   6.792   4.936
 5469SOL    HW117306   3.110   6.801   4.902
 5469SOL    HW217307   2.972   6.715   4.890
 5470SOL     OW17308   3.516   5.180   3.376
 5470SOL    HW117309   3.494   5.192   3.473
 5470SOL    HW217310   3.464   5.102   3.340
 5471SOL     OW17311   4.400   0.475   3.573
 5471SOL    HW117312   4.329   0.543   3.560
 5471SOL    HW217313   4.416   0.461   3.671
 5472SOL     OW17314   2.380   2.521   6.741
 5472SOL    HW117315   2.377   2.475   6.829
 5472SOL    HW217316   2.474   2.523   6.707
 5473SOL     OW17317   2.780   4.361   1.620
 5473SOL    HW117318   2.837   4.390   1.697
 5473SOL    HW217319   2.839   4.341   1.541
 5474SOL     OW17320   0.726   4.898   2.825
 5474SOL    HW117321   0.787   4.823   2.799
 5474SOL    HW217322   0.774   4.985   2.813
 5475SOL     OW17323   0.265   1.610   5.300
 5475SOL    HW117324   0.335   1.567   5.357
 5475SOL    HW217325   0.252   1.557   5.217
 5476SOL     OW17326   2.490   6.919   5.272
 5476SOL    HW117327   2.586   6.896   5.286
 5476SOL    HW217328   2.447   6.849   5.215
 5477SOL     OW17329   1.383   4.291   4.315
 5477SOL    HW117330   1.318   4.358   4.281
 5477SOL    HW217331   1.344   4.199   4.309
 5478SOL     OW17332   5.486   4.574   5.703
 5478SOL    HW117333   5.585   4.558   5.706
 5478SOL    HW217334   5.464   4.629   5.622
 5479SOL     OW17335   4.538   1.458   5.009
 5479SOL    HW117336   4.489   1.371   5.013
 5479SOL    HW217337   4.530   1.497   4.918
 5480SOL     OW17338   0.062   3.749   3.878
 5480SOL    HW117339   0.161   3.738   3.864
 5480SOL    HW217340   0.046   3.821   3.946
 5481SOL     OW17341   4.362   0.969   6.657
 5481SOL    HW117342   4.389   1.065   6.669
 5481SOL    HW217343   4.391   0.938   6.566
 5482SOL     OW17344   4.682   2.443   1.807
 5482SOL    HW117345   4.658   2.431   1.710
 5482SOL    HW217346   4.701   2.354   1.847
 5483SOL     OW17347   6.941   2.934   5.926
 5483SOL    HW117348   6.956   3.031   5.909
 5483SOL    HW217349   7.017   2.898   5.981
 5484SOL     OW17350   6.144   6.830   4.232
 5484SOL    HW117351   6.203   6.898   4.188
 5484SOL    HW217352   6.189   6.740   4.230
 5485SOL     OW17353   3.109   6.932   5.149
 5485SOL    HW117354   3.063   6.930   5.237
 5485SOL    HW217355   3.079   6.854   5.094
 5486SOL     OW17356   0.331   0.580   3.136
 5486SOL    HW117357   0.401   0.646   3.110
 5486SOL    HW217358   0.279   0.552   3.055
 5487SOL     OW17359   4.903   5.297   0.760
 5487SOL    HW117360   4.866   5.390   0.767
 5487SOL    HW217361   4.924   5.264   0.852
 5488SOL     OW17362   5.626   1.244   6.643
 5488SOL    HW117363   5.659   1.187   6.567
 5488SOL    HW217364   5.526   1.245   6.644
 5489SOL     OW17365   1.221   3.782   2.819
 5489SOL    HW117366   1.158   3.816   2.749
 5489SOL    HW217367   1.313   3.816   2.801
 5490SOL     OW17368   1.919   1.581   0.231
 5490SOL    HW117369   1.956   1.667   0.265
 5490SOL    HW217370   1.986   1.539   0.169
 5491SOL     OW17371   0.927   4.804   0.973
 5491SOL    HW117372   0.829   4.784   0.971
 5491SOL    HW217373   0.942   4.895   1.012
 5492SOL     OW17374   0.986   1.448   6.113
 5492SOL    HW117375   1.051   1.488   6.048
 5492SOL    HW217376   0.955   1.518   6.177
 5493SOL     OW17377   3.273   3.254   0.056
 5493SOL    HW117378   3.308   3.180   0.114
 5493SOL    HW217379   3.173   3.248   0.051
 5494SOL     OW17380   5.876   3.259   1.976
 5494SOL    HW117381   5.972   3.250   1.949
 5494SOL    HW217382   5.842   3.172   2.010
 5495SOL     OW17383   3.426   3.302   2.320
 5495SOL    HW117384   3.520   3.270   2.330
 5495SOL    HW217385   3.365   3.241   2.372
 5496SOL     OW17386   4.080   6.032   1.513
 5496SOL    HW117387   4.089   6.114   1.456
 5496SOL    HW217388   4.066   6.060   1.608
 5497SOL     OW17389   6.738   6.992   1.787
 5497SOL    HW117390   6.780   0.054   1.831
 5497SOL    HW217391   6.780   6.977   1.698
 5498SOL     OW17392   3.987   1.150   5.548
 5498SOL    HW117393   4.042   1.146   5.464
 5498SOL    HW217394   3.934   1.235   5.549
 5499SOL     OW17395   6.546   1.306   3.236
 5499SOL    HW117396   6.553   1.269   3.143
 5499SOL    HW217397   6.614   1.377   3.249
 5500SOL     OW17398   2.187   5.713   1.975
 5500SOL    HW117399   2.187   5.779   1.899
 5500SOL    HW217400   2.159   5.623   1.940
 5501SOL     OW17401   2.999   6.536   2.522
 5501SOL    HW117402   3.018   6.519   2.425
 5501SOL    HW217403   2.909   6.578   2.532
 5502SOL     OW17404   5.059   3.910   6.000
 5502SOL    HW117405   5.063   3.851   5.919
 5502SOL    HW217406   5.013   3.862   6.074
 5503SOL     OW17407   1.302   5.344   3.583
 5503SOL    HW117408   1.336   5.254   3.558
 5503SOL    HW217409   1.268   5.342   3.677
 5504SOL     OW17410   3.288   2.063   5.107
 5504SOL    HW117411   3.241   2.151   5.102
 5504SOL    HW217412   3.382   2.072   5.074
 5505SOL     OW17413   2.577   5.343   5.604
 5505SOL    HW117414   2.648   5.370   5.668
 5505SOL    HW217415   2.619   5.309   5.520
 5506SOL     OW17416   6.272   0.273   5.675
 5506SOL    HW117417   6.176   0.261   5.650
 5506SOL    HW217418   6.331   0.256   5.596
 5507SOL     OW17419   2.191   6.214   4.015
 5507SOL    HW117420   2.103   6.166   4.007
 5507SOL    HW217421   2.258   6.153   4.057
 5508SOL     OW17422   2.975   1.026   6.697
 5508SOL    HW117423   3.047   1.088   6.666
 5508SOL    HW217424   3.009   0.932   6.695
 5509SOL     OW17425   5.710   6.476   6.720
 5509SOL    HW117426   5.694   6.564   6.765
 5509SOL    HW217427   5.809   6.460   6.712
 5510SOL     OW17428   5.154   0.909   5.947
 5510SOL    HW117429   5.112   0.837   6.002
 5510SOL    HW217430   5.103   0.919   5.861
 5511SOL     OW17431   0.300   0.952   2.419
 5511SOL    HW117432   0.303   1.051   2.434
 5511SOL    HW217433   0.288   0.933   2.322
 5512SOL     OW17434   1.270   0.257   0.500
 5512SOL    HW117435   1.202   0.188   0.478
 5512SOL    HW217436   1.355   0.213   0.527
 5513SOL     OW17437   4.418   4.634   4.531
 5513SOL    HW117438   4.504   4.614   4.484
 5513SOL    HW217439   4.422   4.600   4.624
 5514SOL     OW17440   5.822   4.798   2.595
 5514SOL    HW117441   5.732   4.802   2.551
 5514SOL    HW217442   5.818   4.738   2.675
 5515SOL     OW17443   6.784   3.091   1.364
 5515SOL    HW117444   6.827   3.004   1.339
 5515SOL    HW217445   6.685   3.084   1.350
 5516SOL     OW17446   1.247   3.578   6.319
 5516SOL    HW117447   1.274   3.601   6.225
 5516SOL    HW217448   1.293   3.639   6.383
 5517SOL     OW17449   2.659   1.877   2.031
 5517SOL    HW117450   2.679   1.961   1.981
 5517SOL    HW217451   2.609   1.898   2.114
 5518SOL     OW17452   6.078   4.723   5.135
 5518SOL    HW117453   6.054   4.639   5.087
 5518SOL    HW217454   6.162   4.761   5.096
 5519SOL     OW17455   5.342   4.073   4.202
 5519SOL    HW117456   5.250   4.108   4.217
 5519SOL    HW217457   5.386   4.054   4.290
 5520SOL     OW17458   1.758   3.973   1.771
 5520SOL    HW117459   1.797   4.032   1.699
 5520SOL    HW217460   1.832   3.943   1.832
 5521SOL     OW17461   5.860   5.527   1.483
 5521SOL    HW117462   5.941   5.484   1.523
 5521SOL    HW217463   5.847   5.617   1.523
 5522SOL     OW17464   2.243   3.590   1.664
 5522SOL    HW117465   2.245   3.520   1.736
 5522SOL    HW217466   2.289   3.555   1.582
 5523SOL     OW17467   3.093   0.235   2.563
 5523SOL    HW117468   3.094   0.225   2.662
 5523SOL    HW217469   3.156   0.307   2.535
 5524SOL     OW17470   0.132   5.290   6.594
 5524SOL    HW117471   0.064   5.241   6.648
 5524SOL    HW217472   0.176   5.359   6.650
 5525SOL     OW17473   6.538   5.508   5.212
 5525SOL    HW117474   6.474   5.532   5.138
 5525SOL    HW217475   6.626   5.552   5.195
 5526SOL     OW17476   6.207   3.111   4.415
 5526SOL    HW117477   6.180   3.141   4.507
 5526SOL    HW217478   6.138   3.048   4.380
 5527SOL     OW17479   1.830   3.754   1.473
 5527SOL    HW117480   1.820   3.828   1.407
 5527SOL    HW217481   1.761   3.762   1.545
 5528SOL     OW17482   0.904   3.591   3.759
 5528SOL    HW117483   0.953   3.511   3.795
 5528SOL    HW217484   0.930   3.606   3.664
 5529SOL     OW17485   2.439   1.368   5.012
 5529SOL    HW117486   2.449   1.268   5.006
 5529SOL    HW217487   2.528   1.411   5.006
 5530SOL     OW17488   0.973   2.734   0.820
 5530SOL    HW117489   0.894   2.749   0.880
 5530SOL    HW217490   1.052   2.706   0.875
 5531SOL     OW17491   3.667   3.022   5.824
 5531SOL    HW117492   3.614   3.082   5.764
 5531SOL    HW217493   3.625   2.931   5.826
 5532SOL     OW17494   2.491   1.782   1.226
 5532SOL    HW117495   2.481   1.879   1.249
 5532SOL    HW217496   2.521   1.732   1.307
 5533SOL     OW17497   3.807   1.083   1.270
 5533SOL    HW117498   3.832   1.150   1.200
 5533SOL    HW217499   3.889   1.050   1.315
 5534SOL     OW17500   0.012   4.171   6.694
 5534SOL    HW117501   6.990   4.080   6.680
 5534SOL    HW217502   0.064   4.172   6.779
 5535SOL     OW17503   6.169   3.579   2.674
 5535SOL    HW117504   6.143   3.674   2.658
 5535SOL    HW217505   6.258   3.576   2.720
 5536SOL     OW17506   2.445   0.431   3.871
 5536SOL    HW117507   2.523   0.458   3.815
 5536SOL    HW217508   2.474   0.360   3.936
 5537SOL     OW17509   4.158   0.411   5.301
 5537SOL    HW117510   4.227   0.480   5.324
 5537SOL    HW217511   4.196   0.347   5.233
 5538SOL     OW17512   4.523   1.727   6.760
 5538SOL    HW117513   4.426   1.753   6.761
 5538SOL    HW217514   4.578   1.804   6.728
 5539SOL     OW17515   2.897   6.711   0.743
 5539SOL    HW117516   2.913   6.740   0.837
 5539SOL    HW217517   2.982   6.719   0.690
 5540SOL     OW17518   5.273   1.086   6.866
 5540SOL    HW117519   5.220   1.016   6.914
 5540SOL    HW217520   5.235   1.177   6.885
 5541SOL     OW17521   4.563   3.739   6.592
 5541SOL    HW117522   4.621   3.786   6.526
 5541SOL    HW217523   4.557   3.642   6.567
 5542SOL     OW17524   5.020   4.691   6.451
 5542SOL    HW117525   5.099   4.649   6.407
 5542SOL    HW217526   4.940   4.682   6.392
 5543SOL     OW17527   1.634   0.555   0.973
 5543SOL    HW117528   1.618   0.522   1.066
 5543SOL    HW217529   1.549   0.551   0.921
 5544SOL     OW17530   4.258   5.571   5.960
 5544SOL    HW117531   4.221   5.662   5.981
 5544SOL    HW217532   4.183   5.504   5.960
 5545SOL     OW17533   4.362   0.418   3.199
 5545SOL    HW117534   4.392   0.441   3.107
 5545SOL    HW217535   4.362   0.319   3.211
 5546SOL     OW17536   6.884   6.148   5.662
 5546SOL    HW117537   6.951   6.223   5.668
 5546SOL    HW217538   6.931   6.061   5.678
 5547SOL     OW17539   5.641   2.306   4.949
 5547SOL    HW117540   5.669   2.234   5.012
 5547SOL    HW217541   5.624   2.267   4.858
 5548SOL     OW17542   6.990   4.143   4.956
 5548SOL    HW117543   0.032   4.221   4.939
 5548SOL    HW217544   0.026   4.058   4.954
 5549SOL     OW17545   3.774   3.393   1.431
 5549SOL    HW117546   3.712   3.328   1.474
 5549SOL    HW217547   3.751   3.403   1.335
 5550SOL     OW17548   1.346   3.920   3.276
 5550SOL    HW117549   1.336   3.944   3.372
 5550SOL    HW217550   1.306   3.829   3.260
 5551SOL     OW17551   2.246   4.923   3.704
 5551SOL    HW117552   2.211   4.940   3.796
 5551SOL    HW217553   2.171   4.925   3.638
 5552SOL     OW17554   0.082   6.893   6.243
 5552SOL    HW117555   0.067   6.842   6.328
 5552SOL    HW217556   0.148   6.966   6.260
 5553SOL     OW17557   4.716   0.496   6.696
 5553SOL    HW117558   4.782   0.448   6.638
 5553SOL    HW217559   4.763   0.528   6.779
 5554SOL     OW17560   5.589   3.080   1.578
 5554SOL    HW117561   5.521   3.049   1.645
 5554SOL    HW217562   5.617   3.003   1.521
 5555SOL     OW17563   1.479   4.260   2.456
 5555SOL    HW117564   1.393   4.283   2.411
 5555SOL    HW217565   1.463   4.239   2.552
 5556SOL     OW17566   6.860   0.988   4.840
 5556SOL    HW117567   6.765   1.014   4.856
 5556SOL    HW217568   6.891   1.023   4.752
 5557SOL     OW17569   3.396   5.385   2.296
 5557SOL    HW117570   3.473   5.446   2.276
 5557SOL    HW217571   3.313   5.423   2.256
 5558SOL     OW17572   3.180   4.460   0.392
 5558SOL    HW117573   3.271   4.475   0.430
 5558SOL    HW217574   3.116   4.526   0.430
 5559SOL     OW17575   1.748   6.568   2.634
 5559SOL    HW117576   1.822   6.518   2.680
 5559SOL    HW217577   1.677   6.503   2.606
 5560SOL     OW17578   0.599   5.858   2.925
 5560SOL    HW117579   0.600   5.930   2.994
 5560SOL    HW217580   0.560   5.894   2.840
 5561SOL     OW17581   3.447   1.283   3.792
 5561SOL    HW117582   3.428   1.327   3.704
 5561SOL    HW217583   3.363   1.240   3.825
 5562SOL     OW17584   4.125   4.148   0.710
 5562SOL    HW117585   4.101   4.058   0.673
 5562SOL    HW217586   4.175   4.200   0.641
 5563SOL     OW17587   3.048   4.922   3.007
 5563SOL    HW117588   3.096   4.910   3.094
 5563SOL    HW217589   2.952   4.897   3.018
 5564SOL     OW17590   5.709   0.631   5.460
 5564SOL    HW117591   5.792   0.685   5.446
 5564SOL    HW217592   5.680   0.640   5.555
 5565SOL     OW17593   3.856   3.073   0.321
 5565SOL    HW117594   3.941   3.022   0.332
 5565SOL    HW217595   3.816   3.053   0.231
 5566SOL     OW17596   1.423   3.484   7.014
 5566SOL    HW117597   1.502   3.473   0.056
 5566SOL    HW217598   1.357   3.411   0.014
 5567SOL     OW17599   6.889   3.789   1.461
 5567SOL    HW117600   6.860   3.883   1.480
 5567SOL    HW217601   6.816   3.726   1.485
 5568SOL     OW17602   4.369   6.783   2.578
 5568SOL    HW117603   4.451   6.838   2.566
 5568SOL    HW217604   4.297   6.817   2.517
 5569SOL     OW17605   2.784   2.209   3.887
 5569SOL    HW117606   2.826   2.133   3.936
 5569SOL    HW217607   2.698   2.235   3.932
 5570SOL     OW17608   6.911   3.513   3.406
 5570SOL    HW117609   6.952   3.599   3.377
 5570SOL    HW217610   6.816   3.528   3.432
 5571SOL     OW17611   0.335   5.508   2.023
 5571SOL    HW117612   0.326   5.598   1.980
 5571SOL    HW217613   0.422   5.504   2.073
 5572SOL     OW17614   0.744   3.370   4.889
 5572SOL    HW117615   0.664   3.428   4.874
 5572SOL    HW217616   0.714   3.280   4.920
 5573SOL     OW17617   1.651   4.867   4.894
 5573SOL    HW117618   1.729   4.805   4.895
 5573SOL    HW217619   1.678   4.954   4.852
 5574SOL     OW17620   0.034   2.787   6.145
 5574SOL    HW117621   0.095   2.802   6.224
 5574SOL    HW217622   0.027   2.689   6.126
 5575SOL     OW17623   0.817   0.678   1.500
 5575SOL    HW117624   0.819   0.778   1.492
 5575SOL    HW217625   0.725   0.646   1.480
 5576SOL     OW17626   2.320   4.277   3.247
 5576SOL    HW117627   2.318   4.208   3.174
 5576SOL    HW217628   2.398   4.338   3.234
 5577SOL     OW17629   1.439   3.346   6.403
 5577SOL    HW117630   1.386   3.427   6.378
 5577SOL    HW217631   1.536   3.369   6.406
 5578SOL     OW17632   3.023   3.147   3.116
 5578SOL    HW117633   2.956   3.130   3.043
 5578SOL    HW217634   2.989   3.219   3.176
 5579SOL     OW17635   0.137   3.041   1.467
 5579SOL    HW117636   0.224   3.090   1.477
 5579SOL    HW217637   0.155   2.946   1.442
 5580SOL     OW17638   4.498   1.529   6.120
 5580SOL    HW117639   4.523   1.460   6.051
 5580SOL    HW217640   4.406   1.511   6.154
 5581SOL     OW17641   0.682   1.686   1.304
 5581SOL    HW117642   0.682   1.638   1.216
 5581SOL    HW217643   0.629   1.771   1.296
 5582SOL     OW17644   2.109   3.289   6.484
 5582SOL    HW117645   2.155   3.201   6.495
 5582SOL    HW217646   2.131   3.348   6.561
 5583SOL     OW17647   5.048   0.949   2.571
 5583SOL    HW117648   5.002   0.941   2.483
 5583SOL    HW217649   4.986   0.993   2.637
 5584SOL     OW17650   6.851   4.206   4.630
 5584SOL    HW117651   6.943   4.229   4.599
 5584SOL    HW217652   6.809   4.287   4.671
 5585SOL     OW17653   4.679   5.140   2.412
 5585SOL    HW117654   4.740   5.216   2.437
 5585SOL    HW217655   4.728   5.054   2.423
 5586SOL     OW17656   6.878   3.495   6.199
 5586SOL    HW117657   6.868   3.399   6.228
 5586SOL    HW217658   6.857   3.555   6.276
 5587SOL     OW17659   4.648   1.079   6.727
 5587SOL    HW117660   4.611   1.137   6.799
 5587SOL    HW217661   4.738   1.045   6.755
 5588SOL     OW17662   2.914   6.386   2.028
 5588SOL    HW117663   2.909   6.291   2.058
 5588SOL    HW217664   2.825   6.429   2.037
 5589SOL     OW17665   5.914   4.281   6.331
 5589SOL    HW117666   5.843   4.351   6.338
 5589SOL    HW217667   5.887   4.200   6.384
 5590SOL     OW17668   5.389   5.941   4.187
 5590SOL    HW117669   5.322   5.872   4.213
 5590SOL    HW217670   5.458   5.900   4.127
 5591SOL     OW17671   6.870   1.707   2.113
 5591SOL    HW117672   6.956   1.706   2.062
 5591SOL    HW217673   6.804   1.765   2.067
 5592SOL     OW17674   1.311   4.421   3.040
 5592SOL    HW117675   1.274   4.347   3.097
 5592SOL    HW217676   1.390   4.387   2.989
 5593SOL     OW17677   6.628   2.406   6.757
 5593SOL    HW117678   6.710   2.462   6.752
 5593SOL    HW217679   6.642   2.332   6.823
 5594SOL     OW17680   5.515   1.588   5.494
 5594SOL    HW117681   5.474   1.679   5.503
 5594SOL    HW217682   5.557   1.579   5.403
 5595SOL     OW17683   1.018   2.330   5.283
 5595SOL    HW117684   1.087   2.324   5.211
 5595SOL    HW217685   0.959   2.250   5.280
 5596SOL     OW17686   3.956   6.564   2.857
 5596SOL    HW117687   3.917   6.516   2.778
 5596SOL    HW217688   3.883   6.585   2.922
 5597SOL     OW17689   5.110   2.592   3.604
 5597SOL    HW117690   5.071   2.683   3.620
 5597SOL    HW217691   5.210   2.597   3.607
 5598SOL     OW17692   4.728   2.699   4.284
 5598SOL    HW117693   4.645   2.654   4.252
 5598SOL    HW217694   4.794   2.705   4.209
 5599SOL     OW17695   1.160   0.963   4.621
 5599SOL    HW117696   1.095   0.941   4.548
 5599SOL    HW217697   1.218   0.884   4.638
 5600SOL     OW17698   1.072   2.443   4.035
 5600SOL    HW117699   0.979   2.442   3.998
 5600SOL    HW217700   1.138   2.449   3.960
 5601SOL     OW17701   2.560   0.748   6.073
 5601SOL    HW117702   2.629   0.805   6.029
 5601SOL    HW217703   2.503   0.704   6.004
 5602SOL     OW17704   0.433   1.504   1.059
 5602SOL    HW117705   0.407   1.594   1.091
 5602SOL    HW217706   0.532   1.501   1.042
 5603SOL     OW17707   5.185   1.688   0.040
 5603SOL    HW117708   5.173   1.780   0.002
 5603SOL    HW217709   5.180   1.620   6.984
 5604SOL     OW17710   6.173   2.270   5.902
 5604SOL    HW117711   6.265   2.308   5.905
 5604SOL    HW217712   6.116   2.315   5.971
 5605SOL     OW17713   0.752   1.437   4.703
 5605SOL    HW117714   0.663   1.414   4.664
 5605SOL    HW217715   0.771   1.376   4.780
 5606SOL     OW17716   5.427   6.392   1.135
 5606SOL    HW117717   5.388   6.301   1.146
 5606SOL    HW217718   5.355   6.461   1.142
 5607SOL     OW17719   5.115   1.557   1.765
 5607SOL    HW117720   5.053   1.493   1.811
 5607SOL    HW217721   5.069   1.599   1.688
 5608SOL     OW17722   4.647   0.346   4.681
 5608SOL    HW117723   4.632   0.394   4.768
 5608SOL    HW217724   4.564   0.352   4.625
 5609SOL     OW17725   2.208   5.913   6.975
 5609SOL    HW117726   2.298   5.921   6.932
 5609SOL    HW217727   2.185   5.817   6.989
 5610SOL     OW17728   5.390   0.548   0.405
 5610SOL    HW117729   5.454   0.500   0.344
 5610SOL    HW217730   5.372   0.639   0.368
 5611SOL     OW17731   1.806   4.819   2.842
 5611SOL    HW117732   1.821   4.725   2.810
 5611SOL    HW217733   1.808   4.882   2.765
 5612SOL     OW17734   3.508   1.453   5.932
 5612SOL    HW117735   3.461   1.535   5.963
 5612SOL    HW217736   3.520   1.456   5.832
 5613SOL     OW17737   4.959   4.425   2.609
 5613SOL    HW117738   4.977   4.519   2.580
 5613SOL    HW217739   4.878   4.390   2.562
 5614SOL     OW17740   4.522   2.553   3.541
 5614SOL    HW117741   4.431   2.590   3.559
 5614SOL    HW217742   4.542   2.480   3.606
 5615SOL     OW17743   0.863   0.284   0.074
 5615SOL    HW117744   0.914   0.200   0.094
 5615SOL    HW217745   0.904   0.360   0.125
 5616SOL     OW17746   2.451   0.777   5.171
 5616SOL    HW117747   2.448   0.679   5.150
 5616SOL    HW217748   2.438   0.791   5.269
 5617SOL     OW17749   2.368   0.366   5.927
 5617SOL    HW117750   2.352   0.387   6.023
 5617SOL    HW217751   2.353   0.268   5.912
 5618SOL     OW17752   6.519   4.108   4.259
 5618SOL    HW117753   6.592   4.096   4.326
 5618SOL    HW217754   6.434   4.133   4.306
 5619SOL     OW17755   2.796   4.012   6.087
 5619SOL    HW117756   2.722   4.078   6.099
 5619SOL    HW217757   2.787   3.939   6.155
 5620SOL     OW17758   4.092   2.912   0.276
 5620SOL    HW117759   4.147   2.939   0.197
 5620SOL    HW217760   4.148   2.856   0.337
 5621SOL     OW17761   1.856   1.599   5.886
 5621SOL    HW117762   1.860   1.548   5.800
 5621SOL    HW217763   1.859   1.697   5.868
 5622SOL     OW17764   4.710   6.975   5.973
 5622SOL    HW117765   4.775   6.906   6.006
 5622SOL    HW217766   4.721   6.987   5.875
 5623SOL     OW17767   2.238   6.042   6.108
 5623SOL    HW117768   2.197   6.126   6.145
 5623SOL    HW217769   2.256   5.978   6.183
 5624SOL     OW17770   1.239   4.414   3.560
 5624SOL    HW117771   1.193   4.494   3.600
 5624SOL    HW217772   1.208   4.402   3.466
 5625SOL     OW17773   6.241   2.888   4.572
 5625SOL    HW117774   6.154   2.840   4.561
 5625SOL    HW217775   6.254   2.952   4.497
 5626SOL     OW17776   3.278   6.743   4.832
 5626SOL    HW117777   3.334   6.791   4.900
 5626SOL    HW217778   3.315   6.651   4.817
 5627SOL     OW17779   1.778   5.743   1.580
 5627SOL    HW117780   1.868   5.782   1.564
 5627SOL    HW217781   1.774   5.703   1.672
 5628SOL     OW17782   1.717   1.865   6.104
 5628SOL    HW117783   1.807   1.903   6.080
 5628SOL    HW217784   1.718   1.835   6.199
 5629SOL     OW17785   3.314   4.109   2.228
 5629SOL    HW117786   3.289   4.085   2.134
 5629SOL    HW217787   3.403   4.156   2.228
 5630SOL     OW17788   1.135   4.645   0.893
 5630SOL    HW117789   1.122   4.584   0.971
 5630SOL    HW217790   1.065   4.716   0.894
 5631SOL     OW17791   4.232   1.803   0.029
 5631SOL    HW117792   4.303   1.867   7.018
 5631SOL    HW217793   4.171   1.849   0.094
 5632SOL     OW17794   4.307   3.834   6.501
 5632SOL    HW117795   4.399   3.796   6.511
 5632SOL    HW217796   4.260   3.831   6.590
 5633SOL     OW17797   6.935   2.539   3.825
 5633SOL    HW117798   6.951   2.552   3.923
 5633SOL    HW217799   6.969   2.449   3.797
 5634SOL     OW17800   3.546   5.018   4.700
 5634SOL    HW117801   3.559   4.982   4.608
 5634SOL    HW217802   3.473   5.086   4.700
 5635SOL     OW17803   2.218   2.868   4.857
 5635SOL    HW117804   2.281   2.938   4.889
 5635SOL    HW217805   2.202   2.879   4.759
 5636SOL     OW17806   4.006   5.684   3.112
 5636SOL    HW117807   4.095   5.646   3.136
 5636SOL    HW217808   3.956   5.618   3.056
 5637SOL     OW17809   6.281   0.038   4.152
 5637SOL    HW117810   6.286   0.086   4.064
 5637SOL    HW217811   6.361   0.062   4.207
 5638SOL     OW17812   5.716   2.838   0.962
 5638SOL    HW117813   5.762   2.861   0.876
 5638SOL    HW217814   5.743   2.746   0.991
 5639SOL     OW17815   0.508   1.351   6.670
 5639SOL    HW117816   0.471   1.271   6.623
 5639SOL    HW217817   0.457   1.433   6.642
 5640SOL     OW17818   2.572   0.232   4.017
 5640SOL    HW117819   2.501   0.192   4.076
 5640SOL    HW217820   2.662   0.200   4.047
 5641SOL     OW17821   6.803   5.009   5.843
 5641SOL    HW117822   6.854   4.977   5.763
 5641SOL    HW217823   6.705   5.006   5.823
 5642SOL     OW17824   2.184   0.955   6.975
 5642SOL    HW117825   2.195   0.951   6.876
 5642SOL    HW217826   2.167   0.864   7.012
 5643SOL     OW17827   5.759   3.154   4.614
 5643SOL    HW117828   5.711   3.075   4.577
 5643SOL    HW217829   5.745   3.158   4.713
 5644SOL     OW17830   2.968   6.945   6.093
 5644SOL    HW117831   2.910   6.905   6.164
 5644SOL    HW217832   2.964   0.026   6.099
 5645SOL     OW17833   6.266   3.094   3.427
 5645SOL    HW117834   6.169   3.105   3.406
 5645SOL    HW217835   6.277   3.070   3.524
 5646SOL     OW17836   1.895   4.725   3.190
 5646SOL    HW117837   1.837   4.670   3.250
 5646SOL    HW217838   1.968   4.668   3.152
 5647SOL     OW17839   5.690   5.989   2.331
 5647SOL    HW117840   5.603   6.032   2.354
 5647SOL    HW217841   5.714   5.922   2.402
 5648SOL     OW17842   3.265   6.020   3.098
 5648SOL    HW117843   3.295   6.031   3.003
 5648SOL    HW217844   3.220   5.932   3.110
 5649SOL     OW17845   0.753   5.319   3.930
 5649SOL    HW117846   0.706   5.332   4.017
 5649SOL    HW217847   0.789   5.226   3.925
 5650SOL     OW17848   0.079   4.683   0.512
 5650SOL    HW117849   0.099   4.700   0.416
 5650SOL    HW217850   0.163   4.690   0.566
 5651SOL     OW17851   1.395   0.701   0.559
 5651SOL    HW117852   1.318   0.646   0.590
 5651SOL    HW217853   1.363   0.792   0.533
 5652SOL     OW17854   0.493   4.516   2.077
 5652SOL    HW117855   0.426   4.463   2.025
 5652SOL    HW217856   0.453   4.606   2.099
 5653SOL     OW17857   0.163   6.113   1.497
 5653SOL    HW117858   0.258   6.143   1.490
 5653SOL    HW217859   0.152   6.023   1.456
 5654SOL     OW17860   1.602   6.218   4.572
 5654SOL    HW117861   1.539   6.235   4.647
 5654SOL    HW217862   1.625   6.304   4.527
 5655SOL     OW17863   6.710   3.287   4.129
 5655SOL    HW117864   6.665   3.368   4.166
 5655SOL    HW217865   6.660   3.205   4.157
 5656SOL     OW17866   6.842   3.076   6.477
 5656SOL    HW117867   6.747   3.053   6.496
 5656SOL    HW217868   6.899   3.046   6.554
 5657SOL     OW17869   4.691   4.842   4.601
 5657SOL    HW117870   4.667   4.934   4.633
 5657SOL    HW217871   4.674   4.776   4.675
 5658SOL     OW17872   1.834   2.131   5.746
 5658SOL    HW117873   1.895   2.129   5.825
 5658SOL    HW217874   1.817   2.037   5.714
 5659SOL     OW17875   3.018   3.790   6.042
 5659SOL    HW117876   2.976   3.875   6.012
 5659SOL    HW217877   3.024   3.790   6.142
 5660SOL     OW17878   4.821   0.044   6.763
 5660SOL    HW117879   4.747   0.066   6.827
 5660SOL    HW217880   4.795   6.980   6.711
 5661SOL     OW17881   0.770   5.994   5.883
 5661SOL    HW117882   0.795   5.900   5.906
 5661SOL    HW217883   0.818   6.057   5.944
 5662SOL     OW17884   2.873   6.346   3.188
 5662SOL    HW117885   2.942   6.296   3.136
 5662SOL    HW217886   2.801   6.377   3.126
 5663SOL     OW17887   1.207   2.685   0.962
 5663SOL    HW117888   1.302   2.684   0.931
 5663SOL    HW217889   1.204   2.701   1.061
 5664SOL     OW17890   5.058   4.161   4.223
 5664SOL    HW117891   5.044   4.096   4.298
 5664SOL    HW217892   4.984   4.229   4.224
 5665SOL     OW17893   1.920   0.329   0.833
 5665SOL    HW117894   1.916   0.323   0.933
 5665SOL    HW217895   1.901   0.423   0.804
 5666SOL     OW17896   6.330   1.044   4.674
 5666SOL    HW117897   6.412   1.100   4.662
 5666SOL    HW217898   6.326   0.975   4.602
 5667SOL     OW17899   1.794   5.339   4.851
 5667SOL    HW117900   1.699   5.367   4.841
 5667SOL    HW217901   1.825   5.355   4.945
 5668SOL     OW17902   5.702   2.359   3.556
 5668SOL    HW117903   5.753   2.305   3.488
 5668SOL    HW217904   5.701   2.455   3.529
 5669SOL     OW17905   5.911   3.954   6.713
 5669SOL    HW117906   5.884   3.985   6.804
 5669SOL    HW217907   5.918   3.854   6.713
 5670SOL     OW17908   0.964   2.814   2.637
 5670SOL    HW117909   1.029   2.744   2.608
 5670SOL    HW217910   0.956   2.883   2.565
 5671SOL     OW17911   0.306   6.766   3.886
 5671SOL    HW117912   0.258   6.724   3.963
 5671SOL    HW217913   0.392   6.806   3.918
 5672SOL     OW17914   5.103   4.024   5.216
 5672SOL    HW117915   5.062   3.934   5.204
 5672SOL    HW217916   5.032   4.091   5.241
 5673SOL     OW17917   0.835   0.206   1.361
 5673SOL    HW117918   0.902   0.281   1.364
 5673SOL    HW217919   0.828   0.164   1.452
 5674SOL     OW17920   0.875   5.508   5.200
 5674SOL    HW117921   0.789   5.477   5.239
 5674SOL    HW217922   0.951   5.462   5.247
 5675SOL     OW17923   2.560   1.507   0.041
 5675SOL    HW117924   2.536   1.446   0.117
 5675SOL    HW217925   2.634   1.466   7.006
 5676SOL     OW17926   2.619   2.330   1.974
 5676SOL    HW117927   2.713   2.331   2.010
 5676SOL    HW217928   2.611   2.260   1.904
 5677SOL     OW17929   0.148   0.377   1.445
 5677SOL    HW117930   0.106   0.432   1.517
 5677SOL    HW217931   0.242   0.356   1.470
 5678SOL     OW17932   3.163   2.011   1.377
 5678SOL    HW117933   3.243   1.989   1.433
 5678SOL    HW217934   3.080   1.978   1.423
 5679SOL     OW17935   5.795   3.572   4.812
 5679SOL    HW117936   5.743   3.492   4.839
 5679SOL    HW217937   5.793   3.582   4.712
 5680SOL     OW17938   1.048   5.184   5.709
 5680SOL    HW117939   1.057   5.277   5.673
 5680SOL    HW217940   1.079   5.182   5.804
 5681SOL     OW17941   0.295   4.360   2.798
 5681SOL    HW117942   0.337   4.381   2.886
 5681SOL    HW217943   0.205   4.405   2.793
 5682SOL     OW17944   1.931   4.776   2.343
 5682SOL    HW117945   1.930   4.810   2.436
 5682SOL    HW217946   1.944   4.677   2.343
 5683SOL     OW17947   4.446   2.013   6.669
 5683SOL    HW117948   4.362   1.970   6.634
 5683SOL    HW217949   4.516   2.012   6.597
 5684SOL     OW17950   2.129   2.517   5.752
 5684SOL    HW117951   2.045   2.517   5.807
 5684SOL    HW217952   2.108   2.545   5.658
 5685SOL     OW17953   2.209   2.059   4.097
 5685SOL    HW117954   2.244   2.139   4.050
 5685SOL    HW217955   2.284   1.995   4.114
 5686SOL     OW17956   3.221   6.793   6.142
 5686SOL    HW117957   3.152   6.860   6.171
 5686SOL    HW217958   3.211   6.774   6.045
 5687SOL     OW17959   1.233   6.132   5.562
 5687SOL    HW117960   1.196   6.105   5.473
 5687SOL    HW217961   1.224   6.056   5.626
 5688SOL     OW17962   2.133   3.318   3.211
 5688SOL    HW117963   2.088   3.346   3.296
 5688SOL    HW217964   2.081   3.245   3.168
 5689SOL     OW17965   1.560   1.283   1.479
 5689SOL    HW117966   1.478   1.280   1.423
 5689SOL    HW217967   1.553   1.216   1.553
 5690SOL     OW17968   0.915   5.586   0.123
 5690SOL    HW117969   0.860   5.502   0.122
 5690SOL    HW217970   0.939   5.612   0.030
 5691SOL     OW17971   3.919   1.142   2.446
 5691SOL    HW117972   3.869   1.122   2.362
 5691SOL    HW217973   3.961   1.233   2.439
 5692SOL     OW17974   4.930   5.428   1.447
 5692SOL    HW117975   4.907   5.471   1.534
 5692SOL    HW217976   5.024   5.394   1.451
 5693SOL     OW17977   3.115   0.757   1.093
 5693SOL    HW117978   3.115   0.857   1.095
 5693SOL    HW217979   3.153   0.723   1.180
 5694SOL     OW17980   0.376   0.066   2.221
 5694SOL    HW117981   0.443   0.080   2.148
 5694SOL    HW217982   0.417   0.090   2.309
 5695SOL     OW17983   1.039   0.862   1.277
 5695SOL    HW117984   1.065   0.953   1.242
 5695SOL    HW217985   1.054   0.859   1.375
 5696SOL     OW17986   1.535   7.005   4.257
 5696SOL    HW117987   1.569   6.912   4.257
 5696SOL    HW217988   1.459   7.013   4.322
 5697SOL     OW17989   6.312   3.118   1.058
 5697SOL    HW117990   6.402   3.131   1.017
 5697SOL    HW217991   6.278   3.026   1.038
 5698SOL     OW17992   1.859   2.988   3.610
 5698SOL    HW117993   1.929   2.987   3.682
 5698SOL    HW217994   1.897   2.948   3.526
 5699SOL     OW17995   2.498   2.470   3.306
 5699SOL    HW117996   2.483   2.568   3.316
 5699SOL    HW217997   2.575   2.442   3.362
 5700SOL     OW17998   6.057   0.446   2.448
 5700SOL    HW117999   5.963   0.476   2.458
 5700SOL    HW218000   6.062   0.375   2.377
 5701SOL     OW18001   6.734   1.004   0.363
 5701SOL    HW118002   6.822   0.988   0.318
 5701SOL    HW218003   6.661   0.966   0.307
 5702SOL     OW18004   2.257   0.061   4.653
 5702SOL    HW118005   2.331   0.021   4.599
 5702SOL    HW218006   2.222   0.142   4.606
 5703SOL     OW18007   6.059   2.818   6.440
 5703SOL    HW118008   6.125   2.753   6.478
 5703SOL    HW218009   6.010   2.864   6.514
 5704SOL     OW18010   5.429   4.231   3.493
 5704SOL    HW118011   5.441   4.326   3.463
 5704SOL    HW218012   5.442   4.225   3.592
 5705SOL     OW18013   5.869   6.297   6.123
 5705SOL    HW118014   5.825   6.349   6.197
 5705SOL    HW218015   5.820   6.212   6.108
 5706SOL     OW18016   5.840   2.118   0.465
 5706SOL    HW118017   5.870   2.076   0.379
 5706SOL    HW218018   5.773   2.058   0.509
 5707SOL     OW18019   5.498   6.269   2.110
 5707SOL    HW118020   5.408   6.310   2.098
 5707SOL    HW218021   5.535   6.243   2.021
 5708SOL     OW18022   4.511   5.979   4.044
 5708SOL    HW118023   4.521   6.053   3.977
 5708SOL    HW218024   4.559   6.004   4.128
 5709SOL     OW18025   0.743   1.119   1.962
 5709SOL    HW118026   0.674   1.108   2.034
 5709SOL    HW218027   0.731   1.047   1.893
 5710SOL     OW18028   2.292   2.652   0.986
 5710SOL    HW118029   2.328   2.738   0.949
 5710SOL    HW218030   2.284   2.585   0.913
 5711SOL     OW18031   5.216   1.481   2.110
 5711SOL    HW118032   5.277   1.433   2.173
 5711SOL    HW218033   5.254   1.479   2.018
 5712SOL     OW18034   6.932   6.089   1.659
 5712SOL    HW118035   7.006   6.098   1.592
 5712SOL    HW218036   6.857   6.037   1.619
 5713SOL     OW18037   2.330   5.977   0.405
 5713SOL    HW118038   2.238   5.939   0.402
 5713SOL    HW218039   2.332   6.066   0.361
 5714SOL     OW18040   6.039   6.514   1.980
 5714SOL    HW118041   5.976   6.587   1.953
 5714SOL    HW218042   6.049   6.514   2.079
 5715SOL     OW18043   1.139   7.008   0.671
 5715SOL    HW118044   1.222   6.952   0.673
 5715SOL    HW218045   1.097   7.002   0.581
 5716SOL     OW18046   0.605   4.511   5.954
 5716SOL    HW118047   0.578   4.604   5.927
 5716SOL    HW218048   0.574   4.493   6.047
 5717SOL     OW18049   1.818   5.289   3.173
 5717SOL    HW118050   1.854   5.248   3.257
 5717SOL    HW218051   1.810   5.217   3.103
 5718SOL     OW18052   0.888   3.247   0.432
 5718SOL    HW118053   0.850   3.303   0.505
 5718SOL    HW218054   0.857   3.152   0.443
 5719SOL     OW18055   3.242   3.899   1.430
 5719SOL    HW118056   3.259   3.801   1.432
 5719SOL    HW218057   3.312   3.946   1.485
 5720SOL     OW18058   2.047   5.183   5.835
 5720SOL    HW118059   2.055   5.253   5.907
 5720SOL    HW218060   2.055   5.227   5.746
 5721SOL     OW18061   4.650   4.392   0.274
 5721SOL    HW118062   4.639   4.409   0.372
 5721SOL    HW218063   4.638   4.477   0.224
 5722SOL     OW18064   1.015   0.640   5.706
 5722SOL    HW118065   1.044   0.631   5.801
 5722SOL    HW218066   1.028   0.554   5.658
 5723SOL     OW18067   4.213   3.130   6.791
 5723SOL    HW118068   4.297   3.076   6.778
 5723SOL    HW218069   4.140   3.093   6.734
 5724SOL     OW18070   5.166   2.085   3.951
 5724SOL    HW118071   5.094   2.050   4.011
 5724SOL    HW218072   5.178   2.024   3.873
 5725SOL     OW18073   6.140   4.071   3.769
 5725SOL    HW118074   6.104   4.139   3.706
 5725SOL    HW218075   6.143   3.981   3.723
 5726SOL     OW18076   4.702   4.363   3.128
 5726SOL    HW118077   4.794   4.379   3.164
 5726SOL    HW218078   4.707   4.302   3.049
 5727SOL     OW18079   1.033   2.285   4.245
 5727SOL    HW118080   0.936   2.258   4.241
 5727SOL    HW218081   1.052   2.347   4.168
 5728SOL     OW18082   5.265   6.340   5.094
 5728SOL    HW118083   5.337   6.372   5.032
 5728SOL    HW218084   5.197   6.412   5.106
 5729SOL     OW18085   2.325   1.265   5.767
 5729SOL    HW118086   2.365   1.270   5.675
 5729SOL    HW218087   2.268   1.183   5.774
 5730SOL     OW18088   6.781   4.174   5.937
 5730SOL    HW118089   6.689   4.152   5.906
 5730SOL    HW218090   6.778   4.203   6.033
 5731SOL     OW18091   0.315   6.502   1.855
 5731SOL    HW118092   0.359   6.413   1.867
 5731SOL    HW218093   0.224   6.501   1.896
 5732SOL     OW18094   1.371   6.900   3.903
 5732SOL    HW118095   1.360   6.923   3.806
 5732SOL    HW218096   1.395   6.982   3.955
 5733SOL     OW18097   3.217   0.121   4.826
 5733SOL    HW118098   3.217   0.102   4.925
 5733SOL    HW218099   3.167   0.050   4.778
 5734SOL     OW18100   1.659   5.471   3.465
 5734SOL    HW118101   1.737   5.501   3.411
 5734SOL    HW218102   1.584   5.536   3.454
 5735SOL     OW18103   3.257   1.347   1.786
 5735SOL    HW118104   3.302   1.267   1.825
 5735SOL    HW218105   3.310   1.379   1.707
 5736SOL     OW18106   0.875   5.559   6.627
 5736SOL    HW118107   0.813   5.490   6.588
 5736SOL    HW218108   0.831   5.649   6.623
 5737SOL     OW18109   4.784   4.585   0.075
 5737SOL    HW118110   4.810   4.657   0.139
 5737SOL    HW218111   4.756   4.625   7.006
 5738SOL     OW18112   1.101   3.707   6.076
 5738SOL    HW118113   1.195   3.735   6.058
 5738SOL    HW218114   1.086   3.615   6.038
 5739SOL     OW18115   0.944   1.258   0.901
 5739SOL    HW118116   0.910   1.311   0.823
 5739SOL    HW218117   1.034   1.293   0.927
 5740SOL     OW18118   3.888   5.808   6.330
 5740SOL    HW118119   3.908   5.845   6.421
 5740SOL    HW218120   3.816   5.739   6.337
 5741SOL     OW18121   0.433   5.376   4.481
 5741SOL    HW118122   0.465   5.285   4.508
 5741SOL    HW218123   0.456   5.442   4.553
 5742SOL     OW18124   6.606   6.657   3.644
 5742SOL    HW118125   6.637   6.712   3.721
 5742SOL    HW218126   6.676   6.588   3.622
 5743SOL     OW18127   1.851   6.888   5.013
 5743SOL    HW118128   1.947   6.905   5.038
 5743SOL    HW218129   1.797   6.877   5.097
 5744SOL     OW18130   6.308   0.306   1.596
 5744SOL    HW118131   6.243   0.374   1.562
 5744SOL    HW218132   6.346   0.336   1.683
 5745SOL     OW18133   1.953   1.919   4.033
 5745SOL    HW118134   2.017   1.988   4.067
 5745SOL    HW218135   2.004   1.845   3.990
 5746SOL     OW18136   5.307   1.984   0.065
 5746SOL    HW118137   5.243   2.018   7.014
 5746SOL    HW218138   5.387   1.945   0.020
 5747SOL     OW18139   0.426   5.786   3.206
 5747SOL    HW118140   0.477   5.847   3.267
 5747SOL    HW218141   0.460   5.797   3.112
 5748SOL     OW18142   2.966   6.109   2.743
 5748SOL    HW118143   2.954   6.187   2.805
 5748SOL    HW218144   2.908   6.033   2.771
 5749SOL     OW18145   2.375   2.196   3.277
 5749SOL    HW118146   2.390   2.279   3.224
 5749SOL    HW218147   2.406   2.211   3.371
 5750SOL     OW18148   6.919   5.919   2.742
 5750SOL    HW118149   6.970   5.984   2.685
 5750SOL    HW218150   6.821   5.939   2.736
 5751SOL     OW18151   2.458   3.483   5.415
 5751SOL    HW118152   2.456   3.509   5.511
 5751SOL    HW218153   2.430   3.560   5.358
 5752SOL     OW18154   6.916   7.010   6.765
 5752SOL    HW118155   6.926   6.989   6.862
 5752SOL    HW218156   7.006   7.008   6.721
 5753SOL     OW18157   3.690   2.681   0.428
 5753SOL    HW118158   3.772   2.674   0.370
 5753SOL    HW218159   3.707   2.748   0.501
 5754SOL     OW18160   6.329   4.640   1.787
 5754SOL    HW118161   6.282   4.558   1.820
 5754SOL    HW218162   6.426   4.619   1.772
 5755SOL     OW18163   3.369   4.032   0.639
 5755SOL    HW118164   3.416   3.952   0.603
 5755SOL    HW218165   3.270   4.018   0.631
 5756SOL     OW18166   7.005   5.590   4.203
 5756SOL    HW118167   6.946   5.657   4.158
 5756SOL    HW218168   6.951   5.510   4.228
 5757SOL     OW18169   0.151   4.842   0.847
 5757SOL    HW118170   0.112   4.835   0.939
 5757SOL    HW218171   0.079   4.864   0.782
 5758SOL     OW18172   1.365   2.029   5.497
 5758SOL    HW118173   1.368   1.948   5.555
 5758SOL    HW218174   1.429   2.098   5.531
 5759SOL     OW18175   5.577   1.363   5.797
 5759SOL    HW118176   5.623   1.447   5.770
 5759SOL    HW218177   5.546   1.314   5.715
 5760SOL     OW18178   1.891   5.514   2.538
 5760SOL    HW118179   1.802   5.476   2.512
 5760SOL    HW218180   1.938   5.451   2.600
 5761SOL     OW18181   4.938   0.191   4.797
 5761SOL    HW118182   4.905   0.171   4.704
 5761SOL    HW218183   4.863   0.226   4.852
 5762SOL     OW18184   5.952   6.075   1.798
 5762SOL    HW118185   6.044   6.068   1.761
 5762SOL    HW218186   5.886   6.075   1.723
 5763SOL     OW18187   1.454   0.711   1.469
 5763SOL    HW118188   1.519   0.675   1.536
 5763SOL    HW218189   1.471   0.809   1.456
 5764SOL     OW18190   4.930   3.267   5.516
 5764SOL    HW118191   4.975   3.179   5.527
 5764SOL    HW218192   4.863   3.280   5.589
 5765SOL     OW18193   5.855   4.487   0.031
 5765SOL    HW118194   5.813   4.405   0.069
 5765SOL    HW218195   5.954   4.475   0.027
 5766SOL     OW18196   3.114   1.779   2.766
 5766SOL    HW118197   3.160   1.858   2.724
 5766SOL    HW218198   3.152   1.694   2.728
 5767SOL     OW18199   0.447   6.133   1.865
 5767SOL    HW118200   0.540   6.167   1.878
 5767SOL    HW218201   0.445   6.070   1.787
 5768SOL     OW18202   6.159   1.963   2.350
 5768SOL    HW118203   6.060   1.976   2.358
 5768SOL    HW218204   6.180   1.865   2.342
 5769SOL     OW18205   2.236   5.584   3.883
 5769SOL    HW118206   2.174   5.520   3.929
 5769SOL    HW218207   2.328   5.576   3.921
 5770SOL     OW18208   6.293   0.835   1.310
 5770SOL    HW118209   6.285   0.905   1.382
 5770SOL    HW218210   6.203   0.820   1.269
 5771SOL     OW18211   0.988   1.779   1.347
 5771SOL    HW118212   1.085   1.755   1.342
 5771SOL    HW218213   0.942   1.716   1.410
 5772SOL     OW18214   6.134   4.116   6.922
 5772SOL    HW118215   6.173   4.025   6.939
 5772SOL    HW218216   6.122   4.130   6.824
 5773SOL     OW18217   5.477   6.118   4.381
 5773SOL    HW118218   5.448   6.096   4.287
 5773SOL    HW218219   5.536   6.199   4.380
 5774SOL     OW18220   2.119   5.578   3.644
 5774SOL    HW118221   2.021   5.578   3.666
 5774SOL    HW218222   2.172   5.564   3.727
 5775SOL     OW18223   6.987   0.270   6.494
 5775SOL    HW118224   6.898   0.248   6.454
 5775SOL    HW218225   0.028   0.309   6.424
 5776SOL     OW18226   5.104   0.667   5.284
 5776SOL    HW118227   5.069   0.621   5.202
 5776SOL    HW218228   5.103   0.604   5.361
 5777SOL     OW18229   0.076   1.144   5.240
 5777SOL    HW118230   7.004   1.162   5.199
 5777SOL    HW218231   0.088   1.045   5.251
 5778SOL     OW18232   1.938   6.891   3.786
 5778SOL    HW118233   1.885   6.814   3.750
 5778SOL    HW218234   2.023   6.900   3.736
 5779SOL     OW18235   4.452   1.345   2.085
 5779SOL    HW118236   4.372   1.296   2.120
 5779SOL    HW218237   4.509   1.282   2.033
 5780SOL     OW18238   5.672   4.045   1.231
 5780SOL    HW118239   5.630   3.968   1.278
 5780SOL    HW218240   5.725   4.011   1.153
 5781SOL     OW18241   2.139   5.517   4.665
 5781SOL    HW118242   2.074   5.577   4.711
 5781SOL    HW218243   2.211   5.573   4.623
 5782SOL     OW18244   3.000   1.678   2.399
 5782SOL    HW118245   2.992   1.674   2.299
 5782SOL    HW218246   2.981   1.587   2.437
 5783SOL     OW18247   1.580   0.055   1.044
 5783SOL    HW118248   1.674   0.080   1.066
 5783SOL    HW218249   1.546   7.007   1.111
 5784SOL     OW18250   1.688   5.897   0.227
 5784SOL    HW118251   1.622   5.960   0.267
 5784SOL    HW218252   1.723   5.935   0.141
 5785SOL     OW18253   1.770   2.144   0.008
 5785SOL    HW118254   1.735   2.140   6.933
 5785SOL    HW218255   1.793   2.051   0.039
 5786SOL     OW18256   1.371   3.033   1.472
 5786SOL    HW118257   1.288   3.008   1.421
 5786SOL    HW218258   1.440   3.067   1.408
 5787SOL     OW18259   6.698   3.224   5.664
 5787SOL    HW118260   6.620   3.286   5.675
 5787SOL    HW218261   6.766   3.267   5.605
 5788SOL     OW18262   2.689   1.476   2.428
 5788SOL    HW118263   2.719   1.423   2.349
 5788SOL    HW218264   2.631   1.551   2.398
 5789SOL     OW18265   3.392   4.635   6.582
 5789SOL    HW118266   3.301   4.669   6.555
 5789SOL    HW218267   3.424   4.569   6.514
 5790SOL     OW18268   5.840   6.129   4.060
 5790SOL    HW118269   5.907   6.202   4.067
 5790SOL    HW218270   5.871   6.062   3.993
 5791SOL     OW18271   3.937   1.776   1.902
 5791SOL    HW118272   4.005   1.768   1.974
 5791SOL    HW218273   3.870   1.846   1.926
 5792SOL     OW18274   5.332   3.006   3.245
 5792SOL    HW118275   5.293   2.962   3.325
 5792SOL    HW218276   5.335   2.941   3.169
 5793SOL     OW18277   4.437   2.553   5.736
 5793SOL    HW118278   4.452   2.651   5.739
 5793SOL    HW218279   4.442   2.521   5.641
 5794SOL     OW18280   4.350   6.953   0.132
 5794SOL    HW118281   4.393   0.005   0.075
 5794SOL    HW218282   4.364   6.863   0.092
 5795SOL     OW18283   2.380   5.885   1.628
 5795SOL    HW118284   2.444   5.859   1.557
 5795SOL    HW218285   2.418   5.960   1.682
 5796SOL     OW18286   4.770   1.904   6.727
 5796SOL    HW118287   4.775   1.997   6.691
 5796SOL    HW218288   4.802   1.903   6.821
 5797SOL     OW18289   5.383   2.491   1.111
 5797SOL    HW118290   5.402   2.433   1.032
 5797SOL    HW218291   5.372   2.586   1.081
 5798SOL     OW18292   1.650   3.812   5.504
 5798SOL    HW118293   1.638   3.901   5.547
 5798SOL    HW218294   1.561   3.774   5.481
 5799SOL     OW18295   2.554   6.681   3.650
 5799SOL    HW118296   2.488   6.657   3.580
 5799SOL    HW218297   2.527   6.639   3.737
 5800SOL     OW18298   1.318   6.722   1.048
 5800SOL    HW118299   1.390   6.724   1.117
 5800SOL    HW218300   1.232   6.750   1.089
 5801SOL     OW18301   1.798   1.422   2.245
 5801SOL    HW118302   1.776   1.516   2.218
 5801SOL    HW218303   1.758   1.403   2.334
 5802SOL     OW18304   0.517   1.153   2.108
 5802SOL    HW118305   0.437   1.191   2.155
 5802SOL    HW218306   0.488   1.111   2.022
 5803SOL     OW18307   0.372   4.861   3.972
 5803SOL    HW118308   0.386   4.887   4.068
 5803SOL    HW218309   0.291   4.803   3.965
 5804SOL     OW18310   5.756   1.277   3.532
 5804SOL    HW118311   5.786   1.372   3.542
 5804SOL    HW218312   5.836   1.217   3.529
 5805SOL     OW18313   1.499   2.361   2.087
 5805SOL    HW118314   1.570   2.414   2.134
 5805SOL    HW218315   1.522   2.264   2.090
 5806SOL     OW18316   6.556   4.480   2.005
 5806SOL    HW118317   6.641   4.464   1.956
 5806SOL    HW218318   6.528   4.396   2.052
 5807SOL     OW18319   1.725   0.302   1.452
 5807SOL    HW118320   1.777   0.242   1.391
 5807SOL    HW218321   1.699   0.385   1.403
 5808SOL     OW18322   6.336   6.590   5.775
 5808SOL    HW118323   6.400   6.526   5.733
 5808SOL    HW218324   6.372   6.683   5.770
 5809SOL     OW18325   0.430   1.961   5.359
 5809SOL    HW118326   0.386   2.021   5.292
 5809SOL    HW218327   0.474   1.885   5.312
 5810SOL     OW18328   3.109   6.978   5.636
 5810SOL    HW118329   3.041   6.945   5.701
 5810SOL    HW218330   3.170   0.025   5.683
 5811SOL     OW18331   2.767   4.092   6.673
 5811SOL    HW118332   2.685   4.123   6.723
 5811SOL    HW218333   2.773   4.142   6.587
 5812SOL     OW18334   5.912   2.024   0.234
 5812SOL    HW118335   5.993   1.981   0.274
 5812SOL    HW218336   5.913   2.011   0.135
 5813SOL     OW18337   5.009   6.350   0.595
 5813SOL    HW118338   5.021   6.272   0.657
 5813SOL    HW218339   5.021   6.319   0.501
 5814SOL     OW18340   5.192   1.344   1.308
 5814SOL    HW118341   5.224   1.431   1.270
 5814SOL    HW218342   5.186   1.276   1.235
 5815SOL     OW18343   6.768   1.692   4.519
 5815SOL    HW118344   6.796   1.645   4.435
 5815SOL    HW218345   6.699   1.638   4.566
 5816SOL     OW18346   0.328   3.508   2.799
 5816SOL    HW118347   0.277   3.568   2.737
 5816SOL    HW218348   0.285   3.417   2.800
 5817SOL     OW18349   6.202   3.139   3.090
 5817SOL    HW118350   6.242   3.216   3.139
 5817SOL    HW218351   6.247   3.127   3.002
 5818SOL     OW18352   2.377   0.079   5.083
 5818SOL    HW118353   2.308   0.140   5.121
 5818SOL    HW218354   2.419   0.026   5.157
 5819SOL     OW18355   4.368   5.431   0.269
 5819SOL    HW118356   4.325   5.343   0.288
 5819SOL    HW218357   4.387   5.478   0.356
 5820SOL     OW18358   5.651   5.910   2.049
 5820SOL    HW118359   5.687   5.983   1.991
 5820SOL    HW218360   5.676   5.928   2.144
 5821SOL     OW18361   0.251   6.640   0.940
 5821SOL    HW118362   0.179   6.631   0.872
 5821SOL    HW218363   0.333   6.679   0.897
 5822SOL     OW18364   1.767   3.381   2.698
 5822SOL    HW118365   1.766   3.282   2.716
 5822SOL    HW218366   1.793   3.397   2.603
 5823SOL     OW18367   2.116   5.359   3.453
 5823SOL    HW118368   2.095   5.438   3.510
 5823SOL    HW218369   2.045   5.289   3.465
 5824SOL     OW18370   1.022   0.812   2.318
 5824SOL    HW118371   1.095   0.834   2.254
 5824SOL    HW218372   0.949   0.880   2.310
 5825SOL     OW18373   5.379   1.042   4.274
 5825SOL    HW118374   5.338   0.976   4.338
 5825SOL    HW218375   5.343   1.133   4.294
 5826SOL     OW18376   0.485   6.923   5.186
 5826SOL    HW118377   0.513   7.000   5.129
 5826SOL    HW218378   0.438   6.958   5.268
 5827SOL     OW18379   2.266   4.210   3.529
 5827SOL    HW118380   2.168   4.206   3.509
 5827SOL    HW218381   2.314   4.255   3.453
 5828SOL     OW18382   3.905   0.198   5.164
 5828SOL    HW118383   3.919   0.218   5.261
 5828SOL    HW218384   3.931   0.277   5.109
 5829SOL     OW18385   2.105   0.847   4.135
 5829SOL    HW118386   2.176   0.915   4.155
 5829SOL    HW218387   2.018   0.893   4.122
 5830SOL     OW18388   4.119   5.106   4.436
 5830SOL    HW118389   4.204   5.087   4.385
 5830SOL    HW218390   4.041   5.097   4.375
 5831SOL     OW18391   1.520   2.300   5.512
 5831SOL    HW118392   1.587   2.254   5.454
 5831SOL    HW218393   1.460   2.357   5.456
 5832SOL     OW18394   3.054   5.321   2.007
 5832SOL    HW118395   3.007   5.318   1.919
 5832SOL    HW218396   3.103   5.408   2.016
 5833SOL     OW18397   3.377   4.644   6.856
 5833SOL    HW118398   3.385   4.602   6.766
 5833SOL    HW218399   3.385   4.744   6.847
 5834SOL     OW18400   5.706   2.491   6.286
 5834SOL    HW118401   5.783   2.514   6.344
 5834SOL    HW218402   5.621   2.500   6.337
 5835SOL     OW18403   5.408   2.206   2.756
 5835SOL    HW118404   5.356   2.120   2.749
 5835SOL    HW218405   5.377   2.269   2.685
 5836SOL     OW18406   4.550   6.485   3.392
 5836SOL    HW118407   4.631   6.543   3.382
 5836SOL    HW218408   4.473   6.540   3.423
 5837SOL     OW18409   2.724   5.435   6.847
 5837SOL    HW118410   2.674   5.348   6.856
 5837SOL    HW218411   2.659   5.510   6.842
 5838SOL     OW18412   3.514   2.338   1.067
 5838SOL    HW118413   3.539   2.270   1.136
 5838SOL    HW218414   3.430   2.310   1.022
 5839SOL     OW18415   1.816   2.049   1.090
 5839SOL    HW118416   1.847   1.972   1.034
 5839SOL    HW218417   1.893   2.086   1.142
 5840SOL     OW18418   0.357   3.122   3.088
 5840SOL    HW118419   0.382   3.029   3.117
 5840SOL    HW218420   0.257   3.128   3.079
 5841SOL     OW18421   5.162   1.796   0.298
 5841SOL    HW118422   5.077   1.847   0.305
 5841SOL    HW218423   5.185   1.781   0.202
 5842SOL     OW18424   2.345   2.831   1.445
 5842SOL    HW118425   2.259   2.781   1.456
 5842SOL    HW218426   2.414   2.792   1.506
 5843SOL     OW18427   2.549   3.916   1.011
 5843SOL    HW118428   2.480   3.844   1.013
 5843SOL    HW218429   2.551   3.964   1.099
 5844SOL     OW18430   0.444   6.349   5.212
 5844SOL    HW118431   0.464   6.254   5.190
 5844SOL    HW218432   0.509   6.382   5.280
 5845SOL     OW18433   1.375   6.716   2.349
 5845SOL    HW118434   1.349   6.654   2.275
 5845SOL    HW218435   1.471   6.740   2.340
 5846SOL     OW18436   6.457   4.010   5.835
 5846SOL    HW118437   6.424   3.918   5.810
 5846SOL    HW218438   6.379   4.073   5.841
 5847SOL     OW18439   2.508   4.352   6.971
 5847SOL    HW118440   2.552   4.402   0.027
 5847SOL    HW218441   2.409   4.360   6.981
 5848SOL     OW18442   2.130   5.351   2.346
 5848SOL    HW118443   2.058   5.384   2.284
 5848SOL    HW218444   2.093   5.277   2.403
 5849SOL     OW18445   3.811   6.047   5.530
 5849SOL    HW118446   3.860   6.091   5.455
 5849SOL    HW218447   3.875   6.029   5.605
 5850SOL     OW18448   1.257   1.352   2.815
 5850SOL    HW118449   1.169   1.340   2.860
 5850SOL    HW218450   1.262   1.291   2.736
 5851SOL     OW18451   6.422   3.508   3.915
 5851SOL    HW118452   6.338   3.526   3.966
 5851SOL    HW218453   6.486   3.583   3.927
 5852SOL     OW18454   4.887   3.939   2.506
 5852SOL    HW118455   4.902   3.862   2.445
 5852SOL    HW218456   4.823   4.003   2.462
 5853SOL     OW18457   3.629   5.084   5.904
 5853SOL    HW118458   3.635   5.118   5.998
 5853SOL    HW218459   3.534   5.063   5.882
 5854SOL     OW18460   2.756   4.723   5.301
 5854SOL    HW118461   2.794   4.671   5.224
 5854SOL    HW218462   2.728   4.660   5.373
 5855SOL     OW18463   2.087   2.864   3.081
 5855SOL    HW118464   2.055   2.785   3.133
 5855SOL    HW218465   2.113   2.836   2.989
 5856SOL     OW18466   1.371   6.892   3.039
 5856SOL    HW118467   1.272   6.883   3.051
 5856SOL    HW218468   1.403   6.818   2.980
 5857SOL     OW18469   5.742   4.427   6.642
 5857SOL    HW118470   5.664   4.426   6.580
 5857SOL    HW218471   5.760   4.334   6.675
 5858SOL     OW18472   1.477   1.206   2.819
 5858SOL    HW118473   1.405   1.275   2.823
 5858SOL    HW218474   1.529   1.207   2.904
 5859SOL     OW18475   6.286   6.669   1.164
 5859SOL    HW118476   6.357   6.606   1.198
 5859SOL    HW218477   6.202   6.655   1.216
 5860SOL     OW18478   0.240   4.595   3.247
 5860SOL    HW118479   0.184   4.647   3.184
 5860SOL    HW218480   0.193   4.510   3.272
 5861SOL     OW18481   5.154   0.690   5.601
 5861SOL    HW118482   5.147   0.769   5.540
 5861SOL    HW218483   5.078   0.690   5.665
 5862SOL     OW18484   6.978   5.750   2.440
 5862SOL    HW118485   0.020   5.817   2.484
 5862SOL    HW218486   6.883   5.781   2.447
 5863SOL     OW18487   3.987   0.070   6.234
 5863SOL    HW118488   3.941   0.040   6.150
 5863SOL    HW218489   4.085   0.055   6.225
 5864SOL     OW18490   3.783   4.102   2.644
 5864SOL    HW118491   3.870   4.059   2.619
 5864SOL    HW218492   3.741   4.143   2.563
 5865SOL     OW18493   6.558   0.648   5.704
 5865SOL    HW118494   6.478   0.590   5.716
 5865SOL    HW218495   6.582   0.653   5.608
 5866SOL     OW18496   3.778   3.011   3.308
 5866SOL    HW118497   3.805   3.106   3.295
 5866SOL    HW218498   3.779   2.964   3.220
 5867SOL     OW18499   3.171   1.581   1.517
 5867SOL    HW118500   3.188   1.482   1.517
 5867SOL    HW218501   3.102   1.603   1.448
 5868SOL     OW18502   1.185   1.097   5.588
 5868SOL    HW118503   1.171   1.194   5.565
 5868SOL    HW218504   1.247   1.056   5.521
 5869SOL     OW18505   0.647   5.794   3.869
 5869SOL    HW118506   0.617   5.710   3.823
 5869SOL    HW218507   0.715   5.771   3.939
 5870SOL     OW18508   4.254   5.276   4.631
 5870SOL    HW118509   4.190   5.352   4.634
 5870SOL    HW218510   4.218   5.204   4.571
 5871SOL     OW18511   3.179   4.076   3.921
 5871SOL    HW118512   3.243   4.089   3.996
 5871SOL    HW218513   3.138   3.985   3.928
 5872SOL     OW18514   4.371   5.133   1.618
 5872SOL    HW118515   4.405   5.139   1.712
 5872SOL    HW218516   4.316   5.214   1.597
 5873SOL     OW18517   4.404   5.963   2.216
 5873SOL    HW118518   4.390   6.052   2.174
 5873SOL    HW218519   4.336   5.898   2.181
 5874SOL     OW18520   2.239   4.203   5.732
 5874SOL    HW118521   2.277   4.129   5.677
 5874SOL    HW218522   2.209   4.167   5.821
 5875SOL     OW18523   2.829   1.447   0.824
 5875SOL    HW118524   2.835   1.546   0.814
 5875SOL    HW218525   2.800   1.406   0.737
 5876SOL     OW18526   3.504   3.271   1.897
 5876SOL    HW118527   3.522   3.349   1.838
 5876SOL    HW218528   3.432   3.294   1.963
 5877SOL     OW18529   5.431   4.308   0.764
 5877SOL    HW118530   5.432   4.305   0.664
 5877SOL    HW218531   5.403   4.400   0.794
 5878SOL     OW18532   2.324   4.907   2.666
 5878SOL    HW118533   2.307   4.813   2.637
 5878SOL    HW218534   2.251   4.936   2.728
 5879SOL     OW18535   0.313   4.379   4.898
 5879SOL    HW118536   0.346   4.429   4.818
 5879SOL    HW218537   0.258   4.439   4.955
 5880SOL     OW18538   2.701   5.628   0.906
 5880SOL    HW118539   2.690   5.720   0.870
 5880SOL    HW218540   2.626   5.609   0.970
 5881SOL     OW18541   1.122   6.272   4.441
 5881SOL    HW118542   1.075   6.224   4.367
 5881SOL    HW218543   1.150   6.207   4.511
 5882SOL     OW18544   4.544   1.121   1.908
 5882SOL    HW118545   4.492   1.065   1.843
 5882SOL    HW218546   4.607   1.180   1.858
 5883SOL     OW18547   0.377   3.838   5.817
 5883SOL    HW118548   0.367   3.907   5.746
 5883SOL    HW218549   0.291   3.831   5.869
 5884SOL     OW18550   1.413   1.498   3.260
 5884SOL    HW118551   1.470   1.416   3.256
 5884SOL    HW218552   1.400   1.533   3.167
 5885SOL     OW18553   6.025   6.643   1.278
 5885SOL    HW118554   5.952   6.603   1.222
 5885SOL    HW218555   6.012   6.741   1.285
 5886SOL     OW18556   1.453   1.424   6.062
 5886SOL    HW118557   1.537   1.464   6.099
 5886SOL    HW218558   1.384   1.495   6.051
 5887SOL     OW18559   3.865   6.988   4.274
 5887SOL    HW118560   3.876   0.060   4.316
 5887SOL    HW218561   3.791   6.939   4.319
 5888SOL     OW18562   2.226   0.387   3.460
 5888SOL    HW118563   2.209   0.359   3.555
 5888SOL    HW218564   2.169   0.333   3.398
 5889SOL     OW18565   2.497   0.621   0.540
 5889SOL    HW118566   2.486   0.654   0.446
 5889SOL    HW218567   2.585   0.651   0.575
 5890SOL     OW18568   2.868   4.837   5.822
 5890SOL    HW118569   2.901   4.767   5.760
 5890SOL    HW218570   2.944   4.897   5.848
 5891SOL     OW18571   2.938   3.921   0.078
 5891SOL    HW118572   2.988   3.872   0.150
 5891SOL    HW218573   2.989   3.916   7.011
 5892SOL     OW18574   0.636   6.848   1.440
 5892SOL    HW118575   0.562   6.892   1.389
 5892SOL    HW218576   0.685   6.916   1.494
 5893SOL     OW18577   1.474   0.681   3.318
 5893SOL    HW118578   1.395   0.742   3.309
 5893SOL    HW218579   1.461   0.601   3.260
 5894SOL     OW18580   1.354   3.195   3.044
 5894SOL    HW118581   1.393   3.119   2.993
 5894SOL    HW218582   1.311   3.259   2.981
 5895SOL     OW18583   4.931   3.802   3.786
 5895SOL    HW118584   4.964   3.879   3.840
 5895SOL    HW218585   4.918   3.830   3.691
 5896SOL     OW18586   3.776   2.309   5.991
 5896SOL    HW118587   3.732   2.295   5.902
 5896SOL    HW218588   3.867   2.348   5.977
 5897SOL     OW18589   4.274   0.317   1.280
 5897SOL    HW118590   4.371   0.297   1.269
 5897SOL    HW218591   4.249   0.393   1.219
 5898SOL     OW18592   2.092   0.365   2.282
 5898SOL    HW118593   2.098   0.280   2.335
 5898SOL    HW218594   2.144   0.437   2.329
 5899SOL     OW18595   5.451   0.062   4.257
 5899SOL    HW118596   5.464   0.084   4.160
 5899SOL    HW218597   5.413   0.142   4.304
 5900SOL     OW18598   4.734   5.148   3.174
 5900SOL    HW118599   4.637   5.150   3.199
 5900SOL    HW218600   4.755   5.225   3.113
 5901SOL     OW18601   3.404   6.495   4.857
 5901SOL    HW118602   3.453   6.411   4.832
 5901SOL    HW218603   3.462   6.551   4.916
 5902SOL     OW18604   6.395   1.969   6.340
 5902SOL    HW118605   6.406   1.990   6.437
 5902SOL    HW218606   6.451   1.891   6.315
 5903SOL     OW18607   5.916   2.818   5.961
 5903SOL    HW118608   5.998   2.770   5.930
 5903SOL    HW218609   5.858   2.755   6.012
 5904SOL     OW18610   0.244   4.090   2.511
 5904SOL    HW118611   0.283   4.110   2.601
 5904SOL    HW218612   0.179   4.161   2.486
 5905SOL     OW18613   6.956   5.275   2.755
 5905SOL    HW118614   6.961   5.337   2.677
 5905SOL    HW218615   6.868   5.229   2.756
 5906SOL     OW18616   6.196   1.173   3.507
 5906SOL    HW118617   6.106   1.146   3.539
 5906SOL    HW218618   6.242   1.095   3.465
 5907SOL     OW18619   2.015   6.168   1.912
 5907SOL    HW118620   1.955   6.242   1.943
 5907SOL    HW218621   1.979   6.081   1.944
 5908SOL     OW18622   0.145   3.526   5.733
 5908SOL    HW118623   0.165   3.478   5.648
 5908SOL    HW218624   0.078   3.474   5.786
 5909SOL     OW18625   6.761   5.047   1.022
 5909SOL    HW118626   6.730   4.982   1.092
 5909SOL    HW218627   6.712   5.133   1.032
 5910SOL     OW18628   2.378   1.964   3.625
 5910SOL    HW118629   2.424   1.940   3.539
 5910SOL    HW218630   2.387   2.063   3.640
 5911SOL     OW18631   6.351   5.958   6.315
 5911SOL    HW118632   6.440   5.912   6.316
 5911SOL    HW218633   6.299   5.931   6.397
 5912SOL     OW18634   0.265   0.874   3.594
 5912SOL    HW118635   0.270   0.829   3.504
 5912SOL    HW218636   0.354   0.912   3.617
 5913SOL     OW18637   6.003   1.479   6.760
 5913SOL    HW118638   5.967   1.393   6.797
 5913SOL    HW218639   5.932   1.524   6.705
 5914SOL     OW18640   0.845   6.466   0.397
 5914SOL    HW118641   0.906   6.396   0.360
 5914SOL    HW218642   0.894   6.519   0.466
 5915SOL     OW18643   3.785   1.730   6.163
 5915SOL    HW118644   3.710   1.705   6.224
 5915SOL    HW218645   3.841   1.801   6.205
 5916SOL     OW18646   1.273   6.126   2.654
 5916SOL    HW118647   1.314   6.088   2.737
 5916SOL    HW218648   1.208   6.060   2.616
 5917SOL     OW18649   3.637   4.629   0.204
 5917SOL    HW118650   3.561   4.675   0.250
 5917SOL    HW218651   3.603   4.582   0.123
 5918SOL     OW18652   3.031   6.261   5.370
 5918SOL    HW118653   3.106   6.306   5.419
 5918SOL    HW218654   3.027   6.295   5.277
 5919SOL     OW18655   3.598   2.878   3.912
 5919SOL    HW118656   3.577   2.937   3.990
 5919SOL    HW218657   3.562   2.786   3.929
 5920SOL     OW18658   6.761   0.002   5.423
 5920SOL    HW118659   6.734   6.947   5.486
 5920SOL    HW218660   6.859   7.014   5.405
 5921SOL     OW18661   2.905   4.741   6.365
 5921SOL    HW118662   2.974   4.714   6.431
 5921SOL    HW218663   2.821   4.688   6.380
 5922SOL     OW18664   5.174   3.858   3.528
 5922SOL    HW118665   5.075   3.874   3.537
 5922SOL    HW218666   5.199   3.775   3.576
 5923SOL     OW18667   6.599   0.386   1.993
 5923SOL    HW118668   6.543   0.432   1.923
 5923SOL    HW218669   6.559   0.297   2.014
 5924SOL     OW18670   5.787   0.627   3.216
 5924SOL    HW118671   5.755   0.701   3.157
 5924SOL    HW218672   5.815   0.549   3.160
 5925SOL     OW18673   5.213   6.006   1.500
 5925SOL    HW118674   5.133   6.065   1.491
 5925SOL    HW218675   5.192   5.915   1.464
 5926SOL     OW18676   4.765   5.290   3.821
 5926SOL    HW118677   4.672   5.258   3.839
 5926SOL    HW218678   4.772   5.318   3.725
 5927SOL     OW18679   0.867   4.524   1.885
 5927SOL    HW118680   0.826   4.596   1.830
 5927SOL    HW218681   0.796   4.458   1.912
 5928SOL     OW18682   3.852   0.256   1.151
 5928SOL    HW118683   3.766   0.238   1.200
 5928SOL    HW218684   3.928   0.252   1.216
 5929SOL     OW18685   1.546   0.644   6.550
 5929SOL    HW118686   1.449   0.625   6.530
 5929SOL    HW218687   1.572   0.731   6.508
 5930SOL     OW18688   1.363   3.326   2.217
 5930SOL    HW118689   1.361   3.270   2.299
 5930SOL    HW218690   1.368   3.422   2.242
 5931SOL     OW18691   4.996   6.137   3.599
 5931SOL    HW118692   4.960   6.212   3.544
 5931SOL    HW218693   4.991   6.162   3.696
 5932SOL     OW18694   3.253   1.312   0.022
 5932SOL    HW118695   3.213   1.222   0.040
 5932SOL    HW218696   3.180   1.379   0.008
 5933SOL     OW18697   6.140   5.966   3.712
 5933SOL    HW118698   6.234   5.998   3.703
 5933SOL    HW218699   6.077   6.040   3.688
 5934SOL     OW18700   3.342   3.865   5.911
 5934SOL    HW118701   3.325   3.779   5.862
 5934SOL    HW218702   3.338   3.848   6.010
 5935SOL     OW18703   6.887   6.334   5.954
 5935SOL    HW118704   6.820   6.295   5.890
 5935SOL    HW218705   6.847   6.413   6.000
 5936SOL     OW18706   3.433   2.907   1.480
 5936SOL    HW118707   3.490   2.955   1.547
 5936SOL    HW218708   3.470   2.815   1.466
 5937SOL     OW18709   6.594   3.452   1.798
 5937SOL    HW118710   6.639   3.541   1.802
 5937SOL    HW218711   6.649   3.389   1.743
 5938SOL     OW18712   0.408   4.772   4.833
 5938SOL    HW118713   0.446   4.828   4.760
 5938SOL    HW218714   0.366   4.831   4.902
 5939SOL     OW18715   3.326   0.702   5.191
 5939SOL    HW118716   3.387   0.659   5.258
 5939SOL    HW218717   3.368   0.785   5.156
 5940SOL     OW18718   5.093   5.925   2.499
 5940SOL    HW118719   5.074   5.846   2.557
 5940SOL    HW218720   5.100   6.007   2.556
 5941SOL     OW18721   6.432   1.821   2.136
 5941SOL    HW118722   6.464   1.758   2.207
 5941SOL    HW218723   6.427   1.913   2.173
 5942SOL     OW18724   5.231   3.229   5.710
 5942SOL    HW118725   5.295   3.306   5.708
 5942SOL    HW218726   5.236   3.179   5.624
 5943SOL     OW18727   3.222   4.190   1.549
 5943SOL    HW118728   3.169   4.174   1.632
 5943SOL    HW218729   3.319   4.187   1.570
 5944SOL     OW18730   0.741   3.193   6.487
 5944SOL    HW118731   0.819   3.141   6.523
 5944SOL    HW218732   0.763   3.291   6.489
 5945SOL     OW18733   0.063   5.895   5.768
 5945SOL    HW118734   0.030   5.805   5.798
 5945SOL    HW218735   0.146   5.884   5.713
 5946SOL     OW18736   3.445   4.092   0.911
 5946SOL    HW118737   3.400   4.066   0.825
 5946SOL    HW218738   3.544   4.082   0.900
 5947SOL     OW18739   3.283   2.897   4.776
 5947SOL    HW118740   3.308   2.949   4.858
 5947SOL    HW218741   3.276   2.800   4.799
 5948SOL     OW18742   5.394   3.728   2.105
 5948SOL    HW118743   5.308   3.680   2.090
 5948SOL    HW218744   5.421   3.720   2.201
 5949SOL     OW18745   6.859   4.065   1.532
 5949SOL    HW118746   6.881   4.104   1.443
 5949SOL    HW218747   6.788   4.120   1.576
 5950SOL     OW18748   4.831   0.988   5.780
 5950SOL    HW118749   4.778   1.068   5.750
 5950SOL    HW218750   4.923   0.992   5.741
 5951SOL     OW18751   1.210   4.281   6.211
 5951SOL    HW118752   1.145   4.260   6.284
 5951SOL    HW218753   1.224   4.380   6.206
 5952SOL     OW18754   4.071   5.008   1.168
 5952SOL    HW118755   4.087   4.960   1.083
 5952SOL    HW218756   4.125   4.966   1.241
 5953SOL     OW18757   6.132   2.915   4.813
 5953SOL    HW118758   6.069   2.839   4.822
 5953SOL    HW218759   6.197   2.896   4.739
 5954SOL     OW18760   1.408   6.608   4.510
 5954SOL    HW118761   1.335   6.581   4.574
 5954SOL    HW218762   1.406   6.548   4.430
 5955SOL     OW18763   5.889   3.863   0.991
 5955SOL    HW118764   5.871   3.765   0.982
 5955SOL    HW218765   5.807   3.914   0.966
 5956SOL     OW18766   5.140   2.633   4.360
 5956SOL    HW118767   5.135   2.701   4.287
 5956SOL    HW218768   5.178   2.676   4.442
 5957SOL     OW18769   0.862   1.254   2.423
 5957SOL    HW118770   0.765   1.279   2.423
 5957SOL    HW218771   0.918   1.335   2.409
 5958SOL     OW18772   3.740   6.564   2.550
 5958SOL    HW118773   3.689   6.523   2.474
 5958SOL    HW218774   3.809   6.626   2.513
 5959SOL     OW18775   5.377   2.121   4.368
 5959SOL    HW118776   5.362   2.200   4.428
 5959SOL    HW218777   5.362   2.147   4.273
 5960SOL     OW18778   4.087   6.789   5.947
 5960SOL    HW118779   3.994   6.752   5.941
 5960SOL    HW218780   4.084   6.888   5.933
 5961SOL     OW18781   2.946   1.928   2.921
 5961SOL    HW118782   2.973   2.024   2.918
 5961SOL    HW218783   3.014   1.872   2.874
 5962SOL     OW18784   5.186   6.165   6.841
 5962SOL    HW118785   5.097   6.209   6.844
 5962SOL    HW218786   5.258   6.233   6.858
 5963SOL     OW18787   3.496   4.199   0.073
 5963SOL    HW118788   3.453   4.282   0.109
 5963SOL    HW218789   3.465   4.184   6.997
 5964SOL     OW18790   2.053   6.399   2.678
 5964SOL    HW118791   2.136   6.378   2.628
 5964SOL    HW218792   2.005   6.314   2.700
 5965SOL     OW18793   1.662   0.333   0.506
 5965SOL    HW118794   1.662   0.305   0.602
 5965SOL    HW218795   1.757   0.338   0.473
 5966SOL     OW18796   2.114   0.971   5.154
 5966SOL    HW118797   2.049   1.046   5.138
 5966SOL    HW218798   2.204   0.997   5.120
 5967SOL     OW18799   2.657   1.753   3.896
 5967SOL    HW118800   2.674   1.738   3.993
 5967SOL    HW218801   2.718   1.696   3.841
 5968SOL     OW18802   5.769   1.909   1.255
 5968SOL    HW118803   5.733   1.946   1.340
 5968SOL    HW218804   5.722   1.951   1.177
 5969SOL     OW18805   5.103   0.962   0.046
 5969SOL    HW118806   5.091   1.022   0.125
 5969SOL    HW218807   5.127   0.870   0.077
 5970SOL     OW18808   0.066   3.501   0.710
 5970SOL    HW118809   0.001   3.496   0.635
 5970SOL    HW218810   0.103   3.594   0.716
 5971SOL     OW18811   0.139   6.859   3.676
 5971SOL    HW118812   0.194   6.814   3.605
 5971SOL    HW218813   0.190   6.860   3.762
 5972SOL     OW18814   4.861   5.052   1.252
 5972SOL    HW118815   4.870   5.093   1.343
 5972SOL    HW218816   4.896   4.959   1.254
 5973SOL     OW18817   1.743   2.466   2.786
 5973SOL    HW118818   1.811   2.412   2.836
 5973SOL    HW218819   1.656   2.418   2.784
 5974SOL     OW18820   4.882   1.780   5.749
 5974SOL    HW118821   4.842   1.859   5.794
 5974SOL    HW218822   4.892   1.705   5.815
 5975SOL     OW18823   5.634   5.385   0.549
 5975SOL    HW118824   5.716   5.368   0.603
 5975SOL    HW218825   5.590   5.469   0.580
 5976SOL     OW18826   2.664   3.786   5.740
 5976SOL    HW118827   2.582   3.731   5.723
 5976SOL    HW218828   2.740   3.726   5.763
 5977SOL     OW18829   0.116   5.155   6.993
 5977SOL    HW118830   0.205   5.184   0.011
 5977SOL    HW218831   0.122   5.061   6.962
 5978SOL     OW18832   3.214   5.344   0.770
 5978SOL    HW118833   3.242   5.309   0.859
 5978SOL    HW218834   3.120   5.319   0.751
 5979SOL     OW18835   6.602   0.391   1.530
 5979SOL    HW118836   6.555   0.312   1.570
 5979SOL    HW218837   6.535   0.463   1.513
 5980SOL     OW18838   3.780   3.305   1.988
 5980SOL    HW118839   3.795   3.310   2.087
 5980SOL    HW218840   3.684   3.285   1.969
 5981SOL     OW18841   2.626   2.647   0.068
 5981SOL    HW118842   2.650   2.603   0.154
 5981SOL    HW218843   2.578   2.733   0.087
 5982SOL     OW18844   6.664   2.409   1.483
 5982SOL    HW118845   6.729   2.366   1.421
 5982SOL    HW218846   6.683   2.508   1.487
 5983SOL     OW18847   0.167   0.602   3.967
 5983SOL    HW118848   0.184   0.576   3.872
 5983SOL    HW218849   0.093   0.669   3.971
 5984SOL     OW18850   6.379   6.701   3.263
 5984SOL    HW118851   6.464   6.736   3.224
 5984SOL    HW218852   6.305   6.766   3.244
 5985SOL     OW18853   5.598   2.308   2.383
 5985SOL    HW118854   5.543   2.232   2.348
 5985SOL    HW218855   5.542   2.389   2.391
 5986SOL     OW18856   4.121   3.674   5.306
 5986SOL    HW118857   4.102   3.745   5.374
 5986SOL    HW218858   4.219   3.651   5.309
 5987SOL     OW18859   6.926   0.324   5.545
 5987SOL    HW118860   0.006   0.333   5.564
 5987SOL    HW218861   6.909   0.342   5.449
 5988SOL     OW18862   1.790   2.332   6.655
 5988SOL    HW118863   1.723   2.359   6.586
 5988SOL    HW218864   1.874   2.303   6.611
 5989SOL     OW18865   0.632   5.797   6.843
 5989SOL    HW118866   0.666   5.708   6.875
 5989SOL    HW218867   0.663   5.812   6.749
 5990SOL     OW18868   3.940   5.067   1.617
 5990SOL    HW118869   3.972   5.061   1.711
 5990SOL    HW218870   3.941   4.976   1.576
 5991SOL     OW18871   5.050   6.523   0.936
 5991SOL    HW118872   5.066   6.425   0.943
 5991SOL    HW218873   5.083   6.556   0.848
 5992SOL     OW18874   3.152   0.219   2.113
 5992SOL    HW118875   3.101   0.299   2.147
 5992SOL    HW218876   3.161   0.152   2.187
 5993SOL     OW18877   6.411   1.808   0.402
 5993SOL    HW118878   6.377   1.739   0.338
 5993SOL    HW218879   6.471   1.765   0.470
 5994SOL     OW18880   0.659   2.983   0.442
 5994SOL    HW118881   0.619   2.984   0.350
 5994SOL    HW218882   0.594   2.941   0.505
 5995SOL     OW18883   4.888   3.880   1.316
 5995SOL    HW118884   4.828   3.942   1.366
 5995SOL    HW218885   4.982   3.915   1.317
 5996SOL     OW18886   2.931   5.309   1.773
 5996SOL    HW118887   2.914   5.368   1.693
 5996SOL    HW218888   2.965   5.220   1.742
 5997SOL     OW18889   6.913   0.081   3.072
 5997SOL    HW118890   6.873   0.073   3.163
 5997SOL    HW218891   6.856   0.141   3.016
 5998SOL     OW18892   6.967   0.165   1.428
 5998SOL    HW118893   6.945   0.121   1.341
 5998SOL    HW218894   0.024   0.231   1.414
 5999SOL     OW18895   4.566   3.040   1.159
 5999SOL    HW118896   4.631   3.105   1.120
 5999SOL    HW218897   4.507   3.005   1.086
 6000SOL     OW18898   6.893   4.671   0.918
 6000SOL    HW118899   6.926   4.723   0.997
 6000SOL    HW218900   6.824   4.724   0.869
 6001SOL     OW18901   5.857   6.051   5.327
 6001SOL    HW118902   5.777   6.005   5.367
 6001SOL    HW218903   5.873   6.015   5.235
 6002SOL     OW18904   5.730   5.785   4.971
 6002SOL    HW118905   5.741   5.705   5.030
 6002SOL    HW218906   5.748   5.759   4.876
 6003SOL     OW18907   0.194   3.160   4.650
 6003SOL    HW118908   0.138   3.146   4.568
 6003SOL    HW218909   0.260   3.234   4.633
 6004SOL     OW18910   5.084   2.893   3.717
 6004SOL    HW118911   5.136   2.852   3.792
 6004SOL    HW218912   4.994   2.921   3.750
 6005SOL     OW18913   3.415   5.779   6.130
 6005SOL    HW118914   3.375   5.801   6.041
 6005SOL    HW218915   3.350   5.723   6.182
 6006SOL     OW18916   3.577   5.971   5.620
 6006SOL    HW118917   3.594   5.883   5.665
 6006SOL    HW218918   3.663   6.004   5.580
 6007SOL     OW18919   1.788   5.659   5.420
 6007SOL    HW118920   1.822   5.616   5.504
 6007SOL    HW218921   1.693   5.632   5.404
 6008SOL     OW18922   2.932   4.651   5.635
 6008SOL    HW118923   3.024   4.642   5.597
 6008SOL    HW218924   2.864   4.637   5.563
 6009SOL     OW18925   3.971   4.997   3.284
 6009SOL    HW118926   3.933   5.076   3.333
 6009SOL    HW218927   4.037   5.029   3.216
 6010SOL     OW18928   0.165   5.813   5.042
 6010SOL    HW118929   0.257   5.845   5.065
 6010SOL    HW218930   0.136   5.744   5.108
 6011SOL     OW18931   6.412   1.866   1.673
 6011SOL    HW118932   6.425   1.803   1.596
 6011SOL    HW218933   6.338   1.833   1.731
 6012SOL     OW18934   0.333   0.283   6.001
 6012SOL    HW118935   0.282   0.197   6.008
 6012SOL    HW218936   0.269   0.360   6.011
 6013SOL     OW18937   5.954   1.577   2.469
 6013SOL    HW118938   5.867   1.618   2.441
 6013SOL    HW218939   5.936   1.502   2.534
 6014SOL     OW18940   4.119   3.227   4.259
 6014SOL    HW118941   4.216   3.202   4.254
 6014SOL    HW218942   4.088   3.222   4.354
 6015SOL     OW18943   6.355   1.486   4.810
 6015SOL    HW118944   6.322   1.535   4.891
 6015SOL    HW218945   6.285   1.421   4.780
 6016SOL     OW18946   5.269   1.531   4.616
 6016SOL    HW118947   5.169   1.528   4.604
 6016SOL    HW218948   5.291   1.521   4.713
 6017SOL     OW18949   6.589   2.598   5.617
 6017SOL    HW118950   6.644   2.679   5.633
 6017SOL    HW218951   6.573   2.550   5.703
 6018SOL     OW18952   3.318   1.315   6.144
 6018SOL    HW118953   3.403   1.337   6.096
 6018SOL    HW218954   3.339   1.273   6.232
 6019SOL     OW18955   6.818   3.728   6.767
 6019SOL    HW118956   6.811   3.674   6.850
 6019SOL    HW218957   6.728   3.737   6.725
 6020SOL     OW18958   0.588   4.266   7.004
 6020SOL    HW118959   0.570   4.291   0.081
 6020SOL    HW218960   0.617   4.171   6.999
 6021SOL     OW18961   4.381   0.113   3.221
 6021SOL    HW118962   4.363   0.139   3.316
 6021SOL    HW218963   4.473   0.077   3.213
 6022SOL     OW18964   6.388   1.665   1.449
 6022SOL    HW118965   6.322   1.593   1.473
 6022SOL    HW218966   6.341   1.736   1.396
 6023SOL     OW18967   4.640   1.185   1.579
 6023SOL    HW118968   4.581   1.121   1.530
 6023SOL    HW218969   4.636   1.274   1.534
 6024SOL     OW18970   0.523   5.544   0.218
 6024SOL    HW118971   0.595   5.488   0.177
 6024SOL    HW218972   0.526   5.535   0.317
 6025SOL     OW18973   2.208   1.516   4.650
 6025SOL    HW118974   2.178   1.491   4.743
 6025SOL    HW218975   2.302   1.486   4.636
 6026SOL     OW18976   6.548   4.359   4.111
 6026SOL    HW118977   6.553   4.274   4.164
 6026SOL    HW218978   6.640   4.385   4.081
 6027SOL     OW18979   6.035   3.613   6.067
 6027SOL    HW118980   6.126   3.614   6.110
 6027SOL    HW218981   5.977   3.546   6.113
 6028SOL     OW18982   5.652   4.960   6.228
 6028SOL    HW118983   5.578   4.973   6.295
 6028SOL    HW218984   5.615   4.914   6.147
 6029SOL     OW18985   2.310   0.930   3.240
 6029SOL    HW118986   2.276   1.007   3.294
 6029SOL    HW218987   2.272   0.845   3.276
 6030SOL     OW18988   5.245   3.872   5.440
 6030SOL    HW118989   5.251   3.942   5.511
 6030SOL    HW218990   5.177   3.899   5.372
 6031SOL     OW18991   0.273   6.007   5.441
 6031SOL    HW118992   0.315   6.097   5.449
 6031SOL    HW218993   0.296   5.953   5.522
 6032SOL     OW18994   3.302   5.683   3.830
 6032SOL    HW118995   3.267   5.620   3.760
 6032SOL    HW218996   3.269   5.654   3.919
 6033SOL     OW18997   2.305   1.467   2.913
 6033SOL    HW118998   2.334   1.520   2.993
 6033SOL    HW218999   2.318   1.521   2.830
 6034SOL     OW19000   1.520   0.839   0.018
 6034SOL    HW119001   1.605   0.826   0.069
 6034SOL    HW219002   1.443   0.818   0.078
 6035SOL     OW19003   1.439   0.931   2.848
 6035SOL    HW119004   1.427   1.028   2.826
 6035SOL    HW219005   1.464   0.881   2.765
 6036SOL     OW19006   6.365   2.471   0.577
 6036SOL    HW119007   6.461   2.446   0.573
 6036SOL    HW219008   6.312   2.397   0.619
 6037SOL     OW19009   4.737   2.616   0.721
 6037SOL    HW119010   4.758   2.683   0.792
 6037SOL    HW219011   4.712   2.663   0.637
 6038SOL     OW19012   0.967   2.327   5.856
 6038SOL    HW119013   0.871   2.323   5.827
 6038SOL    HW219014   0.996   2.422   5.860
 6039SOL     OW19015   3.416   3.911   3.734
 6039SOL    HW119016   3.332   3.879   3.778
 6039SOL    HW219017   3.396   3.941   3.641
 6040SOL     OW19018   0.725   1.546   0.054
 6040SOL    HW119019   0.742   1.507   0.145
 6040SOL    HW219020   0.812   1.560   0.007
 6041SOL     OW19021   2.908   3.116   5.995
 6041SOL    HW119022   2.864   3.184   5.936
 6041SOL    HW219023   2.844   3.088   6.067
 6042SOL     OW19024   3.268   5.473   3.195
 6042SOL    HW119025   3.331   5.398   3.176
 6042SOL    HW219026   3.223   5.501   3.111
 6043SOL     OW19027   1.912   0.970   3.541
 6043SOL    HW119028   1.832   1.024   3.514
 6043SOL    HW219029   1.883   0.895   3.600
 6044SOL     OW19030   0.901   2.047   1.704
 6044SOL    HW119031   0.913   2.095   1.791
 6044SOL    HW219032   0.832   1.975   1.715
 6045SOL     OW19033   5.049   2.310   3.795
 6045SOL    HW119034   4.954   2.279   3.793
 6045SOL    HW219035   5.106   2.237   3.833
 6046SOL     OW19036   3.232   3.166   2.453
 6046SOL    HW119037   3.136   3.194   2.455
 6046SOL    HW219038   3.254   3.118   2.537
 6047SOL     OW19039   5.716   1.314   0.491
 6047SOL    HW119040   5.758   1.234   0.447
 6047SOL    HW219041   5.618   1.315   0.470
 6048SOL     OW19042   5.537   5.791   4.455
 6048SOL    HW119043   5.466   5.862   4.456
 6048SOL    HW219044   5.497   5.704   4.426
 6049SOL     OW19045   4.137   4.681   5.409
 6049SOL    HW119046   4.089   4.765   5.383
 6049SOL    HW219047   4.125   4.665   5.507
 6050SOL     OW19048   3.785   5.956   1.562
 6050SOL    HW119049   3.842   5.880   1.593
 6050SOL    HW219050   3.757   6.011   1.641
 6051SOL     OW19051   1.287   1.148   3.193
 6051SOL    HW119052   1.272   1.109   3.102
 6051SOL    HW219053   1.206   1.200   3.221
 6052SOL     OW19054   5.503   0.098   0.299
 6052SOL    HW119055   5.409   0.117   0.330
 6052SOL    HW219056   5.567   0.156   0.350
 6053SOL     OW19057   4.274   2.521   6.231
 6053SOL    HW119058   4.189   2.565   6.203
 6053SOL    HW219059   4.302   2.554   6.321
 6054SOL     OW19060   4.147   4.682   0.617
 6054SOL    HW119061   4.213   4.622   0.572
 6054SOL    HW219062   4.115   4.639   0.701
 6055SOL     OW19063   3.396   4.741   0.320
 6055SOL    HW119064   3.330   4.713   0.251
 6055SOL    HW219065   3.384   4.686   0.403
 6056SOL     OW19066   6.257   4.392   4.969
 6056SOL    HW119067   6.290   4.336   4.892
 6056SOL    HW219068   6.157   4.387   4.972
 6057SOL     OW19069   4.959   0.477   3.124
 6057SOL    HW119070   4.942   0.565   3.079
 6057SOL    HW219071   5.057   0.468   3.143
 6058SOL     OW19072   5.540   1.808   6.273
 6058SOL    HW119073   5.527   1.826   6.176
 6058SOL    HW219074   5.451   1.800   6.318
 6059SOL     OW19075   4.510   4.311   6.717
 6059SOL    HW119076   4.492   4.257   6.635
 6059SOL    HW219077   4.437   4.295   6.784
 6060SOL     OW19078   2.678   3.092   0.220
 6060SOL    HW119079   2.743   3.160   0.252
 6060SOL    HW219080   2.610   3.136   0.161
 6061SOL     OW19081   3.460   5.085   7.000
 6061SOL    HW119082   3.525   5.100   0.056
 6061SOL    HW219083   3.375   5.048   0.018
 6062SOL     OW19084   2.537   2.953   0.590
 6062SOL    HW119085   2.480   2.976   0.511
 6062SOL    HW219086   2.500   2.996   0.672
 6063SOL     OW19087   3.556   5.404   5.878
 6063SOL    HW119088   3.582   5.432   5.785
 6063SOL    HW219089   3.472   5.350   5.874
 6064SOL     OW19090   0.102   6.050   0.873
 6064SOL    HW119091   0.134   6.021   0.963
 6064SOL    HW219092   0.139   5.989   0.803
 6065SOL     OW19093   1.030   5.725   2.188
 6065SOL    HW119094   1.014   5.802   2.126
 6065SOL    HW219095   1.050   5.643   2.135
 6066SOL     OW19096   4.564   6.909   3.770
 6066SOL    HW119097   4.566   6.967   3.852
 6066SOL    HW219098   4.544   6.965   3.690
 6067SOL     OW19099   5.892   0.444   6.059
 6067SOL    HW119100   5.856   0.536   6.072
 6067SOL    HW219101   5.849   0.381   6.123
 6068SOL     OW19102   4.601   1.485   5.683
 6068SOL    HW119103   4.542   1.442   5.752
 6068SOL    HW219104   4.589   1.584   5.687
 6069SOL     OW19105   6.549   3.529   6.477
 6069SOL    HW119106   6.609   3.451   6.495
 6069SOL    HW219107   6.601   3.603   6.435
 6070SOL     OW19108   2.832   1.993   0.972
 6070SOL    HW119109   2.915   2.010   1.026
 6070SOL    HW219110   2.765   2.065   0.990
 6071SOL     OW19111   5.955   0.031   5.436
 6071SOL    HW119112   5.954   0.071   5.528
 6071SOL    HW219113   6.031   0.072   5.384
 6072SOL     OW19114   0.014   2.752   0.607
 6072SOL    HW119115   6.998   2.846   0.613
 6072SOL    HW219116   0.064   2.729   0.691
 6073SOL     OW19117   5.123   2.867   1.138
 6073SOL    HW119118   5.220   2.887   1.150
 6073SOL    HW219119   5.083   2.933   1.074
 6074SOL     OW19120   1.035   5.683   2.641
 6074SOL    HW119121   1.059   5.712   2.733
 6074SOL    HW219122   1.003   5.763   2.588
 6075SOL     OW19123   4.999   6.486   6.343
 6075SOL    HW119124   4.921   6.522   6.393
 6075SOL    HW219125   4.989   6.506   6.245
 6076SOL     OW19126   1.914   5.019   4.102
 6076SOL    HW119127   1.834   5.073   4.080
 6076SOL    HW219128   1.896   4.922   4.084
 6077SOL     OW19129   5.997   6.824   1.617
 6077SOL    HW119130   5.923   6.758   1.600
 6077SOL    HW219131   6.085   6.779   1.601
 6078SOL     OW19132   4.114   3.402   6.838
 6078SOL    HW119133   4.145   3.311   6.863
 6078SOL    HW219134   4.183   3.447   6.781
 6079SOL     OW19135   3.580   4.329   6.204
 6079SOL    HW119136   3.630   4.244   6.221
 6079SOL    HW219137   3.638   4.407   6.226
 6080SOL     OW19138   0.689   4.349   6.538
 6080SOL    HW119139   0.730   4.322   6.451
 6080SOL    HW219140   0.721   4.289   6.611
 6081SOL     OW19141   1.262   2.997   4.593
 6081SOL    HW119142   1.166   2.993   4.622
 6081SOL    HW219143   1.270   2.960   4.501
 6082SOL     OW19144   3.957   1.319   0.878
 6082SOL    HW119145   3.924   1.321   0.783
 6082SOL    HW219146   3.878   1.320   0.940
 6083SOL     OW19147   4.794   6.505   6.158
 6083SOL    HW119148   4.780   6.453   6.074
 6083SOL    HW219149   4.717   6.568   6.171
 6084SOL     OW19150   0.398   0.097   2.737
 6084SOL    HW119151   0.393   7.018   2.716
 6084SOL    HW219152   0.449   0.111   2.822
 6085SOL     OW19153   0.119   5.709   0.388
 6085SOL    HW119154   0.022   5.733   0.391
 6085SOL    HW219155   0.134   5.625   0.441
 6086SOL     OW19156   3.817   3.650   6.455
 6086SOL    HW119157   3.725   3.689   6.461
 6086SOL    HW219158   3.819   3.560   6.498
 6087SOL     OW19159   5.147   6.577   0.674
 6087SOL    HW119160   5.125   6.480   0.665
 6087SOL    HW219161   5.095   6.630   0.607
 6088SOL     OW19162   5.197   6.893   3.700
 6088SOL    HW119163   5.179   6.889   3.798
 6088SOL    HW219164   5.229   6.985   3.675
 6089SOL     OW19165   5.965   2.954   3.124
 6089SOL    HW119166   6.036   3.023   3.137
 6089SOL    HW219167   6.000   2.865   3.153
 6090SOL     OW19168   3.994   6.670   4.395
 6090SOL    HW119169   4.020   6.732   4.469
 6090SOL    HW219170   3.903   6.633   4.413
 6091SOL     OW19171   2.371   1.284   1.382
 6091SOL    HW119172   2.287   1.333   1.358
 6091SOL    HW219173   2.415   1.251   1.298
 6092SOL     OW19174   4.342   6.103   1.831
 6092SOL    HW119175   4.385   6.121   1.919
 6092SOL    HW219176   4.381   6.164   1.762
 6093SOL     OW19177   2.470   1.412   2.561
 6093SOL    HW119178   2.433   1.337   2.507
 6093SOL    HW219179   2.559   1.439   2.524
 6094SOL     OW19180   0.572   6.422   4.702
 6094SOL    HW119181   0.655   6.456   4.658
 6094SOL    HW219182   0.495   6.429   4.638
 6095SOL     OW19183   4.253   5.927   0.239
 6095SOL    HW119184   4.261   5.959   0.144
 6095SOL    HW219185   4.330   5.867   0.260
 6096SOL     OW19186   6.082   6.500   2.240
 6096SOL    HW119187   6.032   6.475   2.323
 6096SOL    HW219188   6.179   6.509   2.262
 6097SOL     OW19189   2.024   5.923   2.285
 6097SOL    HW119190   2.116   5.892   2.259
 6097SOL    HW219191   2.022   6.023   2.289
 6098SOL     OW19192   6.651   1.182   4.937
 6098SOL    HW119193   6.581   1.120   4.972
 6098SOL    HW219194   6.713   1.207   5.011
 6099SOL     OW19195   4.552   6.639   6.228
 6099SOL    HW119196   4.509   6.574   6.292
 6099SOL    HW219197   4.544   6.731   6.266
 6100SOL     OW19198   6.696   5.949   3.942
 6100SOL    HW119199   6.602   5.951   3.974
 6100SOL    HW219200   6.700   5.975   3.845
 6101SOL     OW19201   6.431   2.280   1.429
 6101SOL    HW119202   6.427   2.233   1.517
 6101SOL    HW219203   6.517   2.330   1.421
 6102SOL     OW19204   4.273   6.637   1.877
 6102SOL    HW119205   4.363   6.605   1.907
 6102SOL    HW219206   4.270   6.737   1.883
 6103SOL     OW19207   0.139   1.150   1.374
 6103SOL    HW119208   0.075   1.143   1.297
 6103SOL    HW219209   0.215   1.211   1.349
 6104SOL     OW19210   5.937   1.532   4.417
 6104SOL    HW119211   5.881   1.505   4.339
 6104SOL    HW219212   6.003   1.459   4.437
 6105SOL     OW19213   2.591   5.951   5.560
 6105SOL    HW119214   2.603   5.892   5.481
 6105SOL    HW219215   2.579   5.896   5.642
 6106SOL     OW19216   6.783   4.294   6.869
 6106SOL    HW119217   6.780   4.224   6.797
 6106SOL    HW219218   6.872   4.291   6.914
 6107SOL     OW19219   4.695   4.748   5.177
 6107SOL    HW119220   4.760   4.737   5.252
 6107SOL    HW219221   4.741   4.787   5.098
 6108SOL     OW19222   1.775   1.688   1.567
 6108SOL    HW119223   1.801   1.681   1.664
 6108SOL    HW219224   1.804   1.776   1.531
 6109SOL     OW19225   6.255   6.521   3.091
 6109SOL    HW119226   6.313   6.507   3.011
 6109SOL    HW219227   6.299   6.583   3.155
 6110SOL     OW19228   2.032   1.807   5.421
 6110SOL    HW119229   1.966   1.831   5.350
 6110SOL    HW219230   2.102   1.878   5.427
 6111SOL     OW19231   1.866   4.124   1.524
 6111SOL    HW119232   1.954   4.147   1.484
 6111SOL    HW219233   1.793   4.165   1.469
 6112SOL     OW19234   4.808   0.080   2.607
 6112SOL    HW119235   4.827   7.011   2.653
 6112SOL    HW219236   4.890   0.111   2.559
 6113SOL     OW19237   1.953   5.654   6.714
 6113SOL    HW119238   2.040   5.703   6.712
 6113SOL    HW219239   1.879   5.717   6.690
 6114SOL     OW19240   5.146   1.304   0.884
 6114SOL    HW119241   5.081   1.286   0.957
 6114SOL    HW219242   5.187   1.394   0.897
 6115SOL     OW19243   1.078   0.729   5.078
 6115SOL    HW119244   1.102   0.798   5.147
 6115SOL    HW219245   0.985   0.746   5.045
 6116SOL     OW19246   4.286   1.978   4.997
 6116SOL    HW119247   4.376   1.948   4.965
 6116SOL    HW219248   4.221   1.973   4.922
 6117SOL     OW19249   1.465   1.853   2.684
 6117SOL    HW119250   1.417   1.766   2.691
 6117SOL    HW219251   1.502   1.863   2.592
 6118SOL     OW19252   6.004   0.799   0.050
 6118SOL    HW119253   5.961   0.817   6.979
 6118SOL    HW219254   6.085   0.742   0.037
 6119SOL     OW19255   0.081   1.901   1.156
 6119SOL    HW119256   0.033   1.867   1.238
 6119SOL    HW219257   0.023   1.887   1.076
 6120SOL     OW19258   2.184   0.474   5.715
 6120SOL    HW119259   2.100   0.527   5.708
 6120SOL    HW219260   2.164   0.387   5.761
 6121SOL     OW19261   0.739   3.045   5.006
 6121SOL    HW119262   0.747   3.077   5.101
 6121SOL    HW219263   0.822   3.068   4.956
 6122SOL     OW19264   5.094   5.608   5.499
 6122SOL    HW119265   5.068   5.515   5.527
 6122SOL    HW219266   5.018   5.670   5.517
 6123SOL     OW19267   6.083   1.348   5.255
 6123SOL    HW119268   6.012   1.288   5.217
 6123SOL    HW219269   6.057   1.376   5.347
 6124SOL     OW19270   2.429   6.900   4.217
 6124SOL    HW119271   2.372   6.819   4.230
 6124SOL    HW219272   2.473   6.895   4.127
 6125SOL     OW19273   1.671   2.755   6.668
 6125SOL    HW119274   1.626   2.671   6.698
 6125SOL    HW219275   1.768   2.736   6.648
 6126SOL     OW19276   6.572   3.211   5.326
 6126SOL    HW119277   6.599   3.118   5.300
 6126SOL    HW219278   6.644   3.275   5.299
 6127SOL     OW19279   4.095   2.003   1.290
 6127SOL    HW119280   4.052   2.076   1.237
 6127SOL    HW219281   4.095   2.028   1.387
 6128SOL     OW19282   5.919   6.350   0.347
 6128SOL    HW119283   5.868   6.434   0.364
 6128SOL    HW219284   5.961   6.354   0.257
 6129SOL     OW19285   1.831   4.999   3.136
 6129SOL    HW119286   1.767   4.964   3.067
 6129SOL    HW219287   1.908   4.936   3.146
 6130SOL     OW19288   4.995   3.166   1.403
 6130SOL    HW119289   4.997   3.071   1.437
 6130SOL    HW219290   5.084   3.209   1.418
 6131SOL     OW19291   0.140   1.938   2.411
 6131SOL    HW119292   0.105   1.980   2.494
 6131SOL    HW219293   0.128   2.000   2.334
 6132SOL     OW19294   3.114   2.228   6.590
 6132SOL    HW119295   3.118   2.148   6.649
 6132SOL    HW219296   3.173   2.213   6.510
 6133SOL     OW19297   1.756   2.333   3.872
 6133SOL    HW119298   1.713   2.260   3.925
 6133SOL    HW219299   1.776   2.411   3.932
 6134SOL     OW19300   5.138   6.318   5.917
 6134SOL    HW119301   5.101   6.242   5.971
 6134SOL    HW219302   5.202   6.283   5.850
 6135SOL     OW19303   6.163   0.633   6.931
 6135SOL    HW119304   6.187   0.536   6.930
 6135SOL    HW219305   6.149   0.664   6.838
 6136SOL     OW19306   1.380   2.649   2.517
 6136SOL    HW119307   1.286   2.639   2.551
 6136SOL    HW219308   1.379   2.666   2.419
 6137SOL     OW19309   0.092   4.323   2.484
 6137SOL    HW119310   0.018   4.268   2.523
 6137SOL    HW219311   0.059   4.416   2.467
 6138SOL     OW19312   2.690   0.060   2.041
 6138SOL    HW119313   2.696   0.053   1.942
 6138SOL    HW219314   2.678   0.156   2.067
 6139SOL     OW19315   1.727   6.584   5.539
 6139SOL    HW119316   1.713   6.489   5.513
 6139SOL    HW219317   1.720   6.593   5.639
 6140SOL     OW19318   1.977   0.401   3.201
 6140SOL    HW119319   1.929   0.414   3.115
 6140SOL    HW219320   2.072   0.375   3.183
 6141SOL     OW19321   0.438   0.324   5.760
 6141SOL    HW119322   0.417   0.308   5.856
 6141SOL    HW219323   0.442   0.422   5.742
 6142SOL     OW19324   0.486   0.787   0.555
 6142SOL    HW119325   0.420   0.789   0.479
 6142SOL    HW219326   0.551   0.862   0.545
 6143SOL     OW19327   5.852   3.443   6.283
 6143SOL    HW119328   5.764   3.479   6.314
 6143SOL    HW219329   5.922   3.465   6.352
 6144SOL     OW19330   5.061   4.184   2.733
 6144SOL    HW119331   5.014   4.266   2.701
 6144SOL    HW219332   5.000   4.106   2.728
 6145SOL     OW19333   4.883   3.597   4.644
 6145SOL    HW119334   4.979   3.570   4.633
 6145SOL    HW219335   4.828   3.554   4.573
 6146SOL     OW19336   4.651   0.690   4.720
 6146SOL    HW119337   4.630   0.612   4.780
 6146SOL    HW219338   4.619   0.774   4.762
 6147SOL     OW19339   2.642   2.485   3.986
 6147SOL    HW119340   2.605   2.396   4.010
 6147SOL    HW219341   2.608   2.554   4.050
 6148SOL     OW19342   3.626   5.760   6.689
 6148SOL    HW119343   3.687   5.706   6.747
 6148SOL    HW219344   3.533   5.757   6.726
 6149SOL     OW19345   2.445   0.232   1.793
 6149SOL    HW119346   2.403   0.312   1.836
 6149SOL    HW219347   2.381   0.195   1.725
 6150SOL     OW19348   6.335   4.063   6.407
 6150SOL    HW119349   6.314   4.072   6.504
 6150SOL    HW219350   6.304   4.146   6.359
 6151SOL     OW19351   4.669   4.528   4.542
 6151SOL    HW119352   4.745   4.508   4.480
 6151SOL    HW219353   4.696   4.508   4.636
 6152SOL     OW19354   0.549   4.574   4.066
 6152SOL    HW119355   0.458   4.542   4.093
 6152SOL    HW219356   0.618   4.510   4.101
 6153SOL     OW19357   4.878   5.445   1.182
 6153SOL    HW119358   4.927   5.522   1.142
 6153SOL    HW219359   4.875   5.455   1.282
 6154SOL     OW19360   5.707   3.041   2.291
 6154SOL    HW119361   5.644   3.018   2.217
 6154SOL    HW219362   5.759   2.959   2.316
 6155SOL     OW19363   2.544   0.746   2.793
 6155SOL    HW119364   2.467   0.683   2.794
 6155SOL    HW219365   2.511   0.839   2.812
 6156SOL     OW19366   5.123   4.465   1.356
 6156SOL    HW119367   5.184   4.433   1.429
 6156SOL    HW219368   5.177   4.508   1.284
 6157SOL     OW19369   1.219   2.066   3.003
 6157SOL    HW119370   1.121   2.064   3.022
 6157SOL    HW219371   1.235   2.059   2.905
 6158SOL     OW19372   2.661   2.653   5.358
 6158SOL    HW119373   2.689   2.594   5.434
 6158SOL    HW219374   2.729   2.726   5.345
 6159SOL     OW19375   6.099   1.650   0.418
 6159SOL    HW119376   6.040   1.684   0.491
 6159SOL    HW219377   6.076   1.554   0.398
 6160SOL     OW19378   0.640   6.985   6.949
 6160SOL    HW119379   0.661   0.060   6.919
 6160SOL    HW219380   0.696   6.920   6.897
 6161SOL     OW19381   4.933   2.168   6.510
 6161SOL    HW119382   4.961   2.246   6.453
 6161SOL    HW219383   5.005   2.099   6.508
 6162SOL     OW19384   6.569   5.680   2.705
 6162SOL    HW119385   6.568   5.779   2.690
 6162SOL    HW219386   6.527   5.635   2.626
 6163SOL     OW19387   5.951   6.531   2.878
 6163SOL    HW119388   6.009   6.549   2.957
 6163SOL    HW219389   5.885   6.459   2.901
 6164SOL     OW19390   4.145   3.401   4.038
 6164SOL    HW119391   4.118   3.343   4.115
 6164SOL    HW219392   4.152   3.345   3.955
 6165SOL     OW19393   4.243   2.163   0.427
 6165SOL    HW119394   4.223   2.137   0.332
 6165SOL    HW219395   4.162   2.203   0.468
 6166SOL     OW19396   0.675   2.535   0.060
 6166SOL    HW119397   0.659   2.629   0.029
 6166SOL    HW219398   0.744   2.492   0.002
 6167SOL     OW19399   1.382   3.394   3.756
 6167SOL    HW119400   1.449   3.381   3.828
 6167SOL    HW219401   1.290   3.378   3.793
 6168SOL     OW19402   0.014   2.868   4.438
 6168SOL    HW119403   0.051   2.841   4.527
 6168SOL    HW219404   0.002   2.967   4.436
 6169SOL     OW19405   1.363   0.028   0.034
 6169SOL    HW119406   1.323   0.017   6.961
 6169SOL    HW219407   1.443   0.088   0.028
 6170SOL     OW19408   3.548   4.475   7.007
 6170SOL    HW119409   3.616   4.428   6.951
 6170SOL    HW219410   3.491   4.532   6.948
 6171SOL     OW19411   1.460   5.118   2.669
 6171SOL    HW119412   1.450   5.126   2.570
 6171SOL    HW219413   1.374   5.089   2.710
 6172SOL     OW19414   1.658   0.062   2.685
 6172SOL    HW119415   1.645   0.130   2.757
 6172SOL    HW219416   1.654   6.988   2.723
 6173SOL     OW19417   1.051   4.364   3.368
 6173SOL    HW119418   1.057   4.266   3.348
 6173SOL    HW219419   1.007   4.410   3.291
 6174SOL     OW19420   5.799   5.059   2.547
 6174SOL    HW119421   5.868   5.125   2.517
 6174SOL    HW219422   5.841   4.968   2.556
 6175SOL     OW19423   5.090   6.658   2.591
 6175SOL    HW119424   5.133   6.676   2.680
 6175SOL    HW219425   5.003   6.612   2.605
 6176SOL     OW19426   5.772   2.813   6.381
 6176SOL    HW119427   5.748   2.754   6.458
 6176SOL    HW219428   5.870   2.805   6.362
 6177SOL     OW19429   5.587   2.002   1.905
 6177SOL    HW119430   5.600   2.001   1.805
 6177SOL    HW219431   5.653   1.940   1.947
 6178SOL     OW19432   4.889   3.802   0.504
 6178SOL    HW119433   4.899   3.788   0.603
 6178SOL    HW219434   4.923   3.893   0.480
 6179SOL     OW19435   0.597   3.041   5.403
 6179SOL    HW119436   0.621   2.994   5.488
 6179SOL    HW219437   0.681   3.070   5.356
 6180SOL     OW19438   3.455   6.790   0.959
 6180SOL    HW119439   3.423   6.833   0.875
 6180SOL    HW219440   3.475   6.694   0.942
 6181SOL     OW19441   5.095   6.045   6.612
 6181SOL    HW119442   5.148   6.062   6.694
 6181SOL    HW219443   5.050   5.955   6.619
 6182SOL     OW19444   5.288   5.405   5.668
 6182SOL    HW119445   5.297   5.311   5.637
 6182SOL    HW219446   5.321   5.413   5.762
 6183SOL     OW19447   2.720   0.013   2.934
 6183SOL    HW119448   2.731   0.038   3.030
 6183SOL    HW219449   2.644   6.968   2.924
 6184SOL     OW19450   1.060   0.276   6.677
 6184SOL    HW119451   1.066   0.176   6.671
 6184SOL    HW219452   1.086   0.317   6.590
 6185SOL     OW19453   6.743   4.034   6.424
 6185SOL    HW119454   6.671   4.096   6.394
 6185SOL    HW219455   6.829   4.085   6.432
 6186SOL     OW19456   5.539   0.223   3.641
 6186SOL    HW119457   5.540   0.146   3.704
 6186SOL    HW219458   5.528   0.308   3.692
 6187SOL     OW19459   4.559   4.446   4.200
 6187SOL    HW119460   4.506   4.401   4.273
 6187SOL    HW219461   4.529   4.541   4.191
 6188SOL     OW19462   3.160   6.181   1.398
 6188SOL    HW119463   3.248   6.177   1.352
 6188SOL    HW219464   3.102   6.249   1.353
 6189SOL     OW19465   5.273   5.631   3.196
 6189SOL    HW119466   5.251   5.694   3.122
 6189SOL    HW219467   5.329   5.557   3.161
 6190SOL     OW19468   5.073   2.636   6.253
 6190SOL    HW119469   5.067   2.664   6.158
 6190SOL    HW219470   5.113   2.709   6.307
 6191SOL     OW19471   5.616   1.920   0.498
 6191SOL    HW119472   5.537   1.928   0.437
 6191SOL    HW219473   5.658   1.829   0.487
 6192SOL     OW19474   2.757   3.431   0.697
 6192SOL    HW119475   2.803   3.406   0.782
 6192SOL    HW219476   2.694   3.358   0.669
 6193SOL     OW19477   5.210   0.125   2.169
 6193SOL    HW119478   5.197   0.168   2.080
 6193SOL    HW219479   5.248   0.191   2.234
 6194SOL     OW19480   2.248   0.903   0.919
 6194SOL    HW119481   2.201   0.816   0.908
 6194SOL    HW219482   2.196   0.975   0.873
 6195SOL     OW19483   3.733   6.180   6.295
 6195SOL    HW119484   3.667   6.107   6.276
 6195SOL    HW219485   3.820   6.140   6.322
 6196SOL     OW19486   1.404   2.092   5.815
 6196SOL    HW119487   1.340   2.157   5.772
 6196SOL    HW219488   1.497   2.126   5.804
 6197SOL     OW19489   2.908   4.148   1.093
 6197SOL    HW119490   2.910   4.169   1.191
 6197SOL    HW219491   2.979   4.200   1.046
 6198SOL     OW19492   3.822   4.931   2.516
 6198SOL    HW119493   3.739   4.908   2.465
 6198SOL    HW219494   3.797   4.973   2.603
 6199SOL     OW19495   1.384   0.205   0.988
 6199SOL    HW119496   1.452   0.135   1.009
 6199SOL    HW219497   1.382   0.273   1.061
 6200SOL     OW19498   3.111   1.286   6.702
 6200SOL    HW119499   3.038   1.321   6.761
 6200SOL    HW219500   3.084   1.298   6.606
 6201SOL     OW19501   2.122   3.532   5.432
 6201SOL    HW119502   2.047   3.583   5.389
 6201SOL    HW219503   2.198   3.524   5.367
 6202SOL     OW19504   3.071   2.007   1.118
 6202SOL    HW119505   3.077   2.021   1.217
 6202SOL    HW219506   3.156   1.967   1.085
 6203SOL     OW19507   5.021   1.165   4.568
 6203SOL    HW119508   4.990   1.139   4.659
 6203SOL    HW219509   5.087   1.098   4.535
 6204SOL     OW19510   1.507   5.518   5.036
 6204SOL    HW119511   1.541   5.604   4.998
 6204SOL    HW219512   1.559   5.441   4.998
 6205SOL     OW19513   4.965   5.389   6.749
 6205SOL    HW119514   4.906   5.310   6.764
 6205SOL    HW219515   5.057   5.358   6.724
 6206SOL     OW19516   6.749   0.961   1.711
 6206SOL    HW119517   6.755   0.934   1.615
 6206SOL    HW219518   6.764   0.881   1.770
 6207SOL     OW19519   1.093   4.191   4.989
 6207SOL    HW119520   1.142   4.179   5.075
 6207SOL    HW219521   1.158   4.205   4.915
 6208SOL     OW19522   6.567   0.168   6.290
 6208SOL    HW119523   6.515   0.095   6.334
 6208SOL    HW219524   6.659   0.135   6.268
 6209SOL     OW19525   4.510   6.068   0.096
 6209SOL    HW119526   4.443   6.134   0.061
 6209SOL    HW219527   4.599   6.113   0.103
 6210SOL     OW19528   5.520   3.978   2.736
 6210SOL    HW119529   5.521   3.938   2.644
 6210SOL    HW219530   5.608   3.961   2.781
 6211SOL     OW19531   2.353   0.649   5.913
 6211SOL    HW119532   2.375   0.570   5.855
 6211SOL    HW219533   2.254   0.662   5.915
 6212SOL     OW19534   6.402   6.032   3.747
 6212SOL    HW119535   6.418   6.112   3.805
 6212SOL    HW219536   6.449   6.045   3.659
 6213SOL     OW19537   5.752   0.517   6.757
 6213SOL    HW119538   5.831   0.569   6.791
 6213SOL    HW219539   5.739   0.435   6.813
 6214SOL     OW19540   6.231   5.045   2.423
 6214SOL    HW119541   6.206   4.999   2.508
 6214SOL    HW219542   6.150   5.090   2.385
 6215SOL     OW19543   2.962   2.815   1.066
 6215SOL    HW119544   3.018   2.873   1.007
 6215SOL    HW219545   2.984   2.834   1.162
 6216SOL     OW19546   5.650   1.265   2.127
 6216SOL    HW119547   5.704   1.250   2.209
 6216SOL    HW219548   5.711   1.275   2.048
 6217SOL     OW19549   4.715   2.813   1.453
 6217SOL    HW119550   4.640   2.857   1.503
 6217SOL    HW219551   4.802   2.849   1.484
 6218SOL     OW19552   1.952   4.861   4.892
 6218SOL    HW119553   2.004   4.778   4.876
 6218SOL    HW219554   1.949   4.915   4.808
 6219SOL     OW19555   1.522   2.030   5.164
 6219SOL    HW119556   1.503   2.084   5.245
 6219SOL    HW219557   1.498   2.083   5.082
 6220SOL     OW19558   1.816   4.667   5.628
 6220SOL    HW119559   1.883   4.638   5.697
 6220SOL    HW219560   1.859   4.665   5.538
 6221SOL     OW19561   4.400   5.348   4.353
 6221SOL    HW119562   4.409   5.269   4.414
 6221SOL    HW219563   4.323   5.334   4.291
 6222SOL     OW19564   6.907   0.185   1.877
 6222SOL    HW119565   6.890   0.241   1.795
 6222SOL    HW219566   6.904   0.244   1.958
 6223SOL     OW19567   5.542   4.281   4.353
 6223SOL    HW119568   5.518   4.196   4.400
 6223SOL    HW219569   5.587   4.343   4.417
 6224SOL     OW19570   1.789   1.277   5.664
 6224SOL    HW119571   1.765   1.361   5.615
 6224SOL    HW219572   1.723   1.262   5.737
 6225SOL     OW19573   3.531   3.759   0.845
 6225SOL    HW119574   3.439   3.721   0.852
 6225SOL    HW219575   3.597   3.694   0.884
 6226SOL     OW19576   5.325   0.798   4.010
 6226SOL    HW119577   5.348   0.881   3.959
 6226SOL    HW219578   5.325   0.818   4.108
 6227SOL     OW19579   3.273   4.259   5.715
 6227SOL    HW119580   3.261   4.222   5.623
 6227SOL    HW219581   3.195   4.318   5.738
 6228SOL     OW19582   6.647   1.204   2.998
 6228SOL    HW119583   6.621   1.155   2.915
 6228SOL    HW219584   6.700   1.286   2.974
 6229SOL     OW19585   2.584   2.239   3.047
 6229SOL    HW119586   2.590   2.318   2.985
 6229SOL    HW219587   2.643   2.254   3.126
 6230SOL     OW19588   2.384   1.468   4.138
 6230SOL    HW119589   2.357   1.401   4.069
 6230SOL    HW219590   2.310   1.534   4.152
 6231SOL     OW19591   0.345   5.004   1.303
 6231SOL    HW119592   0.333   5.098   1.335
 6231SOL    HW219593   0.262   4.952   1.323
 6232SOL     OW19594   0.051   1.096   6.969
 6232SOL    HW119595   0.003   1.167   0.004
 6232SOL    HW219596   0.147   1.095   6.996
 6233SOL     OW19597   5.036   1.763   6.781
 6233SOL    HW119598   5.015   1.681   6.727
 6233SOL    HW219599   4.969   1.773   6.854
 6234SOL     OW19600   1.517   1.720   4.635
 6234SOL    HW119601   1.604   1.690   4.596
 6234SOL    HW219602   1.489   1.657   4.707
 6235SOL     OW19603   1.957   6.856   2.900
 6235SOL    HW119604   1.976   6.954   2.899
 6235SOL    HW219605   1.940   6.826   2.994
 6236SOL     OW19606   0.699   5.186   1.126
 6236SOL    HW119607   0.702   5.197   1.026
 6236SOL    HW219608   0.617   5.136   1.152
 6237SOL     OW19609   4.693   6.963   0.663
 6237SOL    HW119610   4.715   6.919   0.750
 6237SOL    HW219611   4.594   6.982   0.660
 6238SOL     OW19612   5.114   5.436   1.884
 6238SOL    HW119613   5.196   5.431   1.942
 6238SOL    HW219614   5.041   5.382   1.925
 6239SOL     OW19615   3.082   6.867   2.664
 6239SOL    HW119616   3.049   6.812   2.588
 6239SOL    HW219617   3.182   6.875   2.658
 6240SOL     OW19618   2.045   3.120   0.326
 6240SOL    HW119619   2.073   3.155   0.237
 6240SOL    HW219620   1.975   3.050   0.314
 6241SOL     OW19621   2.797   0.628   1.655
 6241SOL    HW119622   2.757   0.702   1.708
 6241SOL    HW219623   2.740   0.546   1.663
 6242SOL     OW19624   4.941   1.918   3.795
 6242SOL    HW119625   5.038   1.896   3.782
 6242SOL    HW219626   4.912   1.982   3.724
 6243SOL     OW19627   5.491   6.713   3.889
 6243SOL    HW119628   5.454   6.691   3.979
 6243SOL    HW219629   5.496   6.631   3.833
 6244SOL     OW19630   2.675   2.390   2.603
 6244SOL    HW119631   2.752   2.330   2.623
 6244SOL    HW219632   2.697   2.447   2.523
 6245SOL     OW19633   3.052   5.073   1.694
 6245SOL    HW119634   3.030   4.989   1.743
 6245SOL    HW219635   3.106   5.051   1.613
 6246SOL     OW19636   2.736   1.799   6.314
 6246SOL    HW119637   2.793   1.726   6.277
 6246SOL    HW219638   2.680   1.839   6.242
 6247SOL     OW19639   0.553   6.477   3.574
 6247SOL    HW119640   0.500   6.450   3.494
 6247SOL    HW219641   0.491   6.510   3.646
 6248SOL     OW19642   0.795   4.659   1.450
 6248SOL    HW119643   0.867   4.626   1.511
 6248SOL    HW219644   0.799   4.759   1.444
 6249SOL     OW19645   7.012   4.379   7.005
 6249SOL    HW119646   6.991   4.390   0.084
 6249SOL    HW219647   0.028   4.465   6.967
 6250SOL     OW19648   6.548   6.149   6.932
 6250SOL    HW119649   6.556   6.229   6.991
 6250SOL    HW219650   6.610   6.158   6.855
 6251SOL     OW19651   4.341   1.227   0.982
 6251SOL    HW119652   4.421   1.168   0.971
 6251SOL    HW219653   4.355   1.288   1.059
 6252SOL     OW19654   2.723   5.031   4.795
 6252SOL    HW119655   2.815   5.070   4.801
 6252SOL    HW219656   2.725   4.951   4.734
 6253SOL     OW19657   2.617   4.148   1.719
 6253SOL    HW119658   2.550   4.197   1.776
 6253SOL    HW219659   2.674   4.214   1.671
 6254SOL     OW19660   6.288   6.824   0.213
 6254SOL    HW119661   6.238   6.819   0.127
 6254SOL    HW219662   6.269   6.742   0.268
 6255SOL     OW19663   1.072   1.533   1.733
 6255SOL    HW119664   1.168   1.559   1.720
 6255SOL    HW219665   1.054   1.448   1.683
 6256SOL     OW19666   4.106   4.903   2.643
 6256SOL    HW119667   4.061   4.986   2.611
 6256SOL    HW219668   4.052   4.863   2.717
 6257SOL     OW19669   5.772   2.533   0.922
 6257SOL    HW119670   5.703   2.515   0.851
 6257SOL    HW219671   5.863   2.518   0.884
 6258SOL     OW19672   4.270   1.159   2.241
 6258SOL    HW119673   4.225   1.211   2.169
 6258SOL    HW219674   4.236   1.065   2.241
 6259SOL     OW19675   3.310   2.216   0.975
 6259SOL    HW119676   3.303   2.117   0.988
 6259SOL    HW219677   3.224   2.260   1.000
 6260SOL     OW19678   4.069   3.722   0.430
 6260SOL    HW119679   4.017   3.637   0.435
 6260SOL    HW219680   4.102   3.735   0.336
 6261SOL     OW19681   3.779   0.337   0.461
 6261SOL    HW119682   3.867   0.359   0.503
 6261SOL    HW219683   3.751   0.412   0.401
 6262SOL     OW19684   1.160   4.268   0.342
 6262SOL    HW119685   1.061   4.272   0.354
 6262SOL    HW219686   1.181   4.207   0.265
 6263SOL     OW19687   0.381   6.766   6.868
 6263SOL    HW119688   0.443   6.792   6.793
 6263SOL    HW219689   0.420   6.796   6.955
 6264SOL     OW19690   2.624   2.147   0.698
 6264SOL    HW119691   2.715   2.156   0.658
 6264SOL    HW219692   2.632   2.140   0.798
 6265SOL     OW19693   4.147   4.543   0.877
 6265SOL    HW119694   4.084   4.485   0.826
 6265SOL    HW219695   4.110   4.561   0.968
 6266SOL     OW19696   3.558   0.926   3.547
 6266SOL    HW119697   3.519   0.868   3.475
 6266SOL    HW219698   3.488   0.987   3.583
 6267SOL     OW19699   2.843   0.232   0.245
 6267SOL    HW119700   2.804   0.288   0.172
 6267SOL    HW219701   2.872   0.291   0.321
 6268SOL     OW19702   3.070   5.148   2.848
 6268SOL    HW119703   2.984   5.197   2.856
 6268SOL    HW219704   3.061   5.058   2.891
 6269SOL     OW19705   5.889   6.156   2.254
 6269SOL    HW119706   5.820   6.091   2.288
 6269SOL    HW219707   5.870   6.178   2.159
 6270SOL     OW19708   1.408   1.185   4.823
 6270SOL    HW119709   1.345   1.228   4.757
 6270SOL    HW219710   1.502   1.195   4.791
 6271SOL     OW19711   6.825   2.483   6.365
 6271SOL    HW119712   6.775   2.398   6.350
 6271SOL    HW219713   6.862   2.484   6.458
 6272SOL     OW19714   2.322   2.766   4.350
 6272SOL    HW119715   2.239   2.720   4.382
 6272SOL    HW219716   2.305   2.864   4.341
 6273SOL     OW19717   2.116   1.401   1.326
 6273SOL    HW119718   2.043   1.423   1.390
 6273SOL    HW219719   2.080   1.345   1.251
 6274SOL     OW19720   3.224   5.928   6.753
 6274SOL    HW119721   3.272   6.016   6.761
 6274SOL    HW219722   3.168   5.913   6.835
 6275SOL     OW19723   2.365   0.222   4.854
 6275SOL    HW119724   2.335   0.152   4.789
 6275SOL    HW219725   2.398   0.178   4.938
 6276SOL     OW19726   0.943   5.387   3.513
 6276SOL    HW119727   1.010   5.355   3.580
 6276SOL    HW219728   0.917   5.481   3.533
 6277SOL     OW19729   5.333   2.430   2.573
 6277SOL    HW119730   5.363   2.517   2.612
 6277SOL    HW219731   5.308   2.443   2.477
 6278SOL     OW19732   4.846   0.306   4.495
 6278SOL    HW119733   4.774   0.273   4.557
 6278SOL    HW219734   4.865   0.402   4.515
 6279SOL     OW19735   3.767   1.911   0.673
 6279SOL    HW119736   3.858   1.878   0.697
 6279SOL    HW219737   3.711   1.917   0.755
 6280SOL     OW19738   0.350   3.412   5.986
 6280SOL    HW119739   0.310   3.492   6.032
 6280SOL    HW219740   0.341   3.423   5.887
 6281SOL     OW19741   2.165   0.225   5.202
 6281SOL    HW119742   2.114   0.150   5.245
 6281SOL    HW219743   2.105   0.305   5.193
 6282SOL     OW19744   1.886   0.179   4.598
 6282SOL    HW119745   1.859   0.130   4.681
 6282SOL    HW219746   1.897   0.276   4.618
 6283SOL     OW19747   6.973   2.573   5.553
 6283SOL    HW119748   7.007   2.533   5.638
 6283SOL    HW219749   6.986   2.508   5.478
 6284SOL     OW19750   1.276   5.085   5.561
 6284SOL    HW119751   1.207   5.120   5.624
 6284SOL    HW219752   1.262   4.988   5.545
 6285SOL     OW19753   1.372   2.703   3.984
 6285SOL    HW119754   1.303   2.664   3.924
 6285SOL    HW219755   1.328   2.744   4.063
 6286SOL     OW19756   5.650   1.640   3.030
 6286SOL    HW119757   5.679   1.669   2.939
 6286SOL    HW219758   5.657   1.717   3.094
 6287SOL     OW19759   4.858   3.690   2.082
 6287SOL    HW119760   4.848   3.643   1.995
 6287SOL    HW219761   4.859   3.789   2.067
 6288SOL     OW19762   5.276   3.822   0.157
 6288SOL    HW119763   5.330   3.738   0.168
 6288SOL    HW219764   5.179   3.798   0.157
 6289SOL     OW19765   2.080   2.213   3.781
 6289SOL    HW119766   1.987   2.182   3.801
 6289SOL    HW219767   2.128   2.143   3.728
 6290SOL     OW19768   5.078   3.948   3.978
 6290SOL    HW119769   5.153   3.930   3.915
 6290SOL    HW219770   5.090   4.038   4.019
 6291SOL     OW19771   3.687   3.572   3.713
 6291SOL    HW119772   3.752   3.500   3.739
 6291SOL    HW219773   3.643   3.609   3.796
 6292SOL     OW19774   0.700   1.797   3.021
 6292SOL    HW119775   0.629   1.867   3.026
 6292SOL    HW219776   0.665   1.718   2.969
 6293SOL     OW19777   5.437   0.151   6.878
 6293SOL    HW119778   5.530   0.185   6.896
 6293SOL    HW219779   5.417   0.160   6.780
 6294SOL     OW19780   3.488   5.318   2.917
 6294SOL    HW119781   3.548   5.248   2.878
 6294SOL    HW219782   3.444   5.282   2.999
 6295SOL     OW19783   5.478   5.616   5.693
 6295SOL    HW119784   5.420   5.561   5.633
 6295SOL    HW219785   5.573   5.606   5.666
 6296SOL     OW19786   6.903   0.851   3.797
 6296SOL    HW119787   6.898   0.832   3.895
 6296SOL    HW219788   6.970   0.924   3.781
 6297SOL     OW19789   5.325   6.233   5.692
 6297SOL    HW119790   5.397   6.286   5.737
 6297SOL    HW219791   5.287   6.285   5.616
 6298SOL     OW19792   0.226   3.319   5.553
 6298SOL    HW119793   0.179   3.245   5.601
 6298SOL    HW219794   0.311   3.340   5.602
 6299SOL     OW19795   6.193   2.593   6.873
 6299SOL    HW119796   6.182   2.554   6.782
 6299SOL    HW219797   6.106   2.587   6.922
 6300SOL     OW19798   5.274   0.939   4.539
 6300SOL    HW119799   5.274   0.851   4.587
 6300SOL    HW219800   5.294   1.013   4.604
 6301SOL     OW19801   2.992   6.355   1.261
 6301SOL    HW119802   3.004   6.329   1.165
 6301SOL    HW219803   2.894   6.366   1.280
 6302SOL     OW19804   1.656   1.089   3.483
 6302SOL    HW119805   1.663   1.139   3.569
 6302SOL    HW219806   1.561   1.088   3.453
 6303SOL     OW19807   2.496   6.655   5.047
 6303SOL    HW119808   2.496   6.586   4.974
 6303SOL    HW219809   2.549   6.735   5.018
 6304SOL     OW19810   2.738   1.507   0.411
 6304SOL    HW119811   2.721   1.460   0.498
 6304SOL    HW219812   2.763   1.439   0.341
 6305SOL     OW19813   0.137   6.935   1.634
 6305SOL    HW119814   0.069   6.959   1.565
 6305SOL    HW219815   0.140   6.835   1.645
 6306SOL     OW19816   6.484   2.874   3.904
 6306SOL    HW119817   6.404   2.845   3.852
 6306SOL    HW219818   6.539   2.936   3.848
 6307SOL     OW19819   2.426   5.029   6.005
 6307SOL    HW119820   2.410   5.102   6.072
 6307SOL    HW219821   2.501   4.970   6.038
 6308SOL     OW19822   2.516   1.665   4.894
 6308SOL    HW119823   2.504   1.567   4.883
 6308SOL    HW219824   2.429   1.707   4.918
 6309SOL     OW19825   5.364   2.216   4.112
 6309SOL    HW119826   5.446   2.215   4.055
 6309SOL    HW219827   5.293   2.159   4.069
 6310SOL     OW19828   1.222   4.410   4.757
 6310SOL    HW119829   1.298   4.351   4.727
 6310SOL    HW219830   1.168   4.437   4.678
 6311SOL     OW19831   6.864   0.150   4.947
 6311SOL    HW119832   6.887   0.246   4.967
 6311SOL    HW219833   6.907   0.091   5.015
 6312SOL     OW19834   4.304   5.031   6.525
 6312SOL    HW119835   4.305   4.932   6.538
 6312SOL    HW219836   4.216   5.068   6.557
 6313SOL     OW19837   2.055   5.742   3.367
 6313SOL    HW119838   2.028   5.820   3.311
 6313SOL    HW219839   2.052   5.768   3.464
 6314SOL     OW19840   2.773   5.818   2.483
 6314SOL    HW119841   2.719   5.899   2.504
 6314SOL    HW219842   2.812   5.780   2.567
 6315SOL     OW19843   3.477   3.520   6.914
 6315SOL    HW119844   3.447   3.425   6.908
 6315SOL    HW219845   3.535   3.542   6.836
 6316SOL     OW19846   4.559   1.882   6.045
 6316SOL    HW119847   4.554   1.782   6.038
 6316SOL    HW219848   4.467   1.920   6.040
 6317SOL     OW19849   4.842   6.591   2.657
 6317SOL    HW119850   4.830   6.516   2.721
 6317SOL    HW219851   4.777   6.582   2.581
 6318SOL     OW19852   2.314   2.200   5.489
 6318SOL    HW119853   2.246   2.261   5.449
 6318SOL    HW219854   2.332   2.227   5.583
 6319SOL     OW19855   0.631   2.939   3.432
 6319SOL    HW119856   0.564   2.902   3.497
 6319SOL    HW219857   0.703   2.872   3.418
 6320SOL     OW19858   5.877   3.482   3.445
 6320SOL    HW119859   5.786   3.455   3.413
 6320SOL    HW219860   5.876   3.579   3.470
 6321SOL     OW19861   3.043   5.683   0.296
 6321SOL    HW119862   3.123   5.632   0.266
 6321SOL    HW219863   3.020   5.658   0.390
 6322SOL     OW19864   1.327   0.768   6.835
 6322SOL    HW119865   1.400   0.829   6.864
 6322SOL    HW219866   1.280   0.807   6.756
 6323SOL     OW19867   3.672   2.751   1.454
 6323SOL    HW119868   3.723   2.821   1.406
 6323SOL    HW219869   3.727   2.715   1.529
 6324SOL     OW19870   4.003   0.915   5.698
 6324SOL    HW119871   3.965   0.926   5.790
 6324SOL    HW219872   3.954   0.975   5.635
 6325SOL     OW19873   0.880   2.613   2.252
 6325SOL    HW119874   0.907   2.697   2.205
 6325SOL    HW219875   0.829   2.636   2.335
 6326SOL     OW19876   5.464   5.762   1.305
 6326SOL    HW119877   5.448   5.668   1.275
 6326SOL    HW219878   5.377   5.804   1.331
 6327SOL     OW19879   5.579   5.916   5.362
 6327SOL    HW119880   5.516   5.968   5.304
 6327SOL    HW219881   5.557   5.819   5.356
 6328SOL     OW19882   1.806   3.966   6.946
 6328SOL    HW119883   1.816   3.939   0.023
 6328SOL    HW219884   1.752   3.897   6.897
 6329SOL     OW19885   1.440   1.335   3.510
 6329SOL    HW119886   1.517   1.390   3.541
 6329SOL    HW219887   1.467   1.282   3.429
 6330SOL     OW19888   4.391   0.608   0.310
 6330SOL    HW119889   4.343   0.693   0.331
 6330SOL    HW219890   4.333   0.530   0.334
 6331SOL     OW19891   6.888   1.840   0.979
 6331SOL    HW119892   6.864   1.746   0.956
 6331SOL    HW219893   6.809   1.886   1.019
 6332SOL     OW19894   6.238   6.024   1.087
 6332SOL    HW119895   6.199   5.982   1.169
 6332SOL    HW219896   6.267   6.118   1.109
 6333SOL     OW19897   3.492   4.992   3.840
 6333SOL    HW119898   3.457   5.033   3.756
 6333SOL    HW219899   3.561   4.923   3.817
 6334SOL     OW19900   2.323   0.173   2.103
 6334SOL    HW119901   2.403   0.128   2.064
 6334SOL    HW219902   2.254   0.185   2.031
 6335SOL     OW19903   6.428   0.961   6.280
 6335SOL    HW119904   6.349   0.986   6.224
 6335SOL    HW219905   6.453   0.866   6.262
 6336SOL     OW19906   0.202   2.600   4.854
 6336SOL    HW119907   0.268   2.577   4.783
 6336SOL    HW219908   0.249   2.648   4.929
 6337SOL     OW19909   5.020   3.570   5.990
 6337SOL    HW119910   5.015   3.487   5.935
 6337SOL    HW219911   4.997   3.548   6.085
 6338SOL     OW19912   2.900   1.485   2.602
 6338SOL    HW119913   2.822   1.486   2.539
 6338SOL    HW219914   2.880   1.426   2.680
 6339SOL     OW19915   0.506   2.441   3.386
 6339SOL    HW119916   0.565   2.482   3.456
 6339SOL    HW219917   0.543   2.351   3.361
 6340SOL     OW19918   2.891   5.723   3.940
 6340SOL    HW119919   2.793   5.717   3.923
 6340SOL    HW219920   2.940   5.663   3.877
 6341SOL     OW19921   6.909   4.547   3.399
 6341SOL    HW119922   6.917   4.486   3.478
 6341SOL    HW219923   6.953   4.634   3.420
 6342SOL     OW19924   2.088   2.626   2.656
 6342SOL    HW119925   2.047   2.550   2.606
 6342SOL    HW219926   2.028   2.653   2.731
 6343SOL     OW19927   3.901   1.969   6.519
 6343SOL    HW119928   3.926   2.022   6.438
 6343SOL    HW219929   3.963   1.891   6.529
 6344SOL     OW19930   0.184   3.942   4.922
 6344SOL    HW119931   0.208   3.854   4.962
 6344SOL    HW219932   0.266   3.985   4.884
 6345SOL     OW19933   3.150   1.541   1.945
 6345SOL    HW119934   3.123   1.624   1.897
 6345SOL    HW219935   3.203   1.483   1.884
 6346SOL     OW19936   0.297   3.618   3.241
 6346SOL    HW119937   0.274   3.633   3.337
 6346SOL    HW219938   0.328   3.523   3.229
 6347SOL     OW19939   2.728   0.432   1.292
 6347SOL    HW119940   2.827   0.420   1.285
 6347SOL    HW219941   2.683   0.376   1.222
 6348SOL     OW19942   0.740   2.914   4.457
 6348SOL    HW119943   0.773   3.007   4.447
 6348SOL    HW219944   0.726   2.893   4.554
 6349SOL     OW19945   3.004   0.535   1.015
 6349SOL    HW119946   2.924   0.540   0.955
 6349SOL    HW219947   3.034   0.627   1.039
 6350SOL     OW19948   1.581   5.970   2.192
 6350SOL    HW119949   1.601   5.983   2.289
 6350SOL    HW219950   1.562   6.059   2.150
 6351SOL     OW19951   0.208   1.757   2.204
 6351SOL    HW119952   0.187   1.724   2.112
 6351SOL    HW219953   0.173   1.850   2.215
 6352SOL     OW19954   1.826   5.479   2.963
 6352SOL    HW119955   1.844   5.411   3.034
 6352SOL    HW219956   1.767   5.438   2.893
 6353SOL     OW19957   0.610   6.975   0.235
 6353SOL    HW119958   0.683   6.926   0.282
 6353SOL    HW219959   0.629   6.977   0.137
 6354SOL     OW19960   1.208   6.910   2.430
 6354SOL    HW119961   1.205   7.010   2.439
 6354SOL    HW219962   1.296   6.883   2.391
 6355SOL     OW19963   1.599   2.962   3.550
 6355SOL    HW119964   1.536   2.967   3.628
 6355SOL    HW219965   1.689   2.993   3.579
 6356SOL     OW19966   4.336   4.809   1.111
 6356SOL    HW119967   4.300   4.818   1.018
 6356SOL    HW219968   4.334   4.713   1.138
 6357SOL     OW19969   4.636   2.861   0.493
 6357SOL    HW119970   4.676   2.941   0.538
 6357SOL    HW219971   4.626   2.879   0.395
 6358SOL     OW19972   0.190   2.140   4.100
 6358SOL    HW119973   0.109   2.139   4.158
 6358SOL    HW219974   0.246   2.220   4.122
 6359SOL     OW19975   6.916   0.726   5.384
 6359SOL    HW119976   6.989   0.706   5.449
 6359SOL    HW219977   6.913   0.654   5.314
 6360SOL     OW19978   2.276   4.878   4.368
 6360SOL    HW119979   2.308   4.896   4.461
 6360SOL    HW219980   2.315   4.946   4.306
 6361SOL     OW19981   4.309   6.115   6.344
 6361SOL    HW119982   4.328   6.143   6.438
 6361SOL    HW219983   4.311   6.015   6.338
 6362SOL     OW19984   5.999   4.794   6.999
 6362SOL    HW119985   6.050   4.871   6.960
 6362SOL    HW219986   5.927   4.765   6.936
 6363SOL     OW19987   1.738   5.888   4.284
 6363SOL    HW119988   1.789   5.832   4.219
 6363SOL    HW219989   1.731   5.840   4.372
 6364SOL     OW19990   2.510   2.735   5.835
 6364SOL    HW119991   2.581   2.703   5.898
 6364SOL    HW219992   2.539   2.719   5.741
 6365SOL     OW19993   4.575   0.089   3.563
 6365SOL    HW119994   4.485   0.125   3.542
 6365SOL    HW219995   4.644   0.138   3.509
 6366SOL     OW19996   0.422   5.247   5.386
 6366SOL    HW119997   0.364   5.291   5.454
 6366SOL    HW219998   0.439   5.152   5.413
 6367SOL     OW19999   5.160   0.774   3.381
 6367SOL    HW120000   5.115   0.689   3.406
 6367SOL    HW220001   5.243   0.754   3.329
 6368SOL     OW20002   2.795   0.126   4.111
 6368SOL    HW120003   2.820   0.096   4.018
 6368SOL    HW220004   2.831   0.061   4.178
 6369SOL     OW20005   2.367   5.269   3.906
 6369SOL    HW120006   2.280   5.229   3.936
 6369SOL    HW220007   2.439   5.199   3.909
 6370SOL     OW20008   6.703   2.126   1.629
 6370SOL    HW120009   6.615   2.138   1.675
 6370SOL    HW220010   6.726   2.209   1.579
 6371SOL     OW20011   4.966   3.198   2.492
 6371SOL    HW120012   4.925   3.123   2.545
 6371SOL    HW220013   4.932   3.194   2.398
 6372SOL     OW20014   3.548   6.356   2.296
 6372SOL    HW120015   3.615   6.288   2.326
 6372SOL    HW220016   3.588   6.415   2.226
 6373SOL     OW20017   4.672   4.282   5.845
 6373SOL    HW120018   4.607   4.222   5.797
 6373SOL    HW220019   4.683   4.366   5.793
 6374SOL     OW20020   2.947   3.621   3.432
 6374SOL    HW120021   2.924   3.547   3.370
 6374SOL    HW220022   2.932   3.591   3.526
 6375SOL     OW20023   1.682   0.532   2.845
 6375SOL    HW120024   1.625   0.608   2.878
 6375SOL    HW220025   1.693   0.539   2.746
 6376SOL     OW20026   6.767   2.359   4.543
 6376SOL    HW120027   6.708   2.287   4.580
 6376SOL    HW220028   6.716   2.445   4.542
 6377SOL     OW20029   0.176   1.442   4.534
 6377SOL    HW120030   0.195   1.359   4.482
 6377SOL    HW220031   0.107   1.422   4.604
 6378SOL     OW20032   4.771   4.144   4.297
 6378SOL    HW120033   4.676   4.121   4.315
 6378SOL    HW220034   4.797   4.110   4.206
 6379SOL     OW20035   2.063   3.969   3.760
 6379SOL    HW120036   2.071   3.871   3.741
 6379SOL    HW220037   2.048   3.982   3.858
 6380SOL     OW20038   0.326   1.537   6.067
 6380SOL    HW120039   0.256   1.587   6.118
 6380SOL    HW220040   0.337   1.578   5.976
 6381SOL     OW20041   3.233   3.675   2.998
 6381SOL    HW120042   3.153   3.734   3.010
 6381SOL    HW220043   3.289   3.678   3.081
 6382SOL     OW20044   0.737   2.750   5.897
 6382SOL    HW120045   0.794   2.705   5.966
 6382SOL    HW220046   0.711   2.840   5.930
 6383SOL     OW20047   2.663   1.811   4.262
 6383SOL    HW120048   2.599   1.778   4.331
 6383SOL    HW220049   2.745   1.754   4.263
 6384SOL     OW20050   5.637   5.181   2.713
 6384SOL    HW120051   5.568   5.108   2.715
 6384SOL    HW220052   5.723   5.144   2.680
 6385SOL     OW20053   0.080   5.348   4.038
 6385SOL    HW120054   0.056   5.440   4.067
 6385SOL    HW220055   0.116   5.351   3.945
 6386SOL     OW20056   2.472   5.540   1.050
 6386SOL    HW120057   2.426   5.584   1.128
 6386SOL    HW220058   2.414   5.468   1.013
 6387SOL     OW20059   0.322   2.008   5.905
 6387SOL    HW120060   0.408   1.963   5.879
 6387SOL    HW220061   0.268   2.024   5.823
 6388SOL     OW20062   3.346   4.747   1.775
 6388SOL    HW120063   3.433   4.699   1.785
 6388SOL    HW220064   3.308   4.765   1.866
 6389SOL     OW20065   1.158   5.645   3.363
 6389SOL    HW120066   1.168   5.568   3.300
 6389SOL    HW220067   1.088   5.708   3.328
 6390SOL     OW20068   0.255   2.471   3.711
 6390SOL    HW120069   0.239   2.520   3.625
 6390SOL    HW220070   0.295   2.534   3.778
 6391SOL     OW20071   2.659   2.185   0.222
 6391SOL    HW120072   2.661   2.194   0.122
 6391SOL    HW220073   2.592   2.248   0.259
 6392SOL     OW20074   2.126   6.824   3.574
 6392SOL    HW120075   2.222   6.846   3.561
 6392SOL    HW220076   2.086   6.794   3.487
 6393SOL     OW20077   6.394   6.808   0.634
 6393SOL    HW120078   6.451   6.838   0.558
 6393SOL    HW220079   6.371   6.886   0.692
 6394SOL     OW20080   2.446   5.226   0.431
 6394SOL    HW120081   2.401   5.155   0.377
 6394SOL    HW220082   2.508   5.279   0.373
 6395SOL     OW20083   5.767   1.434   1.037
 6395SOL    HW120084   5.864   1.432   1.061
 6395SOL    HW220085   5.744   1.523   0.997
 6396SOL     OW20086   4.914   3.108   5.988
 6396SOL    HW120087   4.820   3.137   6.009
 6396SOL    HW220088   4.914   3.011   5.965
 6397SOL     OW20089   0.194   2.373   6.867
 6397SOL    HW120090   0.214   2.440   6.939
 6397SOL    HW220091   0.232   2.404   6.780
 6398SOL     OW20092   2.856   1.625   1.650
 6398SOL    HW120093   2.856   1.669   1.560
 6398SOL    HW220094   2.832   1.528   1.640
 6399SOL     OW20095   1.823   5.680   6.981
 6399SOL    HW120096   1.888   5.658   6.908
 6399SOL    HW220097   1.761   5.752   6.951
 6400SOL     OW20098   2.830   5.626   3.407
 6400SOL    HW120099   2.825   5.659   3.313
 6400SOL    HW220100   2.773   5.683   3.466
 6401SOL     OW20101   0.228   4.772   3.507
 6401SOL    HW120102   0.239   4.707   3.432
 6401SOL    HW220103   0.293   4.847   3.496
 6402SOL     OW20104   2.897   0.823   3.151
 6402SOL    HW120105   2.824   0.891   3.144
 6402SOL    HW220106   2.871   0.742   3.098
 6403SOL     OW20107   1.326   4.379   6.675
 6403SOL    HW120108   1.280   4.443   6.614
 6403SOL    HW220109   1.413   4.418   6.704
 6404SOL     OW20110   4.403   1.941   3.358
 6404SOL    HW120111   4.455   2.016   3.316
 6404SOL    HW220112   4.305   1.955   3.342
 6405SOL     OW20113   2.531   1.723   2.656
 6405SOL    HW120114   2.624   1.754   2.635
 6405SOL    HW220115   2.522   1.627   2.631
 6406SOL     OW20116   1.946   1.086   3.790
 6406SOL    HW120117   1.921   0.998   3.831
 6406SOL    HW220118   1.975   1.071   3.696
 6407SOL     OW20119   3.519   5.851   5.077
 6407SOL    HW120120   3.603   5.879   5.122
 6407SOL    HW220121   3.441   5.872   5.136
 6408SOL     OW20122   5.605   1.575   6.444
 6408SOL    HW120123   5.564   1.647   6.388
 6408SOL    HW220124   5.637   1.501   6.385
 6409SOL     OW20125   6.432   3.500   3.128
 6409SOL    HW120126   6.514   3.478   3.075
 6409SOL    HW220127   6.405   3.420   3.182
 6410SOL     OW20128   1.337   1.582   0.333
 6410SOL    HW120129   1.346   1.669   0.285
 6410SOL    HW220130   1.424   1.561   0.379
 6411SOL     OW20131   0.339   1.317   3.506
 6411SOL    HW120132   0.404   1.386   3.540
 6411SOL    HW220133   0.390   1.242   3.465
 6412SOL     OW20134   6.609   2.972   5.597
 6412SOL    HW120135   6.561   2.929   5.674
 6412SOL    HW220136   6.648   3.059   5.627
 6413SOL     OW20137   6.595   4.843   1.484
 6413SOL    HW120138   6.662   4.772   1.504
 6413SOL    HW220139   6.633   4.932   1.509
 6414SOL     OW20140   6.741   0.285   1.036
 6414SOL    HW120141   6.666   0.243   1.089
 6414SOL    HW220142   6.825   0.233   1.050
 6415SOL     OW20143   1.558   2.086   2.089
 6415SOL    HW120144   1.529   2.079   1.994
 6415SOL    HW220145   1.514   2.015   2.143
 6416SOL     OW20146   1.095   7.006   6.671
 6416SOL    HW120147   1.167   7.004   6.740
 6416SOL    HW220148   1.135   0.004   6.581
 6417SOL     OW20149   0.758   6.955   3.290
 6417SOL    HW120150   0.693   6.882   3.312
 6417SOL    HW220151   0.718   0.025   3.313
 6418SOL     OW20152   0.204   5.422   2.408
 6418SOL    HW120153   0.163   5.332   2.389
 6418SOL    HW220154   0.181   5.485   2.335
 6419SOL     OW20155   3.598   5.040   1.849
 6419SOL    HW120156   3.577   4.965   1.911
 6419SOL    HW220157   3.579   5.127   1.895
 6420SOL     OW20158   2.718   3.846   6.285
 6420SOL    HW120159   2.714   3.841   6.385
 6420SOL    HW220160   2.672   3.766   6.246
 6421SOL     OW20161   5.311   0.486   1.219
 6421SOL    HW120162   5.302   0.565   1.280
 6421SOL    HW220163   5.405   0.481   1.186
 6422SOL     OW20164   6.609   1.082   3.440
 6422SOL    HW120165   6.581   1.152   3.375
 6422SOL    HW220166   6.707   1.062   3.428
 6423SOL     OW20167   5.260   3.224   0.865
 6423SOL    HW120168   5.324   3.163   0.818
 6423SOL    HW220169   5.166   3.199   0.842
 6424SOL     OW20170   6.173   3.829   6.377
 6424SOL    HW120171   6.195   3.776   6.295
 6424SOL    HW220172   6.229   3.912   6.378
 6425SOL     OW20173   0.465   4.354   2.305
 6425SOL    HW120174   0.465   4.268   2.254
 6425SOL    HW220175   0.471   4.431   2.241
 6426SOL     OW20176   1.076   2.151   3.381
 6426SOL    HW120177   1.111   2.243   3.397
 6426SOL    HW220178   1.152   2.088   3.364
 6427SOL     OW20179   1.283   3.441   5.520
 6427SOL    HW120180   1.358   3.376   5.512
 6427SOL    HW220181   1.199   3.393   5.546
 6428SOL     OW20182   6.685   3.916   2.189
 6428SOL    HW120183   6.652   3.834   2.141
 6428SOL    HW220184   6.777   3.937   2.158
 6429SOL     OW20185   1.565   1.036   4.276
 6429SOL    HW120186   1.467   1.037   4.293
 6429SOL    HW220187   1.584   1.086   4.191
 6430SOL     OW20188   5.366   1.581   1.505
 6430SOL    HW120189   5.278   1.629   1.510
 6430SOL    HW220190   5.430   1.634   1.449
 6431SOL     OW20191   4.791   6.632   3.379
 6431SOL    HW120192   4.863   6.574   3.418
 6431SOL    HW220193   4.813   6.728   3.394
 6432SOL     OW20194   5.005   3.793   1.050
 6432SOL    HW120195   4.992   3.719   1.116
 6432SOL    HW220196   5.017   3.879   1.099
 6433SOL     OW20197   2.905   4.229   1.399
 6433SOL    HW120198   2.979   4.275   1.348
 6433SOL    HW220199   2.938   4.141   1.433
 6434SOL     OW20200   1.075   3.906   0.689
 6434SOL    HW120201   1.002   3.973   0.676
 6434SOL    HW220202   1.108   3.874   0.600
 6435SOL     OW20203   4.077   4.813   6.707
 6435SOL    HW120204   4.117   4.733   6.663
 6435SOL    HW220205   4.040   4.787   6.796
 6436SOL     OW20206   1.962   2.910   3.371
 6436SOL    HW120207   1.914   2.900   3.284
 6436SOL    HW220208   2.051   2.953   3.356
 6437SOL     OW20209   1.001   6.882   0.063
 6437SOL    HW120210   0.968   6.867   0.156
 6437SOL    HW220211   1.081   6.824   0.046
 6438SOL     OW20212   1.035   3.790   3.986
 6438SOL    HW120213   0.973   3.724   3.945
 6438SOL    HW220214   1.100   3.742   4.045
 6439SOL     OW20215   1.323   6.652   0.604
 6439SOL    HW120216   1.307   6.578   0.669
 6439SOL    HW220217   1.306   6.620   0.511
 6440SOL     OW20218   1.161   1.673   2.495
 6440SOL    HW120219   1.119   1.763   2.512
 6440SOL    HW220220   1.240   1.663   2.555
 6441SOL     OW20221   1.793   1.303   3.386
 6441SOL    HW120222   1.742   1.227   3.428
 6441SOL    HW220223   1.745   1.389   3.405
 6442SOL     OW20224   2.410   2.103   4.399
 6442SOL    HW120225   2.483   2.100   4.332
 6442SOL    HW220226   2.445   2.072   4.488
 6443SOL     OW20227   2.912   3.119   0.475
 6443SOL    HW120228   2.999   3.101   0.428
 6443SOL    HW220229   2.924   3.102   0.573
 6444SOL     OW20230   0.757   1.577   2.778
 6444SOL    HW120231   0.718   1.503   2.833
 6444SOL    HW220232   0.689   1.610   2.713
 6445SOL     OW20233   4.152   2.776   5.306
 6445SOL    HW120234   4.104   2.694   5.274
 6445SOL    HW220235   4.250   2.764   5.291
 6446SOL     OW20236   6.749   1.255   6.524
 6446SOL    HW120237   6.769   1.321   6.596
 6446SOL    HW220238   6.650   1.246   6.514
 6447SOL     OW20239   2.029   6.187   2.292
 6447SOL    HW120240   2.009   6.284   2.284
 6447SOL    HW220241   2.129   6.173   2.289
 6448SOL     OW20242   6.438   2.829   2.909
 6448SOL    HW120243   6.372   2.755   2.920
 6448SOL    HW220244   6.498   2.809   2.832
 6449SOL     OW20245   3.514   3.487   1.707
 6449SOL    HW120246   3.459   3.570   1.710
 6449SOL    HW220247   3.504   3.443   1.618
 6450SOL     OW20248   6.311   3.580   1.397
 6450SOL    HW120249   6.215   3.590   1.424
 6450SOL    HW220250   6.370   3.616   1.469
 6451SOL     OW20251   2.574   6.516   5.317
 6451SOL    HW120252   2.672   6.519   5.339
 6451SOL    HW220253   2.557   6.567   5.232
 6452SOL     OW20254   3.296   6.957   4.366
 6452SOL    HW120255   3.203   6.993   4.360
 6452SOL    HW220256   3.311   6.918   4.457
 6453SOL     OW20257   1.528   6.632   6.922
 6453SOL    HW120258   1.444   6.598   6.879
 6453SOL    HW220259   1.504   6.682   7.006
 6454SOL     OW20260   2.945   1.751   4.331
 6454SOL    HW120261   3.016   1.726   4.264
 6454SOL    HW220262   2.966   1.840   4.370
 6455SOL     OW20263   6.951   2.985   5.218
 6455SOL    HW120264   6.999   3.061   5.260
 6455SOL    HW220265   6.891   2.942   5.285
 6456SOL     OW20266   0.652   0.550   3.059
 6456SOL    HW120267   0.694   0.483   3.120
 6456SOL    HW220268   0.724   0.606   3.017
 6457SOL     OW20269   6.561   2.702   1.483
 6457SOL    HW120270   6.611   2.736   1.563
 6457SOL    HW220271   6.473   2.749   1.476
 6458SOL     OW20272   1.280   5.455   3.198
 6458SOL    HW120273   1.357   5.437   3.258
 6458SOL    HW220274   1.306   5.434   3.103
 6459SOL     OW20275   6.395   4.470   0.435
 6459SOL    HW120276   6.470   4.515   0.483
 6459SOL    HW220277   6.309   4.515   0.458
 6460SOL     OW20278   3.842   4.748   6.543
 6460SOL    HW120279   3.819   4.717   6.635
 6460SOL    HW220280   3.940   4.768   6.538
 6461SOL     OW20281   2.824   5.142   5.106
 6461SOL    HW120282   2.806   5.124   5.203
 6461SOL    HW220283   2.827   5.055   5.056
 6462SOL     OW20284   1.994   3.284   5.341
 6462SOL    HW120285   2.005   3.219   5.416
 6462SOL    HW220286   2.075   3.341   5.333
 6463SOL     OW20287   2.488   4.778   6.610
 6463SOL    HW120288   2.498   4.694   6.555
 6463SOL    HW220289   2.498   4.756   6.707
 6464SOL     OW20290   0.550   5.214   3.676
 6464SOL    HW120291   0.560   5.284   3.746
 6464SOL    HW220292   0.488   5.245   3.604
 6465SOL     OW20293   5.834   1.675   3.786
 6465SOL    HW120294   5.779   1.758   3.796
 6465SOL    HW220295   5.929   1.695   3.812
 6466SOL     OW20296   0.370   2.754   5.024
 6466SOL    HW120297   0.447   2.690   5.028
 6466SOL    HW220298   0.403   2.847   5.034
 6467SOL     OW20299   2.653   1.322   6.611
 6467SOL    HW120300   2.696   1.373   6.537
 6467SOL    HW220301   2.678   1.225   6.603
 6468SOL     OW20302   4.991   6.169   1.449
 6468SOL    HW120303   4.906   6.167   1.501
 6468SOL    HW220304   4.996   6.089   1.389
 6469SOL     OW20305   6.935   0.468   5.230
 6469SOL    HW120306   6.846   0.448   5.272
 6469SOL    HW220307   6.936   0.434   5.136
 6470SOL     OW20308   6.142   6.562   5.955
 6470SOL    HW120309   6.139   6.643   6.014
 6470SOL    HW220310   6.213   6.574   5.886
 6471SOL     OW20311   6.742   4.973   6.718
 6471SOL    HW120312   6.760   4.885   6.674
 6471SOL    HW220313   6.712   4.958   6.812
 6472SOL     OW20314   1.046   6.194   1.953
 6472SOL    HW120315   1.004   6.121   2.005
 6472SOL    HW220316   1.046   6.171   1.856
 6473SOL     OW20317   2.042   1.209   6.305
 6473SOL    HW120318   2.033   1.201   6.205
 6473SOL    HW220319   1.972   1.272   6.339
 6474SOL     OW20320   1.003   3.454   5.987
 6474SOL    HW120321   0.933   3.483   5.923
 6474SOL    HW220322   1.085   3.425   5.937
 6475SOL     OW20323   5.480   6.456   3.630
 6475SOL    HW120324   5.565   6.403   3.634
 6475SOL    HW220325   5.482   6.516   3.550
 6476SOL     OW20326   4.282   4.649   3.131
 6476SOL    HW120327   4.207   4.646   3.198
 6476SOL    HW220328   4.303   4.745   3.109
 6477SOL     OW20329   6.508   5.447   0.037
 6477SOL    HW120330   6.459   5.515   0.092
 6477SOL    HW220331   6.503   5.358   0.082
 6478SOL     OW20332   4.816   6.051   2.069
 6478SOL    HW120333   4.848   6.016   2.157
 6478SOL    HW220334   4.727   6.012   2.048
 6479SOL     OW20335   4.405   5.061   2.302
 6479SOL    HW120336   4.403   4.961   2.294
 6479SOL    HW220337   4.459   5.087   2.382
 6480SOL     OW20338   3.243   2.870   6.892
 6480SOL    HW120339   3.184   2.914   6.824
 6480SOL    HW220340   3.333   2.913   6.892
 6481SOL     OW20341   3.545   1.157   1.356
 6481SOL    HW120342   3.514   1.200   1.271
 6481SOL    HW220343   3.645   1.165   1.363
 6482SOL     OW20344   6.795   6.891   0.189
 6482SOL    HW120345   6.710   6.893   0.136
 6482SOL    HW220346   6.782   6.834   0.270
 6483SOL     OW20347   1.743   6.245   2.180
 6483SOL    HW120348   1.810   6.294   2.124
 6483SOL    HW220349   1.659   6.232   2.127
 6484SOL     OW20350   5.033   0.130   2.481
 6484SOL    HW120351   4.986   0.135   2.393
 6484SOL    HW220352   5.126   0.097   2.468
 6485SOL     OW20353   1.832   2.740   3.737
 6485SOL    HW120354   1.741   2.713   3.768
 6485SOL    HW220355   1.824   2.814   3.671
 6486SOL     OW20356   1.457   3.585   4.150
 6486SOL    HW120357   1.513   3.592   4.232
 6486SOL    HW220358   1.398   3.504   4.157
 6487SOL     OW20359   6.265   6.788   3.895
 6487SOL    HW120360   6.276   6.730   3.814
 6487SOL    HW220361   6.348   6.841   3.910
 6488SOL     OW20362   2.638   5.434   6.312
 6488SOL    HW120363   2.702   5.436   6.389
 6488SOL    HW220364   2.686   5.455   6.227
 6489SOL     OW20365   1.962   1.767   6.338
 6489SOL    HW120366   1.996   1.793   6.248
 6489SOL    HW220367   1.905   1.840   6.375
 6490SOL     OW20368   3.968   2.649   0.285
 6490SOL    HW120369   4.019   2.618   0.366
 6490SOL    HW220370   3.977   2.748   0.277
 6491SOL     OW20371   4.827   1.349   6.498
 6491SOL    HW120372   4.806   1.261   6.456
 6491SOL    HW220373   4.742   1.393   6.526
 6492SOL     OW20374   6.903   6.542   0.456
 6492SOL    HW120375   6.932   6.464   0.512
 6492SOL    HW220376   6.981   6.602   0.440
 6493SOL     OW20377   2.264   6.811   6.283
 6493SOL    HW120378   2.358   6.836   6.260
 6493SOL    HW220379   2.202   6.878   6.241
 6494SOL     OW20380   1.402   0.403   3.556
 6494SOL    HW120381   1.387   0.304   3.554
 6494SOL    HW220382   1.467   0.426   3.629
 6495SOL     OW20383   5.207   5.304   3.008
 6495SOL    HW120384   5.201   5.214   2.963
 6495SOL    HW220385   5.283   5.304   3.073
 6496SOL     OW20386   0.717   6.245   1.889
 6496SOL    HW120387   0.780   6.313   1.851
 6496SOL    HW220388   0.768   6.162   1.913
 6497SOL     OW20389   1.967   4.056   0.651
 6497SOL    HW120390   2.067   4.053   0.651
 6497SOL    HW220391   1.936   4.148   0.627
 6498SOL     OW20392   2.158   3.770   4.723
 6498SOL    HW120393   2.061   3.750   4.738
 6498SOL    HW220394   2.170   3.815   4.635
 6499SOL     OW20395   4.718   0.923   4.507
 6499SOL    HW120396   4.654   0.855   4.542
 6499SOL    HW220397   4.668   1.004   4.477
 6500SOL     OW20398   5.764   4.269   3.399
 6500SOL    HW120399   5.679   4.247   3.351
 6500SOL    HW220400   5.831   4.307   3.335
 6501SOL     OW20401   5.681   4.024   0.945
 6501SOL    HW120402   5.680   4.124   0.941
 6501SOL    HW220403   5.587   3.990   0.948
 6502SOL     OW20404   0.879   4.664   3.668
 6502SOL    HW120405   0.836   4.754   3.671
 6502SOL    HW220406   0.855   4.618   3.582
 6503SOL     OW20407   5.607   6.451   3.945
 6503SOL    HW120408   5.520   6.495   3.966
 6503SOL    HW220409   5.594   6.353   3.936
 6504SOL     OW20410   3.609   1.134   0.361
 6504SOL    HW120411   3.607   1.045   0.407
 6504SOL    HW220412   3.554   1.129   0.277
 6505SOL     OW20413   6.045   4.859   0.738
 6505SOL    HW120414   6.123   4.841   0.678
 6505SOL    HW220415   6.078   4.871   0.832
 6506SOL     OW20416   1.614   3.621   1.016
 6506SOL    HW120417   1.539   3.559   0.995
 6506SOL    HW220418   1.579   3.699   1.068
 6507SOL     OW20419   2.220   6.066   1.504
 6507SOL    HW120420   2.201   6.142   1.565
 6507SOL    HW220421   2.284   6.002   1.547
 6508SOL     OW20422   2.099   1.967   3.610
 6508SOL    HW120423   2.082   2.032   3.536
 6508SOL    HW220424   2.197   1.959   3.626
 6509SOL     OW20425   1.431   2.307   4.761
 6509SOL    HW120426   1.480   2.381   4.808
 6509SOL    HW220427   1.363   2.346   4.700
 6510SOL     OW20428   6.278   4.856   6.487
 6510SOL    HW120429   6.261   4.759   6.468
 6510SOL    HW220430   6.365   4.883   6.445
 6511SOL     OW20431   6.379   6.806   5.438
 6511SOL    HW120432   6.386   6.873   5.512
 6511SOL    HW220433   6.397   6.851   5.350
 6512SOL     OW20434   4.817   6.854   2.748
 6512SOL    HW120435   4.807   6.764   2.705
 6512SOL    HW220436   4.897   6.854   2.807
 6513SOL     OW20437   4.213   6.512   3.700
 6513SOL    HW120438   4.165   6.570   3.766
 6513SOL    HW220439   4.209   6.417   3.730
 6514SOL     OW20440   4.394   0.727   4.490
 6514SOL    HW120441   4.304   0.713   4.449
 6514SOL    HW220442   4.461   0.667   4.446
 6515SOL     OW20443   0.009   6.395   4.453
 6515SOL    HW120444   6.970   6.392   4.370
 6515SOL    HW220445   6.992   6.466   4.514
 6516SOL     OW20446   1.209   2.253   5.724
 6516SOL    HW120447   1.116   2.269   5.756
 6516SOL    HW220448   1.219   2.285   5.630
 6517SOL     OW20449   0.660   1.444   0.309
 6517SOL    HW120450   0.707   1.524   0.347
 6517SOL    HW220451   0.564   1.466   0.293
 6518SOL     OW20452   0.424   6.200   1.504
 6518SOL    HW120453   0.470   6.120   1.464
 6518SOL    HW220454   0.488   6.248   1.563
 6519SOL     OW20455   1.877   1.435   3.991
 6519SOL    HW120456   1.944   1.362   4.005
 6519SOL    HW220457   1.890   1.506   4.060
 6520SOL     OW20458   6.727   5.852   2.427
 6520SOL    HW120459   6.681   5.899   2.353
 6520SOL    HW220460   6.692   5.885   2.515
 6521SOL     OW20461   0.597   1.679   4.921
 6521SOL    HW120462   0.590   1.647   4.827
 6521SOL    HW220463   0.615   1.601   4.981
 6522SOL     OW20464   2.238   5.653   6.489
 6522SOL    HW120465   2.204   5.716   6.559
 6522SOL    HW220466   2.273   5.570   6.532
 6523SOL     OW20467   2.250   1.700   6.565
 6523SOL    HW120468   2.240   1.790   6.609
 6523SOL    HW220469   2.272   1.713   6.468
 6524SOL     OW20470   3.930   3.416   3.746
 6524SOL    HW120471   3.982   3.352   3.803
 6524SOL    HW220472   3.936   3.387   3.650
 6525SOL     OW20473   0.561   2.790   2.896
 6525SOL    HW120474   0.467   2.758   2.888
 6525SOL    HW220475   0.622   2.730   2.845
 6526SOL     OW20476   1.261   5.705   4.783
 6526SOL    HW120477   1.247   5.746   4.873
 6526SOL    HW220478   1.191   5.739   4.720
 6527SOL     OW20479   1.068   6.639   5.127
 6527SOL    HW120480   1.088   6.550   5.168
 6527SOL    HW220481   0.973   6.642   5.097
 6528SOL     OW20482   0.977   1.394   4.567
 6528SOL    HW120483   0.912   1.409   4.641
 6528SOL    HW220484   0.928   1.362   4.486
 6529SOL     OW20485   6.161   1.735   1.680
 6529SOL    HW120486   6.082   1.763   1.625
 6529SOL    HW220487   6.191   1.644   1.652
 6530SOL     OW20488   6.684   2.251   6.968
 6530SOL    HW120489   6.749   2.285   0.018
 6530SOL    HW220490   6.683   2.151   6.969
 6531SOL     OW20491   5.394   2.958   3.870
 6531SOL    HW120492   5.468   3.006   3.918
 6531SOL    HW220493   5.372   3.006   3.785
 6532SOL     OW20494   5.973   1.435   6.402
 6532SOL    HW120495   6.041   1.460   6.333
 6532SOL    HW220496   5.944   1.517   6.452
 6533SOL     OW20497   5.016   6.740   0.477
 6533SOL    HW120498   5.101   6.791   0.467
 6533SOL    HW220499   5.002   6.681   0.397
 6534SOL     OW20500   2.723   3.773   1.527
 6534SOL    HW120501   2.646   3.758   1.465
 6534SOL    HW220502   2.765   3.685   1.550
 6535SOL     OW20503   0.811   3.428   5.266
 6535SOL    HW120504   0.881   3.496   5.285
 6535SOL    HW220505   0.750   3.461   5.194
 6536SOL     OW20506   5.725   1.678   0.332
 6536SOL    HW120507   5.655   1.617   0.294
 6536SOL    HW220508   5.805   1.678   0.272
 6537SOL     OW20509   0.342   6.925   0.126
 6537SOL    HW120510   0.264   6.869   0.154
 6537SOL    HW220511   0.423   6.896   0.177
 6538SOL     OW20512   3.192   4.208   0.282
 6538SOL    HW120513   3.132   4.194   0.204
 6538SOL    HW220514   3.183   4.302   0.315
 6539SOL     OW20515   2.673   1.317   6.897
 6539SOL    HW120516   2.701   1.222   6.912
 6539SOL    HW220517   2.623   1.324   6.810
 6540SOL     OW20518   3.416   0.628   4.446
 6540SOL    HW120519   3.368   0.686   4.381
 6540SOL    HW220520   3.508   0.609   4.411
 6541SOL     OW20521   2.879   2.270   5.761
 6541SOL    HW120522   2.886   2.368   5.746
 6541SOL    HW220523   2.855   2.252   5.856
 6542SOL     OW20524   6.609   4.835   3.287
 6542SOL    HW120525   6.681   4.845   3.356
 6542SOL    HW220526   6.581   4.739   3.283
 6543SOL     OW20527   6.229   5.980   6.567
 6543SOL    HW120528   6.261   5.890   6.598
 6543SOL    HW220529   6.274   6.052   6.620
 6544SOL     OW20530   6.883   6.317   3.915
 6544SOL    HW120531   6.837   6.388   3.968
 6544SOL    HW220532   6.832   6.301   3.830
 6545SOL     OW20533   5.068   1.358   5.797
 6545SOL    HW120534   5.147   1.417   5.782
 6545SOL    HW220535   4.991   1.412   5.831
 6546SOL     OW20536   2.866   5.298   5.674
 6546SOL    HW120537   2.936   5.346   5.621
 6546SOL    HW220538   2.909   5.251   5.751
 6547SOL     OW20539   5.234   2.378   6.566
 6547SOL    HW120540   5.232   2.385   6.467
 6547SOL    HW220541   5.237   2.282   6.593
 6548SOL     OW20542   6.353   4.371   5.804
 6548SOL    HW120543   6.354   4.306   5.728
 6548SOL    HW220544   6.267   4.361   5.855
 6549SOL     OW20545   4.058   2.300   0.565
 6549SOL    HW120546   4.095   2.345   0.647
 6549SOL    HW220547   3.967   2.263   0.586
 6550SOL     OW20548   0.850   5.711   3.625
 6550SOL    HW120549   0.782   5.783   3.616
 6550SOL    HW220550   0.935   5.750   3.661
 6551SOL     OW20551   1.652   4.703   1.916
 6551SOL    HW120552   1.706   4.655   1.985
 6551SOL    HW220553   1.625   4.793   1.951
 6552SOL     OW20554   2.615   4.728   5.817
 6552SOL    HW120555   2.635   4.633   5.791
 6552SOL    HW220556   2.700   4.777   5.833
 6553SOL     OW20557   0.321   3.286   2.391
 6553SOL    HW120558   0.370   3.235   2.320
 6553SOL    HW220559   0.319   3.232   2.475
 6554SOL     OW20560   6.143   1.667   5.875
 6554SOL    HW120561   6.144   1.750   5.930
 6554SOL    HW220562   6.224   1.663   5.818
 6555SOL     OW20563   1.759   1.040   2.188
 6555SOL    HW120564   1.839   1.056   2.247
 6555SOL    HW220565   1.705   0.965   2.226
 6556SOL     OW20566   4.275   5.639   4.782
 6556SOL    HW120567   4.373   5.622   4.787
 6556SOL    HW220568   4.251   5.670   4.690
 6557SOL     OW20569   6.332   5.495   0.694
 6557SOL    HW120570   6.234   5.513   0.703
 6557SOL    HW220571   6.354   5.477   0.599
 6558SOL     OW20572   5.931   5.819   6.807
 6558SOL    HW120573   6.004   5.752   6.791
 6558SOL    HW220574   5.894   5.848   6.719
 6559SOL     OW20575   4.642   3.910   1.043
 6559SOL    HW120576   4.566   3.896   1.106
 6559SOL    HW220577   4.728   3.910   1.094
 6560SOL     OW20578   3.701   3.496   0.745
 6560SOL    HW120579   3.788   3.534   0.775
 6560SOL    HW220580   3.668   3.547   0.666
 6561SOL     OW20581   3.965   3.800   2.828
 6561SOL    HW120582   3.977   3.876   2.893
 6561SOL    HW220583   3.873   3.763   2.837
 6562SOL     OW20584   6.196   4.746   6.057
 6562SOL    HW120585   6.201   4.768   5.960
 6562SOL    HW220586   6.285   4.714   6.089
 6563SOL     OW20587   0.735   5.704   1.622
 6563SOL    HW120588   0.736   5.677   1.525
 6563SOL    HW220589   0.827   5.698   1.660
 6564SOL     OW20590   1.331   4.258   1.759
 6564SOL    HW120591   1.371   4.337   1.805
 6564SOL    HW220592   1.398   4.184   1.754
 6565SOL     OW20593   6.903   3.123   4.840
 6565SOL    HW120594   6.887   3.025   4.842
 6565SOL    HW220595   6.988   3.144   4.890
 6566SOL     OW20596   3.301   6.523   0.635
 6566SOL    HW120597   3.397   6.551   0.641
 6566SOL    HW220598   3.284   6.451   0.703
 6567SOL     OW20599   5.325   2.556   0.759
 6567SOL    HW120600   5.233   2.520   0.769
 6567SOL    HW220601   5.343   2.622   0.832
 6568SOL     OW20602   4.359   4.543   1.937
 6568SOL    HW120603   4.366   4.564   2.035
 6568SOL    HW220604   4.403   4.455   1.919
 6569SOL     OW20605   2.209   4.652   0.356
 6569SOL    HW120606   2.121   4.605   0.363
 6569SOL    HW220607   2.262   4.613   0.281
 6570SOL     OW20608   5.555   1.420   1.796
 6570SOL    HW120609   5.552   1.506   1.847
 6570SOL    HW220610   5.473   1.412   1.739
 6571SOL     OW20611   2.653   6.134   3.757
 6571SOL    HW120612   2.623   6.084   3.839
 6571SOL    HW220613   2.624   6.084   3.676
 6572SOL     OW20614   0.315   4.025   5.608
 6572SOL    HW120615   0.244   4.095   5.598
 6572SOL    HW220616   0.405   4.067   5.599
 6573SOL     OW20617   2.833   1.416   2.171
 6573SOL    HW120618   2.887   1.499   2.153
 6573SOL    HW220619   2.856   1.347   2.103
 6574SOL     OW20620   2.762   4.991   2.941
 6574SOL    HW120621   2.675   4.948   2.963
 6574SOL    HW220622   2.759   5.088   2.966
 6575SOL     OW20623   1.018   1.063   1.986
 6575SOL    HW120624   0.921   1.084   1.975
 6575SOL    HW220625   1.068   1.146   2.007
 6576SOL     OW20626   0.902   5.911   6.859
 6576SOL    HW120627   0.897   6.000   6.904
 6576SOL    HW220628   0.810   5.881   6.835
 6577SOL     OW20629   0.501   2.089   3.710
 6577SOL    HW120630   0.515   2.013   3.773
 6577SOL    HW220631   0.491   2.174   3.762
 6578SOL     OW20632   6.151   5.682   3.527
 6578SOL    HW120633   6.103   5.634   3.600
 6578SOL    HW220634   6.180   5.772   3.559
 6579SOL     OW20635   6.659   4.548   3.311
 6579SOL    HW120636   6.758   4.552   3.323
 6579SOL    HW220637   6.637   4.521   3.217
 6580SOL     OW20638   5.043   1.098   1.684
 6580SOL    HW120639   5.141   1.091   1.703
 6580SOL    HW220640   5.025   1.182   1.632
 6581SOL     OW20641   4.218   2.218   6.409
 6581SOL    HW120642   4.297   2.240   6.352
 6581SOL    HW220643   4.135   2.227   6.354
 6582SOL     OW20644   6.751   6.820   2.803
 6582SOL    HW120645   6.745   6.751   2.875
 6582SOL    HW220646   6.715   6.784   2.717
 6583SOL     OW20647   5.596   1.019   5.887
 6583SOL    HW120648   5.574   0.925   5.911
 6583SOL    HW220649   5.518   1.060   5.839
 6584SOL     OW20650   6.301   1.620   0.237
 6584SOL    HW120651   6.222   1.652   0.290
 6584SOL    HW220652   6.280   1.529   0.199
 6585SOL     OW20653   0.534   1.690   6.370
 6585SOL    HW120654   0.494   1.773   6.332
 6585SOL    HW220655   0.593   1.713   6.447
 6586SOL     OW20656   6.696   1.933   6.072
 6586SOL    HW120657   6.702   2.014   6.131
 6586SOL    HW220658   6.711   1.851   6.127
 6587SOL     OW20659   2.001   5.863   3.601
 6587SOL    HW120660   1.975   5.787   3.662
 6587SOL    HW220661   2.058   5.927   3.652
 6588SOL     OW20662   1.394   2.846   6.684
 6588SOL    HW120663   1.491   2.823   6.687
 6588SOL    HW220664   1.382   2.944   6.696
 6589SOL     OW20665   4.659   1.341   5.965
 6589SOL    HW120666   4.708   1.293   5.893
 6589SOL    HW220667   4.607   1.276   6.020
 6590SOL     OW20668   7.015   1.404   4.728
 6590SOL    HW120669   6.984   1.482   4.781
 6590SOL    HW220670   0.041   1.337   4.788
 6591SOL     OW20671   5.837   6.732   3.121
 6591SOL    HW120672   5.883   6.821   3.124
 6591SOL    HW220673   5.898   6.662   3.158
 6592SOL     OW20674   4.673   6.756   4.569
 6592SOL    HW120675   4.735   6.794   4.500
 6592SOL    HW220676   4.717   6.759   4.659
 6593SOL     OW20677   3.256   1.918   3.262
 6593SOL    HW120678   3.278   1.990   3.196
 6593SOL    HW220679   3.329   1.911   3.329
 6594SOL     OW20680   4.839   0.557   6.913
 6594SOL    HW120681   4.773   0.609   6.967
 6594SOL    HW220682   4.902   0.509   6.975
 6595SOL     OW20683   1.390   3.808   0.973
 6595SOL    HW120684   1.381   3.708   0.977
 6595SOL    HW220685   1.444   3.833   0.893
 6596SOL     OW20686   4.501   6.765   5.355
 6596SOL    HW120687   4.438   6.834   5.319
 6596SOL    HW220688   4.450   6.686   5.387
 6597SOL     OW20689   6.980   6.104   4.409
 6597SOL    HW120690   7.017   6.049   4.484
 6597SOL    HW220691   6.986   6.201   4.433
 6598SOL     OW20692   1.813   6.146   5.036
 6598SOL    HW120693   1.777   6.078   5.100
 6598SOL    HW220694   1.801   6.113   4.942
 6599SOL     OW20695   4.103   5.325   6.279
 6599SOL    HW120696   4.035   5.396   6.259
 6599SOL    HW220697   4.078   5.279   6.365
 6600SOL     OW20698   4.832   5.779   4.199
 6600SOL    HW120699   4.752   5.826   4.236
 6600SOL    HW220700   4.836   5.793   4.100
 6601SOL     OW20701   0.570   0.794   0.137
 6601SOL    HW120702   0.607   0.879   0.100
 6601SOL    HW220703   0.581   0.721   0.070
 6602SOL     OW20704   6.860   1.563   1.345
 6602SOL    HW120705   6.843   1.650   1.392
 6602SOL    HW220706   6.775   1.527   1.309
 6603SOL     OW20707   2.106   3.458   2.980
 6603SOL    HW120708   2.131   3.422   3.070
 6603SOL    HW220709   2.073   3.383   2.922
 6604SOL     OW20710   3.116   5.363   2.659
 6604SOL    HW120711   3.100   5.283   2.717
 6604SOL    HW220712   3.030   5.391   2.616
 6605SOL     OW20713   5.788   5.656   6.984
 6605SOL    HW120714   5.830   5.746   6.968
 6605SOL    HW220715   5.749   5.621   6.899
 6606SOL     OW20716   5.183   0.747   2.217
 6606SOL    HW120717   5.107   0.755   2.282
 6606SOL    HW220718   5.159   0.681   2.146
 6607SOL     OW20719   2.025   1.233   2.161
 6607SOL    HW120720   2.095   1.301   2.136
 6607SOL    HW220721   1.959   1.275   2.222
 6608SOL     OW20722   5.644   3.739   3.782
 6608SOL    HW120723   5.644   3.838   3.796
 6608SOL    HW220724   5.555   3.702   3.807
 6609SOL     OW20725   5.471   0.808   6.499
 6609SOL    HW120726   5.484   0.887   6.559
 6609SOL    HW220727   5.489   0.724   6.551
 6610SOL     OW20728   1.907   0.925   0.721
 6610SOL    HW120729   1.889   0.931   0.819
 6610SOL    HW220730   1.828   0.884   0.674
 6611SOL     OW20731   6.278   2.621   2.943
 6611SOL    HW120732   6.335   2.549   2.982
 6611SOL    HW220733   6.253   2.597   2.849
 6612SOL     OW20734   1.792   6.100   0.063
 6612SOL    HW120735   1.885   6.080   0.033
 6612SOL    HW220736   1.793   6.127   0.159
 6613SOL     OW20737   4.936   5.381   2.922
 6613SOL    HW120738   5.004   5.385   2.995
 6613SOL    HW220739   4.979   5.352   2.837
 6614SOL     OW20740   5.296   5.130   6.135
 6614SOL    HW120741   5.348   5.198   6.083
 6614SOL    HW220742   5.242   5.176   6.206
 6615SOL     OW20743   0.268   3.440   5.298
 6615SOL    HW120744   0.204   3.516   5.287
 6615SOL    HW220745   0.261   3.402   5.390
 6616SOL     OW20746   5.126   1.262   4.897
 6616SOL    HW120747   5.192   1.335   4.882
 6616SOL    HW220748   5.093   1.265   4.992
 6617SOL     OW20749   2.897   6.731   4.519
 6617SOL    HW120750   2.816   6.766   4.473
 6617SOL    HW220751   2.900   6.767   4.613
 6618SOL     OW20752   0.694   4.370   2.017
 6618SOL    HW120753   0.622   4.433   2.047
 6618SOL    HW220754   0.663   4.276   2.025
 6619SOL     OW20755   4.521   6.342   3.156
 6619SOL    HW120756   4.432   6.303   3.180
 6619SOL    HW220757   4.558   6.391   3.234
 6620SOL     OW20758   1.308   2.866   6.000
 6620SOL    HW120759   1.307   2.769   5.979
 6620SOL    HW220760   1.397   2.905   5.975
 6621SOL     OW20761   2.692   4.160   0.072
 6621SOL    HW120762   2.609   4.168   0.017
 6621SOL    HW220763   2.772   4.159   0.011
 6622SOL     OW20764   6.156   6.188   0.430
 6622SOL    HW120765   6.091   6.260   0.451
 6622SOL    HW220766   6.120   6.100   0.463
 6623SOL     OW20767   3.571   3.093   2.856
 6623SOL    HW120768   3.566   3.026   2.782
 6623SOL    HW220769   3.479   3.115   2.888
 6624SOL     OW20770   4.230   5.816   4.477
 6624SOL    HW120771   4.153   5.798   4.416
 6624SOL    HW220772   4.229   5.912   4.505
 6625SOL     OW20773   6.275   0.546   6.343
 6625SOL    HW120774   6.232   0.627   6.303
 6625SOL    HW220775   6.310   0.487   6.270
 6626SOL     OW20776   3.392   5.215   3.148
 6626SOL    HW120777   3.316   5.151   3.157
 6626SOL    HW220778   3.458   5.200   3.222
 6627SOL     OW20779   2.008   0.796   6.379
 6627SOL    HW120780   1.925   0.740   6.381
 6627SOL    HW220781   1.987   0.888   6.412
 6628SOL     OW20782   4.244   5.346   2.820
 6628SOL    HW120783   4.245   5.338   2.919
 6628SOL    HW220784   4.240   5.443   2.794
 6629SOL     OW20785   3.663   5.429   0.952
 6629SOL    HW120786   3.732   5.416   0.880
 6629SOL    HW220787   3.610   5.512   0.932
 6630SOL     OW20788   3.120   1.922   0.162
 6630SOL    HW120789   3.071   1.989   0.106
 6630SOL    HW220790   3.056   1.853   0.196
 6631SOL     OW20791   5.035   0.689   2.465
 6631SOL    HW120792   5.058   0.784   2.485
 6631SOL    HW220793   5.063   0.631   2.541
 6632SOL     OW20794   6.666   0.898   6.759
 6632SOL    HW120795   6.703   0.922   6.669
 6632SOL    HW220796   6.739   0.902   6.827
 6633SOL     OW20797   2.064   6.385   0.859
 6633SOL    HW120798   2.068   6.319   0.785
 6633SOL    HW220799   2.031   6.473   0.824
 6634SOL     OW20800   6.235   2.905   5.781
 6634SOL    HW120801   6.200   2.960   5.857
 6634SOL    HW220802   6.331   2.883   5.798
 6635SOL     OW20803   5.043   5.110   3.735
 6635SOL    HW120804   4.979   5.121   3.811
 6635SOL    HW220805   5.122   5.170   3.749
 6636SOL     OW20806   1.572   2.745   4.423
 6636SOL    HW120807   1.577   2.674   4.352
 6636SOL    HW220808   1.575   2.702   4.513
 6637SOL     OW20809   0.994   0.382   0.747
 6637SOL    HW120810   1.046   0.304   0.780
 6637SOL    HW220811   0.917   0.350   0.691
 6638SOL     OW20812   1.851   6.003   5.471
 6638SOL    HW120813   1.810   5.928   5.523
 6638SOL    HW220814   1.950   5.994   5.472
 6639SOL     OW20815   5.965   4.620   6.553
 6639SOL    HW120816   5.951   4.597   6.456
 6639SOL    HW220817   5.882   4.662   6.589
 6640SOL     OW20818   6.742   2.161   3.457
 6640SOL    HW120819   6.688   2.241   3.480
 6640SOL    HW220820   6.813   2.186   3.392
 6641SOL     OW20821   2.545   3.869   6.553
 6641SOL    HW120822   2.456   3.853   6.595
 6641SOL    HW220823   2.545   3.958   6.507
 6642SOL     OW20824   1.052   5.741   5.918
 6642SOL    HW120825   1.087   5.834   5.925
 6642SOL    HW220826   1.019   5.711   6.007
 6643SOL     OW20827   6.002   3.986   6.224
 6643SOL    HW120828   5.945   4.042   6.284
 6643SOL    HW220829   6.027   3.901   6.270
 6644SOL     OW20830   2.963   4.854   1.880
 6644SOL    HW120831   2.894   4.926   1.889
 6644SOL    HW220832   2.921   4.765   1.896
 6645SOL     OW20833   6.869   4.731   5.670
 6645SOL    HW120834   6.788   4.745   5.726
 6645SOL    HW220835   6.896   4.634   5.672
 6646SOL     OW20836   3.143   5.375   4.406
 6646SOL    HW120837   3.120   5.380   4.503
 6646SOL    HW220838   3.188   5.460   4.378
 6647SOL     OW20839   3.248   0.911   1.995
 6647SOL    HW120840   3.152   0.932   1.977
 6647SOL    HW220841   3.276   0.832   1.941
 6648SOL     OW20842   4.570   5.744   2.594
 6648SOL    HW120843   4.473   5.737   2.570
 6648SOL    HW220844   4.591   5.683   2.670
 6649SOL     OW20845   4.811   1.785   6.465
 6649SOL    HW120846   4.822   1.804   6.563
 6649SOL    HW220847   4.862   1.852   6.412
 6650SOL     OW20848   4.054   1.317   4.308
 6650SOL    HW120849   3.961   1.282   4.296
 6650SOL    HW220850   4.050   1.407   4.353
 6651SOL     OW20851   0.856   2.429   6.905
 6651SOL    HW120852   0.944   2.476   6.899
 6651SOL    HW220853   0.871   2.330   6.906
 6652SOL     OW20854   0.343   5.619   1.480
 6652SOL    HW120855   0.266   5.582   1.428
 6652SOL    HW220856   0.308   5.669   1.560
 6653SOL     OW20857   3.653   4.142   3.143
 6653SOL    HW120858   3.610   4.052   3.144
 6653SOL    HW220859   3.586   4.211   3.173
 6654SOL     OW20860   2.223   3.172   1.776
 6654SOL    HW120861   2.145   3.130   1.823
 6654SOL    HW220862   2.259   3.248   1.831
 6655SOL     OW20863   3.279   6.821   1.862
 6655SOL    HW120864   3.328   6.853   1.942
 6655SOL    HW220865   3.255   6.725   1.873
 6656SOL     OW20866   6.986   1.363   1.503
 6656SOL    HW120867   0.059   1.329   1.478
 6656SOL    HW220868   6.954   1.427   1.433
 6657SOL     OW20869   3.675   6.567   6.841
 6657SOL    HW120870   3.756   6.624   6.855
 6657SOL    HW220871   3.640   6.536   6.929
 6658SOL     OW20872   5.842   1.686   4.885
 6658SOL    HW120873   5.905   1.630   4.939
 6658SOL    HW220874   5.886   1.713   4.799
 6659SOL     OW20875   2.406   3.514   0.379
 6659SOL    HW120876   2.452   3.600   0.357
 6659SOL    HW220877   2.427   3.488   0.473
 6660SOL     OW20878   6.660   6.756   2.506
 6660SOL    HW120879   6.728   6.683   2.511
 6660SOL    HW220880   6.700   6.837   2.463
 6661SOL     OW20881   6.841   5.747   4.046
 6661SOL    HW120882   6.805   5.830   4.004
 6661SOL    HW220883   6.914   5.710   3.988
 6662SOL     OW20884   2.314   1.359   0.248
 6662SOL    HW120885   2.389   1.306   0.209
 6662SOL    HW220886   2.319   1.355   0.348
 6663SOL     OW20887   0.252   5.778   1.696
 6663SOL    HW120888   0.224   5.757   1.790
 6663SOL    HW220889   0.328   5.843   1.698
 6664SOL     OW20890   1.297   0.430   2.485
 6664SOL    HW120891   1.226   0.479   2.434
 6664SOL    HW220892   1.302   0.466   2.578
 6665SOL     OW20893   2.024   6.062   3.180
 6665SOL    HW120894   2.064   6.153   3.164
 6665SOL    HW220895   1.971   6.064   3.265
 6666SOL     OW20896   6.351   1.381   5.301
 6666SOL    HW120897   6.369   1.337   5.389
 6666SOL    HW220898   6.253   1.386   5.285
 6667SOL     OW20899   6.685   5.477   4.556
 6667SOL    HW120900   6.631   5.398   4.528
 6667SOL    HW220901   6.774   5.446   4.590
 6668SOL     OW20902   0.650   4.772   2.316
 6668SOL    HW120903   0.656   4.871   2.302
 6668SOL    HW220904   0.717   4.726   2.257
 6669SOL     OW20905   2.361   5.650   3.497
 6669SOL    HW120906   2.373   5.729   3.557
 6669SOL    HW220907   2.272   5.607   3.516
 6670SOL     OW20908   3.086   4.650   6.572
 6670SOL    HW120909   3.134   4.728   6.611
 6670SOL    HW220910   3.038   4.600   6.644
 6671SOL     OW20911   6.994   4.003   6.104
 6671SOL    HW120912   6.935   4.045   6.173
 6671SOL    HW220913   0.070   3.997   6.139
 6672SOL     OW20914   1.216   0.560   5.422
 6672SOL    HW120915   1.156   0.507   5.482
 6672SOL    HW220916   1.163   0.598   5.346
 6673SOL     OW20917   4.969   5.205   2.263
 6673SOL    HW120918   4.925   5.116   2.252
 6673SOL    HW220919   4.937   5.248   2.347
 6674SOL     OW20920   0.662   6.145   5.264
 6674SOL    HW120921   0.734   6.088   5.305
 6674SOL    HW220922   0.583   6.089   5.243
 6675SOL     OW20923   5.939   4.513   0.302
 6675SOL    HW120924   5.956   4.501   0.400
 6675SOL    HW220925   5.879   4.440   0.269
 6676SOL     OW20926   0.928   3.116   5.600
 6676SOL    HW120927   0.964   3.039   5.652
 6676SOL    HW220928   0.908   3.087   5.506
 6677SOL     OW20929   0.445   3.440   0.473
 6677SOL    HW120930   0.488   3.398   0.553
 6677SOL    HW220931   0.374   3.379   0.438
 6678SOL     OW20932   0.962   2.652   6.051
 6678SOL    HW120933   0.995   2.738   6.092
 6678SOL    HW220934   1.021   2.628   5.973
 6679SOL     OW20935   1.322   2.698   5.248
 6679SOL    HW120936   1.227   2.670   5.233
 6679SOL    HW220937   1.373   2.691   5.162
 6680SOL     OW20938   4.039   6.176   6.261
 6680SOL    HW120939   4.133   6.141   6.272
 6680SOL    HW220940   3.988   6.114   6.202
 6681SOL     OW20941   5.286   5.354   0.575
 6681SOL    HW120942   5.341   5.392   0.649
 6681SOL    HW220943   5.336   5.279   0.532
 6682SOL     OW20944   0.730   5.392   2.670
 6682SOL    HW120945   0.816   5.401   2.620
 6682SOL    HW220946   0.717   5.471   2.730
 6683SOL     OW20947   4.884   1.867   5.259
 6683SOL    HW120948   4.900   1.777   5.300
 6683SOL    HW220949   4.888   1.859   5.159
 6684SOL     OW20950   1.654   6.758   2.282
 6684SOL    HW120951   1.658   6.818   2.202
 6684SOL    HW220952   1.713   6.794   2.354
 6685SOL     OW20953   5.591   2.956   6.230
 6685SOL    HW120954   5.657   2.898   6.278
 6685SOL    HW220955   5.639   3.021   6.172
 6686SOL     OW20956   6.077   3.630   3.314
 6686SOL    HW120957   5.990   3.582   3.315
 6686SOL    HW220958   6.064   3.724   3.346
 6687SOL     OW20959   1.376   1.541   1.164
 6687SOL    HW120960   1.404   1.448   1.191
 6687SOL    HW220961   1.418   1.563   1.076
 6688SOL     OW20962   0.400   4.624   2.366
 6688SOL    HW120963   0.416   4.534   2.406
 6688SOL    HW220964   0.479   4.683   2.383
 6689SOL     OW20965   5.077   4.041   0.033
 6689SOL    HW120966   5.102   4.138   0.026
 6689SOL    HW220967   5.159   3.985   0.027
 6690SOL     OW20968   2.259   3.336   1.236
 6690SOL    HW120969   2.333   3.380   1.286
 6690SOL    HW220970   2.265   3.237   1.249
 6691SOL     OW20971   2.769   5.927   1.610
 6691SOL    HW120972   2.718   5.955   1.690
 6691SOL    HW220973   2.850   5.985   1.600
 6692SOL     OW20974   3.073   4.497   5.358
 6692SOL    HW120975   3.077   4.397   5.364
 6692SOL    HW220976   3.015   4.524   5.281
 6693SOL     OW20977   4.445   3.760   5.508
 6693SOL    HW120978   4.469   3.717   5.595
 6693SOL    HW220979   4.447   3.693   5.435
 6694SOL     OW20980   4.590   6.314   0.515
 6694SOL    HW120981   4.649   6.395   0.514
 6694SOL    HW220982   4.496   6.341   0.536
 6695SOL     OW20983   0.661   1.833   6.565
 6695SOL    HW120984   0.707   1.750   6.598
 6695SOL    HW220985   0.626   1.885   6.643
 6696SOL     OW20986   2.032   3.372   1.851
 6696SOL    HW120987   2.097   3.393   1.924
 6696SOL    HW220988   2.080   3.331   1.774
 6697SOL     OW20989   4.522   1.270   2.954
 6697SOL    HW120990   4.615   1.234   2.951
 6697SOL    HW220991   4.519   1.362   2.915
 6698SOL     OW20992   3.918   2.748   6.591
 6698SOL    HW120993   3.837   2.698   6.560
 6698SOL    HW220994   3.990   2.742   6.522
 6699SOL     OW20995   2.801   4.707   6.967
 6699SOL    HW120996   2.862   4.631   6.947
 6699SOL    HW220997   2.835   4.756   0.030
 6700SOL     OW20998   0.534   5.586   1.035
 6700SOL    HW120999   0.625   5.581   1.077
 6700SOL    HW221000   0.544   5.608   0.938
 6701SOL     OW21001   0.590   1.784   0.193
 6701SOL    HW121002   0.643   1.718   0.140
 6701SOL    HW221003   0.595   1.759   0.290
 6702SOL     OW21004   2.058   1.645   0.685
 6702SOL    HW121005   2.116   1.631   0.605
 6702SOL    HW221006   2.081   1.733   0.728
 6703SOL     OW21007   6.906   1.388   6.337
 6703SOL    HW121008   6.871   1.313   6.392
 6703SOL    HW221009   7.003   1.401   6.357
 6704SOL     OW21010   4.686   2.772   3.082
 6704SOL    HW121011   4.599   2.722   3.083
 6704SOL    HW221012   4.709   2.801   3.174
 6705SOL     OW21013   6.473   2.117   1.150
 6705SOL    HW121014   6.421   2.104   1.065
 6705SOL    HW221015   6.443   2.201   1.195
 6706SOL     OW21016   0.748   4.208   6.792
 6706SOL    HW121017   0.718   4.116   6.767
 6706SOL    HW221018   0.724   4.227   6.887
 6707SOL     OW21019   0.572   5.548   3.805
 6707SOL    HW121020   0.511   5.578   3.878
 6707SOL    HW221021   0.649   5.496   3.844
 6708SOL     OW21022   2.800   6.323   2.347
 6708SOL    HW121023   2.797   6.407   2.293
 6708SOL    HW221024   2.894   6.300   2.368
 6709SOL     OW21025   3.871   1.098   1.977
 6709SOL    HW121026   3.968   1.092   1.953
 6709SOL    HW221027   3.837   1.191   1.961
 6710SOL     OW21028   3.412   2.460   0.012
 6710SOL    HW121029   3.507   2.490   0.023
 6710SOL    HW221030   3.351   2.540   0.016
 6711SOL     OW21031   4.213   3.775   0.094
 6711SOL    HW121032   4.310   3.755   0.109
 6711SOL    HW221033   4.169   3.696   0.052
 6712SOL     OW21034   3.707   6.371   0.518
 6712SOL    HW121035   3.773   6.342   0.448
 6712SOL    HW221036   3.662   6.291   0.557
 6713SOL     OW21037   1.761   2.709   1.951
 6713SOL    HW121038   1.735   2.796   1.994
 6713SOL    HW221039   1.678   2.656   1.932
 6714SOL     OW21040   5.521   0.440   3.832
 6714SOL    HW121041   5.472   0.427   3.918
 6714SOL    HW221042   5.520   0.537   3.807
 6715SOL     OW21043   0.491   1.316   0.598
 6715SOL    HW121044   0.481   1.263   0.682
 6715SOL    HW221045   0.485   1.255   0.519
 6716SOL     OW21046   2.320   5.703   1.236
 6716SOL    HW121047   2.238   5.696   1.293
 6716SOL    HW221048   2.303   5.764   1.159
 6717SOL     OW21049   4.432   2.328   0.541
 6717SOL    HW121050   4.409   2.421   0.512
 6717SOL    HW221051   4.380   2.262   0.486
 6718SOL     OW21052   3.092   0.572   0.598
 6718SOL    HW121053   3.022   0.503   0.617
 6718SOL    HW221054   3.173   0.527   0.560
 6719SOL     OW21055   6.983   6.379   5.400
 6719SOL    HW121056   0.011   6.368   5.489
 6719SOL    HW221057   0.015   6.446   5.345
 6720SOL     OW21058   2.194   5.086   1.415
 6720SOL    HW121059   2.240   5.058   1.499
 6720SOL    HW221060   2.119   5.149   1.437
 6721SOL     OW21061   5.164   6.644   3.893
 6721SOL    HW121062   5.098   6.634   3.819
 6721SOL    HW221063   5.232   6.571   3.888
 6722SOL     OW21064   4.369   3.173   6.503
 6722SOL    HW121065   4.333   3.205   6.591
 6722SOL    HW221066   4.423   3.090   6.518
 6723SOL     OW21067   3.448   6.492   3.407
 6723SOL    HW121068   3.434   6.393   3.413
 6723SOL    HW221069   3.407   6.526   3.323
 6724SOL     OW21070   3.112   4.783   5.230
 6724SOL    HW121071   3.187   4.739   5.279
 6724SOL    HW221072   3.041   4.715   5.212
 6725SOL     OW21073   1.168   5.149   2.690
 6725SOL    HW121074   1.181   5.198   2.605
 6725SOL    HW221075   1.127   5.209   2.758
 6726SOL     OW21076   2.833   2.164   3.613
 6726SOL    HW121077   2.813   2.066   3.620
 6726SOL    HW221078   2.830   2.205   3.704
 6727SOL     OW21079   4.239   3.278   6.041
 6727SOL    HW121080   4.210   3.358   6.093
 6727SOL    HW221081   4.304   3.225   6.096
 6728SOL     OW21082   4.170   1.868   3.689
 6728SOL    HW121083   4.230   1.905   3.618
 6728SOL    HW221084   4.174   1.768   3.687
 6729SOL     OW21085   6.026   0.817   2.451
 6729SOL    HW121086   6.023   0.913   2.478
 6729SOL    HW221087   6.047   0.761   2.531
 6730SOL     OW21088   2.440   1.065   6.944
 6730SOL    HW121089   2.392   1.078   6.857
 6730SOL    HW221090   2.385   1.006   7.003
 6731SOL     OW21091   2.660   5.189   1.500
 6731SOL    HW121092   2.579   5.193   1.558
 6731SOL    HW221093   2.737   5.233   1.548
 6732SOL     OW21094   2.521   5.980   1.078
 6732SOL    HW121095   2.581   6.059   1.072
 6732SOL    HW221096   2.463   5.987   1.160
 6733SOL     OW21097   5.556   6.020   4.950
 6733SOL    HW121098   5.608   5.937   4.968
 6733SOL    HW221099   5.610   6.082   4.894
 6734SOL     OW21100   2.406   3.209   5.644
 6734SOL    HW121101   2.386   3.218   5.546
 6734SOL    HW221102   2.466   3.130   5.659
 6735SOL     OW21103   6.752   5.339   5.618
 6735SOL    HW121104   6.660   5.302   5.604
 6735SOL    HW221105   6.748   5.412   5.686
 6736SOL     OW21106   2.133   3.172   2.121
 6736SOL    HW121107   2.091   3.125   2.043
 6736SOL    HW221108   2.170   3.260   2.090
 6737SOL     OW21109   2.011   1.065   1.946
 6737SOL    HW121110   2.068   0.987   1.971
 6737SOL    HW221111   2.019   1.136   2.016
 6738SOL     OW21112   2.917   0.969   2.687
 6738SOL    HW121113   2.997   0.983   2.629
 6738SOL    HW221114   2.943   0.980   2.783
 6739SOL     OW21115   3.849   6.243   4.777
 6739SOL    HW121116   3.867   6.146   4.762
 6739SOL    HW221117   3.904   6.297   4.713
 6740SOL     OW21118   1.465   1.646   3.905
 6740SOL    HW121119   1.379   1.600   3.884
 6740SOL    HW221120   1.468   1.670   4.002
 6741SOL     OW21121   6.943   0.235   6.137
 6741SOL    HW121122   6.922   0.156   6.196
 6741SOL    HW221123   6.870   0.302   6.146
 6742SOL     OW21124   6.183   5.408   5.355
 6742SOL    HW121125   6.238   5.461   5.419
 6742SOL    HW221126   6.240   5.381   5.277
 6743SOL     OW21127   4.210   3.241   1.255
 6743SOL    HW121128   4.271   3.186   1.314
 6743SOL    HW221129   4.201   3.333   1.293
 6744SOL     OW21130   4.693   4.748   5.542
 6744SOL    HW121131   4.611   4.783   5.496
 6744SOL    HW221132   4.730   4.818   5.603
 6745SOL     OW21133   1.719   4.737   4.147
 6745SOL    HW121134   1.651   4.695   4.087
 6745SOL    HW221135   1.801   4.680   4.148
 6746SOL     OW21136   0.268   2.040   0.728
 6746SOL    HW121137   0.182   1.996   0.752
 6746SOL    HW221138   0.283   2.119   0.787
 6747SOL     OW21139   5.410   6.118   5.150
 6747SOL    HW121140   5.455   6.088   5.066
 6747SOL    HW221141   5.346   6.192   5.130
 6748SOL     OW21142   1.503   0.143   2.288
 6748SOL    HW121143   1.495   0.124   2.190
 6748SOL    HW221144   1.600   0.149   2.312
 6749SOL     OW21145   4.413   0.159   6.976
 6749SOL    HW121146   4.358   0.241   6.989
 6749SOL    HW221147   4.487   0.178   6.911
 6750SOL     OW21148   2.441   2.773   5.244
 6750SOL    HW121149   2.452   2.871   5.230
 6750SOL    HW221150   2.525   2.735   5.283
 6751SOL     OW21151   2.888   2.255   5.146
 6751SOL    HW121152   2.838   2.183   5.097
 6751SOL    HW221153   2.986   2.248   5.124
 6752SOL     OW21154   5.972   2.212   0.690
 6752SOL    HW121155   5.941   2.186   0.598
 6752SOL    HW221156   5.939   2.146   0.757
 6753SOL     OW21157   4.663   2.099   6.476
 6753SOL    HW121158   4.755   2.129   6.502
 6753SOL    HW221159   4.660   2.084   6.377
 6754SOL     OW21160   6.154   0.760   6.233
 6754SOL    HW121161   6.208   0.840   6.259
 6754SOL    HW221162   6.073   0.754   6.290
 6755SOL     OW21163   4.864   1.706   4.435
 6755SOL    HW121164   4.790   1.774   4.434
 6755SOL    HW221165   4.849   1.640   4.361
 6756SOL     OW21166   5.367   5.037   4.464
 6756SOL    HW121167   5.324   4.953   4.430
 6756SOL    HW221168   5.350   5.045   4.562
 6757SOL     OW21169   5.605   5.734   1.849
 6757SOL    HW121170   5.630   5.794   1.926
 6757SOL    HW221171   5.510   5.752   1.823
 6758SOL     OW21172   4.555   2.590   2.482
 6758SOL    HW121173   4.504   2.674   2.500
 6758SOL    HW221174   4.525   2.551   2.395
 6759SOL     OW21175   0.080   4.739   3.076
 6759SOL    HW121176   7.001   4.761   3.075
 6759SOL    HW221177   0.134   4.823   3.069
 6760SOL     OW21178   6.560   3.731   4.409
 6760SOL    HW121179   6.472   3.770   4.437
 6760SOL    HW221180   6.606   3.796   4.349
 6761SOL     OW21181   5.302   2.860   5.890
 6761SOL    HW121182   5.311   2.847   5.791
 6761SOL    HW221183   5.320   2.955   5.912
 6762SOL     OW21184   6.452   4.513   3.713
 6762SOL    HW121185   6.537   4.529   3.662
 6762SOL    HW221186   6.436   4.415   3.721
 6763SOL     OW21187   6.141   6.295   6.053
 6763SOL    HW121188   6.178   6.385   6.033
 6763SOL    HW221189   6.049   6.304   6.091
 6764SOL     OW21190   2.284   4.170   6.369
 6764SOL    HW121191   2.250   4.141   6.280
 6764SOL    HW221192   2.289   4.270   6.372
 6765SOL     OW21193   5.739   4.619   2.226
 6765SOL    HW121194   5.793   4.574   2.154
 6765SOL    HW221195   5.790   4.616   2.312
 6766SOL     OW21196   1.900   0.749   5.649
 6766SOL    HW121197   1.832   0.685   5.616
 6766SOL    HW221198   1.875   0.842   5.622
 6767SOL     OW21199   6.503   2.767   6.808
 6767SOL    HW121200   6.595   2.775   6.772
 6767SOL    HW221201   6.496   2.686   6.867
 6768SOL     OW21202   6.774   0.267   4.546
 6768SOL    HW121203   6.867   0.268   4.583
 6768SOL    HW221204   6.754   0.355   4.504
 6769SOL     OW21205   1.920   3.174   5.895
 6769SOL    HW121206   1.922   3.272   5.874
 6769SOL    HW221207   1.989   3.153   5.965
 6770SOL     OW21208   0.665   1.353   2.914
 6770SOL    HW121209   0.641   1.280   2.851
 6770SOL    HW221210   0.591   1.367   2.980
 6771SOL     OW21211   4.098   1.972   3.362
 6771SOL    HW121212   4.093   1.880   3.322
 6771SOL    HW221213   4.065   2.039   3.295
 6772SOL     OW21214   6.745   1.110   1.068
 6772SOL    HW121215   6.719   1.183   1.005
 6772SOL    HW221216   6.662   1.074   1.112
 6773SOL     OW21217   1.630   6.503   1.458
 6773SOL    HW121218   1.718   6.473   1.495
 6773SOL    HW221219   1.646   6.562   1.379
 6774SOL     OW21220   2.337   2.666   5.010
 6774SOL    HW121221   2.308   2.737   4.945
 6774SOL    HW221222   2.381   2.710   5.088
 6775SOL     OW21223   0.601   1.928   4.459
 6775SOL    HW121224   0.660   1.857   4.500
 6775SOL    HW221225   0.616   2.015   4.506
 6776SOL     OW21226   3.902   3.962   3.059
 6776SOL    HW121227   3.834   4.032   3.038
 6776SOL    HW221228   3.938   3.976   3.151
 6777SOL     OW21229   6.212   5.155   0.248
 6777SOL    HW121230   6.139   5.094   0.278
 6777SOL    HW221231   6.173   5.244   0.226
 6778SOL     OW21232   6.001   5.350   2.630
 6778SOL    HW121233   5.909   5.369   2.596
 6778SOL    HW221234   6.002   5.356   2.729
 6779SOL     OW21235   5.020   3.330   5.865
 6779SOL    HW121236   5.071   3.300   5.784
 6779SOL    HW221237   4.981   3.250   5.910
 6780SOL     OW21238   3.326   2.140   3.099
 6780SOL    HW121239   3.406   2.154   3.158
 6780SOL    HW221240   3.353   2.088   3.018
 6781SOL     OW21241   6.864   1.806   3.309
 6781SOL    HW121242   6.895   1.791   3.403
 6781SOL    HW221243   6.943   1.822   3.250
 6782SOL     OW21244   6.232   1.024   2.953
 6782SOL    HW121245   6.185   1.020   3.041
 6782SOL    HW221246   6.234   0.933   2.912
 6783SOL     OW21247   1.143   4.625   5.676
 6783SOL    HW121248   1.084   4.544   5.674
 6783SOL    HW221249   1.192   4.628   5.763
 6784SOL     OW21250   2.285   3.833   1.776
 6784SOL    HW121251   2.365   3.859   1.722
 6784SOL    HW221252   2.255   3.741   1.749
 6785SOL     OW21253   5.306   5.522   4.656
 6785SOL    HW121254   5.267   5.604   4.700
 6785SOL    HW221255   5.392   5.498   4.701
 6786SOL     OW21256   5.886   1.548   5.921
 6786SOL    HW121257   5.976   1.580   5.893
 6786SOL    HW221258   5.815   1.598   5.871
 6787SOL     OW21259   3.348   2.211   6.832
 6787SOL    HW121260   3.404   2.149   6.888
 6787SOL    HW221261   3.377   2.305   6.849
 6788SOL     OW21262   0.365   4.133   2.089
 6788SOL    HW121263   0.363   4.072   2.169
 6788SOL    HW221264   0.297   4.102   2.023
 6789SOL     OW21265   5.466   4.502   3.373
 6789SOL    HW121266   5.489   4.451   3.290
 6789SOL    HW221267   5.532   4.575   3.387
 6790SOL     OW21268   0.795   5.119   6.200
 6790SOL    HW121269   0.768   5.106   6.105
 6790SOL    HW221270   0.747   5.052   6.257
 6791SOL     OW21271   2.808   0.614   2.999
 6791SOL    HW121272   2.780   0.518   2.995
 6791SOL    HW221273   2.799   0.655   2.909
 6792SOL     OW21274   3.679   6.873   5.352
 6792SOL    HW121275   3.667   6.951   5.291
 6792SOL    HW221276   3.674   6.905   5.447
 6793SOL     OW21277   1.936   3.536   6.072
 6793SOL    HW121278   1.909   3.509   5.980
 6793SOL    HW221279   1.932   3.636   6.080
 6794SOL     OW21280   5.332   1.805   5.240
 6794SOL    HW121281   5.364   1.813   5.335
 6794SOL    HW221282   5.299   1.895   5.209
 6795SOL     OW21283   1.214   0.272   1.341
 6795SOL    HW121284   1.251   0.360   1.309
 6795SOL    HW221285   1.143   0.242   1.278
 6796SOL     OW21286   6.042   1.777   2.661
 6796SOL    HW121287   6.016   1.767   2.565
 6796SOL    HW221288   6.079   1.691   2.695
 6797SOL     OW21289   0.618   2.460   1.722
 6797SOL    HW121290   0.695   2.408   1.686
 6797SOL    HW221291   0.619   2.552   1.683
 6798SOL     OW21292   5.864   0.033   1.462
 6798SOL    HW121293   5.883   0.123   1.502
 6798SOL    HW221294   5.905   6.980   1.518
 6799SOL     OW21295   6.572   0.618   3.704
 6799SOL    HW121296   6.639   0.659   3.642
 6799SOL    HW221297   6.601   0.633   3.799
 6800SOL     OW21298   6.640   2.572   1.233
 6800SOL    HW121299   6.740   2.570   1.238
 6800SOL    HW221300   6.604   2.621   1.313
 6801SOL     OW21301   0.738   6.380   6.385
 6801SOL    HW121302   0.833   6.403   6.409
 6801SOL    HW221303   0.677   6.414   6.456
 6802SOL     OW21304   3.420   4.846   2.212
 6802SOL    HW121305   3.343   4.832   2.149
 6802SOL    HW221306   3.450   4.758   2.248
 6803SOL     OW21307   5.340   4.838   5.877
 6803SOL    HW121308   5.290   4.924   5.887
 6803SOL    HW221309   5.416   4.852   5.814
 6804SOL     OW21310   3.882   4.822   2.823
 6804SOL    HW121311   3.893   4.736   2.775
 6804SOL    HW221312   3.798   4.819   2.878
 6805SOL     OW21313   6.942   4.669   4.599
 6805SOL    HW121314   6.892   4.599   4.650
 6805SOL    HW221315   6.879   4.719   4.540
 6806SOL     OW21316   6.475   2.489   1.719
 6806SOL    HW121317   6.401   2.438   1.762
 6806SOL    HW221318   6.491   2.452   1.627
 6807SOL     OW21319   3.630   3.903   2.002
 6807SOL    HW121320   3.542   3.862   1.979
 6807SOL    HW221321   3.663   3.959   1.925
 6808SOL     OW21322   2.956   1.225   4.328
 6808SOL    HW121323   2.945   1.261   4.421
 6808SOL    HW221324   3.027   1.278   4.281
 6809SOL     OW21325   5.634   3.167   0.184
 6809SOL    HW121326   5.657   3.165   0.087
 6809SOL    HW221327   5.655   3.258   0.221
 6810SOL     OW21328   2.524   0.447   4.822
 6810SOL    HW121329   2.491   0.353   4.819
 6810SOL    HW221330   2.624   0.447   4.826
 6811SOL     OW21331   5.964   1.020   0.568
 6811SOL    HW121332   5.989   1.099   0.624
 6811SOL    HW221333   5.933   1.051   0.478
 6812SOL     OW21334   3.780   4.189   5.145
 6812SOL    HW121335   3.746   4.098   5.171
 6812SOL    HW221336   3.705   4.255   5.150
 6813SOL     OW21337   6.545   3.469   2.386
 6813SOL    HW121338   6.588   3.416   2.459
 6813SOL    HW221339   6.450   3.442   2.377
 6814SOL     OW21340   5.516   0.636   6.704
 6814SOL    HW121341   5.433   0.605   6.657
 6814SOL    HW221342   5.580   0.560   6.712
 6815SOL     OW21343   1.092   4.766   6.040
 6815SOL    HW121344   1.144   4.814   6.110
 6815SOL    HW221345   1.092   4.668   6.059
 6816SOL     OW21346   6.881   0.345   3.538
 6816SOL    HW121347   6.968   0.318   3.578
 6816SOL    HW221348   6.837   0.414   3.595
 6817SOL     OW21349   4.121   2.048   1.547
 6817SOL    HW121350   4.118   1.990   1.629
 6817SOL    HW221351   4.105   2.143   1.573
 6818SOL     OW21352   1.363   6.827   5.432
 6818SOL    HW121353   1.340   6.738   5.471
 6818SOL    HW221354   1.348   6.824   5.333
 6819SOL     OW21355   4.773   4.104   2.292
 6819SOL    HW121356   4.856   4.095   2.236
 6819SOL    HW221357   4.712   4.026   2.275
 6820SOL     OW21358   3.208   4.849   2.008
 6820SOL    HW121359   3.213   4.947   2.027
 6820SOL    HW221360   3.121   4.828   1.963
 6821SOL     OW21361   3.900   2.587   5.359
 6821SOL    HW121362   3.832   2.518   5.385
 6821SOL    HW221363   3.979   2.542   5.319
 6822SOL     OW21364   6.143   3.042   5.994
 6822SOL    HW121365   6.160   3.117   6.059
 6822SOL    HW221366   6.049   3.009   6.006
 6823SOL     OW21367   6.392   2.561   4.824
 6823SOL    HW121368   6.434   2.520   4.743
 6823SOL    HW221369   6.297   2.585   4.803
 6824SOL     OW21370   1.187   0.206   5.713
 6824SOL    HW121371   1.148   0.116   5.693
 6824SOL    HW221372   1.286   0.203   5.698
 6825SOL     OW21373   4.659   4.595   0.809
 6825SOL    HW121374   4.740   4.560   0.856
 6825SOL    HW221375   4.665   4.694   0.802
 6826SOL     OW21376   5.996   5.834   4.135
 6826SOL    HW121377   5.950   5.872   4.055
 6826SOL    HW221378   5.928   5.812   4.206
 6827SOL     OW21379   5.068   6.169   4.706
 6827SOL    HW121380   5.154   6.155   4.755
 6827SOL    HW221381   5.005   6.095   4.729
 6828SOL     OW21382   2.764   2.330   2.317
 6828SOL    HW121383   2.844   2.298   2.366
 6828SOL    HW221384   2.778   2.316   2.218
 6829SOL     OW21385   3.697   0.197   3.781
 6829SOL    HW121386   3.785   0.244   3.771
 6829SOL    HW221387   3.701   0.134   3.858
 6830SOL     OW21388   4.794   5.514   3.326
 6830SOL    HW121389   4.808   5.572   3.406
 6830SOL    HW221390   4.882   5.478   3.295
 6831SOL     OW21391   1.869   2.270   6.268
 6831SOL    HW121392   1.848   2.361   6.302
 6831SOL    HW221393   1.867   2.271   6.168
 6832SOL     OW21394   3.161   2.839   0.140
 6832SOL    HW121395   3.180   2.879   0.050
 6832SOL    HW221396   3.067   2.805   0.142
 6833SOL     OW21397   3.680   5.475   5.636
 6833SOL    HW121398   3.621   5.423   5.574
 6833SOL    HW221399   3.736   5.538   5.583
 6834SOL     OW21400   6.349   5.992   7.018
 6834SOL    HW121401   6.363   5.901   6.979
 6834SOL    HW221402   6.433   6.045   7.009
 6835SOL     OW21403   2.859   1.288   5.160
 6835SOL    HW121404   2.787   1.357   5.149
 6835SOL    HW221405   2.868   1.264   5.256
 6836SOL     OW21406   2.189   4.449   6.266
 6836SOL    HW121407   2.285   4.459   6.238
 6836SOL    HW221408   2.130   4.496   6.200
 6837SOL     OW21409   0.628   0.805   2.067
 6837SOL    HW121410   0.690   0.854   2.127
 6837SOL    HW221411   0.680   0.767   1.990
 6838SOL     OW21412   3.129   4.108   4.909
 6838SOL    HW121413   3.180   4.096   4.824
 6838SOL    HW221414   3.046   4.053   4.906
 6839SOL     OW21415   6.307   3.362   4.375
 6839SOL    HW121416   6.295   3.263   4.375
 6839SOL    HW221417   6.227   3.406   4.334
 6840SOL     OW21418   2.625   6.773   4.682
 6840SOL    HW121419   2.551   6.732   4.628
 6840SOL    HW221420   2.612   6.872   4.686
 6841SOL     OW21421   4.793   6.071   1.045
 6841SOL    HW121422   4.725   6.032   1.108
 6841SOL    HW221423   4.792   6.171   1.054
 6842SOL     OW21424   0.584   3.589   4.804
 6842SOL    HW121425   0.624   3.620   4.890
 6842SOL    HW221426   0.492   3.627   4.794
 6843SOL     OW21427   3.927   2.287   1.837
 6843SOL    HW121428   3.952   2.208   1.894
 6843SOL    HW221429   3.827   2.293   1.831
 6844SOL     OW21430   4.555   5.506   3.942
 6844SOL    HW121431   4.582   5.461   4.027
 6844SOL    HW221432   4.529   5.437   3.874
 6845SOL     OW21433   4.246   4.539   1.243
 6845SOL    HW121434   4.335   4.543   1.289
 6845SOL    HW221435   4.247   4.465   1.176
 6846SOL     OW21436   3.072   3.453   2.980
 6846SOL    HW121437   3.125   3.518   3.035
 6846SOL    HW221438   3.130   3.375   2.957
 6847SOL     OW21439   5.502   3.349   2.526
 6847SOL    HW121440   5.453   3.275   2.480
 6847SOL    HW221441   5.599   3.326   2.531
 6848SOL     OW21442   0.573   6.774   3.362
 6848SOL    HW121443   0.619   6.687   3.343
 6848SOL    HW221444   0.495   6.757   3.422
 6849SOL     OW21445   3.683   6.687   3.742
 6849SOL    HW121446   3.632   6.625   3.801
 6849SOL    HW221447   3.623   6.721   3.670
 6850SOL     OW21448   5.457   2.634   2.261
 6850SOL    HW121449   5.429   2.579   2.182
 6850SOL    HW221450   5.382   2.636   2.328
 6851SOL     OW21451   1.258   5.915   5.364
 6851SOL    HW121452   1.333   5.974   5.337
 6851SOL    HW221453   1.239   5.849   5.291
 6852SOL     OW21454   0.163   4.715   2.065
 6852SOL    HW121455   0.253   4.757   2.070
 6852SOL    HW221456   0.161   4.631   2.120
 6853SOL     OW21457   0.105   3.811   5.495
 6853SOL    HW121458   0.113   3.803   5.595
 6853SOL    HW221459   0.194   3.795   5.453
 6854SOL     OW21460   6.466   1.349   6.399
 6854SOL    HW121461   6.423   1.263   6.427
 6854SOL    HW221462   6.464   1.413   6.476
 6855SOL     OW21463   3.336   5.926   1.909
 6855SOL    HW121464   3.339   5.979   1.824
 6855SOL    HW221465   3.397   5.847   1.901
 6856SOL     OW21466   0.067   3.621   5.311
 6856SOL    HW121467   0.063   3.695   5.378
 6856SOL    HW221468   7.007   3.630   5.248
 6857SOL     OW21469   4.266   1.888   5.479
 6857SOL    HW121470   4.326   1.898   5.399
 6857SOL    HW221471   4.297   1.948   5.552
 6858SOL     OW21472   4.012   3.180   4.766
 6858SOL    HW121473   4.083   3.119   4.801
 6858SOL    HW221474   4.027   3.273   4.801
 6859SOL     OW21475   4.226   6.492   1.617
 6859SOL    HW121476   4.164   6.415   1.610
 6859SOL    HW221477   4.216   6.535   1.707
 6860SOL     OW21478   4.896   3.793   6.885
 6860SOL    HW121479   4.847   3.837   6.959
 6860SOL    HW221480   4.869   3.697   6.879
 6861SOL     OW21481   6.627   4.600   7.016
 6861SOL    HW121482   6.590   4.534   6.950
 6861SOL    HW221483   6.556   4.622   0.065
 6862SOL     OW21484   3.523   5.712   4.222
 6862SOL    HW121485   3.608   5.682   4.266
 6862SOL    HW221486   3.535   5.710   4.122
 6863SOL     OW21487   6.512   3.087   4.206
 6863SOL    HW121488   6.422   3.111   4.170
 6863SOL    HW221489   6.501   3.017   4.277
 6864SOL     OW21490   4.210   6.101   4.536
 6864SOL    HW121491   4.284   6.082   4.600
 6864SOL    HW221492   4.240   6.169   4.469
 6865SOL     OW21493   6.780   4.624   3.980
 6865SOL    HW121494   6.785   4.720   3.954
 6865SOL    HW221495   6.773   4.567   3.898
 6866SOL     OW21496   0.070   3.534   2.317
 6866SOL    HW121497   7.000   3.516   2.361
 6866SOL    HW221498   0.134   3.570   2.385
 6867SOL     OW21499   2.069   4.035   2.847
 6867SOL    HW121500   2.054   3.943   2.810
 6867SOL    HW221501   2.074   4.100   2.771
 6868SOL     OW21502   1.621   5.201   5.498
 6868SOL    HW121503   1.702   5.228   5.446
 6868SOL    HW221504   1.586   5.279   5.549
 6869SOL     OW21505   5.903   3.545   5.281
 6869SOL    HW121506   5.937   3.605   5.354
 6869SOL    HW221507   5.941   3.454   5.293
 6870SOL     OW21508   5.382   3.486   3.148
 6870SOL    HW121509   5.351   3.569   3.102
 6870SOL    HW221510   5.409   3.418   3.079
 6871SOL     OW21511   5.542   5.981   1.602
 6871SOL    HW121512   5.587   6.068   1.620
 6871SOL    HW221513   5.499   5.984   1.511
 6872SOL     OW21514   2.686   3.268   6.240
 6872SOL    HW121515   2.722   3.271   6.333
 6872SOL    HW221516   2.679   3.173   6.210
 6873SOL     OW21517   5.487   3.879   5.973
 6873SOL    HW121518   5.494   3.803   6.037
 6873SOL    HW221519   5.545   3.955   6.005
 6874SOL     OW21520   0.754   2.260   5.612
 6874SOL    HW121521   0.682   2.271   5.544
 6874SOL    HW221522   0.774   2.162   5.624
 6875SOL     OW21523   3.142   2.160   3.913
 6875SOL    HW121524   3.103   2.238   3.962
 6875SOL    HW221525   3.112   2.075   3.956
 6876SOL     OW21526   3.575   6.357   6.710
 6876SOL    HW121527   3.564   6.367   6.611
 6876SOL    HW221528   3.630   6.434   6.745
 6877SOL     OW21529   2.245   4.140   6.748
 6877SOL    HW121530   2.172   4.100   6.803
 6877SOL    HW221531   2.213   4.225   6.706
 6878SOL     OW21532   1.574   1.311   5.315
 6878SOL    HW121533   1.616   1.382   5.259
 6878SOL    HW221534   1.551   1.348   5.405
 6879SOL     OW21535   1.533   2.226   6.079
 6879SOL    HW121536   1.620   2.261   6.043
 6879SOL    HW221537   1.466   2.224   6.005
 6880SOL     OW21538   1.588   4.057   5.207
 6880SOL    HW121539   1.636   3.993   5.147
 6880SOL    HW221540   1.641   4.070   5.291
 6881SOL     OW21541   6.914   4.109   1.248
 6881SOL    HW121542   6.852   4.038   1.215
 6881SOL    HW221543   6.942   4.167   1.172
 6882SOL     OW21544   1.809   6.856   5.284
 6882SOL    HW121545   1.786   6.899   5.372
 6882SOL    HW221546   1.766   6.765   5.279
 6883SOL     OW21547   3.500   6.497   1.827
 6883SOL    HW121548   3.472   6.566   1.894
 6883SOL    HW221549   3.432   6.424   1.825
 6884SOL     OW21550   2.488   4.508   3.580
 6884SOL    HW121551   2.512   4.604   3.596
 6884SOL    HW221552   2.497   4.486   3.483
 6885SOL     OW21553   2.693   5.242   4.332
 6885SOL    HW121554   2.699   5.326   4.386
 6885SOL    HW221555   2.597   5.221   4.314
 6886SOL     OW21556   5.764   1.726   2.769
 6886SOL    HW121557   5.746   1.814   2.725
 6886SOL    HW221558   5.835   1.677   2.719
 6887SOL     OW21559   5.998   0.625   4.808
 6887SOL    HW121560   6.080   0.568   4.802
 6887SOL    HW221561   6.009   0.705   4.749
 6888SOL     OW21562   5.622   6.843   4.611
 6888SOL    HW121563   5.569   6.798   4.539
 6888SOL    HW221564   5.672   6.774   4.664
 6889SOL     OW21565   1.021   4.232   6.386
 6889SOL    HW121566   1.037   4.149   6.439
 6889SOL    HW221567   0.995   4.307   6.447
 6890SOL     OW21568   2.132   6.972   0.814
 6890SOL    HW121569   2.038   6.996   0.791
 6890SOL    HW221570   2.194   7.012   0.746
 6891SOL     OW21571   2.111   4.429   4.422
 6891SOL    HW121572   2.169   4.348   4.436
 6891SOL    HW221573   2.016   4.400   4.412
 6892SOL     OW21574   4.173   1.076   3.870
 6892SOL    HW121575   4.249   1.014   3.851
 6892SOL    HW221576   4.114   1.082   3.789
 6893SOL     OW21577   5.317   5.427   2.098
 6893SOL    HW121578   5.407   5.466   2.117
 6893SOL    HW221579   5.301   5.349   2.159
 6894SOL     OW21580   6.343   4.557   6.380
 6894SOL    HW121581   6.392   4.572   6.466
 6894SOL    HW221582   6.386   4.481   6.331
 6895SOL     OW21583   3.413   6.126   6.653
 6895SOL    HW121584   3.500   6.079   6.640
 6895SOL    HW221585   3.429   6.222   6.673
 6896SOL     OW21586   3.847   0.542   3.025
 6896SOL    HW121587   3.886   0.477   2.960
 6896SOL    HW221588   3.768   0.588   2.983
 6897SOL     OW21589   3.169   2.813   0.829
 6897SOL    HW121590   3.116   2.737   0.790
 6897SOL    HW221591   3.266   2.796   0.815
 6898SOL     OW21592   4.238   2.331   2.451
 6898SOL    HW121593   4.312   2.317   2.386
 6898SOL    HW221594   4.155   2.357   2.402
 6899SOL     OW21595   5.075   5.932   6.970
 6899SOL    HW121596   5.056   6.014   6.916
 6899SOL    HW221597   5.131   5.869   6.916
 6900SOL     OW21598   4.246   0.701   5.986
 6900SOL    HW121599   4.314   0.718   6.058
 6900SOL    HW221600   4.159   0.741   6.013
 6901SOL     OW21601   1.660   0.930   6.484
 6901SOL    HW121602   1.749   0.936   6.531
 6901SOL    HW221603   1.675   0.918   6.386
 6902SOL     OW21604   6.928   5.816   0.929
 6902SOL    HW121605   6.901   5.913   0.933
 6902SOL    HW221606   6.948   5.791   0.834
 6903SOL     OW21607   4.615   3.645   0.790
 6903SOL    HW121608   4.523   3.648   0.750
 6903SOL    HW221609   4.608   3.662   0.889
 6904SOL     OW21610   0.155   1.546   3.111
 6904SOL    HW121611   0.073   1.506   3.070
 6904SOL    HW221612   0.139   1.643   3.128
 6905SOL     OW21613   6.081   6.779   0.717
 6905SOL    HW121614   6.169   6.757   0.674
 6905SOL    HW221615   6.018   6.702   0.705
 6906SOL     OW21616   4.209   0.655   3.622
 6906SOL    HW121617   4.253   0.741   3.644
 6906SOL    HW221618   4.134   0.638   3.686
 6907SOL     OW21619   3.862   1.836   1.290
 6907SOL    HW121620   3.948   1.883   1.272
 6907SOL    HW221621   3.832   1.854   1.383
 6908SOL     OW21622   1.235   6.558   6.589
 6908SOL    HW121623   1.217   6.568   6.491
 6908SOL    HW221624   1.248   6.461   6.610
 6909SOL     OW21625   3.583   3.786   6.566
 6909SOL    HW121626   3.541   3.706   6.610
 6909SOL    HW221627   3.607   3.853   6.635
 6910SOL     OW21628   6.384   1.584   1.967
 6910SOL    HW121629   6.478   1.550   1.972
 6910SOL    HW221630   6.379   1.673   2.011
 6911SOL     OW21631   3.803   1.237   4.748
 6911SOL    HW121632   3.733   1.232   4.678
 6911SOL    HW221633   3.861   1.156   4.744
 6912SOL     OW21634   4.647   4.851   0.747
 6912SOL    HW121635   4.691   4.841   0.658
 6912SOL    HW221636   4.580   4.925   0.744
 6913SOL     OW21637   5.190   5.007   5.120
 6913SOL    HW121638   5.154   5.038   5.208
 6913SOL    HW221639   5.269   5.063   5.094
 6914SOL     OW21640   6.478   4.939   0.674
 6914SOL    HW121641   6.389   4.915   0.635
 6914SOL    HW221642   6.514   5.020   0.626
 6915SOL     OW21643   0.590   5.272   1.920
 6915SOL    HW121644   0.529   5.340   1.879
 6915SOL    HW221645   0.591   5.285   2.020
 6916SOL     OW21646   6.623   1.976   0.018
 6916SOL    HW121647   6.601   2.011   0.109
 6916SOL    HW221648   6.540   1.973   6.981
 6917SOL     OW21649   4.523   5.851   6.345
 6917SOL    HW121650   4.430   5.840   6.381
 6917SOL    HW221651   4.589   5.840   6.419
 6918SOL     OW21652   1.640   2.928   4.014
 6918SOL    HW121653   1.688   3.016   4.013
 6918SOL    HW221654   1.565   2.931   3.948
 6919SOL     OW21655   1.831   6.365   3.105
 6919SOL    HW121656   1.921   6.390   3.142
 6919SOL    HW221657   1.778   6.317   3.175
 6920SOL     OW21658   5.056   6.649   4.283
 6920SOL    HW121659   5.098   6.729   4.241
 6920SOL    HW221660   5.119   6.608   4.348
 6921SOL     OW21661   0.459   0.397   3.295
 6921SOL    HW121662   0.542   0.349   3.269
 6921SOL    HW221663   0.419   0.441   3.214
 6922SOL     OW21664   2.118   6.062   0.199
 6922SOL    HW121665   2.139   6.039   0.103
 6922SOL    HW221666   2.099   5.978   0.249
 6923SOL     OW21667   4.677   0.631   3.793
 6923SOL    HW121668   4.747   0.633   3.722
 6923SOL    HW221669   4.713   0.672   3.877
 6924SOL     OW21670   0.572   5.263   1.503
 6924SOL    HW121671   0.479   5.248   1.469
 6924SOL    HW221672   0.588   5.207   1.584
 6925SOL     OW21673   4.786   5.595   2.512
 6925SOL    HW121674   4.721   5.672   2.515
 6925SOL    HW221675   4.872   5.623   2.554
 6926SOL     OW21676   2.906   3.395   4.744
 6926SOL    HW121677   2.845   3.460   4.789
 6926SOL    HW221678   2.907   3.412   4.645
 6927SOL     OW21679   4.213   3.956   6.031
 6927SOL    HW121680   4.290   3.940   5.970
 6927SOL    HW221681   4.149   4.020   5.988
 6928SOL     OW21682   5.299   0.517   6.624
 6928SOL    HW121683   5.212   0.547   6.663
 6928SOL    HW221684   5.293   0.420   6.601
 6929SOL     OW21685   3.518   5.542   0.043
 6929SOL    HW121686   3.601   5.492   0.018
 6929SOL    HW221687   3.450   5.532   6.988
 6930SOL     OW21688   1.062   0.163   3.423
 6930SOL    HW121689   1.039   0.084   3.367
 6930SOL    HW221690   1.116   0.134   3.502
 6931SOL     OW21691   1.745   1.094   1.407
 6931SOL    HW121692   1.698   1.175   1.441
 6931SOL    HW221693   1.806   1.059   1.478
 6932SOL     OW21694   2.461   2.463   0.644
 6932SOL    HW121695   2.521   2.475   0.722
 6932SOL    HW221696   2.503   2.399   0.579
 6933SOL     OW21697   3.784   5.704   6.027
 6933SOL    HW121698   3.798   5.606   6.036
 6933SOL    HW221699   3.866   5.746   5.987
 6934SOL     OW21700   5.302   3.279   0.101
 6934SOL    HW121701   5.303   3.192   0.150
 6934SOL    HW221702   5.381   3.285   0.041
 6935SOL     OW21703   4.107   5.749   3.565
 6935SOL    HW121704   4.030   5.796   3.523
 6935SOL    HW221705   4.125   5.788   3.655
 6936SOL     OW21706   1.462   4.193   1.187
 6936SOL    HW121707   1.369   4.167   1.158
 6936SOL    HW221708   1.528   4.154   1.122
 6937SOL     OW21709   4.338   6.581   5.432
 6937SOL    HW121710   4.268   6.516   5.403
 6937SOL    HW221711   4.322   6.608   5.527
 6938SOL     OW21712   4.717   2.445   5.318
 6938SOL    HW121713   4.771   2.377   5.368
 6938SOL    HW221714   4.758   2.462   5.229
 6939SOL     OW21715   0.629   4.511   3.003
 6939SOL    HW121716   0.560   4.570   2.961
 6939SOL    HW221717   0.585   4.446   3.064
 6940SOL     OW21718   4.946   0.797   4.991
 6940SOL    HW121719   4.943   0.854   4.908
 6940SOL    HW221720   4.912   0.850   5.069
 6941SOL     OW21721   3.985   3.305   3.507
 6941SOL    HW121722   3.996   3.209   3.531
 6941SOL    HW221723   4.060   3.333   3.447
 6942SOL     OW21724   6.905   2.026   6.766
 6942SOL    HW121725   6.962   2.090   6.818
 6942SOL    HW221726   6.896   1.940   6.817
 6943SOL     OW21727   4.755   5.451   6.581
 6943SOL    HW121728   4.821   5.451   6.657
 6943SOL    HW221729   4.762   5.364   6.531
 6944SOL     OW21730   1.581   5.907   5.585
 6944SOL    HW121731   1.610   5.992   5.629
 6944SOL    HW221732   1.542   5.846   5.653
 6945SOL     OW21733   5.757   2.944   5.797
 6945SOL    HW121734   5.746   3.024   5.855
 6945SOL    HW221735   5.826   2.882   5.837
 6946SOL     OW21736   5.805   4.466   2.582
 6946SOL    HW121737   5.883   4.524   2.607
 6946SOL    HW221738   5.819   4.375   2.620
 6947SOL     OW21739   3.551   6.336   2.955
 6947SOL    HW121740   3.540   6.284   3.040
 6947SOL    HW221741   3.641   6.317   2.916
 6948SOL     OW21742   4.285   1.133   5.556
 6948SOL    HW121743   4.247   1.123   5.648
 6948SOL    HW221744   4.307   1.229   5.540
 6949SOL     OW21745   5.315   0.100   2.891
 6949SOL    HW121746   5.399   0.116   2.943
 6949SOL    HW221747   5.258   0.182   2.894
 6950SOL     OW21748   2.253   0.371   3.163
 6950SOL    HW121749   2.276   0.275   3.176
 6950SOL    HW221750   2.335   0.427   3.176
 6951SOL     OW21751   6.125   5.392   5.922
 6951SOL    HW121752   6.038   5.343   5.931
 6951SOL    HW221753   6.196   5.344   5.974
 6952SOL     OW21754   0.520   4.955   5.161
 6952SOL    HW121755   0.589   4.985   5.094
 6952SOL    HW221756   0.477   4.871   5.128
 6953SOL     OW21757   4.975   1.610   5.308
 6953SOL    HW121758   5.070   1.588   5.286
 6953SOL    HW221759   4.914   1.556   5.249
 6954SOL     OW21760   0.128   4.016   3.286
 6954SOL    HW121761   0.224   4.010   3.259
 6954SOL    HW221762   0.120   4.069   3.370
 6955SOL     OW21763   0.161   5.979   2.056
 6955SOL    HW121764   0.116   5.948   1.973
 6955SOL    HW221765   0.100   6.038   2.108
 6956SOL     OW21766   3.908   4.828   1.518
 6956SOL    HW121767   3.983   4.778   1.474
 6956SOL    HW221768   3.835   4.844   1.451
 6957SOL     OW21769   0.659   4.777   1.008
 6957SOL    HW121770   0.622   4.686   1.026
 6957SOL    HW221771   0.590   4.833   0.962
 6958SOL     OW21772   2.637   3.438   6.889
 6958SOL    HW121773   2.725   3.469   6.925
 6958SOL    HW221774   2.621   3.479   6.799
 6959SOL     OW21775   2.921   0.705   4.349
 6959SOL    HW121776   2.993   0.775   4.347
 6959SOL    HW221777   2.963   0.615   4.364
 6960SOL     OW21778   0.654   4.876   6.298
 6960SOL    HW121779   0.620   4.805   6.359
 6960SOL    HW221780   0.708   4.835   6.225
 6961SOL     OW21781   6.908   0.695   2.715
 6961SOL    HW121782   6.979   0.715   2.782
 6961SOL    HW221783   6.918   0.754   2.636
 6962SOL     OW21784   4.801   4.310   1.101
 6962SOL    HW121785   4.737   4.279   1.030
 6962SOL    HW221786   4.789   4.407   1.117
 6963SOL     OW21787   0.180   5.233   1.623
 6963SOL    HW121788   0.118   5.185   1.561
 6963SOL    HW221789   0.150   5.327   1.636
 6964SOL     OW21790   4.282   5.725   5.360
 6964SOL    HW121791   4.280   5.692   5.266
 6964SOL    HW221792   4.376   5.742   5.388
 6965SOL     OW21793   6.650   3.257   6.439
 6965SOL    HW121794   6.588   3.180   6.453
 6965SOL    HW221795   6.740   3.222   6.412
 6966SOL     OW21796   4.900   2.673   4.073
 6966SOL    HW121797   4.945   2.747   4.124
 6966SOL    HW221798   4.967   2.628   4.014
 6967SOL     OW21799   1.774   0.873   5.940
 6967SOL    HW121800   1.738   0.797   5.886
 6967SOL    HW221801   1.721   0.956   5.921
 6968SOL     OW21802   5.244   6.061   1.761
 6968SOL    HW121803   5.240   6.044   1.663
 6968SOL    HW221804   5.158   6.032   1.804
 6969SOL     OW21805   2.897   2.401   0.757
 6969SOL    HW121806   2.961   2.459   0.806
 6969SOL    HW221807   2.943   2.315   0.732
 6970SOL     OW21808   4.993   4.059   6.718
 6970SOL    HW121809   4.935   4.122   6.668
 6970SOL    HW221810   4.957   4.047   6.811
 6971SOL     OW21811   5.346   0.205   1.112
 6971SOL    HW121812   5.349   0.298   1.149
 6971SOL    HW221813   5.255   0.166   1.126
 6972SOL     OW21814   6.251   5.059   4.198
 6972SOL    HW121815   6.164   5.010   4.194
 6972SOL    HW221816   6.264   5.096   4.290
 6973SOL     OW21817   1.585   4.199   3.270
 6973SOL    HW121818   1.588   4.144   3.353
 6973SOL    HW221819   1.495   4.189   3.227
 6974SOL     OW21820   3.365   3.843   4.585
 6974SOL    HW121821   3.450   3.838   4.533
 6974SOL    HW221822   3.295   3.787   4.540
 6975SOL     OW21823   3.848   0.684   6.470
 6975SOL    HW121824   3.902   0.765   6.448
 6975SOL    HW221825   3.909   0.613   6.505
 6976SOL     OW21826   1.963   4.606   6.420
 6976SOL    HW121827   1.952   4.657   6.335
 6976SOL    HW221828   2.060   4.606   6.446
 6977SOL     OW21829   3.230   2.003   2.642
 6977SOL    HW121830   3.262   1.999   2.547
 6977SOL    HW221831   3.307   2.024   2.702
 6978SOL     OW21832   6.964   0.767   1.789
 6978SOL    HW121833   6.969   0.813   1.878
 6978SOL    HW221834   6.916   0.680   1.798
 6979SOL     OW21835   0.369   5.137   2.506
 6979SOL    HW121836   0.412   5.078   2.574
 6979SOL    HW221837   0.423   5.220   2.496
 6980SOL     OW21838   3.315   0.848   4.314
 6980SOL    HW121839   3.335   0.941   4.346
 6980SOL    HW221840   3.217   0.837   4.301
 6981SOL     OW21841   2.089   5.227   0.656
 6981SOL    HW121842   2.141   5.311   0.638
 6981SOL    HW221843   2.100   5.201   0.752
 6982SOL     OW21844   0.354   0.195   5.008
 6982SOL    HW121845   0.294   0.215   5.085
 6982SOL    HW221846   0.442   0.241   5.022
 6983SOL     OW21847   6.505   0.120   4.310
 6983SOL    HW121848   6.586   0.143   4.255
 6983SOL    HW221849   6.480   0.199   4.367
 6984SOL     OW21850   1.390   0.888   6.080
 6984SOL    HW121851   1.478   0.851   6.052
 6984SOL    HW221852   1.383   0.984   6.052
 6985SOL     OW21853   5.153   5.736   1.980
 6985SOL    HW121854   5.242   5.756   2.021
 6985SOL    HW221855   5.129   5.641   1.997
 6986SOL     OW21856   2.323   6.900   5.992
 6986SOL    HW121857   2.354   6.827   5.930
 6986SOL    HW221858   2.393   6.916   6.061
 6987SOL     OW21859   0.700   3.460   6.712
 6987SOL    HW121860   0.665   3.498   6.627
 6987SOL    HW221861   0.786   3.506   6.736
 6988SOL     OW21862   5.083   1.000   3.802
 6988SOL    HW121863   4.984   0.993   3.789
 6988SOL    HW221864   5.130   0.948   3.731
 6989SOL     OW21865   1.481   2.458   4.283
 6989SOL    HW121866   1.502   2.530   4.217
 6989SOL    HW221867   1.563   2.437   4.337
 6990SOL     OW21868   3.670   3.244   6.863
 6990SOL    HW121869   3.616   3.240   6.947
 6990SOL    HW221870   3.750   3.302   6.876
 6991SOL     OW21871   2.784   4.438   5.765
 6991SOL    HW121872   2.782   4.340   5.784
 6991SOL    HW221873   2.878   4.467   5.747
 6992SOL     OW21874   5.446   6.907   3.557
 6992SOL    HW121875   5.356   6.865   3.573
 6992SOL    HW221876   5.506   6.888   3.634
 6993SOL     OW21877   6.961   0.402   3.032
 6993SOL    HW121878   6.904   0.344   2.973
 6993SOL    HW221879   6.917   0.411   3.121
 6994SOL     OW21880   1.459   3.116   6.537
 6994SOL    HW121881   1.465   3.204   6.491
 6994SOL    HW221882   1.462   3.043   6.469
 6995SOL     OW21883   5.995   5.721   3.279
 6995SOL    HW121884   6.042   5.682   3.201
 6995SOL    HW221885   6.053   5.716   3.360
 6996SOL     OW21886   2.447   0.503   5.133
 6996SOL    HW121887   2.405   0.485   5.222
 6996SOL    HW221888   2.396   0.454   5.062
 6997SOL     OW21889   4.528   0.434   5.480
 6997SOL    HW121890   4.622   0.463   5.500
 6997SOL    HW221891   4.505   0.354   5.536
 6998SOL     OW21892   0.804   3.258   3.227
 6998SOL    HW121893   0.872   3.324   3.193
 6998SOL    HW221894   0.740   3.236   3.153
 6999SOL     OW21895   3.644   2.030   5.552
 6999SOL    HW121896   3.681   1.948   5.509
 6999SOL    HW221897   3.545   2.031   5.543
 7000SOL     OW21898   0.625   6.527   2.837
 7000SOL    HW121899   0.614   6.525   2.737
 7000SOL    HW221900   0.684   6.603   2.863
 7001SOL     OW21901   2.239   2.822   5.775
 7001SOL    HW121902   2.247   2.899   5.713
 7001SOL    HW221903   2.330   2.789   5.799
 7002SOL     OW21904   1.896   5.202   3.448
 7002SOL    HW121905   1.819   5.237   3.502
 7002SOL    HW221906   1.912   5.107   3.472
 7003SOL     OW21907   3.000   6.210   1.041
 7003SOL    HW121908   2.949   6.224   0.956
 7003SOL    HW221909   3.018   6.113   1.054
 7004SOL     OW21910   1.867   4.178   1.158
 7004SOL    HW121911   1.842   4.088   1.193
 7004SOL    HW221912   1.876   4.242   1.234
 7005SOL     OW21913   5.074   6.068   6.068
 7005SOL    HW121914   5.159   6.016   6.082
 7005SOL    HW221915   5.022   6.027   5.994
 7006SOL     OW21916   4.422   4.675   4.812
 7006SOL    HW121917   4.360   4.751   4.792
 7006SOL    HW221918   4.386   4.622   4.888
 7007SOL     OW21919   4.565   5.579   3.176
 7007SOL    HW121920   4.645   5.560   3.233
 7007SOL    HW221921   4.534   5.673   3.193
 7008SOL     OW21922   0.930   4.964   4.119
 7008SOL    HW121923   0.842   4.916   4.116
 7008SOL    HW221924   0.968   4.958   4.211
 7009SOL     OW21925   0.434   4.773   2.077
 7009SOL    HW121926   0.476   4.800   2.164
 7009SOL    HW221927   0.472   4.828   2.003
 7010SOL     OW21928   3.231   4.800   6.305
 7010SOL    HW121929   3.195   4.836   6.391
 7010SOL    HW221930   3.266   4.876   6.249
 7011SOL     OW21931   3.061   0.660   5.877
 7011SOL    HW121932   3.097   0.570   5.851
 7011SOL    HW221933   3.122   0.731   5.843
 7012SOL     OW21934   1.222   0.919   1.499
 7012SOL    HW121935   1.206   0.940   1.596
 7012SOL    HW221936   1.256   0.826   1.489
 7013SOL     OW21937   1.383   0.096   2.005
 7013SOL    HW121938   1.444   0.148   1.945
 7013SOL    HW221939   1.313   0.157   2.043
 7014SOL     OW21940   2.879   4.541   1.208
 7014SOL    HW121941   2.889   4.598   1.289
 7014SOL    HW221942   2.954   4.475   1.204
 7015SOL     OW21943   5.100   2.843   2.569
 7015SOL    HW121944   5.051   2.756   2.568
 7015SOL    HW221945   5.044   2.913   2.612
 7016SOL     OW21946   4.596   5.309   0.768
 7016SOL    HW121947   4.551   5.222   0.786
 7016SOL    HW221948   4.695   5.296   0.767
 7017SOL     OW21949   3.572   1.897   3.091
 7017SOL    HW121950   3.551   1.970   3.157
 7017SOL    HW221951   3.495   1.834   3.087
 7018SOL     OW21952   0.532   4.556   4.726
 7018SOL    HW121953   0.484   4.641   4.749
 7018SOL    HW221954   0.625   4.561   4.763
 7019SOL     OW21955   2.535   5.659   6.840
 7019SOL    HW121956   2.453   5.606   6.862
 7019SOL    HW221957   2.544   5.735   6.904
 7020SOL     OW21958   6.052   6.548   6.305
 7020SOL    HW121959   6.030   6.469   6.363
 7020SOL    HW221960   5.968   6.596   6.281
 7021SOL     OW21961   2.859   1.642   6.141
 7021SOL    HW121962   2.826   1.610   6.052
 7021SOL    HW221963   2.945   1.596   6.163
 7022SOL     OW21964   5.663   4.451   0.472
 7022SOL    HW121965   5.610   4.536   0.473
 7022SOL    HW221966   5.639   4.397   0.553
 7023SOL     OW21967   6.101   3.817   2.560
 7023SOL    HW121968   6.196   3.848   2.554
 7023SOL    HW221969   6.054   3.866   2.634
 7024SOL     OW21970   1.704   5.953   0.809
 7024SOL    HW121971   1.622   5.937   0.754
 7024SOL    HW221972   1.679   5.948   0.906
 7025SOL     OW21973   2.903   1.998   6.177
 7025SOL    HW121974   2.987   1.963   6.219
 7025SOL    HW221975   2.824   1.948   6.213
 7026SOL     OW21976   4.024   1.837   0.759
 7026SOL    HW121977   4.105   1.876   0.715
 7026SOL    HW221978   4.008   1.883   0.847
 7027SOL     OW21979   4.278   0.039   4.462
 7027SOL    HW121980   4.181   0.013   4.458
 7027SOL    HW221981   4.330   6.983   4.506
 7028SOL     OW21982   3.767   0.185   4.876
 7028SOL    HW121983   3.691   0.247   4.857
 7028SOL    HW221984   3.835   0.231   4.933
 7029SOL     OW21985   3.609   0.589   6.425
 7029SOL    HW121986   3.694   0.642   6.421
 7029SOL    HW221987   3.629   0.492   6.420
 7030SOL     OW21988   0.969   3.508   4.671
 7030SOL    HW121989   1.067   3.523   4.683
 7030SOL    HW221990   0.945   3.416   4.703
 7031SOL     OW21991   1.628   6.030   3.945
 7031SOL    HW121992   1.580   6.002   4.028
 7031SOL    HW221993   1.650   6.127   3.950
 7032SOL     OW21994   5.870   1.074   2.083
 7032SOL    HW121995   5.856   1.087   2.182
 7032SOL    HW221996   5.968   1.069   2.064
 7033SOL     OW21997   0.140   0.982   3.902
 7033SOL    HW121998   0.180   0.904   3.854
 7033SOL    HW221999   0.162   0.975   4.000
 7034SOL     OW22000   6.822   6.533   2.681
 7034SOL    HW122001   6.759   6.467   2.642
 7034SOL    HW222002   6.856   6.499   2.769
 7035SOL     OW22003   6.374   6.010   2.496
 7035SOL    HW122004   6.314   6.006   2.575
 7035SOL    HW222005   6.336   6.072   2.428
 7036SOL     OW22006   0.038   4.939   2.187
 7036SOL    HW122007   6.997   4.907   2.261
 7036SOL    HW222008   0.065   4.862   2.129
 7037SOL     OW22009   1.425   6.268   6.371
 7037SOL    HW122010   1.413   6.303   6.278
 7037SOL    HW222011   1.492   6.324   6.419
 7038SOL     OW22012   0.745   4.316   4.039
 7038SOL    HW122013   0.804   4.358   3.971
 7038SOL    HW222014   0.800   4.267   4.107
 7039SOL     OW22015   3.748   1.464   0.120
 7039SOL    HW122016   3.706   1.497   0.035
 7039SOL    HW222017   3.831   1.518   0.139
 7040SOL     OW22018   5.197   2.000   6.246
 7040SOL    HW122019   5.154   2.081   6.204
 7040SOL    HW222020   5.281   2.028   6.293
 7041SOL     OW22021   2.158   1.757   2.761
 7041SOL    HW122022   2.190   1.833   2.705
 7041SOL    HW222023   2.181   1.671   2.716
 7042SOL     OW22024   3.358   6.650   0.011
 7042SOL    HW122025   3.346   6.669   6.931
 7042SOL    HW222026   3.412   6.566   0.022
 7043SOL     OW22027   2.847   1.754   3.120
 7043SOL    HW122028   2.768   1.806   3.153
 7043SOL    HW222029   2.880   1.794   3.035
 7044SOL     OW22030   4.842   4.533   2.860
 7044SOL    HW122031   4.801   4.442   2.851
 7044SOL    HW222032   4.769   4.602   2.860
 7045SOL     OW22033   5.602   5.410   1.556
 7045SOL    HW122034   5.535   5.419   1.483
 7045SOL    HW222035   5.688   5.452   1.528
 7046SOL     OW22036   3.745   0.762   5.061
 7046SOL    HW122037   3.843   0.772   5.043
 7046SOL    HW222038   3.699   0.850   5.046
 7047SOL     OW22039   1.258   1.026   4.245
 7047SOL    HW122040   1.183   1.001   4.185
 7047SOL    HW222041   1.263   1.125   4.254
 7048SOL     OW22042   6.153   5.800   0.126
 7048SOL    HW122043   6.114   5.784   0.217
 7048SOL    HW222044   6.193   5.892   0.122
 7049SOL     OW22045   2.448   1.549   0.894
 7049SOL    HW122046   2.547   1.538   0.904
 7049SOL    HW222047   2.421   1.638   0.931
 7050SOL     OW22048   3.784   4.122   4.561
 7050SOL    HW122049   3.857   4.120   4.629
 7050SOL    HW222050   3.768   4.030   4.526
 7051SOL     OW22051   0.293   6.833   2.181
 7051SOL    HW122052   0.354   6.777   2.125
 7051SOL    HW222053   0.337   6.921   2.199
 7052SOL     OW22054   6.999   1.913   3.775
 7052SOL    HW122055   0.061   1.972   3.768
 7052SOL    HW222056   6.918   1.968   3.796
 7053SOL     OW22057   0.512   4.453   6.204
 7053SOL    HW122058   0.576   4.382   6.231
 7053SOL    HW222059   0.444   4.466   6.277
 7054SOL     OW22060   6.931   6.519   1.754
 7054SOL    HW122061   6.977   6.491   1.670
 7054SOL    HW222062   6.881   6.604   1.738
 7055SOL     OW22063   4.212   0.572   4.720
 7055SOL    HW122064   4.252   0.581   4.812
 7055SOL    HW222065   4.265   0.627   4.656
 7056SOL     OW22066   5.558   4.918   4.200
 7056SOL    HW122067   5.543   4.999   4.257
 7056SOL    HW222068   5.524   4.936   4.107
 7057SOL     OW22069   6.943   5.919   3.573
 7057SOL    HW122070   6.849   5.920   3.606
 7057SOL    HW222071   6.950   5.860   3.492
 7058SOL     OW22072   0.868   5.149   5.353
 7058SOL    HW122073   0.885   5.073   5.415
 7058SOL    HW222074   0.945   5.213   5.358
 7059SOL     OW22075   1.266   0.155   2.430
 7059SOL    HW122076   1.257   0.246   2.470
 7059SOL    HW222077   1.355   0.146   2.385
 7060SOL     OW22078   3.515   6.185   2.024
 7060SOL    HW122079   3.489   6.255   2.090
 7060SOL    HW222080   3.473   6.205   1.936
 7061SOL     OW22081   0.568   0.440   2.485
 7061SOL    HW122082   0.513   0.412   2.406
 7061SOL    HW222083   0.512   0.496   2.546
 7062SOL     OW22084   5.415   2.445   5.120
 7062SOL    HW122085   5.459   2.510   5.182
 7062SOL    HW222086   5.485   2.389   5.075
 7063SOL     OW22087   3.263   6.546   1.075
 7063SOL    HW122088   3.236   6.599   1.156
 7063SOL    HW222089   3.232   6.594   0.992
 7064SOL     OW22090   3.487   2.273   1.455
 7064SOL    HW122091   3.432   2.191   1.468
 7064SOL    HW222092   3.549   2.284   1.533
 7065SOL     OW22093   4.809   3.781   1.623
 7065SOL    HW122094   4.709   3.770   1.617
 7065SOL    HW222095   4.832   3.877   1.612
 7066SOL     OW22096   3.907   6.639   0.907
 7066SOL    HW122097   3.849   6.598   0.977
 7066SOL    HW222098   3.865   6.724   0.875
 7067SOL     OW22099   0.543   3.601   5.468
 7067SOL    HW122100   0.556   3.516   5.417
 7067SOL    HW222101   0.484   3.662   5.416
 7068SOL     OW22102   1.606   1.419   3.937
 7068SOL    HW122103   1.704   1.421   3.955
 7068SOL    HW222104   1.568   1.511   3.947
 7069SOL     OW22105   0.510   4.583   5.075
 7069SOL    HW122106   0.597   4.593   5.123
 7069SOL    HW222107   0.518   4.623   4.983
 7070SOL     OW22108   6.160   5.547   4.399
 7070SOL    HW122109   6.258   5.561   4.406
 7070SOL    HW222110   6.112   5.631   4.424
 7071SOL     OW22111   1.272   6.024   5.048
 7071SOL    HW122112   1.360   6.045   5.091
 7071SOL    HW222113   1.253   5.926   5.057
 7072SOL     OW22114   0.519   6.834   6.194
 7072SOL    HW122115   0.615   6.809   6.187
 7072SOL    HW222116   0.481   6.797   6.279
 7073SOL     OW22117   0.396   0.607   5.423
 7073SOL    HW122118   0.400   0.580   5.519
 7073SOL    HW222119   0.444   0.694   5.410
 7074SOL     OW22120   3.390   2.029   1.547
 7074SOL    HW122121   3.418   1.933   1.538
 7074SOL    HW222122   3.398   2.058   1.642
 7075SOL     OW22123   1.847   5.539   3.698
 7075SOL    HW122124   1.778   5.508   3.632
 7075SOL    HW222125   1.832   5.495   3.786
 7076SOL     OW22126   3.404   2.571   6.332
 7076SOL    HW122127   3.470   2.646   6.339
 7076SOL    HW222128   3.453   2.485   6.319
 7077SOL     OW22129   2.327   5.400   5.507
 7077SOL    HW122130   2.289   5.486   5.539
 7077SOL    HW222131   2.398   5.369   5.570
 7078SOL     OW22132   5.615   0.796   3.097
 7078SOL    HW122133   5.690   0.845   3.054
 7078SOL    HW222134   5.536   0.794   3.035
 7079SOL     OW22135   6.513   6.392   6.044
 7079SOL    HW122136   6.524   6.374   5.946
 7079SOL    HW222137   6.447   6.327   6.082
 7080SOL     OW22138   4.767   2.135   4.152
 7080SOL    HW122139   4.845   2.080   4.122
 7080SOL    HW222140   4.800   2.223   4.187
 7081SOL     OW22141   3.238   1.401   5.364
 7081SOL    HW122142   3.233   1.442   5.273
 7081SOL    HW222143   3.311   1.332   5.365
 7082SOL     OW22144   5.986   1.101   6.190
 7082SOL    HW122145   6.004   1.139   6.281
 7082SOL    HW222146   5.892   1.123   6.163
 7083SOL     OW22147   3.433   6.976   6.540
 7083SOL    HW122148   3.513   6.919   6.521
 7083SOL    HW222149   3.459   0.033   6.602
 7084SOL     OW22150   6.749   6.431   6.196
 7084SOL    HW122151   6.786   6.343   6.225
 7084SOL    HW222152   6.671   6.416   6.136
 7085SOL     OW22153   2.174   2.397   2.213
 7085SOL    HW122154   2.261   2.445   2.223
 7085SOL    HW222155   2.099   2.462   2.218
 7086SOL     OW22156   5.755   0.543   6.472
 7086SOL    HW122157   5.668   0.495   6.484
 7086SOL    HW222158   5.798   0.557   6.560
 7087SOL     OW22159   0.985   2.958   4.625
 7087SOL    HW122160   0.931   3.020   4.569
 7087SOL    HW222161   0.931   2.875   4.644
 7088SOL     OW22162   6.062   3.507   4.591
 7088SOL    HW122163   6.028   3.425   4.637
 7088SOL    HW222164   6.089   3.575   4.659
 7089SOL     OW22165   3.349   2.050   0.306
 7089SOL    HW122166   3.336   2.147   0.285
 7089SOL    HW222167   3.269   1.998   0.275
 7090SOL     OW22168   2.517   2.475   4.976
 7090SOL    HW122169   2.437   2.534   4.981
 7090SOL    HW222170   2.553   2.459   5.068
 7091SOL     OW22171   6.704   0.380   0.319
 7091SOL    HW122172   6.774   0.314   0.346
 7091SOL    HW222173   6.718   0.407   0.223
 7092SOL     OW22174   3.754   4.140   1.251
 7092SOL    HW122175   3.715   4.143   1.343
 7092SOL    HW222176   3.760   4.233   1.215
 7093SOL     OW22177   3.277   4.075   4.656
 7093SOL    HW122178   3.320   3.987   4.636
 7093SOL    HW222179   3.337   4.149   4.627
 7094SOL     OW22180   0.813   0.012   5.621
 7094SOL    HW122181   0.870   6.958   5.582
 7094SOL    HW222182   0.805   0.087   5.555
 7095SOL     OW22183   0.618   3.376   6.058
 7095SOL    HW122184   0.656   3.468   6.050
 7095SOL    HW222185   0.520   3.379   6.037
 7096SOL     OW22186   4.485   2.496   3.881
 7096SOL    HW122187   4.396   2.539   3.864
 7096SOL    HW222188   4.554   2.568   3.891
 7097SOL     OW22189   0.193   0.979   1.565
 7097SOL    HW122190   0.173   1.061   1.513
 7097SOL    HW222191   0.173   0.898   1.509
 7098SOL     OW22192   1.856   6.245   6.114
 7098SOL    HW122193   1.844   6.160   6.164
 7098SOL    HW222194   1.859   6.226   6.016
 7099SOL     OW22195   1.109   1.178   6.093
 7099SOL    HW122196   1.084   1.124   6.012
 7099SOL    HW222197   1.033   1.237   6.119
 7100SOL     OW22198   5.190   4.016   1.098
 7100SOL    HW122199   5.219   4.016   1.003
 7100SOL    HW222200   5.150   4.104   1.121
 7101SOL     OW22201   3.009   0.338   5.235
 7101SOL    HW122202   2.969   0.294   5.315
 7101SOL    HW222203   2.941   0.395   5.190
 7102SOL     OW22204   3.745   1.336   1.107
 7102SOL    HW122205   3.829   1.357   1.158
 7102SOL    HW222206   3.666   1.365   1.160
 7103SOL     OW22207   3.536   6.957   0.422
 7103SOL    HW122208   3.457   6.918   0.374
 7103SOL    HW222209   3.606   6.887   0.432
 7104SOL     OW22210   1.279   1.996   3.281
 7104SOL    HW122211   1.254   1.996   3.184
 7104SOL    HW222212   1.374   2.025   3.291
 7105SOL     OW22213   3.614   3.559   4.640
 7105SOL    HW122214   3.578   3.505   4.564
 7105SOL    HW222215   3.698   3.605   4.612
 7106SOL     OW22216   3.652   2.879   4.791
 7106SOL    HW122217   3.557   2.875   4.822
 7106SOL    HW222218   3.692   2.787   4.791
 7107SOL     OW22219   2.839   1.981   0.306
 7107SOL    HW122220   2.772   2.055   0.298
 7107SOL    HW222221   2.793   1.898   0.339
 7108SOL     OW22222   5.680   6.304   1.108
 7108SOL    HW122223   5.594   6.348   1.132
 7108SOL    HW222224   5.664   6.238   1.034
 7109SOL     OW22225   3.413   0.328   6.550
 7109SOL    HW122226   3.499   0.287   6.520
 7109SOL    HW222227   3.385   0.399   6.485
 7110SOL     OW22228   4.620   5.370   4.197
 7110SOL    HW122229   4.546   5.377   4.264
 7110SOL    HW222230   4.702   5.415   4.233
 7111SOL     OW22231   2.258   3.028   4.367
 7111SOL    HW122232   2.251   3.105   4.431
 7111SOL    HW222233   2.252   3.062   4.273
 7112SOL     OW22234   1.078   6.401   3.775
 7112SOL    HW122235   1.032   6.313   3.775
 7112SOL    HW222236   1.177   6.388   3.781
 7113SOL     OW22237   3.576   3.864   4.410
 7113SOL    HW122238   3.662   3.824   4.442
 7113SOL    HW222239   3.532   3.801   4.346
 7114SOL     OW22240   4.026   1.494   1.890
 7114SOL    HW122241   4.001   1.590   1.876
 7114SOL    HW222242   4.070   1.460   1.806
 7115SOL     OW22243   4.814   1.594   1.549
 7115SOL    HW122244   4.754   1.620   1.625
 7115SOL    HW222245   4.805   1.661   1.475
 7116SOL     OW22246   5.261   4.122   3.107
 7116SOL    HW122247   5.282   4.046   3.045
 7116SOL    HW222248   5.286   4.097   3.200
 7117SOL     OW22249   6.349   6.514   2.279
 7117SOL    HW122250   6.362   6.606   2.316
 7117SOL    HW222251   6.439   6.472   2.261
 7118SOL     OW22252   5.963   3.562   0.871
 7118SOL    HW122253   6.025   3.487   0.896
 7118SOL    HW222254   6.013   3.630   0.818
 7119SOL     OW22255   6.470   0.932   3.623
 7119SOL    HW122256   6.543   0.956   3.559
 7119SOL    HW222257   6.381   0.941   3.577
 7120SOL     OW22258   4.555   1.914   3.791
 7120SOL    HW122259   4.568   1.862   3.706
 7120SOL    HW222260   4.547   1.850   3.868
 7121SOL     OW22261   2.821   6.581   3.707
 7121SOL    HW122262   2.819   6.481   3.707
 7121SOL    HW222263   2.736   6.616   3.668
 7122SOL     OW22264   6.664   0.656   6.624
 7122SOL    HW122265   6.761   0.629   6.631
 7122SOL    HW222266   6.647   0.733   6.685
 7123SOL     OW22267   3.084   5.259   1.199
 7123SOL    HW122268   3.079   5.358   1.211
 7123SOL    HW222269   2.992   5.219   1.210
 7124SOL     OW22270   0.697   5.548   6.918
 7124SOL    HW122271   0.608   5.507   6.900
 7124SOL    HW222272   0.767   5.477   6.924
 7125SOL     OW22273   6.647   6.351   2.591
 7125SOL    HW122274   6.678   6.269   2.640
 7125SOL    HW222275   6.548   6.358   2.599
 7126SOL     OW22276   0.961   4.874   0.402
 7126SOL    HW122277   0.986   4.970   0.403
 7126SOL    HW222278   0.907   4.853   0.484
 7127SOL     OW22279   3.733   6.146   4.507
 7127SOL    HW122280   3.644   6.105   4.486
 7127SOL    HW222281   3.727   6.245   4.496
 7128SOL     OW22282   3.444   4.341   1.226
 7128SOL    HW122283   3.376   4.271   1.248
 7128SOL    HW222284   3.471   4.388   1.310
 7129SOL     OW22285   2.649   0.038   1.728
 7129SOL    HW122286   2.649   6.958   1.705
 7129SOL    HW222287   2.556   0.074   1.721
 7130SOL     OW22288   2.230   4.697   3.983
 7130SOL    HW122289   2.273   4.665   4.067
 7130SOL    HW222290   2.201   4.618   3.928
 7131SOL     OW22291   2.700   0.961   2.514
 7131SOL    HW122292   2.719   1.025   2.439
 7131SOL    HW222293   2.786   0.925   2.549
 7132SOL     OW22294   3.897   3.689   3.125
 7132SOL    HW122295   3.916   3.708   3.221
 7132SOL    HW222296   3.880   3.775   3.077
 7133SOL     OW22297   5.369   4.953   3.695
 7133SOL    HW122298   5.429   4.882   3.731
 7133SOL    HW222299   5.334   5.010   3.770
 7134SOL     OW22300   6.058   5.325   3.929
 7134SOL    HW122301   6.042   5.279   4.016
 7134SOL    HW222302   6.099   5.261   3.864
 7135SOL     OW22303   1.128   1.562   4.810
 7135SOL    HW122304   1.113   1.533   4.715
 7135SOL    HW222305   1.042   1.597   4.847
 7136SOL     OW22306   1.587   1.577   0.430
 7136SOL    HW122307   1.668   1.628   0.459
 7136SOL    HW222308   1.610   1.520   0.352
 7137SOL     OW22309   4.709   0.915   4.233
 7137SOL    HW122310   4.755   0.987   4.180
 7137SOL    HW222311   4.752   0.908   4.323
 7138SOL     OW22312   2.521   3.943   1.284
 7138SOL    HW122313   2.428   3.978   1.277
 7138SOL    HW222314   2.518   3.846   1.311
 7139SOL     OW22315   4.463   2.909   1.584
 7139SOL    HW122316   4.443   2.816   1.616
 7139SOL    HW222317   4.528   2.952   1.646
 7140SOL     OW22318   6.523   4.236   5.292
 7140SOL    HW122319   6.487   4.216   5.201
 7140SOL    HW222320   6.622   4.219   5.293
 7141SOL     OW22321   3.177   6.924   1.089
 7141SOL    HW122322   3.261   6.979   1.085
 7141SOL    HW222323   3.156   6.903   1.184
 7142SOL     OW22324   3.932   6.550   3.758
 7142SOL    HW122325   3.980   6.537   3.671
 7142SOL    HW222326   3.864   6.622   3.748
 7143SOL     OW22327   1.281   3.918   6.087
 7143SOL    HW122328   1.357   3.880   6.141
 7143SOL    HW222329   1.291   4.018   6.081
 7144SOL     OW22330   0.496   1.596   3.276
 7144SOL    HW122331   0.468   1.518   3.332
 7144SOL    HW222332   0.580   1.635   3.313
 7145SOL     OW22333   5.098   6.940   6.897
 7145SOL    HW122334   5.091   7.014   6.830
 7145SOL    HW222335   5.188   6.940   6.939
 7146SOL     OW22336   3.080   5.886   7.009
 7146SOL    HW122337   3.088   5.915   0.086
 7146SOL    HW222338   3.077   5.786   7.005
 7147SOL     OW22339   6.849   0.742   3.261
 7147SOL    HW122340   6.938   0.758   3.219
 7147SOL    HW222341   6.777   0.778   3.201
 7148SOL     OW22342   1.316   0.379   1.761
 7148SOL    HW122343   1.395   0.394   1.702
 7148SOL    HW222344   1.338   0.406   1.854
 7149SOL     OW22345   6.252   1.295   3.251
 7149SOL    HW122346   6.344   1.319   3.222
 7149SOL    HW222347   6.240   1.321   3.347
 7150SOL     OW22348   5.854   2.387   7.017
 7150SOL    HW122349   5.846   2.473   0.050
 7150SOL    HW222350   5.903   2.320   0.055
 7151SOL     OW22351   2.978   5.707   2.091
 7151SOL    HW122352   2.984   5.613   2.124
 7151SOL    HW222353   2.979   5.707   1.991
 7152SOL     OW22354   1.234   2.569   4.237
 7152SOL    HW122355   1.162   2.520   4.187
 7152SOL    HW222356   1.302   2.503   4.270
 7153SOL     OW22357   4.268   1.643   4.304
 7153SOL    HW122358   4.235   1.687   4.220
 7153SOL    HW222359   4.359   1.678   4.326
 7154SOL     OW22360   4.187   5.907   4.105
 7154SOL    HW122361   4.159   6.000   4.129
 7154SOL    HW222362   4.286   5.904   4.093
 7155SOL     OW22363   1.704   6.798   1.803
 7155SOL    HW122364   1.628   6.765   1.747
 7155SOL    HW222365   1.772   6.841   1.743
 7156SOL     OW22366   6.672   5.296   4.994
 7156SOL    HW122367   6.673   5.369   4.925
 7156SOL    HW222368   6.687   5.208   4.949
 7157SOL     OW22369   5.391   5.480   0.804
 7157SOL    HW122370   5.421   5.570   0.837
 7157SOL    HW222371   5.292   5.472   0.812
 7158SOL     OW22372   0.225   6.947   2.963
 7158SOL    HW122373   0.130   6.929   2.937
 7158SOL    HW222374   0.284   6.877   2.924
 7159SOL     OW22375   0.756   5.344   0.111
 7159SOL    HW122376   0.842   5.303   0.079
 7159SOL    HW222377   0.691   5.272   0.133
 7160SOL     OW22378   6.544   0.784   1.744
 7160SOL    HW122379   6.493   0.804   1.828
 7160SOL    HW222380   6.603   0.861   1.721
 7161SOL     OW22381   3.518   3.362   4.446
 7161SOL    HW122382   3.566   3.314   4.373
 7161SOL    HW222383   3.458   3.298   4.494
 7162SOL     OW22384   3.822   4.986   4.048
 7162SOL    HW122385   3.789   4.926   3.975
 7162SOL    HW222386   3.824   5.080   4.016
 7163SOL     OW22387   3.226   0.270   3.406
 7163SOL    HW122388   3.291   0.343   3.432
 7163SOL    HW222389   3.146   0.311   3.363
 7164SOL     OW22390   2.189   1.158   3.331
 7164SOL    HW122391   2.097   1.163   3.292
 7164SOL    HW222392   2.206   1.240   3.386
 7165SOL     OW22393   5.480   0.838   1.016
 7165SOL    HW122394   5.560   0.884   0.977
 7165SOL    HW222395   5.425   0.905   1.065
 7166SOL     OW22396   5.402   5.219   0.839
 7166SOL    HW122397   5.392   5.316   0.818
 7166SOL    HW222398   5.315   5.172   0.823
 7167SOL     OW22399   4.858   3.306   4.884
 7167SOL    HW122400   4.795   3.383   4.879
 7167SOL    HW222401   4.946   3.338   4.919
 7168SOL     OW22402   0.977   0.645   3.673
 7168SOL    HW122403   0.892   0.592   3.664
 7168SOL    HW222404   1.052   0.595   3.630
 7169SOL     OW22405   1.884   2.901   5.762
 7169SOL    HW122406   1.924   2.840   5.831
 7169SOL    HW222407   1.883   2.995   5.797
 7170SOL     OW22408   5.867   5.324   3.445
 7170SOL    HW122409   5.820   5.249   3.491
 7170SOL    HW222410   5.825   5.411   3.472
 7171SOL     OW22411   4.617   3.173   5.488
 7171SOL    HW122412   4.651   3.186   5.581
 7171SOL    HW222413   4.693   3.185   5.423
 7172SOL     OW22414   1.431   6.786   0.130
 7172SOL    HW122415   1.396   6.879   0.119
 7172SOL    HW222416   1.433   6.762   0.227
 7173SOL     OW22417   6.993   6.159   5.139
 7173SOL    HW122418   6.911   6.181   5.192
 7173SOL    HW222419   0.031   6.094   5.190
 7174SOL     OW22420   2.148   5.291   0.296
 7174SOL    HW122421   2.236   5.282   0.343
 7174SOL    HW222422   2.077   5.245   0.349
 7175SOL     OW22423   5.362   3.851   6.819
 7175SOL    HW122424   5.426   3.926   6.840
 7175SOL    HW222425   5.330   3.862   6.725
 7176SOL     OW22426   6.363   4.216   1.457
 7176SOL    HW122427   6.331   4.124   1.478
 7176SOL    HW222428   6.291   4.282   1.477
 7177SOL     OW22429   0.989   5.317   2.927
 7177SOL    HW122430   0.944   5.406   2.920
 7177SOL    HW222431   0.954   5.267   3.006
 7178SOL     OW22432   0.753   2.447   4.579
 7178SOL    HW122433   0.688   2.403   4.641
 7178SOL    HW222434   0.840   2.397   4.582
 7179SOL     OW22435   2.875   4.150   5.319
 7179SOL    HW122436   2.824   4.236   5.320
 7179SOL    HW222437   2.813   4.074   5.300
 7180SOL     OW22438   0.703   6.133   2.163
 7180SOL    HW122439   0.621   6.137   2.221
 7180SOL    HW222440   0.699   6.206   2.095
 7181SOL     OW22441   4.573   0.307   1.338
 7181SOL    HW122442   4.660   0.343   1.369
 7181SOL    HW222443   4.522   0.271   1.417
 7182SOL     OW22444   2.448   4.384   5.397
 7182SOL    HW122445   2.464   4.286   5.382
 7182SOL    HW222446   2.403   4.397   5.486
 7183SOL     OW22447   1.719   4.999   3.400
 7183SOL    HW122448   1.631   5.046   3.396
 7183SOL    HW222449   1.759   4.995   3.308
 7184SOL     OW22450   2.213   6.460   4.084
 7184SOL    HW122451   2.230   6.365   4.059
 7184SOL    HW222452   2.122   6.469   4.124
 7185SOL     OW22453   4.117   2.674   6.845
 7185SOL    HW122454   4.106   2.574   6.847
 7185SOL    HW222455   4.030   2.716   6.820
 7186SOL     OW22456   6.589   5.805   5.494
 7186SOL    HW122457   6.687   5.824   5.501
 7186SOL    HW222458   6.565   5.787   5.399
 7187SOL     OW22459   2.194   4.306   2.362
 7187SOL    HW122460   2.180   4.212   2.332
 7187SOL    HW222461   2.291   4.330   2.354
 7188SOL     OW22462   4.968   1.362   2.137
 7188SOL    HW122463   5.052   1.417   2.130
 7188SOL    HW222464   4.954   1.311   2.053
 7189SOL     OW22465   0.396   1.555   5.548
 7189SOL    HW122466   0.426   1.636   5.597
 7189SOL    HW222467   0.375   1.482   5.614
 7190SOL     OW22468   5.680   3.992   3.499
 7190SOL    HW122469   5.615   4.063   3.471
 7190SOL    HW222470   5.682   3.919   3.431
 7191SOL     OW22471   1.520   3.957   2.314
 7191SOL    HW122472   1.472   4.043   2.299
 7191SOL    HW222473   1.592   3.946   2.246
 7192SOL     OW22474   2.542   4.117   6.483
 7192SOL    HW122475   2.455   4.119   6.434
 7192SOL    HW222476   2.550   4.200   6.539
 7193SOL     OW22477   4.131   2.261   4.381
 7193SOL    HW122478   4.210   2.278   4.322
 7193SOL    HW222479   4.053   2.233   4.325
 7194SOL     OW22480   2.313   2.134   1.631
 7194SOL    HW122481   2.265   2.183   1.703
 7194SOL    HW222482   2.267   2.047   1.613
 7195SOL     OW22483   1.155   5.293   1.290
 7195SOL    HW122484   1.203   5.379   1.311
 7195SOL    HW222485   1.191   5.220   1.347
 7196SOL     OW22486   2.937   3.749   2.564
 7196SOL    HW122487   3.033   3.727   2.547
 7196SOL    HW222488   2.924   3.848   2.560
 7197SOL     OW22489   6.705   1.872   5.166
 7197SOL    HW122490   6.794   1.868   5.211
 7197SOL    HW222491   6.718   1.888   5.068
 7198SOL     OW22492   1.541   6.017   6.424
 7198SOL    HW122493   1.635   6.024   6.392
 7198SOL    HW222494   1.491   6.101   6.401
 7199SOL     OW22495   6.983   6.888   2.921
 7199SOL    HW122496   6.891   6.868   2.888
 7199SOL    HW222497   6.981   6.974   2.972
 7200SOL     OW22498   2.154   1.043   1.278
 7200SOL    HW122499   2.252   1.027   1.262
 7200SOL    HW222500   2.128   1.130   1.236
 7201SOL     OW22501   1.627   3.994   3.994
 7201SOL    HW122502   1.688   4.024   4.068
 7201SOL    HW222503   1.666   4.023   3.907
 7202SOL     OW22504   3.505   0.761   6.215
 7202SOL    HW122505   3.548   0.698   6.279
 7202SOL    HW222506   3.407   0.739   6.208
 7203SOL     OW22507   5.722   1.104   6.383
 7203SOL    HW122508   5.638   1.052   6.395
 7203SOL    HW222509   5.732   1.130   6.287
 7204SOL     OW22510   5.855   1.439   3.053
 7204SOL    HW122511   5.781   1.501   3.078
 7204SOL    HW222512   5.838   1.349   3.093
 7205SOL     OW22513   1.871   4.953   2.637
 7205SOL    HW122514   1.936   5.012   2.590
 7205SOL    HW222515   1.795   4.931   2.575
 7206SOL     OW22516   6.618   1.379   0.899
 7206SOL    HW122517   6.544   1.389   0.967
 7206SOL    HW222518   6.578   1.367   0.808
 7207SOL     OW22519   3.474   6.391   1.185
 7207SOL    HW122520   3.397   6.393   1.122
 7207SOL    HW222521   3.512   6.483   1.194
 7208SOL     OW22522   3.235   0.181   5.510
 7208SOL    HW122523   3.333   0.196   5.495
 7208SOL    HW222524   3.190   0.174   5.421
 7209SOL     OW22525   4.007   3.289   4.513
 7209SOL    HW122526   3.928   3.250   4.467
 7209SOL    HW222527   4.011   3.255   4.607
 7210SOL     OW22528   4.696   0.970   3.870
 7210SOL    HW122529   4.708   0.876   3.902
 7210SOL    HW222530   4.738   1.033   3.935
 7211SOL     OW22531   1.566   5.373   3.948
 7211SOL    HW122532   1.599   5.355   3.855
 7211SOL    HW222533   1.472   5.405   3.944
 7212SOL     OW22534   6.029   6.541   4.193
 7212SOL    HW122535   6.012   6.559   4.290
 7212SOL    HW222536   5.967   6.597   4.138
 7213SOL     OW22537   5.892   0.844   5.401
 7213SOL    HW122538   5.941   0.883   5.479
 7213SOL    HW222539   5.939   0.760   5.371
 7214SOL     OW22540   1.468   4.983   5.066
 7214SOL    HW122541   1.549   4.967   5.009
 7214SOL    HW222542   1.497   5.010   5.158
 7215SOL     OW22543   0.451   3.979   4.076
 7215SOL    HW122544   0.497   3.894   4.104
 7215SOL    HW222545   0.512   4.035   4.021
 7216SOL     OW22546   2.686   0.362   0.036
 7216SOL    HW122547   2.711   0.439   6.995
 7216SOL    HW222548   2.607   0.314   7.014
 7217SOL     OW22549   0.996   3.111   2.579
 7217SOL    HW122550   1.073   3.093   2.518
 7217SOL    HW222551   1.029   3.133   2.670
 7218SOL     OW22552   4.948   2.585   5.792
 7218SOL    HW122553   4.921   2.672   5.752
 7218SOL    HW222554   5.048   2.581   5.800
 7219SOL     OW22555   4.516   0.253   2.477
 7219SOL    HW122556   4.570   0.229   2.396
 7219SOL    HW222557   4.471   0.341   2.461
 7220SOL     OW22558   6.388   1.230   2.616
 7220SOL    HW122559   6.385   1.172   2.534
 7220SOL    HW222560   6.430   1.317   2.593
 7221SOL     OW22561   5.393   4.295   6.069
 7221SOL    HW122562   5.294   4.298   6.057
 7221SOL    HW222563   5.420   4.202   6.097
 7222SOL     OW22564   0.175   5.856   1.364
 7222SOL    HW122565   0.112   5.840   1.288
 7222SOL    HW222566   0.176   5.776   1.424
 7223SOL     OW22567   3.637   1.708   5.787
 7223SOL    HW122568   3.590   1.726   5.873
 7223SOL    HW222569   3.579   1.735   5.711
 7224SOL     OW22570   5.550   0.285   4.664
 7224SOL    HW122571   5.519   0.286   4.759
 7224SOL    HW222572   5.609   0.206   4.649
 7225SOL     OW22573   2.188   6.265   6.682
 7225SOL    HW122574   2.158   6.351   6.639
 7225SOL    HW222575   2.256   6.285   6.753
 7226SOL     OW22576   0.401   6.628   0.453
 7226SOL    HW122577   0.337   6.555   0.476
 7226SOL    HW222578   0.369   6.714   0.492
 7227SOL     OW22579   6.926   2.498   6.629
 7227SOL    HW122580   6.945   2.569   6.697
 7227SOL    HW222581   6.935   2.408   6.671
 7228SOL     OW22582   0.951   0.300   2.176
 7228SOL    HW122583   0.915   0.239   2.247
 7228SOL    HW222584   1.051   0.298   2.177
 7229SOL     OW22585   0.767   0.453   3.665
 7229SOL    HW122586   0.775   0.425   3.569
 7229SOL    HW222587   0.689   0.407   3.707
 7230SOL     OW22588   5.254   4.445   3.826
 7230SOL    HW122589   5.207   4.529   3.798
 7230SOL    HW222590   5.192   4.388   3.879
 7231SOL     OW22591   6.424   0.844   5.929
 7231SOL    HW122592   6.375   0.761   5.903
 7231SOL    HW222593   6.495   0.823   5.995
 7232SOL     OW22594   4.259   4.955   2.039
 7232SOL    HW122595   4.349   4.911   2.043
 7232SOL    HW222596   4.189   4.891   2.068
 7233SOL     OW22597   6.732   2.623   6.120
 7233SOL    HW122598   6.792   2.595   6.195
 7233SOL    HW222599   6.729   2.723   6.115
 7234SOL     OW22600   6.021   2.074   1.652
 7234SOL    HW122601   6.084   2.094   1.577
 7234SOL    HW222602   5.966   1.993   1.628
 7235SOL     OW22603   5.568   3.853   5.354
 7235SOL    HW122604   5.525   3.923   5.298
 7235SOL    HW222605   5.499   3.813   5.416
 7236SOL     OW22606   3.654   0.677   2.886
 7236SOL    HW122607   3.708   0.759   2.868
 7236SOL    HW222608   3.617   0.642   2.801
 7237SOL     OW22609   5.947   5.650   5.905
 7237SOL    HW122610   5.989   5.655   5.995
 7237SOL    HW222611   5.960   5.559   5.866
 7238SOL     OW22612   2.343   2.070   2.080
 7238SOL    HW122613   2.250   2.088   2.110
 7238SOL    HW222614   2.347   1.981   2.034
 7239SOL     OW22615   2.794   1.359   1.773
 7239SOL    HW122616   2.793   1.288   1.702
 7239SOL    HW222617   2.851   1.328   1.850
 7240SOL     OW22618   2.588   4.451   0.193
 7240SOL    HW122619   2.540   4.367   0.216
 7240SOL    HW222620   2.617   4.497   0.277
 7241SOL     OW22621   3.553   6.684   5.005
 7241SOL    HW122622   3.557   6.770   4.955
 7241SOL    HW222623   3.643   6.663   5.043
 7242SOL     OW22624   5.406   4.215   6.482
 7242SOL    HW122625   5.451   4.302   6.460
 7242SOL    HW222626   5.318   4.233   6.526
 7243SOL     OW22627   0.568   5.857   0.549
 7243SOL    HW122628   0.663   5.842   0.578
 7243SOL    HW222629   0.565   5.932   0.482
 7244SOL     OW22630   5.638   1.632   1.278
 7244SOL    HW122631   5.664   1.553   1.333
 7244SOL    HW222632   5.713   1.697   1.275
 7245SOL     OW22633   6.858   1.622   4.258
 7245SOL    HW122634   6.843   1.528   4.225
 7245SOL    HW222635   6.956   1.642   4.259
 7246SOL     OW22636   6.943   6.575   5.762
 7246SOL    HW122637   6.993   6.661   5.757
 7246SOL    HW222638   6.915   6.558   5.856
 7247SOL     OW22639   3.209   5.341   2.939
 7247SOL    HW122640   3.305   5.320   2.917
 7247SOL    HW222641   3.149   5.280   2.886
 7248SOL     OW22642   3.555   0.908   4.512
 7248SOL    HW122643   3.459   0.937   4.519
 7248SOL    HW222644   3.559   0.817   4.473
 7249SOL     OW22645   6.604   4.883   0.192
 7249SOL    HW122646   6.515   4.839   0.190
 7249SOL    HW222647   6.642   4.877   0.285
 7250SOL     OW22648   2.960   4.537   6.025
 7250SOL    HW122649   3.030   4.554   6.094
 7250SOL    HW222650   2.915   4.623   6.002
 7251SOL     OW22651   6.074   0.304   4.893
 7251SOL    HW122652   6.031   0.214   4.902
 7251SOL    HW222653   6.125   0.325   4.976
 7252SOL     OW22654   3.818   3.178   5.193
 7252SOL    HW122655   3.882   3.209   5.263
 7252SOL    HW222656   3.869   3.151   5.111
 7253SOL     OW22657   4.990   5.989   1.213
 7253SOL    HW122658   5.049   5.910   1.197
 7253SOL    HW222659   4.934   6.006   1.131
 7254SOL     OW22660   4.554   6.401   4.761
 7254SOL    HW122661   4.597   6.443   4.680
 7254SOL    HW222662   4.547   6.469   4.834
 7255SOL     OW22663   3.300   3.861   2.653
 7255SOL    HW122664   3.346   3.947   2.631
 7255SOL    HW222665   3.318   3.837   2.748
 7256SOL     OW22666   4.743   4.879   4.103
 7256SOL    HW122667   4.691   4.961   4.128
 7256SOL    HW222668   4.712   4.846   4.014
 7257SOL     OW22669   5.947   3.725   2.990
 7257SOL    HW122670   6.001   3.713   3.073
 7257SOL    HW222671   5.935   3.637   2.944
 7258SOL     OW22672   3.422   0.021   4.156
 7258SOL    HW122673   3.366   6.996   4.226
 7258SOL    HW222674   3.450   6.971   4.088
 7259SOL     OW22675   2.239   4.735   6.418
 7259SOL    HW122676   2.211   4.797   6.491
 7259SOL    HW222677   2.249   4.787   6.332
 7260SOL     OW22678   3.457   2.041   2.173
 7260SOL    HW122679   3.515   2.102   2.118
 7260SOL    HW222680   3.379   2.012   2.118
 7261SOL     OW22681   1.414   3.936   1.938
 7261SOL    HW122682   1.421   3.961   1.841
 7261SOL    HW222683   1.504   3.939   1.980
 7262SOL     OW22684   5.644   1.832   4.985
 7262SOL    HW122685   5.575   1.843   4.914
 7262SOL    HW222686   5.720   1.778   4.949
 7263SOL     OW22687   3.278   6.142   2.199
 7263SOL    HW122688   3.201   6.098   2.154
 7263SOL    HW222689   3.358   6.082   2.195
 7264SOL     OW22690   0.821   0.287   5.401
 7264SOL    HW122691   0.828   0.238   5.314
 7264SOL    HW222692   0.731   0.273   5.440
 7265SOL     OW22693   4.244   4.937   5.984
 7265SOL    HW122694   4.309   4.905   6.053
 7265SOL    HW222695   4.151   4.915   6.012
 7266SOL     OW22696   4.909   0.809   2.042
 7266SOL    HW122697   4.921   0.760   1.956
 7266SOL    HW222698   4.834   0.874   2.033
 7267SOL     OW22699   0.055   4.088   3.539
 7267SOL    HW122700   0.124   4.141   3.588
 7267SOL    HW222701   0.045   3.998   3.582
 7268SOL     OW22702   3.140   6.911   1.348
 7268SOL    HW122703   3.054   6.962   1.351
 7268SOL    HW222704   3.168   6.888   1.441
 7269SOL     OW22705   1.526   6.215   2.033
 7269SOL    HW122706   1.461   6.147   1.997
 7269SOL    HW222707   1.501   6.305   1.999
 7270SOL     OW22708   3.119   1.215   2.742
 7270SOL    HW122709   3.099   1.170   2.828
 7270SOL    HW222710   3.145   1.147   2.674
 7271SOL     OW22711   7.005   3.760   3.335
 7271SOL    HW122712   0.038   3.846   3.339
 7271SOL    HW222713   6.907   3.779   3.346
 7272SOL     OW22714   5.443   2.545   2.006
 7272SOL    HW122715   5.451   2.448   1.985
 7272SOL    HW222716   5.437   2.597   1.921
 7273SOL     OW22717   5.239   4.691   0.067
 7273SOL    HW122718   5.167   4.630   0.034
 7273SOL    HW222719   5.211   4.786   0.051
 7274SOL     OW22720   6.825   4.979   5.379
 7274SOL    HW122721   6.838   4.882   5.401
 7274SOL    HW222722   6.851   5.035   5.457
 7275SOL     OW22723   6.641   6.675   0.865
 7275SOL    HW122724   6.622   6.730   0.946
 7275SOL    HW222725   6.576   6.698   0.793
 7276SOL     OW22726   2.459   2.213   3.559
 7276SOL    HW122727   2.399   2.284   3.596
 7276SOL    HW222728   2.552   2.249   3.549
 7277SOL     OW22729   5.483   1.899   4.766
 7277SOL    HW122730   5.544   1.976   4.749
 7277SOL    HW222731   5.405   1.904   4.704
 7278SOL     OW22732   2.626   1.301   3.369
 7278SOL    HW122733   2.561   1.295   3.293
 7278SOL    HW222734   2.714   1.333   3.335
 7279SOL     OW22735   5.261   4.992   0.954
 7279SOL    HW122736   5.224   5.029   1.039
 7279SOL    HW222737   5.360   4.984   0.961
 7280SOL     OW22738   6.112   2.237   5.559
 7280SOL    HW122739   6.064   2.180   5.492
 7280SOL    HW222740   6.153   2.315   5.513
 7281SOL     OW22741   4.313   5.703   2.528
 7281SOL    HW122742   4.221   5.718   2.493
 7281SOL    HW222743   4.364   5.644   2.464
 7282SOL     OW22744   6.629   4.271   2.291
 7282SOL    HW122745   6.606   4.365   2.316
 7282SOL    HW222746   6.562   4.236   2.227
 7283SOL     OW22747   4.065   4.738   3.343
 7283SOL    HW122748   4.110   4.746   3.432
 7283SOL    HW222749   4.029   4.828   3.317
 7284SOL     OW22750   6.631   1.535   3.042
 7284SOL    HW122751   6.661   1.552   2.948
 7284SOL    HW222752   6.535   1.562   3.052
 7285SOL     OW22753   4.928   2.908   1.864
 7285SOL    HW122754   4.849   2.923   1.923
 7285SOL    HW222755   4.928   2.814   1.830
 7286SOL     OW22756   6.772   0.970   2.501
 7286SOL    HW122757   6.704   0.970   2.427
 7286SOL    HW222758   6.864   0.972   2.462
 7287SOL     OW22759   1.603   2.521   3.448
 7287SOL    HW122760   1.523   2.461   3.454
 7287SOL    HW222761   1.577   2.608   3.407
 7288SOL     OW22762   2.875   2.233   2.705
 7288SOL    HW122763   2.945   2.256   2.772
 7288SOL    HW222764   2.897   2.145   2.662
 7289SOL     OW22765   6.099   1.515   1.080
 7289SOL    HW122766   6.186   1.547   1.119
 7289SOL    HW222767   6.081   1.422   1.110
 7290SOL     OW22768   3.338   1.655   5.365
 7290SOL    HW122769   3.270   1.727   5.355
 7290SOL    HW222770   3.292   1.567   5.375
 7291SOL     OW22771   3.923   0.890   0.886
 7291SOL    HW122772   3.825   0.909   0.886
 7291SOL    HW222773   3.973   0.972   0.913
 7292SOL     OW22774   2.828   0.464   2.633
 7292SOL    HW122775   2.891   0.412   2.690
 7292SOL    HW222776   2.821   0.558   2.667
 7293SOL     OW22777   0.820   0.989   4.922
 7293SOL    HW122778   0.815   0.900   4.966
 7293SOL    HW222779   0.915   1.010   4.900
 7294SOL     OW22780   3.283   6.426   2.197
 7294SOL    HW122781   3.371   6.459   2.233
 7294SOL    HW222782   3.285   6.326   2.193
 7295SOL     OW22783   5.934   5.687   2.102
 7295SOL    HW122784   5.939   5.771   2.155
 7295SOL    HW222785   5.962   5.706   2.008
 7296SOL     OW22786   4.854   4.515   2.132
 7296SOL    HW122787   4.771   4.531   2.185
 7296SOL    HW222788   4.872   4.594   2.073
 7297SOL     OW22789   4.138   6.222   1.326
 7297SOL    HW122790   4.066   6.260   1.267
 7297SOL    HW222791   4.225   6.268   1.306
 7298SOL     OW22792   4.244   5.539   6.625
 7298SOL    HW122793   4.342   5.539   6.645
 7298SOL    HW222794   4.231   5.532   6.526
 7299SOL     OW22795   1.330   2.607   5.931
 7299SOL    HW122796   1.420   2.568   5.911
 7299SOL    HW222797   1.276   2.541   5.983
 7300SOL     OW22798   0.753   4.802   1.867
 7300SOL    HW122799   0.831   4.844   1.821
 7300SOL    HW222800   0.668   4.838   1.828
 7301SOL     OW22801   4.627   1.407   5.401
 7301SOL    HW122802   4.674   1.463   5.469
 7301SOL    HW222803   4.531   1.395   5.429
 7302SOL     OW22804   5.423   1.553   5.927
 7302SOL    HW122805   5.498   1.488   5.910
 7302SOL    HW222806   5.370   1.565   5.843
 7303SOL     OW22807   2.150   1.623   1.734
 7303SOL    HW122808   2.065   1.660   1.772
 7303SOL    HW222809   2.127   1.563   1.657
 7304SOL     OW22810   2.914   5.466   1.391
 7304SOL    HW122811   2.952   5.480   1.483
 7304SOL    HW222812   2.968   5.520   1.326
 7305SOL     OW22813   6.766   1.320   0.600
 7305SOL    HW122814   6.819   1.389   0.649
 7305SOL    HW222815   6.747   1.351   0.507
 7306SOL     OW22816   0.865   2.308   1.317
 7306SOL    HW122817   0.900   2.215   1.324
 7306SOL    HW222818   0.925   2.362   1.257
 7307SOL     OW22819   2.373   6.949   0.980
 7307SOL    HW122820   2.288   6.965   0.930
 7307SOL    HW222821   2.354   6.946   1.078
 7308SOL     OW22822   4.906   1.285   3.198
 7308SOL    HW122823   4.816   1.310   3.234
 7308SOL    HW222824   4.969   1.269   3.274
 7309SOL     OW22825   2.086   4.913   3.411
 7309SOL    HW122826   2.144   4.978   3.362
 7309SOL    HW222827   2.124   4.821   3.401
 7310SOL     OW22828   3.030   2.420   6.200
 7310SOL    HW122829   3.117   2.381   6.172
 7310SOL    HW222830   2.995   2.371   6.280
 7311SOL     OW22831   0.216   6.669   6.660
 7311SOL    HW122832   0.271   6.723   6.723
 7311SOL    HW222833   0.188   6.584   6.706
 7312SOL     OW22834   6.380   1.853   3.932
 7312SOL    HW122835   6.282   1.875   3.930
 7312SOL    HW222836   6.393   1.755   3.917
 7313SOL     OW22837   2.697   0.725   2.336
 7313SOL    HW122838   2.672   0.790   2.407
 7313SOL    HW222839   2.650   0.638   2.352
 7314SOL     OW22840   6.957   4.200   6.441
 7314SOL    HW122841   0.023   4.224   6.391
 7314SOL    HW222842   6.969   4.223   6.537
 7315SOL     OW22843   1.669   4.876   2.455
 7315SOL    HW122844   1.580   4.844   2.487
 7315SOL    HW222845   1.717   4.801   2.410
 7316SOL     OW22846   2.648   2.479   0.847
 7316SOL    HW122847   2.671   2.558   0.904
 7316SOL    HW222848   2.728   2.450   0.795
 7317SOL     OW22849   3.898   1.351   0.632
 7317SOL    HW122850   3.866   1.293   0.558
 7317SOL    HW222851   3.945   1.431   0.595
 7318SOL     OW22852   4.451   6.358   0.786
 7318SOL    HW122853   4.523   6.425   0.768
 7318SOL    HW222854   4.463   6.322   0.879
 7319SOL     OW22855   5.321   4.754   6.828
 7319SOL    HW122856   5.236   4.806   6.824
 7319SOL    HW222857   5.345   4.737   6.923
 7320SOL     OW22858   0.377   2.465   1.436
 7320SOL    HW122859   0.386   2.523   1.517
 7320SOL    HW222860   0.389   2.521   1.354
 7321SOL     OW22861   1.659   0.618   6.818
 7321SOL    HW122862   1.632   0.680   6.893
 7321SOL    HW222863   1.601   0.635   6.739
 7322SOL     OW22864   1.045   2.363   2.943
 7322SOL    HW122865   1.047   2.445   3.000
 7322SOL    HW222866   0.990   2.380   2.861
 7323SOL     OW22867   1.043   2.755   1.731
 7323SOL    HW122868   1.017   2.660   1.749
 7323SOL    HW222869   1.059   2.802   1.818
 7324SOL     OW22870   5.553   4.910   2.978
 7324SOL    HW122871   5.513   4.831   3.025
 7324SOL    HW222872   5.651   4.895   2.966
 7325SOL     OW22873   4.068   0.900   6.054
 7325SOL    HW122874   3.974   0.933   6.046
 7325SOL    HW222875   4.101   0.917   6.147
 7326SOL     OW22876   3.672   0.126   0.610
 7326SOL    HW122877   3.594   0.104   0.551
 7326SOL    HW222878   3.732   0.191   0.564
 7327SOL     OW22879   0.609   4.013   3.234
 7327SOL    HW122880   0.660   4.030   3.319
 7327SOL    HW222881   0.593   3.915   3.223
 7328SOL     OW22882   4.295   4.916   4.823
 7328SOL    HW122883   4.350   4.980   4.877
 7328SOL    HW222884   4.322   4.923   4.727
 7329SOL     OW22885   3.271   3.666   1.692
 7329SOL    HW122886   3.252   3.586   1.633
 7329SOL    HW222887   3.190   3.725   1.694
 7330SOL     OW22888   3.092   3.134   1.936
 7330SOL    HW122889   3.095   3.043   1.896
 7330SOL    HW222890   3.030   3.192   1.883
 7331SOL     OW22891   5.189   1.741   2.477
 7331SOL    HW122892   5.242   1.764   2.559
 7331SOL    HW222893   5.184   1.821   2.417
 7332SOL     OW22894   3.173   5.721   5.674
 7332SOL    HW122895   3.192   5.688   5.582
 7332SOL    HW222896   3.077   5.749   5.681
 7333SOL     OW22897   0.658   1.506   0.674
 7333SOL    HW122898   0.591   1.434   0.658
 7333SOL    HW222899   0.626   1.566   0.747
 7334SOL     OW22900   2.901   0.378   4.184
 7334SOL    HW122901   2.856   0.377   4.273
 7334SOL    HW222902   2.876   0.296   4.132
 7335SOL     OW22903   6.600   3.439   2.108
 7335SOL    HW122904   6.513   3.394   2.088
 7335SOL    HW222905   6.598   3.476   2.201
 7336SOL     OW22906   2.158   6.957   1.931
 7336SOL    HW122907   2.124   0.030   1.958
 7336SOL    HW222908   2.118   6.888   1.992
 7337SOL     OW22909   2.352   1.561   3.334
 7337SOL    HW122910   2.436   1.591   3.289
 7337SOL    HW222911   2.281   1.631   3.325
 7338SOL     OW22912   6.047   3.136   1.585
 7338SOL    HW122913   6.135   3.177   1.560
 7338SOL    HW222914   6.000   3.194   1.651
 7339SOL     OW22915   6.555   5.213   4.255
 7339SOL    HW122916   6.598   5.274   4.189
 7339SOL    HW222917   6.479   5.164   4.210
 7340SOL     OW22918   2.740   6.505   1.040
 7340SOL    HW122919   2.693   6.436   1.096
 7340SOL    HW222920   2.685   6.526   0.960
 7341SOL     OW22921   6.166   5.266   4.406
 7341SOL    HW122922   6.190   5.361   4.424
 7341SOL    HW222923   6.098   5.262   4.333
 7342SOL     OW22924   0.925   5.348   1.177
 7342SOL    HW122925   1.001   5.314   1.231
 7342SOL    HW222926   0.843   5.294   1.196
 7343SOL     OW22927   5.470   3.429   2.802
 7343SOL    HW122928   5.477   3.348   2.860
 7343SOL    HW222929   5.461   3.401   2.706
 7344SOL     OW22930   2.089   0.660   0.283
 7344SOL    HW122931   2.094   0.576   0.229
 7344SOL    HW222932   1.997   0.671   0.319
 7345SOL     OW22933   3.804   5.647   6.879
 7345SOL    HW122934   3.830   5.574   6.943
 7345SOL    HW222935   3.792   5.733   6.930
 7346SOL     OW22936   3.931   4.779   1.846
 7346SOL    HW122937   4.015   4.758   1.796
 7346SOL    HW222938   3.954   4.823   1.933
 7347SOL     OW22939   6.038   1.563   3.301
 7347SOL    HW122940   6.072   1.531   3.212
 7347SOL    HW222941   6.086   1.514   3.374
 7348SOL     OW22942   0.799   2.084   3.598
 7348SOL    HW122943   0.762   2.010   3.654
 7348SOL    HW222944   0.797   2.058   3.502
 7349SOL     OW22945   3.253   1.435   0.668
 7349SOL    HW122946   3.348   1.413   0.645
 7349SOL    HW222947   3.224   1.516   0.618
 7350SOL     OW22948   2.327   0.892   2.951
 7350SOL    HW122949   2.290   0.909   3.043
 7350SOL    HW222950   2.252   0.870   2.889
 7351SOL     OW22951   3.767   4.693   6.793
 7351SOL    HW122952   3.825   4.636   6.852
 7351SOL    HW222953   3.717   4.759   6.849
 7352SOL     OW22954   6.663   0.685   2.605
 7352SOL    HW122955   6.748   0.658   2.650
 7352SOL    HW222956   6.674   0.777   2.567
 7353SOL     OW22957   5.177   2.445   4.711
 7353SOL    HW122958   5.209   2.539   4.699
 7353SOL    HW222959   5.079   2.440   4.689
 7354SOL     OW22960   5.770   4.584   5.683
 7354SOL    HW122961   5.866   4.563   5.704
 7354SOL    HW222962   5.748   4.550   5.592
 7355SOL     OW22963   1.714   5.133   1.840
 7355SOL    HW122964   1.808   5.135   1.806
 7355SOL    HW222965   1.652   5.120   1.763
 7356SOL     OW22966   5.979   1.432   5.478
 7356SOL    HW122967   6.003   1.396   5.568
 7356SOL    HW222968   5.945   1.526   5.487
 7357SOL     OW22969   0.180   1.927   6.936
 7357SOL    HW122970   0.110   1.992   6.908
 7357SOL    HW222971   0.253   1.974   6.985
 7358SOL     OW22972   3.034   0.895   3.943
 7358SOL    HW122973   3.055   0.942   3.857
 7358SOL    HW222974   2.987   0.809   3.923
 7359SOL     OW22975   3.575   3.055   3.492
 7359SOL    HW122976   3.656   3.038   3.435
 7359SOL    HW222977   3.593   3.133   3.552
 7360SOL     OW22978   6.890   3.338   5.505
 7360SOL    HW122979   6.852   3.408   5.445
 7360SOL    HW222980   6.973   3.300   5.464
 7361SOL     OW22981   5.244   6.426   2.153
 7361SOL    HW122982   5.172   6.495   2.142
 7361SOL    HW222983   5.205   6.335   2.141
 7362SOL     OW22984   1.651   6.112   5.741
 7362SOL    HW122985   1.603   6.096   5.828
 7362SOL    HW222986   1.738   6.157   5.759
 7363SOL     OW22987   4.933   2.857   6.478
 7363SOL    HW122988   4.951   2.768   6.519
 7363SOL    HW222989   5.019   2.899   6.449
 7364SOL     OW22990   4.537   6.743   1.768
 7364SOL    HW122991   4.633   6.761   1.792
 7364SOL    HW222992   4.533   6.689   1.684
 7365SOL     OW22993   3.351   0.622   2.363
 7365SOL    HW122994   3.289   0.568   2.420
 7365SOL    HW222995   3.358   0.579   2.273
 7366SOL     OW22996   0.932   5.148   7.013
 7366SOL    HW122997   0.968   5.056   0.012
 7366SOL    HW222998   0.876   5.146   6.929
 7367SOL     OW22999   5.005   3.730   0.203
 7367SOL    HW123000   4.963   3.736   0.293
 7367SOL    HW223001   4.934   3.737   0.133
 7368SOL     OW23002   3.564   4.171   3.882
 7368SOL    HW123003   3.520   4.103   3.823
 7368SOL    HW223004   3.662   4.151   3.889
 7369SOL     OW23005   3.887   3.278   0.086
 7369SOL    HW123006   3.967   3.270   0.145
 7369SOL    HW223007   3.829   3.197   0.096
 7370SOL     OW23008   2.451   5.961   1.345
 7370SOL    HW123009   2.501   5.883   1.383
 7370SOL    HW223010   2.356   5.957   1.376
 7371SOL     OW23011   2.758   5.402   5.068
 7371SOL    HW123012   2.660   5.414   5.055
 7371SOL    HW223013   2.777   5.308   5.094
 7372SOL     OW23014   3.408   6.622   5.890
 7372SOL    HW123015   3.483   6.676   5.853
 7372SOL    HW223016   3.325   6.637   5.836
 7373SOL     OW23017   3.869   1.183   1.658
 7373SOL    HW123018   3.854   1.266   1.605
 7373SOL    HW223019   3.966   1.158   1.654
 7374SOL     OW23020   1.541   2.885   5.809
 7374SOL    HW123021   1.513   2.902   5.715
 7374SOL    HW223022   1.590   2.798   5.814
 7375SOL     OW23023   1.667   0.572   3.565
 7375SOL    HW123024   1.757   0.537   3.543
 7375SOL    HW223025   1.604   0.554   3.490
 7376SOL     OW23026   2.360   4.028   5.573
 7376SOL    HW123027   2.385   4.078   5.490
 7376SOL    HW223028   2.297   3.955   5.550
 7377SOL     OW23029   4.310   4.367   1.047
 7377SOL    HW123030   4.296   4.436   0.975
 7377SOL    HW223031   4.249   4.289   1.030
 7378SOL     OW23032   6.477   1.039   5.374
 7378SOL    HW123033   6.442   1.011   5.463
 7378SOL    HW223034   6.571   1.007   5.364
 7379SOL     OW23035   2.793   1.193   1.585
 7379SOL    HW123036   2.842   1.221   1.502
 7379SOL    HW223037   2.745   1.107   1.568
 7380SOL     OW23038   6.958   3.750   6.343
 7380SOL    HW123039   0.022   3.762   6.399
 7380SOL    HW223040   6.974   3.786   6.251
 7381SOL     OW23041   5.322   2.049   1.323
 7381SOL    HW123042   5.348   1.962   1.282
 7381SOL    HW223043   5.404   2.096   1.356
 7382SOL     OW23044   0.241   6.152   3.926
 7382SOL    HW123045   0.313   6.083   3.938
 7382SOL    HW223046   0.165   6.131   3.988
 7383SOL     OW23047   0.052   5.827   3.323
 7383SOL    HW123048   0.105   5.904   3.289
 7383SOL    HW223049   0.098   5.741   3.299
 7384SOL     OW23050   5.381   0.241   2.368
 7384SOL    HW123051   5.455   0.298   2.333
 7384SOL    HW223052   5.379   0.246   2.468
 7385SOL     OW23053   5.219   6.333   1.456
 7385SOL    HW123054   5.154   6.409   1.464
 7385SOL    HW223055   5.170   6.250   1.430
 7386SOL     OW23056   0.737   2.432   5.302
 7386SOL    HW123057   0.708   2.337   5.314
 7386SOL    HW223058   0.836   2.437   5.313
 7387SOL     OW23059   3.874   6.237   3.462
 7387SOL    HW123060   3.813   6.250   3.540
 7387SOL    HW223061   3.829   6.269   3.378
 7388SOL     OW23062   6.881   5.184   3.767
 7388SOL    HW123063   6.800   5.128   3.781
 7388SOL    HW223064   6.952   5.129   3.722
 7389SOL     OW23065   1.047   4.026   6.555
 7389SOL    HW123066   1.065   3.949   6.494
 7389SOL    HW223067   0.972   4.002   6.617
 7390SOL     OW23068   1.956   6.680   4.697
 7390SOL    HW123069   2.006   6.766   4.683
 7390SOL    HW223070   1.892   6.691   4.773
 7391SOL     OW23071   5.865   3.155   6.707
 7391SOL    HW123072   5.875   3.127   6.611
 7391SOL    HW223073   5.934   3.224   6.729
 7392SOL     OW23074   1.838   4.347   4.388
 7392SOL    HW123075   1.764   4.396   4.433
 7392SOL    HW223076   1.824   4.350   4.289
 7393SOL     OW23077   0.695   3.743   1.966
 7393SOL    HW123078   0.679   3.801   1.886
 7393SOL    HW223079   0.793   3.740   1.986
 7394SOL     OW23080   3.250   3.795   6.566
 7394SOL    HW123081   3.299   3.814   6.652
 7394SOL    HW223082   3.294   3.844   6.491
 7395SOL     OW23083   1.369   6.867   0.743
 7395SOL    HW123084   1.338   6.848   0.836
 7395SOL    HW223085   1.359   6.785   0.687
 7396SOL     OW23086   0.895   6.961   6.387
 7396SOL    HW123087   0.985   6.968   6.430
 7396SOL    HW223088   0.833   0.010   6.428
 7397SOL     OW23089   6.190   5.067   4.571
 7397SOL    HW123090   6.281   5.049   4.607
 7397SOL    HW223091   6.192   5.148   4.512
 7398SOL     OW23092   4.242   4.846   3.533
 7398SOL    HW123093   4.259   4.942   3.511
 7398SOL    HW223094   4.325   4.793   3.513
 7399SOL     OW23095   4.975   3.840   5.684
 7399SOL    HW123096   4.961   3.841   5.585
 7399SOL    HW223097   5.071   3.819   5.704
 7400SOL     OW23098   2.110   5.243   6.488
 7400SOL    HW123099   2.140   5.230   6.393
 7400SOL    HW223100   2.074   5.156   6.523
 7401SOL     OW23101   6.769   1.624   3.817
 7401SOL    HW123102   6.750   1.722   3.814
 7401SOL    HW223103   6.803   1.594   3.728
 7402SOL     OW23104   2.782   0.692   3.797
 7402SOL    HW123105   2.706   0.629   3.780
 7402SOL    HW223106   2.767   0.740   3.884
 7403SOL     OW23107   1.678   3.631   2.662
 7403SOL    HW123108   1.714   3.541   2.688
 7403SOL    HW223109   1.661   3.632   2.563
 7404SOL     OW23110   1.565   0.265   1.894
 7404SOL    HW123111   1.559   0.276   1.795
 7404SOL    HW223112   1.538   0.349   1.940
 7405SOL     OW23113   2.689   4.927   6.193
 7405SOL    HW123114   2.657   4.835   6.170
 7405SOL    HW223115   2.682   4.942   6.291
 7406SOL     OW23116   0.368   4.746   1.564
 7406SOL    HW123117   0.326   4.812   1.501
 7406SOL    HW223118   0.427   4.684   1.513
 7407SOL     OW23119   1.556   6.452   6.528
 7407SOL    HW123120   1.633   6.494   6.478
 7407SOL    HW223121   1.592   6.390   6.598
 7408SOL     OW23122   1.224   4.001   5.267
 7408SOL    HW123123   1.268   3.916   5.237
 7408SOL    HW223124   1.125   3.991   5.262
 7409SOL     OW23125   2.895   5.423   5.301
 7409SOL    HW123126   2.968   5.374   5.251
 7409SOL    HW223127   2.830   5.461   5.235
 7410SOL     OW23128   6.736   4.806   0.644
 7410SOL    HW123129   6.637   4.818   0.633
 7410SOL    HW223130   6.774   4.884   0.693
 7411SOL     OW23131   4.011   6.332   5.030
 7411SOL    HW123132   4.005   6.429   5.053
 7411SOL    HW223133   3.936   6.308   4.967
 7412SOL     OW23134   1.270   1.829   0.140
 7412SOL    HW123135   1.182   1.786   0.158
 7412SOL    HW223136   1.319   1.777   0.069
 7413SOL     OW23137   6.601   3.427   4.567
 7413SOL    HW123138   6.603   3.425   4.467
 7413SOL    HW223139   6.509   3.403   4.599
 7414SOL     OW23140   6.829   6.231   2.883
 7414SOL    HW123141   6.906   6.228   2.820
 7414SOL    HW223142   6.860   6.208   2.975
 7415SOL     OW23143   2.114   2.139   3.375
 7415SOL    HW123144   2.210   2.161   3.358
 7415SOL    HW223145   2.059   2.168   3.297
 7416SOL     OW23146   4.166   0.660   4.342
 7416SOL    HW123147   4.123   0.576   4.375
 7416SOL    HW223148   4.095   0.722   4.308
 7417SOL     OW23149   0.848   6.066   0.380
 7417SOL    HW123150   0.908   6.055   0.301
 7417SOL    HW223151   0.753   6.055   0.351
 7418SOL     OW23152   2.048   3.545   0.851
 7418SOL    HW123153   2.095   3.626   0.817
 7418SOL    HW223154   1.973   3.521   0.790
 7419SOL     OW23155   6.412   0.820   4.913
 7419SOL    HW123156   6.496   0.784   4.953
 7419SOL    HW223157   6.422   0.918   4.897
 7420SOL     OW23158   0.003   6.322   2.162
 7420SOL    HW123159   0.040   6.398   2.109
 7420SOL    HW223160   6.937   6.288   2.118
 7421SOL     OW23161   3.565   3.742   1.172
 7421SOL    HW123162   3.468   3.719   1.164
 7421SOL    HW223163   3.591   3.746   1.268
 7422SOL     OW23164   0.547   3.242   0.654
 7422SOL    HW123165   0.502   3.188   0.584
 7422SOL    HW223166   0.618   3.188   0.698
 7423SOL     OW23167   1.829   5.957   6.293
 7423SOL    HW123168   1.876   5.869   6.302
 7423SOL    HW223169   1.776   5.959   6.209
 7424SOL     OW23170   5.583   1.325   4.259
 7424SOL    HW123171   5.517   1.335   4.185
 7424SOL    HW223172   5.559   1.388   4.334
 7425SOL     OW23173   3.101   5.914   5.969
 7425SOL    HW123174   3.083   5.827   6.014
 7425SOL    HW223175   3.150   5.898   5.883
 7426SOL     OW23176   1.269   1.294   6.280
 7426SOL    HW123177   1.223   1.225   6.225
 7426SOL    HW223178   1.280   1.378   6.226
 7427SOL     OW23179   4.067   5.498   4.538
 7427SOL    HW123180   3.974   5.466   4.553
 7427SOL    HW223181   4.088   5.496   4.440
 7428SOL     OW23182   3.910   1.895   5.938
 7428SOL    HW123183   4.006   1.913   5.961
 7428SOL    HW223184   3.906   1.814   5.878
 7429SOL     OW23185   6.773   6.703   3.062
 7429SOL    HW123186   6.846   6.691   3.129
 7429SOL    HW223187   6.697   6.753   3.104
 7430SOL     OW23188   6.388   4.146   5.038
 7430SOL    HW123189   6.351   4.055   5.020
 7430SOL    HW223190   6.322   4.216   5.010
 7431SOL     OW23191   1.226   4.268   2.319
 7431SOL    HW123192   1.169   4.207   2.374
 7431SOL    HW223193   1.258   4.219   2.238
 7432SOL     OW23194   0.683   6.771   5.304
 7432SOL    HW123195   0.661   6.704   5.374
 7432SOL    HW223196   0.598   6.811   5.268
 7433SOL     OW23197   6.120   5.825   0.779
 7433SOL    HW123198   6.038   5.769   0.782
 7433SOL    HW223199   6.180   5.802   0.856
 7434SOL     OW23200   4.227   0.956   6.302
 7434SOL    HW123201   4.272   1.039   6.336
 7434SOL    HW223202   4.294   0.898   6.257
 7435SOL     OW23203   2.331   6.309   6.934
 7435SOL    HW123204   2.359   6.328   0.010
 7435SOL    HW223205   2.232   6.326   6.924
 7436SOL     OW23206   5.061   2.492   6.965
 7436SOL    HW123207   5.097   2.476   0.040
 7436SOL    HW223208   5.001   2.416   6.940
 7437SOL     OW23209   0.733   5.724   5.932
 7437SOL    HW123210   0.762   5.648   5.873
 7437SOL    HW223211   0.708   5.688   6.022
 7438SOL     OW23212   6.930   5.069   1.808
 7438SOL    HW123213   6.963   5.121   1.887
 7438SOL    HW223214   6.847   5.019   1.833
 7439SOL     OW23215   1.353   6.624   3.711
 7439SOL    HW123216   1.416   6.650   3.784
 7439SOL    HW223217   1.264   6.665   3.728
 7440SOL     OW23218   1.692   2.353   4.416
 7440SOL    HW123219   1.731   2.273   4.461
 7440SOL    HW223220   1.765   2.410   4.379
 7441SOL     OW23221   5.569   0.528   3.391
 7441SOL    HW123222   5.641   0.564   3.332
 7441SOL    HW223223   5.598   0.534   3.487
 7442SOL     OW23224   1.643   1.044   6.924
 7442SOL    HW123225   1.733   1.002   6.917
 7442SOL    HW223226   1.576   0.975   6.953
 7443SOL     OW23227   0.306   1.038   7.012
 7443SOL    HW123228   0.310   1.020   6.914
 7443SOL    HW223229   0.399   1.039   0.032
 7444SOL     OW23230   0.170   3.252   6.162
 7444SOL    HW123231   0.157   3.156   6.135
 7444SOL    HW223232   0.237   3.295   6.103
 7445SOL     OW23233   5.368   1.920   2.047
 7445SOL    HW123234   5.442   1.969   1.999
 7445SOL    HW223235   5.319   1.862   1.982
 7446SOL     OW23236   6.858   3.626   1.102
 7446SOL    HW123237   6.767   3.642   1.141
 7446SOL    HW223238   6.854   3.545   1.042
 7447SOL     OW23239   0.686   3.848   6.190
 7447SOL    HW123240   0.712   3.758   6.225
 7447SOL    HW223241   0.759   3.882   6.130
 7448SOL     OW23242   6.800   6.637   6.035
 7448SOL    HW123243   6.732   6.702   6.002
 7448SOL    HW223244   6.766   6.591   6.117
 7449SOL     OW23245   5.601   1.941   2.359
 7449SOL    HW123246   5.621   2.009   2.430
 7449SOL    HW223247   5.669   1.949   2.286
 7450SOL     OW23248   4.599   1.332   3.278
 7450SOL    HW123249   4.528   1.368   3.338
 7450SOL    HW223250   4.557   1.282   3.202
 7451SOL     OW23251   1.910   0.725   3.908
 7451SOL    HW123252   1.853   0.681   3.978
 7451SOL    HW223253   1.999   0.747   3.948
 7452SOL     OW23254   2.009   6.419   4.752
 7452SOL    HW123255   1.981   6.515   4.753
 7452SOL    HW223256   1.968   6.373   4.673
 7453SOL     OW23257   5.726   6.166   4.797
 7453SOL    HW123258   5.702   6.149   4.702
 7453SOL    HW223259   5.795   6.238   4.802
 7454SOL     OW23260   0.687   3.576   1.218
 7454SOL    HW123261   0.648   3.580   1.310
 7454SOL    HW223262   0.738   3.491   1.207
 7455SOL     OW23263   4.876   2.644   0.217
 7455SOL    HW123264   4.968   2.607   0.205
 7455SOL    HW223265   4.867   2.729   0.166
 7456SOL     OW23266   1.664   3.282   4.933
 7456SOL    HW123267   1.581   3.313   4.887
 7456SOL    HW223268   1.738   3.348   4.915
 7457SOL     OW23269   6.029   0.623   5.423
 7457SOL    HW123270   6.120   0.662   5.437
 7457SOL    HW223271   6.033   0.554   5.351
 7458SOL     OW23272   2.473   1.151   0.725
 7458SOL    HW123273   2.547   1.084   0.728
 7458SOL    HW223274   2.402   1.125   0.790
 7459SOL     OW23275   4.546   0.917   4.835
 7459SOL    HW123276   4.485   0.939   4.759
 7459SOL    HW223277   4.575   1.002   4.879
 7460SOL     OW23278   0.506   4.362   0.229
 7460SOL    HW123279   0.554   4.417   0.297
 7460SOL    HW223280   0.425   4.411   0.197
 7461SOL     OW23281   5.685   1.059   4.677
 7461SOL    HW123282   5.591   1.048   4.644
 7461SOL    HW223283   5.691   1.029   4.772
 7462SOL     OW23284   2.137   1.520   2.362
 7462SOL    HW123285   2.100   1.481   2.277
 7462SOL    HW223286   2.079   1.596   2.391
 7463SOL     OW23287   4.109   3.763   2.428
 7463SOL    HW123288   4.062   3.675   2.436
 7463SOL    HW223289   4.129   3.782   2.332
 7464SOL     OW23290   5.343   6.181   0.512
 7464SOL    HW123291   5.403   6.258   0.492
 7464SOL    HW223292   5.312   6.187   0.607
 7465SOL     OW23293   2.675   0.388   1.748
 7465SOL    HW123294   2.755   0.350   1.793
 7465SOL    HW223295   2.593   0.343   1.781
 7466SOL     OW23296   0.968   0.623   6.983
 7466SOL    HW123297   1.023   0.683   0.023
 7466SOL    HW223298   0.997   0.528   6.995
 7467SOL     OW23299   0.136   1.619   0.591
 7467SOL    HW123300   0.175   1.540   0.544
 7467SOL    HW223301   0.060   1.589   0.649
 7468SOL     OW23302   5.955   1.842   2.975
 7468SOL    HW123303   5.859   1.856   2.951
 7468SOL    HW223304   6.000   1.791   2.903
 7469SOL     OW23305   1.242   0.764   0.843
 7469SOL    HW123306   1.281   0.855   0.857
 7469SOL    HW223307   1.216   0.753   0.747
 7470SOL     OW23308   6.681   2.057   2.385
 7470SOL    HW123309   6.735   1.974   2.389
 7470SOL    HW223310   6.586   2.035   2.361
 7471SOL     OW23311   5.891   6.316   5.721
 7471SOL    HW123312   5.903   6.402   5.771
 7471SOL    HW223313   5.821   6.261   5.766
 7472SOL     OW23314   3.631   0.311   3.306
 7472SOL    HW123315   3.640   0.222   3.350
 7472SOL    HW223316   3.704   0.371   3.339
 7473SOL     OW23317   0.127   3.359   4.022
 7473SOL    HW123318   0.134   3.453   4.056
 7473SOL    HW223319   0.195   3.345   3.950
 7474SOL     OW23320   3.797   1.014   3.140
 7474SOL    HW123321   3.758   1.105   3.126
 7474SOL    HW223322   3.882   1.006   3.088
 7475SOL     OW23323   3.486   1.409   1.141
 7475SOL    HW123324   3.519   1.483   1.082
 7475SOL    HW223325   3.386   1.403   1.133
 7476SOL     OW23326   3.972   6.410   4.614
 7476SOL    HW123327   3.900   6.408   4.545
 7476SOL    HW223328   4.054   6.453   4.576
 7477SOL     OW23329   4.141   1.717   4.074
 7477SOL    HW123330   4.050   1.691   4.106
 7477SOL    HW223331   4.138   1.809   4.036
 7478SOL     OW23332   1.344   4.785   0.740
 7478SOL    HW123333   1.291   4.723   0.797
 7478SOL    HW223334   1.308   4.878   0.750
 7479SOL     OW23335   4.485   0.821   6.891
 7479SOL    HW123336   4.463   0.886   6.818
 7479SOL    HW223337   4.577   0.841   6.927
 7480SOL     OW23338   6.439   5.292   1.307
 7480SOL    HW123339   6.467   5.263   1.216
 7480SOL    HW223340   6.403   5.214   1.357
 7481SOL     OW23341   5.655   5.217   0.343
 7481SOL    HW123342   5.580   5.262   0.296
 7481SOL    HW223343   5.658   5.248   0.438
 7482SOL     OW23344   5.066   0.726   2.979
 7482SOL    HW123345   4.990   0.733   2.915
 7482SOL    HW223346   5.137   0.667   2.941
 7483SOL     OW23347   3.187   0.871   5.731
 7483SOL    HW123348   3.273   0.917   5.709
 7483SOL    HW223349   3.110   0.929   5.704
 7484SOL     OW23350   2.007   6.794   2.200
 7484SOL    HW123351   1.999   6.894   2.195
 7484SOL    HW223352   1.918   6.753   2.180
 7485SOL     OW23353   2.631   5.771   6.361
 7485SOL    HW123354   2.648   5.827   6.280
 7485SOL    HW223355   2.554   5.709   6.343
 7486SOL     OW23356   2.458   6.777   5.781
 7486SOL    HW123357   2.515   6.697   5.764
 7486SOL    HW223358   2.412   6.804   5.696
 7487SOL     OW23359   3.350   6.144   4.367
 7487SOL    HW123360   3.398   6.224   4.331
 7487SOL    HW223361   3.379   6.063   4.316
 7488SOL     OW23362   3.667   0.313   6.430
 7488SOL    HW123363   3.731   0.352   6.496
 7488SOL    HW223364   3.683   0.215   6.423
 7489SOL     OW23365   5.413   3.603   3.872
 7489SOL    HW123366   5.446   3.514   3.905
 7489SOL    HW223367   5.330   3.628   3.921
 7490SOL     OW23368   5.341   1.038   1.164
 7490SOL    HW123369   5.404   1.115   1.147
 7490SOL    HW223370   5.293   1.054   1.251
 7491SOL     OW23371   6.357   5.747   6.593
 7491SOL    HW123372   6.386   5.651   6.593
 7491SOL    HW223373   6.438   5.805   6.602
 7492SOL     OW23374   1.689   2.532   5.002
 7492SOL    HW123375   1.734   2.541   5.091
 7492SOL    HW223376   1.757   2.539   4.930
 7493SOL     OW23377   5.082   3.693   6.483
 7493SOL    HW123378   5.120   3.770   6.534
 7493SOL    HW223379   5.001   3.658   6.531
 7494SOL     OW23380   4.991   0.047   1.890
 7494SOL    HW123381   4.997   6.979   1.839
 7494SOL    HW223382   4.895   0.073   1.898
 7495SOL     OW23383   1.623   2.274   1.079
 7495SOL    HW123384   1.694   2.209   1.104
 7495SOL    HW223385   1.569   2.297   1.160
 7496SOL     OW23386   1.060   5.063   6.231
 7496SOL    HW123387   1.056   5.055   6.330
 7496SOL    HW223388   0.969   5.082   6.194
 7497SOL     OW23389   1.587   4.225   2.110
 7497SOL    HW123390   1.580   4.306   2.168
 7497SOL    HW223391   1.680   4.216   2.076
 7498SOL     OW23392   3.871   1.916   4.974
 7498SOL    HW123393   3.773   1.895   4.977
 7498SOL    HW223394   3.919   1.846   4.921
 7499SOL     OW23395   5.178   6.889   4.015
 7499SOL    HW123396   5.227   6.896   4.102
 7499SOL    HW223397   5.178   6.793   3.985
 7500SOL     OW23398   5.190   5.338   1.477
 7500SOL    HW123399   5.277   5.352   1.430
 7500SOL    HW223400   5.194   5.376   1.569
 7501SOL     OW23401   0.378   4.177   3.571
 7501SOL    HW123402   0.444   4.252   3.572
 7501SOL    HW223403   0.426   4.090   3.583
 7502SOL     OW23404   2.483   1.105   5.004
 7502SOL    HW123405   2.520   1.061   5.085
 7502SOL    HW223406   2.528   1.069   4.922
 7503SOL     OW23407   2.887   1.634   0.024
 7503SOL    HW123408   2.918   1.631   0.119
 7503SOL    HW223409   2.865   1.728   7.017
 7504SOL     OW23410   3.716   6.530   3.074
 7504SOL    HW123411   3.652   6.484   3.013
 7504SOL    HW223412   3.693   6.627   3.081
 7505SOL     OW23413   1.661   1.572   5.170
 7505SOL    HW123414   1.580   1.630   5.179
 7505SOL    HW223415   1.743   1.627   5.188
 7506SOL     OW23416   3.699   1.524   2.437
 7506SOL    HW123417   3.623   1.564   2.486
 7506SOL    HW223418   3.670   1.496   2.346
 7507SOL     OW23419   0.916   6.160   6.031
 7507SOL    HW123420   0.875   6.239   6.076
 7507SOL    HW223421   0.997   6.131   6.082
 7508SOL     OW23422   5.636   0.174   2.596
 7508SOL    HW123423   5.708   0.125   2.646
 7508SOL    HW223424   5.673   0.210   2.511
 7509SOL     OW23425   4.623   4.085   6.228
 7509SOL    HW123426   4.677   4.170   6.224
 7509SOL    HW223427   4.571   4.074   6.144
 7510SOL     OW23428   3.822   4.073   4.902
 7510SOL    HW123429   3.727   4.059   4.873
 7510SOL    HW223430   3.824   4.141   4.975
 7511SOL     OW23431   1.035   0.704   1.751
 7511SOL    HW123432   1.077   0.790   1.722
 7511SOL    HW223433   0.985   0.664   1.675
 7512SOL     OW23434   2.252   2.781   2.017
 7512SOL    HW123435   2.157   2.759   1.996
 7512SOL    HW223436   2.295   2.822   1.936
 7513SOL     OW23437   1.379   2.047   6.873
 7513SOL    HW123438   1.359   2.089   6.961
 7513SOL    HW223439   1.463   2.086   6.835
 7514SOL     OW23440   2.559   5.645   2.884
 7514SOL    HW123441   2.658   5.651   2.895
 7514SOL    HW223442   2.522   5.736   2.870
 7515SOL     OW23443   7.013   6.291   2.461
 7515SOL    HW123444   0.074   6.310   2.403
 7515SOL    HW223445   6.934   6.345   2.430
 7516SOL     OW23446   0.323   0.946   3.285
 7516SOL    HW123447   0.376   1.018   3.330
 7516SOL    HW223448   0.379   0.902   3.215
 7517SOL     OW23449   0.325   3.316   1.218
 7517SOL    HW123450   0.327   3.371   1.301
 7517SOL    HW223451   0.242   3.338   1.165
 7518SOL     OW23452   4.412   5.736   3.928
 7518SOL    HW123453   4.467   5.652   3.929
 7518SOL    HW223454   4.465   5.811   3.969
 7519SOL     OW23455   1.864   6.285   3.986
 7519SOL    HW123456   1.901   6.221   4.054
 7519SOL    HW223457   1.834   6.369   4.031
 7520SOL     OW23458   1.350   6.376   3.806
 7520SOL    HW123459   1.368   6.463   3.760
 7520SOL    HW223460   1.385   6.380   3.899
 7521SOL     OW23461   4.425   4.432   5.632
 7521SOL    HW123462   4.430   4.419   5.533
 7521SOL    HW223463   4.341   4.480   5.656
 7522SOL     OW23464   2.409   0.974   1.148
 7522SOL    HW123465   2.362   0.959   1.061
 7522SOL    HW223466   2.494   1.023   1.132
 7523SOL     OW23467   5.643   0.181   6.452
 7523SOL    HW123468   5.729   0.225   6.477
 7523SOL    HW223469   5.579   0.249   6.417
 7524SOL     OW23470   0.665   1.529   5.148
 7524SOL    HW123471   0.599   1.457   5.167
 7524SOL    HW223472   0.634   1.614   5.191
 7525SOL     OW23473   1.151   1.070   0.664
 7525SOL    HW123474   1.127   0.992   0.606
 7525SOL    HW223475   1.245   1.060   0.697
 7526SOL     OW23476   3.736   3.131   4.736
 7526SOL    HW123477   3.731   3.043   4.783
 7526SOL    HW223478   3.825   3.173   4.754
 7527SOL     OW23479   5.642   4.683   3.433
 7527SOL    HW123480   5.725   4.696   3.379
 7527SOL    HW223481   5.587   4.766   3.431
 7528SOL     OW23482   5.775   2.579   0.214
 7528SOL    HW123483   5.754   2.503   0.275
 7528SOL    HW223484   5.873   2.600   0.218
 7529SOL     OW23485   3.650   1.583   5.340
 7529SOL    HW123486   3.556   1.606   5.314
 7529SOL    HW223487   3.700   1.551   5.260
 7530SOL     OW23488   1.049   3.961   1.701
 7530SOL    HW123489   1.052   3.876   1.752
 7530SOL    HW223490   0.954   3.985   1.681
 7531SOL     OW23491   4.390   1.568   3.549
 7531SOL    HW123492   4.438   1.548   3.634
 7531SOL    HW223493   4.338   1.487   3.520
 7532SOL     OW23494   5.400   5.822   2.121
 7532SOL    HW123495   5.458   5.899   2.094
 7532SOL    HW223496   5.456   5.742   2.139
 7533SOL     OW23497   3.212   1.270   4.504
 7533SOL    HW123498   3.125   1.316   4.520
 7533SOL    HW223499   3.195   1.173   4.486
 7534SOL     OW23500   4.637   6.482   4.505
 7534SOL    HW123501   4.709   6.446   4.446
 7534SOL    HW223502   4.666   6.569   4.544
 7535SOL     OW23503   2.919   2.551   5.812
 7535SOL    HW123504   2.905   2.568   5.910
 7535SOL    HW223505   2.928   2.639   5.764
 7536SOL     OW23506   4.640   6.041   4.522
 7536SOL    HW123507   4.649   5.960   4.466
 7536SOL    HW223508   4.566   6.028   4.589
 7537SOL     OW23509   1.920   4.840   5.870
 7537SOL    HW123510   1.871   4.827   5.784
 7537SOL    HW223511   2.010   4.878   5.851
 7538SOL     OW23512   2.994   3.816   2.851
 7538SOL    HW123513   2.973   3.811   2.754
 7538SOL    HW223514   2.931   3.757   2.902
 7539SOL     OW23515   2.138   2.894   5.126
 7539SOL    HW123516   2.080   2.849   5.058
 7539SOL    HW223517   2.214   2.940   5.081
 7540SOL     OW23518   2.823   1.314   0.229
 7540SOL    HW123519   2.887   1.254   0.278
 7540SOL    HW223520   2.839   1.306   0.130
 7541SOL     OW23521   6.395   2.202   5.674
 7541SOL    HW123522   6.317   2.226   5.731
 7541SOL    HW223523   6.480   2.228   5.720
 7542SOL     OW23524   1.484   6.742   5.857
 7542SOL    HW123525   1.385   6.741   5.870
 7542SOL    HW223526   1.521   6.831   5.882
 7543SOL     OW23527   4.106   3.285   0.252
 7543SOL    HW123528   4.172   3.357   0.273
 7543SOL    HW223529   4.043   3.274   0.328
 7544SOL     OW23530   2.183   1.763   3.290
 7544SOL    HW123531   2.132   1.794   3.210
 7544SOL    HW223532   2.130   1.692   3.337
 7545SOL     OW23533   5.263   0.212   3.284
 7545SOL    HW123534   5.179   0.190   3.334
 7545SOL    HW223535   5.341   0.172   3.332
 7546SOL     OW23536   4.739   0.886   7.000
 7546SOL    HW123537   4.740   0.930   0.072
 7546SOL    HW223538   4.818   0.915   6.947
 7547SOL     OW23539   3.290   0.370   0.525
 7547SOL    HW123540   3.289   0.311   0.445
 7547SOL    HW223541   3.317   0.318   0.605
 7548SOL     OW23542   1.776   2.310   1.859
 7548SOL    HW123543   1.807   2.255   1.937
 7548SOL    HW223544   1.846   2.377   1.835
 7549SOL     OW23545   5.434   2.202   3.309
 7549SOL    HW123546   5.405   2.230   3.217
 7549SOL    HW223547   5.356   2.206   3.371
 7550SOL     OW23548   2.257   5.940   3.004
 7550SOL    HW123549   2.206   6.020   3.037
 7550SOL    HW223550   2.194   5.870   2.972
 7551SOL     OW23551   5.174   2.951   6.379
 7551SOL    HW123552   5.267   2.917   6.394
 7551SOL    HW223553   5.171   3.004   6.295
 7552SOL     OW23554   2.815   5.008   4.456
 7552SOL    HW123555   2.761   5.090   4.437
 7552SOL    HW223556   2.890   5.001   4.391
 7553SOL     OW23557   3.622   5.734   5.771
 7553SOL    HW123558   3.665   5.741   5.861
 7553SOL    HW223559   3.644   5.645   5.731
 7554SOL     OW23560   6.258   0.923   6.706
 7554SOL    HW123561   6.170   0.962   6.735
 7554SOL    HW223562   6.243   0.859   6.631
 7555SOL     OW23563   0.324   6.287   5.530
 7555SOL    HW123564   0.396   6.307   5.597
 7555SOL    HW223565   0.350   6.324   5.441
 7556SOL     OW23566   0.491   2.788   4.496
 7556SOL    HW123567   0.415   2.851   4.513
 7556SOL    HW223568   0.568   2.838   4.457
 7557SOL     OW23569   4.965   4.537   6.754
 7557SOL    HW123570   4.961   4.579   6.664
 7557SOL    HW223571   4.882   4.482   6.768
 7558SOL     OW23572   1.688   3.165   3.143
 7558SOL    HW123573   1.712   3.250   3.096
 7558SOL    HW223574   1.674   3.184   3.240
 7559SOL     OW23575   0.240   4.292   0.882
 7559SOL    HW123576   0.284   4.369   0.927
 7559SOL    HW223577   0.298   4.260   0.807
 7560SOL     OW23578   5.280   6.882   0.483
 7560SOL    HW123579   5.322   6.972   0.496
 7560SOL    HW223580   5.351   6.813   0.472
 7561SOL     OW23581   6.698   3.053   0.534
 7561SOL    HW123582   6.642   3.030   0.455
 7561SOL    HW223583   6.643   3.048   0.617
 7562SOL     OW23584   5.566   6.396   5.023
 7562SOL    HW123585   5.650   6.379   4.972
 7562SOL    HW223586   5.588   6.443   5.109
 7563SOL     OW23587   2.625   0.875   2.080
 7563SOL    HW123588   2.665   0.831   2.160
 7563SOL    HW223589   2.575   0.957   2.108
 7564SOL     OW23590   5.175   6.953   3.157
 7564SOL    HW123591   5.110   6.992   3.091
 7564SOL    HW223592   5.251   7.015   3.170
 7565SOL     OW23593   4.711   4.681   6.851
 7565SOL    HW123594   4.687   4.588   6.825
 7565SOL    HW223595   4.685   4.744   6.779
 7566SOL     OW23596   1.322   5.791   4.326
 7566SOL    HW123597   1.230   5.761   4.348
 7566SOL    HW223598   1.366   5.827   4.409
 7567SOL     OW23599   2.984   4.552   0.179
 7567SOL    HW123600   2.934   4.488   0.121
 7567SOL    HW223601   2.956   4.540   0.274
 7568SOL     OW23602   4.455   5.578   3.612
 7568SOL    HW123603   4.360   5.560   3.585
 7568SOL    HW223604   4.465   5.675   3.635
 7569SOL     OW23605   3.573   6.589   0.634
 7569SOL    HW123606   3.606   6.666   0.579
 7569SOL    HW223607   3.626   6.507   0.612
 7570SOL     OW23608   5.752   5.509   3.623
 7570SOL    HW123609   5.727   5.493   3.719
 7570SOL    HW223610   5.823   5.580   3.619
 7571SOL     OW23611   5.149   4.188   1.700
 7571SOL    HW123612   5.196   4.110   1.742
 7571SOL    HW223613   5.206   4.227   1.628
 7572SOL     OW23614   3.152   0.942   4.921
 7572SOL    HW123615   3.081   0.876   4.947
 7572SOL    HW223616   3.130   1.032   4.959
 7573SOL     OW23617   1.348   6.407   4.271
 7573SOL    HW123618   1.394   6.371   4.190
 7573SOL    HW223619   1.271   6.348   4.295
 7574SOL     OW23620   5.429   6.371   2.945
 7574SOL    HW123621   5.435   6.390   2.847
 7574SOL    HW223622   5.483   6.438   2.996
 7575SOL     OW23623   3.799   1.402   5.511
 7575SOL    HW123624   3.747   1.474   5.466
 7575SOL    HW223625   3.887   1.438   5.542
 7576SOL     OW23626   6.459   3.407   0.618
 7576SOL    HW123627   6.558   3.390   0.620
 7576SOL    HW223628   6.433   3.434   0.525
 7577SOL     OW23629   6.162   0.881   5.049
 7577SOL    HW123630   6.242   0.843   5.002
 7577SOL    HW223631   6.085   0.884   4.985
 7578SOL     OW23632   2.200   5.107   4.819
 7578SOL    HW123633   2.192   5.061   4.907
 7578SOL    HW223634   2.131   5.071   4.756
 7579SOL     OW23635   3.760   1.925   2.422
 7579SOL    HW123636   3.705   1.880   2.351
 7579SOL    HW223637   3.815   1.997   2.380
 7580SOL     OW23638   2.053   4.482   2.735
 7580SOL    HW123639   2.125   4.528   2.684
 7580SOL    HW223640   2.059   4.383   2.719
 7581SOL     OW23641   5.610   0.716   0.673
 7581SOL    HW123642   5.548   0.791   0.650
 7581SOL    HW223643   5.698   0.753   0.703
 7582SOL     OW23644   2.888   1.141   0.908
 7582SOL    HW123645   2.910   1.044   0.904
 7582SOL    HW223646   2.884   1.179   0.815
 7583SOL     OW23647   5.260   3.482   2.261
 7583SOL    HW123648   5.254   3.386   2.235
 7583SOL    HW223649   5.345   3.497   2.312
 7584SOL     OW23650   3.022   0.133   1.182
 7584SOL    HW123651   3.091   0.088   1.125
 7584SOL    HW223652   2.945   0.071   1.196
 7585SOL     OW23653   1.566   4.574   6.482
 7585SOL    HW123654   1.587   4.585   6.580
 7585SOL    HW223655   1.589   4.480   6.454
 7586SOL     OW23656   3.293   0.917   3.044
 7586SOL    HW123657   3.282   0.965   2.957
 7586SOL    HW223658   3.344   0.832   3.030
 7587SOL     OW23659   0.974   1.814   6.179
 7587SOL    HW123660   0.976   1.758   6.262
 7587SOL    HW223661   1.068   1.837   6.152
 7588SOL     OW23662   0.323   4.698   2.682
 7588SOL    HW123663   0.328   4.640   2.601
 7588SOL    HW223664   0.247   4.762   2.672
 7589SOL     OW23665   6.342   5.451   0.424
 7589SOL    HW123666   6.396   5.367   0.422
 7589SOL    HW223667   6.393   5.524   0.378
 7590SOL     OW23668   2.267   1.307   6.033
 7590SOL    HW123669   2.297   1.222   6.076
 7590SOL    HW223670   2.243   1.289   5.937
 7591SOL     OW23671   6.807   4.713   6.680
 7591SOL    HW123672   6.758   4.629   6.657
 7591SOL    HW223673   6.810   4.724   6.779
 7592SOL     OW23674   5.592   5.130   6.681
 7592SOL    HW123675   5.636   5.049   6.721
 7592SOL    HW223676   5.514   5.101   6.626
 7593SOL     OW23677   5.519   2.349   0.285
 7593SOL    HW123678   5.477   2.260   0.302
 7593SOL    HW223679   5.452   2.410   0.243
 7594SOL     OW23680   1.320   6.010   3.786
 7594SOL    HW123681   1.403   6.043   3.743
 7594SOL    HW223682   1.326   5.911   3.798
 7595SOL     OW23683   6.567   3.039   6.644
 7595SOL    HW123684   6.547   2.948   6.680
 7595SOL    HW223685   6.497   3.065   6.577
 7596SOL     OW23686   4.837   4.739   1.988
 7596SOL    HW123687   4.843   4.837   2.010
 7596SOL    HW223688   4.910   4.715   1.924
 7597SOL     OW23689   3.718   5.223   1.688
 7597SOL    HW123690   3.678   5.166   1.760
 7597SOL    HW223691   3.790   5.173   1.641
 7598SOL     OW23692   6.867   1.018   3.372
 7598SOL    HW123693   6.914   0.932   3.350
 7598SOL    HW223694   6.910   1.060   3.451
 7599SOL     OW23695   6.469   2.154   2.738
 7599SOL    HW123696   6.448   2.154   2.836
 7599SOL    HW223697   6.400   2.099   2.689
 7600SOL     OW23698   1.968   1.314   1.751
 7600SOL    HW123699   2.062   1.330   1.722
 7600SOL    HW223700   1.961   1.222   1.791
 7601SOL     OW23701   1.564   6.226   4.169
 7601SOL    HW123702   1.609   6.185   4.249
 7601SOL    HW223703   1.494   6.164   4.134
 7602SOL     OW23704   0.779   3.855   4.737
 7602SOL    HW123705   0.847   3.811   4.796
 7602SOL    HW223706   0.806   3.845   4.641
 7603SOL     OW23707   1.418   6.446   1.605
 7603SOL    HW123708   1.460   6.437   1.695
 7603SOL    HW223709   1.486   6.475   1.539
 7604SOL     OW23710   4.382   6.269   5.206
 7604SOL    HW123711   4.438   6.187   5.219
 7604SOL    HW223712   4.348   6.272   5.112
 7605SOL     OW23713   6.745   4.208   0.128
 7605SOL    HW123714   6.673   4.247   0.071
 7605SOL    HW223715   6.766   4.115   0.097
 7606SOL     OW23716   6.181   2.284   2.495
 7606SOL    HW123717   6.091   2.314   2.528
 7606SOL    HW223718   6.169   2.211   2.428
 7607SOL     OW23719   4.981   0.252   6.817
 7607SOL    HW123720   4.940   0.169   6.781
 7607SOL    HW223721   5.048   0.287   6.751
 7608SOL     OW23722   2.916   3.654   4.206
 7608SOL    HW123723   2.951   3.654   4.299
 7608SOL    HW223724   2.902   3.748   4.175
 7609SOL     OW23725   0.982   3.071   3.808
 7609SOL    HW123726   0.953   2.986   3.766
 7609SOL    HW223727   0.921   3.093   3.885
 7610SOL     OW23728   5.689   0.259   0.408
 7610SOL    HW123729   5.693   0.342   0.463
 7610SOL    HW223730   5.754   0.192   0.444
 7611SOL     OW23731   1.379   1.651   6.990
 7611SOL    HW123732   1.411   1.557   6.999
 7611SOL    HW223733   1.419   1.692   6.908
 7612SOL     OW23734   4.130   2.233   3.737
 7612SOL    HW123735   4.209   2.191   3.693
 7612SOL    HW223736   4.156   2.270   3.826
 7613SOL     OW23737   4.808   0.999   1.694
 7613SOL    HW123738   4.894   1.047   1.676
 7613SOL    HW223739   4.733   1.048   1.651
 7614SOL     OW23740   3.793   2.612   0.874
 7614SOL    HW123741   3.892   2.625   0.869
 7614SOL    HW223742   3.772   2.515   0.880
 7615SOL     OW23743   3.860   4.948   6.268
 7615SOL    HW123744   3.777   4.897   6.291
 7615SOL    HW223745   3.843   5.046   6.278
 7616SOL     OW23746   6.597   3.855   3.092
 7616SOL    HW123747   6.583   3.820   2.999
 7616SOL    HW223748   6.510   3.888   3.128
 7617SOL     OW23749   3.171   4.929   3.232
 7617SOL    HW123750   3.270   4.926   3.238
 7617SOL    HW223751   3.131   4.926   3.324
 7618SOL     OW23752   2.343   2.407   6.416
 7618SOL    HW123753   2.435   2.445   6.409
 7618SOL    HW223754   2.306   2.427   6.507
 7619SOL     OW23755   6.395   3.674   5.416
 7619SOL    HW123756   6.399   3.588   5.467
 7619SOL    HW223757   6.312   3.724   5.443
 7620SOL     OW23758   3.941   6.770   1.316
 7620SOL    HW123759   3.901   6.688   1.358
 7620SOL    HW223760   4.037   6.776   1.341
 7621SOL     OW23761   2.476   0.679   1.180
 7621SOL    HW123762   2.433   0.769   1.173
 7621SOL    HW223763   2.504   0.664   1.275
 7622SOL     OW23764   4.114   3.004   0.883
 7622SOL    HW123765   4.184   3.019   0.814
 7622SOL    HW223766   4.027   3.044   0.852
 7623SOL     OW23767   4.218   7.017   5.675
 7623SOL    HW123768   4.308   6.984   5.700
 7623SOL    HW223769   4.217   0.099   5.680
 7624SOL     OW23770   0.890   0.910   3.099
 7624SOL    HW123771   0.841   0.823   3.100
 7624SOL    HW223772   0.937   0.921   3.011
 7625SOL     OW23773   4.991   0.689   1.142
 7625SOL    HW123774   5.005   0.704   1.239
 7625SOL    HW223775   5.025   0.768   1.090
 7626SOL     OW23776   1.713   6.475   4.422
 7626SOL    HW123777   1.653   6.490   4.342
 7626SOL    HW223778   1.710   6.555   4.481
 7627SOL     OW23779   6.688   2.540   0.972
 7627SOL    HW123780   6.703   2.628   0.927
 7627SOL    HW223781   6.653   2.557   1.065
 7628SOL     OW23782   3.114   1.382   0.882
 7628SOL    HW123783   3.014   1.384   0.871
 7628SOL    HW223784   3.157   1.417   0.799
 7629SOL     OW23785   6.942   5.381   3.003
 7629SOL    HW123786   6.942   5.351   2.907
 7629SOL    HW223787   6.916   5.477   3.008
 7630SOL     OW23788   6.258   0.587   2.279
 7630SOL    HW123789   6.348   0.549   2.302
 7630SOL    HW223790   6.191   0.557   2.346
 7631SOL     OW23791   0.312   1.901   4.061
 7631SOL    HW123792   0.245   1.976   4.060
 7631SOL    HW223793   0.375   1.914   4.138
 7632SOL     OW23794   4.733   2.357   0.634
 7632SOL    HW123795   4.743   2.451   0.666
 7632SOL    HW223796   4.656   2.351   0.571
 7633SOL     OW23797   5.335   3.573   6.623
 7633SOL    HW123798   5.334   3.609   6.717
 7633SOL    HW223799   5.269   3.624   6.567
 7634SOL     OW23800   2.015   0.759   2.183
 7634SOL    HW123801   2.003   0.743   2.085
 7634SOL    HW223802   1.932   0.732   2.231
 7635SOL     OW23803   2.349   5.177   5.764
 7635SOL    HW123804   2.376   5.117   5.840
 7635SOL    HW223805   2.429   5.197   5.707
 7636SOL     OW23806   0.797   0.710   4.530
 7636SOL    HW123807   0.860   0.658   4.472
 7636SOL    HW223808   0.831   0.804   4.540
 7637SOL     OW23809   1.307   6.218   4.059
 7637SOL    HW123810   1.259   6.137   4.092
 7637SOL    HW223811   1.313   6.216   3.960
 7638SOL     OW23812   5.285   5.052   1.946
 7638SOL    HW123813   5.330   5.124   1.894
 7638SOL    HW223814   5.259   5.087   2.036
 7639SOL     OW23815   0.601   1.718   5.325
 7639SOL    HW123816   0.673   1.786   5.325
 7639SOL    HW223817   0.626   1.642   5.386
 7640SOL     OW23818   2.620   1.752   0.384
 7640SOL    HW123819   2.654   1.659   0.397
 7640SOL    HW223820   2.605   1.769   0.287
 7641SOL     OW23821   5.882   3.643   2.159
 7641SOL    HW123822   5.816   3.571   2.141
 7641SOL    HW223823   5.856   3.693   2.241
 7642SOL     OW23824   2.541   1.776   2.387
 7642SOL    HW123825   2.566   1.848   2.323
 7642SOL    HW223826   2.505   1.816   2.471
 7643SOL     OW23827   4.993   2.852   3.002
 7643SOL    HW123828   4.934   2.813   2.931
 7643SOL    HW223829   5.004   2.950   2.986
 7644SOL     OW23830   0.052   3.155   3.061
 7644SOL    HW123831   0.022   3.215   3.135
 7644SOL    HW223832   0.033   3.060   3.085
 7645SOL     OW23833   4.299   4.336   0.044
 7645SOL    HW123834   4.344   4.250   0.069
 7645SOL    HW223835   4.364   4.395   7.015
 7646SOL     OW23836   2.224   2.171   2.397
 7646SOL    HW123837   2.324   2.166   2.394
 7646SOL    HW223838   2.192   2.239   2.330
 7647SOL     OW23839   2.530   3.906   1.686
 7647SOL    HW123840   2.552   3.996   1.724
 7647SOL    HW223841   2.605   3.876   1.626
 7648SOL     OW23842   4.212   1.237   4.086
 7648SOL    HW123843   4.189   1.183   4.005
 7648SOL    HW223844   4.128   1.264   4.133
 7649SOL     OW23845   2.944   0.594   2.403
 7649SOL    HW123846   2.909   0.544   2.482
 7649SOL    HW223847   2.873   0.654   2.366
 7650SOL     OW23848   6.505   3.850   1.928
 7650SOL    HW123849   6.411   3.843   1.961
 7650SOL    HW223850   6.514   3.929   1.869
 7651SOL     OW23851   3.279   1.092   6.805
 7651SOL    HW123852   3.278   1.092   6.905
 7651SOL    HW223853   3.202   1.146   6.771
 7652SOL     OW23854   0.547   3.709   2.848
 7652SOL    HW123855   0.609   3.681   2.921
 7652SOL    HW223856   0.524   3.630   2.791
 7653SOL     OW23857   2.599   2.182   1.702
 7653SOL    HW123858   2.638   2.262   1.657
 7653SOL    HW223859   2.507   2.165   1.666
 7654SOL     OW23860   5.290   3.632   3.649
 7654SOL    HW123861   5.349   3.615   3.727
 7654SOL    HW223862   5.196   3.607   3.673
 7655SOL     OW23863   3.571   6.279   4.779
 7655SOL    HW123864   3.512   6.213   4.732
 7655SOL    HW223865   3.664   6.242   4.785
 7656SOL     OW23866   6.833   5.929   5.379
 7656SOL    HW123867   6.920   5.937   5.330
 7656SOL    HW223868   6.816   6.014   5.430
 7657SOL     OW23869   3.323   1.884   3.903
 7657SOL    HW123870   3.371   1.965   3.938
 7657SOL    HW223871   3.355   1.864   3.811
 7658SOL     OW23872   3.817   0.949   5.958
 7658SOL    HW123873   3.752   0.956   6.034
 7658SOL    HW223874   3.833   1.040   5.920
 7659SOL     OW23875   5.796   6.902   0.416
 7659SOL    HW123876   5.784   6.971   0.488
 7659SOL    HW223877   5.841   6.943   0.337
 7660SOL     OW23878   5.648   5.707   2.751
 7660SOL    HW123879   5.629   5.728   2.847
 7660SOL    HW223880   5.654   5.608   2.739
 7661SOL     OW23881   6.750   2.890   3.783
 7661SOL    HW123882   6.818   2.953   3.820
 7661SOL    HW223883   6.719   2.923   3.695
 7662SOL     OW23884   0.823   4.698   2.109
 7662SOL    HW123885   0.849   4.610   2.069
 7662SOL    HW223886   0.802   4.763   2.036
 7663SOL     OW23887   0.142   4.713   6.222
 7663SOL    HW123888   0.198   4.655   6.163
 7663SOL    HW223889   0.153   4.684   6.317
 7664SOL     OW23890   2.722   5.427   3.590
 7664SOL    HW123891   2.627   5.449   3.611
 7664SOL    HW223892   2.745   5.465   3.500
 7665SOL     OW23893   2.729   0.437   4.447
 7665SOL    HW123894   2.818   0.429   4.490
 7665SOL    HW223895   2.667   0.487   4.508
 7666SOL     OW23896   1.592   0.534   1.319
 7666SOL    HW123897   1.688   0.552   1.297
 7666SOL    HW223898   1.550   0.617   1.356
 7667SOL     OW23899   4.964   6.843   0.117
 7667SOL    HW123900   5.001   6.881   0.032
 7667SOL    HW223901   4.956   6.915   0.186
 7668SOL     OW23902   3.703   4.399   0.805
 7668SOL    HW123903   3.652   4.379   0.721
 7668SOL    HW223904   3.801   4.397   0.785
 7669SOL     OW23905   4.888   0.287   3.902
 7669SOL    HW123906   4.793   0.278   3.932
 7669SOL    HW223907   4.938   0.203   3.925
 7670SOL     OW23908   1.650   5.314   0.885
 7670SOL    HW123909   1.586   5.372   0.835
 7670SOL    HW223910   1.637   5.326   0.983
 7671SOL     OW23911   6.063   2.485   3.818
 7671SOL    HW123912   6.124   2.519   3.890
 7671SOL    HW223913   6.094   2.520   3.729
 7672SOL     OW23914   5.628   0.891   3.351
 7672SOL    HW123915   5.614   0.872   3.254
 7672SOL    HW223916   5.640   0.805   3.401
 7673SOL     OW23917   0.938   4.246   0.828
 7673SOL    HW123918   0.978   4.331   0.795
 7673SOL    HW223919   0.935   4.179   0.753
 7674SOL     OW23920   6.303   1.595   5.077
 7674SOL    HW123921   6.356   1.518   5.113
 7674SOL    HW223922   6.205   1.572   5.079
 7675SOL     OW23923   4.337   6.839   2.966
 7675SOL    HW123924   4.258   6.779   2.957
 7675SOL    HW223925   4.389   6.813   3.047
 7676SOL     OW23926   1.350   0.746   0.211
 7676SOL    HW123927   1.258   0.718   0.240
 7676SOL    HW223928   1.418   0.686   0.252
 7677SOL     OW23929   1.492   3.338   2.618
 7677SOL    HW123930   1.585   3.351   2.652
 7677SOL    HW223931   1.428   3.338   2.695
 7678SOL     OW23932   0.071   0.555   0.721
 7678SOL    HW123933   6.996   0.591   0.728
 7678SOL    HW223934   0.121   0.606   0.651
 7679SOL     OW23935   0.743   5.179   5.001
 7679SOL    HW123936   0.748   5.089   5.043
 7679SOL    HW223937   0.835   5.209   4.976
 7680SOL     OW23938   3.447   3.611   0.370
 7680SOL    HW123939   3.392   3.676   0.422
 7680SOL    HW223940   3.396   3.526   0.357
 7681SOL     OW23941   2.945   1.434   6.870
 7681SOL    HW123942   2.860   1.382   6.863
 7681SOL    HW223943   2.932   1.511   6.933
 7682SOL     OW23944   2.860   6.981   2.231
 7682SOL    HW123945   2.796   0.010   2.171
 7682SOL    HW223946   2.916   0.031   2.280
 7683SOL     OW23947   5.644   2.258   2.656
 7683SOL    HW123948   5.550   2.237   2.681
 7683SOL    HW223949   5.650   2.277   2.558
 7684SOL     OW23950   4.358   2.031   6.100
 7684SOL    HW123951   4.384   2.109   6.157
 7684SOL    HW223952   4.272   2.051   6.053
 7685SOL     OW23953   3.641   3.266   0.864
 7685SOL    HW123954   3.628   3.358   0.827
 7685SOL    HW223955   3.701   3.271   0.944
 7686SOL     OW23956   4.244   6.739   3.888
 7686SOL    HW123957   4.331   6.695   3.865
 7686SOL    HW223958   4.252   6.785   3.976
 7687SOL     OW23959   5.073   5.283   5.244
 7687SOL    HW123960   5.019   5.244   5.319
 7687SOL    HW223961   5.013   5.304   5.167
 7688SOL     OW23962   0.200   6.651   4.556
 7688SOL    HW123963   0.134   6.660   4.481
 7688SOL    HW223964   0.270   6.584   4.531
 7689SOL     OW23965   4.752   6.691   4.816
 7689SOL    HW123966   4.724   6.628   4.889
 7689SOL    HW223967   4.851   6.686   4.804
 7690SOL     OW23968   5.982   4.705   3.184
 7690SOL    HW123969   6.078   4.723   3.205
 7690SOL    HW223970   5.958   4.613   3.214
 7691SOL     OW23971   5.172   3.415   4.541
 7691SOL    HW123972   5.088   3.364   4.558
 7691SOL    HW223973   5.197   3.406   4.444
 7692SOL     OW23974   1.976   6.636   1.741
 7692SOL    HW123975   2.029   6.610   1.822
 7692SOL    HW223976   2.030   6.698   1.684
 7693SOL     OW23977   4.424   1.275   6.574
 7693SOL    HW123978   4.410   1.374   6.573
 7693SOL    HW223979   4.508   1.254   6.624
 7694SOL     OW23980   0.117   5.066   4.398
 7694SOL    HW123981   0.076   4.984   4.358
 7694SOL    HW223982   0.199   5.091   4.346
 7695SOL     OW23983   4.511   6.552   1.183
 7695SOL    HW123984   4.533   6.633   1.236
 7695SOL    HW223985   4.532   6.568   1.086
 7696SOL     OW23986   7.009   3.389   5.069
 7696SOL    HW123987   0.038   3.317   5.018
 7696SOL    HW223988   6.986   3.464   5.007
 7697SOL     OW23989   2.735   1.391   2.954
 7697SOL    HW123990   2.644   1.430   2.969
 7697SOL    HW223991   2.734   1.338   2.869
 7698SOL     OW23992   6.500   2.886   5.829
 7698SOL    HW123993   6.549   2.801   5.847
 7698SOL    HW223994   6.537   2.959   5.886
 7699SOL     OW23995   2.838   5.848   0.143
 7699SOL    HW123996   2.834   5.929   0.200
 7699SOL    HW223997   2.920   5.795   0.166
 7700SOL     OW23998   5.150   6.694   5.302
 7700SOL    HW123999   5.159   6.626   5.229
 7700SOL    HW224000   5.199   6.777   5.276
 7701SOL     OW24001   0.162   1.585   4.246
 7701SOL    HW124002   0.228   1.537   4.188
 7701SOL    HW224003   0.166   1.548   4.339
 7702SOL     OW24004   3.126   6.194   5.803
 7702SOL    HW124005   3.100   6.152   5.890
 7702SOL    HW224006   3.103   6.133   5.728
 7703SOL     OW24007   0.691   1.669   5.840
 7703SOL    HW124008   0.638   1.735   5.788
 7703SOL    HW224009   0.643   1.646   5.925
 7704SOL     OW24010   3.924   4.472   6.957
 7704SOL    HW124011   3.880   4.401   6.902
 7704SOL    HW224012   3.939   4.436   0.032
 7705SOL     OW24013   3.461   5.159   5.136
 7705SOL    HW124014   3.482   5.095   5.062
 7705SOL    HW224015   3.367   5.143   5.167
 7706SOL     OW24016   6.639   0.738   5.055
 7706SOL    HW124017   6.587   0.742   5.140
 7706SOL    HW224018   6.731   0.774   5.071
 7707SOL     OW24019   6.771   5.511   6.448
 7707SOL    HW124020   6.842   5.466   6.394
 7707SOL    HW224021   6.801   5.515   6.544
 7708SOL     OW24022   4.922   6.918   4.718
 7708SOL    HW124023   4.877   6.982   4.780
 7708SOL    HW224024   4.973   6.850   4.772
 7709SOL     OW24025   4.325   2.172   1.983
 7709SOL    HW124026   4.377   2.246   1.940
 7709SOL    HW224027   4.357   2.084   1.947
 7710SOL     OW24028   2.448   0.368   0.230
 7710SOL    HW124029   2.512   0.291   0.230
 7710SOL    HW224030   2.434   0.400   0.324
 7711SOL     OW24031   5.637   6.655   5.628
 7711SOL    HW124032   5.665   6.647   5.723
 7711SOL    HW224033   5.714   6.633   5.568
 7712SOL     OW24034   6.077   5.232   0.785
 7712SOL    HW124035   6.144   5.160   0.803
 7712SOL    HW224036   5.985   5.191   0.781
 7713SOL     OW24037   1.471   4.183   6.310
 7713SOL    HW124038   1.499   4.105   6.254
 7713SOL    HW224039   1.389   4.225   6.271
 7714SOL     OW24040   6.313   4.423   3.973
 7714SOL    HW124041   6.344   4.441   3.880
 7714SOL    HW224042   6.388   4.386   4.027
 7715SOL     OW24043   4.850   0.117   1.361
 7715SOL    HW124044   4.891   0.207   1.358
 7715SOL    HW224045   4.783   0.107   1.287
 7716SOL     OW24046   4.766   2.255   3.340
 7716SOL    HW124047   4.826   2.288   3.413
 7716SOL    HW224048   4.816   2.254   3.253
 7717SOL     OW24049   2.876   1.688   5.444
 7717SOL    HW124050   2.910   1.782   5.439
 7717SOL    HW224051   2.815   1.671   5.366
 7718SOL     OW24052   2.784   1.216   3.671
 7718SOL    HW124053   2.695   1.210   3.626
 7718SOL    HW224054   2.832   1.129   3.660
 7719SOL     OW24055   6.925   1.727   4.732
 7719SOL    HW124056   6.862   1.678   4.671
 7719SOL    HW224057   6.986   1.785   4.677
 7720SOL     OW24058   5.809   6.278   1.424
 7720SOL    HW124059   5.821   6.372   1.456
 7720SOL    HW224060   5.874   6.260   1.349
 7721SOL     OW24061   2.245   4.065   3.083
 7721SOL    HW124062   2.249   3.976   3.128
 7721SOL    HW224063   2.176   4.062   3.011
 7722SOL     OW24064   6.397   4.245   3.673
 7722SOL    HW124065   6.461   4.170   3.657
 7722SOL    HW224066   6.307   4.221   3.637
 7723SOL     OW24067   6.868   3.445   0.904
 7723SOL    HW124068   6.883   3.390   0.986
 7723SOL    HW224069   6.938   3.422   0.836
 7724SOL     OW24070   1.314   4.415   1.239
 7724SOL    HW124071   1.370   4.335   1.217
 7724SOL    HW224072   1.229   4.411   1.187
 7725SOL     OW24073   5.999   2.799   3.710
 7725SOL    HW124074   5.952   2.878   3.671
 7725SOL    HW224075   5.971   2.716   3.661
 7726SOL     OW24076   0.615   4.815   3.377
 7726SOL    HW124077   0.547   4.864   3.432
 7726SOL    HW224078   0.612   4.848   3.283
 7727SOL     OW24079   6.773   2.622   3.161
 7727SOL    HW124080   6.828   2.688   3.109
 7727SOL    HW224081   6.718   2.568   3.097
 7728SOL     OW24082   1.829   2.762   3.157
 7728SOL    HW124083   1.732   2.777   3.173
 7728SOL    HW224084   1.851   2.666   3.177
 7729SOL     OW24085   5.017   2.763   1.359
 7729SOL    HW124086   5.065   2.798   1.279
 7729SOL    HW224087   4.930   2.721   1.330
 7730SOL     OW24088   5.355   0.043   2.609
 7730SOL    HW124089   5.326   0.033   2.704
 7730SOL    HW224090   5.440   7.009   2.595
 7731SOL     OW24091   6.096   1.143   6.847
 7731SOL    HW124092   6.011   1.179   6.808
 7731SOL    HW224093   6.161   1.218   6.860
 7732SOL     OW24094   4.178   6.027   0.514
 7732SOL    HW124095   4.091   6.077   0.509
 7732SOL    HW224096   4.208   6.002   0.423
 7733SOL     OW24097   3.834   0.242   1.799
 7733SOL    HW124098   3.839   0.342   1.805
 7733SOL    HW224099   3.751   0.216   1.750
 7734SOL     OW24100   1.804   2.351   3.602
 7734SOL    HW124101   1.778   2.326   3.695
 7734SOL    HW224102   1.726   2.395   3.556
 7735SOL     OW24103   5.185   4.309   6.638
 7735SOL    HW124104   5.130   4.368   6.696
 7735SOL    HW224105   5.136   4.292   6.552
 7736SOL     OW24106   6.063   4.770   0.252
 7736SOL    HW124107   6.040   4.675   0.270
 7736SOL    HW224108   6.045   4.791   0.155
 7737SOL     OW24109   4.688   1.544   0.570
 7737SOL    HW124110   4.604   1.546   0.624
 7737SOL    HW224111   4.687   1.464   0.509
 7738SOL     OW24112   2.882   5.501   0.073
 7738SOL    HW124113   2.958   5.564   0.061
 7738SOL    HW224114   2.844   5.476   7.002
 7739SOL     OW24115   6.936   2.299   1.177
 7739SOL    HW124116   6.877   2.301   1.096
 7739SOL    HW224117   6.905   2.228   1.239
 7740SOL     OW24118   6.789   0.299   2.608
 7740SOL    HW124119   6.876   0.334   2.644
 7740SOL    HW224120   6.781   0.201   2.630
 7741SOL     OW24121   1.431   5.966   4.564
 7741SOL    HW124122   1.484   6.050   4.573
 7741SOL    HW224123   1.462   5.899   4.632
 7742SOL     OW24124   6.238   1.608   3.722
 7742SOL    HW124125   6.269   1.576   3.811
 7742SOL    HW224126   6.315   1.647   3.672
 7743SOL     OW24127   4.815   2.878   4.724
 7743SOL    HW124128   4.777   2.847   4.811
 7743SOL    HW224129   4.915   2.880   4.730
 7744SOL     OW24130   6.651   0.204   3.449
 7744SOL    HW124131   6.729   0.249   3.493
 7744SOL    HW224132   6.586   0.272   3.417
 7745SOL     OW24133   4.015   2.934   6.170
 7745SOL    HW124134   3.917   2.940   6.150
 7745SOL    HW224135   4.067   2.971   6.093
 7746SOL     OW24136   1.761   0.802   0.124
 7746SOL    HW124137   1.778   0.728   0.188
 7746SOL    HW224138   1.835   0.869   0.128
 7747SOL     OW24139   5.444   6.383   0.872
 7747SOL    HW124140   5.450   6.464   0.814
 7747SOL    HW224141   5.459   6.409   0.968
 7748SOL     OW24142   2.757   4.376   6.155
 7748SOL    HW124143   2.834   4.425   6.113
 7748SOL    HW224144   2.728   4.302   6.095
 7749SOL     OW24145   5.719   2.416   5.706
 7749SOL    HW124146   5.726   2.415   5.607
 7749SOL    HW224147   5.800   2.461   5.745
 7750SOL     OW24148   0.297   5.759   1.959
 7750SOL    HW124149   0.252   5.835   2.006
 7750SOL    HW224150   0.386   5.789   1.927
 7751SOL     OW24151   0.789   2.905   2.361
 7751SOL    HW124152   0.840   2.919   2.275
 7751SOL    HW224153   0.770   2.993   2.403
 7752SOL     OW24154   4.204   1.820   4.572
 7752SOL    HW124155   4.262   1.896   4.541
 7752SOL    HW224156   4.132   1.804   4.505
 7753SOL     OW24157   2.900   1.376   4.866
 7753SOL    HW124158   2.877   1.342   4.957
 7753SOL    HW224159   2.959   1.456   4.874
 7754SOL     OW24160   4.761   6.251   1.877
 7754SOL    HW124161   4.795   6.175   1.933
 7754SOL    HW224162   4.839   6.302   1.840
 7755SOL     OW24163   0.934   4.153   6.128
 7755SOL    HW124164   0.932   4.064   6.082
 7755SOL    HW224165   0.990   4.145   6.211
 7756SOL     OW24166   3.244   5.721   1.692
 7756SOL    HW124167   3.234   5.815   1.661
 7756SOL    HW224168   3.326   5.681   1.651
 7757SOL     OW24169   0.182   4.494   2.204
 7757SOL    HW124170   0.245   4.516   2.278
 7757SOL    HW224171   0.095   4.461   2.242
 7758SOL     OW24172   1.399   0.830   4.967
 7758SOL    HW124173   1.356   0.919   4.986
 7758SOL    HW224174   1.336   0.773   4.915
 7759SOL     OW24175   2.898   2.307   6.418
 7759SOL    HW124176   2.814   2.252   6.421
 7759SOL    HW224177   2.960   2.276   6.490
 7760SOL     OW24178   4.346   3.235   0.914
 7760SOL    HW124179   4.306   3.261   1.002
 7760SOL    HW224180   4.388   3.144   0.922
 7761SOL     OW24181   4.535   5.598   4.723
 7761SOL    HW124182   4.478   5.623   4.645
 7761SOL    HW224183   4.551   5.499   4.722
 7762SOL     OW24184   6.220   1.270   2.829
 7762SOL    HW124185   6.295   1.254   2.764
 7762SOL    HW224186   6.221   1.198   2.899
 7763SOL     OW24187   2.362   0.148   4.183
 7763SOL    HW124188   2.336   0.055   4.211
 7763SOL    HW224189   2.306   0.176   4.105
 7764SOL     OW24190   3.045   3.845   5.479
 7764SOL    HW124191   3.045   3.758   5.430
 7764SOL    HW224192   3.045   3.920   5.413
 7765SOL     OW24193   0.146   3.199   4.915
 7765SOL    HW124194   0.150   3.109   4.959
 7765SOL    HW224195   0.176   3.191   4.820
 7766SOL     OW24196   6.304   3.601   6.186
 7766SOL    HW124197   6.325   3.535   6.258
 7766SOL    HW224198   6.384   3.658   6.168
 7767SOL     OW24199   3.008   0.494   3.541
 7767SOL    HW124200   2.987   0.560   3.468
 7767SOL    HW224201   3.012   0.542   3.628
 7768SOL     OW24202   4.479   5.170   3.274
 7768SOL    HW124203   4.519   5.214   3.354
 7768SOL    HW224204   4.435   5.085   3.301
 7769SOL     OW24205   3.585   2.649   5.449
 7769SOL    HW124206   3.609   2.674   5.542
 7769SOL    HW224207   3.609   2.554   5.432
 7770SOL     OW24208   1.946   3.345   4.926
 7770SOL    HW124209   1.946   3.434   4.973
 7770SOL    HW224210   2.024   3.291   4.958
 7771SOL     OW24211   2.627   2.254   6.112
 7771SOL    HW124212   2.723   2.274   6.094
 7771SOL    HW224213   2.617   2.218   6.205
 7772SOL     OW24214   4.853   6.510   2.002
 7772SOL    HW124215   4.887   6.473   1.916
 7772SOL    HW224216   4.852   6.439   2.072
 7773SOL     OW24217   3.537   6.427   0.036
 7773SOL    HW124218   3.517   6.417   0.133
 7773SOL    HW224219   3.540   6.336   7.011
 7774SOL     OW24220   4.215   1.527   2.702
 7774SOL    HW124221   4.256   1.473   2.628
 7774SOL    HW224222   4.123   1.495   2.720
 7775SOL     OW24223   3.169   1.051   0.044
 7775SOL    HW124224   3.116   0.976   0.003
 7775SOL    HW224225   3.261   1.019   0.064
 7776SOL     OW24226   1.738   1.082   4.916
 7776SOL    HW124227   1.725   1.160   4.978
 7776SOL    HW224228   1.831   1.046   4.927
 7777SOL     OW24229   6.115   5.106   3.435
 7777SOL    HW124230   6.085   5.056   3.516
 7777SOL    HW224231   6.083   5.201   3.441
 7778SOL     OW24232   6.794   5.045   2.545
 7778SOL    HW124233   6.712   5.091   2.578
 7778SOL    HW224234   6.841   5.002   2.621
 7779SOL     OW24235   4.035   5.743   2.416
 7779SOL    HW124236   3.997   5.664   2.368
 7779SOL    HW224237   4.081   5.804   2.352
 7780SOL     OW24238   5.958   6.329   4.486
 7780SOL    HW124239   5.963   6.428   4.492
 7780SOL    HW224240   5.867   6.302   4.452
 7781SOL     OW24241   1.488   2.510   0.650
 7781SOL    HW124242   1.528   2.518   0.559
 7781SOL    HW224243   1.517   2.423   0.692
 7782SOL     OW24244   5.571   3.340   4.194
 7782SOL    HW124245   5.525   3.422   4.159
 7782SOL    HW224246   5.566   3.267   4.126
 7783SOL     OW24247   1.224   0.022   5.129
 7783SOL    HW124248   1.256   6.947   5.150
 7783SOL    HW224249   1.160   0.018   5.052
 7784SOL     OW24250   1.913   2.409   2.523
 7784SOL    HW124251   1.894   2.389   2.427
 7784SOL    HW224252   1.827   2.427   2.571
 7785SOL     OW24253   0.540   0.116   2.482
 7785SOL    HW124254   0.467   0.142   2.546
 7785SOL    HW224255   0.554   0.017   2.486
 7786SOL     OW24256   4.260   0.704   6.762
 7786SOL    HW124257   4.358   0.716   6.750
 7786SOL    HW224258   4.213   0.791   6.746
 7787SOL     OW24259   2.099   2.641   1.412
 7787SOL    HW124260   2.103   2.660   1.313
 7787SOL    HW224261   2.074   2.545   1.426
 7788SOL     OW24262   0.031   4.620   1.524
 7788SOL    HW124263   0.048   4.528   1.489
 7788SOL    HW224264   0.063   4.627   1.619
 7789SOL     OW24265   3.451   1.906   5.936
 7789SOL    HW124266   3.361   1.949   5.935
 7789SOL    HW224267   3.520   1.973   5.907
 7790SOL     OW24268   4.601   4.709   1.827
 7790SOL    HW124269   4.692   4.707   1.868
 7790SOL    HW224270   4.569   4.615   1.813
 7791SOL     OW24271   2.766   5.080   1.913
 7791SOL    HW124272   2.799   5.174   1.905
 7791SOL    HW224273   2.795   5.041   2.001
 7792SOL     OW24274   0.783   1.574   2.448
 7792SOL    HW124275   0.853   1.571   2.520
 7792SOL    HW224276   0.696   1.543   2.485
 7793SOL     OW24277   4.660   0.685   6.079
 7793SOL    HW124278   4.658   0.639   5.990
 7793SOL    HW224279   4.738   0.748   6.082
 7794SOL     OW24280   0.907   6.767   2.805
 7794SOL    HW124281   0.833   6.803   2.863
 7794SOL    HW224282   0.943   6.842   2.748
 7795SOL     OW24283   2.958   5.484   6.745
 7795SOL    HW124284   2.871   5.492   6.796
 7795SOL    HW224285   2.951   5.537   6.661
 7796SOL     OW24286   3.947   3.910   6.546
 7796SOL    HW124287   3.982   3.960   6.467
 7796SOL    HW224288   3.910   3.822   6.516
 7797SOL     OW24289   0.701   6.050   2.563
 7797SOL    HW124290   0.699   6.149   2.575
 7797SOL    HW224291   0.633   6.007   2.622
 7798SOL     OW24292   1.407   3.476   0.905
 7798SOL    HW124293   1.398   3.485   0.806
 7798SOL    HW224294   1.383   3.383   0.933
 7799SOL     OW24295   2.452   5.443   3.237
 7799SOL    HW124296   2.505   5.525   3.260
 7799SOL    HW224297   2.355   5.468   3.232
 7800SOL     OW24298   0.447   6.727   2.000
 7800SOL    HW124299   0.512   6.690   2.067
 7800SOL    HW224300   0.402   6.652   1.953
 7801SOL     OW24301   1.568   2.468   2.485
 7801SOL    HW124302   1.608   2.550   2.445
 7801SOL    HW224303   1.479   2.490   2.525
 7802SOL     OW24304   0.024   3.742   4.276
 7802SOL    HW124305   6.959   3.705   4.235
 7802SOL    HW224306   0.030   3.713   4.372
 7803SOL     OW24307   4.307   3.025   5.713
 7803SOL    HW124308   4.269   3.012   5.621
 7803SOL    HW224309   4.241   2.994   5.781
 7804SOL     OW24310   3.216   1.900   5.314
 7804SOL    HW124311   3.120   1.907   5.343
 7804SOL    HW224312   3.228   1.948   5.227
 7805SOL     OW24313   5.856   2.873   0.716
 7805SOL    HW124314   5.948   2.912   0.713
 7805SOL    HW224315   5.788   2.946   0.703
 7806SOL     OW24316   6.974   2.192   5.837
 7806SOL    HW124317   6.875   2.198   5.838
 7806SOL    HW224318   7.003   2.105   5.878
 7807SOL     OW24319   2.150   4.620   6.042
 7807SOL    HW124320   2.212   4.695   6.017
 7807SOL    HW224321   2.076   4.656   6.098
 7808SOL     OW24322   5.029   3.944   2.959
 7808SOL    HW124323   5.124   3.967   2.938
 7808SOL    HW224324   4.987   4.020   3.008
 7809SOL     OW24325   5.226   4.606   3.469
 7809SOL    HW124326   5.304   4.548   3.447
 7809SOL    HW224327   5.188   4.644   3.384
 7810SOL     OW24328   3.461   6.460   5.261
 7810SOL    HW124329   3.557   6.489   5.257
 7810SOL    HW224330   3.456   6.360   5.253
 7811SOL     OW24331   1.407   6.024   2.853
 7811SOL    HW124332   1.418   5.925   2.848
 7811SOL    HW224333   1.488   6.064   2.896
 7812SOL     OW24334   2.782   1.959   5.764
 7812SOL    HW124335   2.717   2.022   5.722
 7812SOL    HW224336   2.737   1.872   5.784
 7813SOL     OW24337   5.988   0.522   0.475
 7813SOL    HW124338   5.975   0.603   0.417
 7813SOL    HW224339   6.072   0.533   0.528
 7814SOL     OW24340   6.823   3.283   1.998
 7814SOL    HW124341   6.792   3.213   1.933
 7814SOL    HW224342   6.746   3.341   2.024
 7815SOL     OW24343   6.153   3.841   5.526
 7815SOL    HW124344   6.177   3.923   5.474
 7815SOL    HW224345   6.091   3.784   5.472
 7816SOL     OW24346   0.416   0.362   5.323
 7816SOL    HW124347   0.483   0.353   5.249
 7816SOL    HW224348   0.403   0.459   5.344
 7817SOL     OW24349   3.052   3.111   6.426
 7817SOL    HW124350   3.052   3.091   6.328
 7817SOL    HW224351   3.141   3.148   6.452
 7818SOL     OW24352   5.747   0.979   2.500
 7818SOL    HW124353   5.779   0.914   2.569
 7818SOL    HW224354   5.652   1.004   2.518
 7819SOL     OW24355   1.555   3.734   3.919
 7819SOL    HW124356   1.501   3.687   3.989
 7819SOL    HW224357   1.555   3.833   3.936
 7820SOL     OW24358   1.796   6.895   6.004
 7820SOL    HW124359   1.825   6.857   5.916
 7820SOL    HW224360   1.819   6.832   6.077
 7821SOL     OW24361   5.047   5.650   6.645
 7821SOL    HW124362   5.010   5.572   6.695
 7821SOL    HW224363   5.020   5.643   6.548
 7822SOL     OW24364   0.408   0.406   4.827
 7822SOL    HW124365   0.503   0.375   4.832
 7822SOL    HW224366   0.347   0.331   4.853
 7823SOL     OW24367   2.129   3.401   5.681
 7823SOL    HW124368   2.207   3.448   5.723
 7823SOL    HW224369   2.124   3.426   5.584
 7824SOL     OW24370   5.210   2.532   3.331
 7824SOL    HW124371   5.304   2.504   3.349
 7824SOL    HW224372   5.171   2.572   3.414
 7825SOL     OW24373   3.452   3.776   2.399
 7825SOL    HW124374   3.403   3.832   2.466
 7825SOL    HW224375   3.549   3.798   2.403
 7826SOL     OW24376   6.903   0.039   1.199
 7826SOL    HW124377   6.850   6.981   1.160
 7826SOL    HW224378   6.993   0.005   1.227
 7827SOL     OW24379   4.983   4.504   0.867
 7827SOL    HW124380   5.020   4.411   0.871
 7827SOL    HW224381   4.930   4.522   0.950
 7828SOL     OW24382   0.933   5.391   0.910
 7828SOL    HW124383   0.877   5.473   0.895
 7828SOL    HW224384   0.949   5.381   1.009
 7829SOL     OW24385   3.910   3.024   2.287
 7829SOL    HW124386   3.981   3.059   2.349
 7829SOL    HW224387   3.926   2.927   2.269
 7830SOL     OW24388   5.900   2.674   6.924
 7830SOL    HW124389   5.866   2.762   6.956
 7830SOL    HW224390   5.822   2.612   6.909
 7831SOL     OW24391   1.633   2.501   6.873
 7831SOL    HW124392   1.727   2.473   6.855
 7831SOL    HW224393   1.570   2.447   6.816
 7832SOL     OW24394   2.606   2.552   5.651
 7832SOL    HW124395   2.508   2.531   5.642
 7832SOL    HW224396   2.649   2.483   5.709
 7833SOL     OW24397   0.969   6.581   0.601
 7833SOL    HW124398   0.974   6.506   0.667
 7833SOL    HW224399   0.924   6.660   0.644
 7834SOL     OW24400   0.300   0.669   1.088
 7834SOL    HW124401   0.241   0.739   1.129
 7834SOL    HW224402   0.377   0.650   1.149
 7835SOL     OW24403   2.216   2.541   5.244
 7835SOL    HW124404   2.161   2.490   5.178
 7835SOL    HW224405   2.232   2.634   5.210
 7836SOL     OW24406   2.184   6.516   0.313
 7836SOL    HW124407   2.098   6.565   0.298
 7836SOL    HW224408   2.258   6.563   0.264
 7837SOL     OW24409   6.066   0.282   2.848
 7837SOL    HW124410   6.149   0.336   2.829
 7837SOL    HW224411   5.988   0.325   2.805
 7838SOL     OW24412   3.730   0.036   3.999
 7838SOL    HW124413   3.711   0.089   4.082
 7838SOL    HW224414   3.782   6.972   4.023
 7839SOL     OW24415   6.544   4.835   4.337
 7839SOL    HW124416   6.490   4.896   4.279
 7839SOL    HW224417   6.525   4.740   4.312
 7840SOL     OW24418   5.442   3.297   5.425
 7840SOL    HW124419   5.343   3.284   5.424
 7840SOL    HW224420   5.482   3.244   5.350
 7841SOL     OW24421   0.848   1.992   6.452
 7841SOL    HW124422   0.933   1.960   6.493
 7841SOL    HW224423   0.771   1.940   6.489
 7842SOL     OW24424   3.273   0.986   3.308
 7842SOL    HW124425   3.291   0.891   3.332
 7842SOL    HW224426   3.277   0.997   3.208
 7843SOL     OW24427   5.318   3.487   0.874
 7843SOL    HW124428   5.308   3.388   0.880
 7843SOL    HW224429   5.364   3.511   0.788
 7844SOL     OW24430   4.485   1.152   3.924
 7844SOL    HW124431   4.469   1.201   3.838
 7844SOL    HW224432   4.538   1.069   3.906
 7845SOL     OW24433   6.822   0.945   4.335
 7845SOL    HW124434   6.864   0.889   4.264
 7845SOL    HW224435   6.772   1.021   4.292
 7846SOL     OW24436   3.056   6.816   2.345
 7846SOL    HW124437   3.050   6.721   2.317
 7846SOL    HW224438   2.982   6.868   2.303
 7847SOL     OW24439   6.793   0.456   0.088
 7847SOL    HW124440   6.718   0.503   0.041
 7847SOL    HW224441   6.853   0.523   0.131
 7848SOL     OW24442   4.852   4.603   1.095
 7848SOL    HW124443   4.761   4.631   1.125
 7848SOL    HW224444   4.916   4.678   1.109
 7849SOL     OW24445   6.048   3.837   5.166
 7849SOL    HW124446   6.110   3.882   5.101
 7849SOL    HW224447   6.028   3.745   5.133
 7850SOL     OW24448   0.988   0.983   4.412
 7850SOL    HW124449   0.917   1.052   4.401
 7850SOL    HW224450   1.020   0.952   4.323
 7851SOL     OW24451   5.658   6.848   7.011
 7851SOL    HW124452   5.600   6.817   6.935
 7851SOL    HW224453   5.749   6.808   7.002
 7852SOL     OW24454   2.620   5.861   6.651
 7852SOL    HW124455   2.643   5.872   6.555
 7852SOL    HW224456   2.647   5.770   6.682
 7853SOL     OW24457   2.574   3.240   0.614
 7853SOL    HW124458   2.480   3.267   0.594
 7853SOL    HW224459   2.609   3.186   0.537
 7854SOL     OW24460   3.571   4.108   2.834
 7854SOL    HW124461   3.657   4.117   2.784
 7854SOL    HW224462   3.589   4.114   2.932
 7855SOL     OW24463   3.982   6.255   5.973
 7855SOL    HW124464   3.994   6.325   6.044
 7855SOL    HW224465   3.894   6.269   5.928
 7856SOL     OW24466   4.765   3.062   6.392
 7856SOL    HW124467   4.835   3.005   6.436
 7856SOL    HW224468   4.674   3.030   6.419
 7857SOL     OW24469   0.181   1.860   5.237
 7857SOL    HW124470   0.228   1.784   5.282
 7857SOL    HW224471   0.237   1.893   5.161
 7858SOL     OW24472   6.049   3.898   3.372
 7858SOL    HW124473   6.005   3.909   3.461
 7858SOL    HW224474   6.036   3.980   3.317
 7859SOL     OW24475   1.204   5.498   6.837
 7859SOL    HW124476   1.118   5.538   6.871
 7859SOL    HW224477   1.205   5.501   6.738
 7860SOL     OW24478   4.043   0.087   1.879
 7860SOL    HW124479   4.036   7.008   1.855
 7860SOL    HW224480   3.957   0.133   1.857
 7861SOL     OW24481   5.381   4.278   0.498
 7861SOL    HW124482   5.304   4.256   0.438
 7861SOL    HW224483   5.466   4.275   0.446
 7862SOL     OW24484   3.077   4.622   1.664
 7862SOL    HW124485   3.143   4.672   1.721
 7862SOL    HW224486   3.015   4.571   1.723
 7863SOL     OW24487   6.997   5.872   1.851
 7863SOL    HW124488   0.017   5.938   1.785
 7863SOL    HW224489   6.923   5.820   1.807
 7864SOL     OW24490   0.526   5.336   4.937
 7864SOL    HW124491   0.608   5.286   4.965
 7864SOL    HW224492   0.464   5.273   4.891
 7865SOL     OW24493   3.361   0.054   3.210
 7865SOL    HW124494   3.313   0.093   3.288
 7865SOL    HW224495   3.459   0.065   3.221
 7866SOL     OW24496   2.861   2.354   4.225
 7866SOL    HW124497   2.803   2.394   4.154
 7866SOL    HW224498   2.883   2.260   4.200
 7867SOL     OW24499   5.602   4.137   1.896
 7867SOL    HW124500   5.563   4.201   1.963
 7867SOL    HW224501   5.597   4.044   1.933
 7868SOL     OW24502   5.008   0.029   0.864
 7868SOL    HW124503   5.102   0.019   0.833
 7868SOL    HW224504   4.999   0.113   0.919
 7869SOL     OW24505   0.290   3.344   2.007
 7869SOL    HW124506   0.214   3.325   2.070
 7869SOL    HW224507   0.282   3.438   1.973
 7870SOL     OW24508   6.974   6.080   4.014
 7870SOL    HW124509   6.895   6.023   3.991
 7870SOL    HW224510   6.953   6.175   3.992
 7871SOL     OW24511   5.407   2.591   3.093
 7871SOL    HW124512   5.353   2.673   3.073
 7871SOL    HW224513   5.346   2.511   3.096
 7872SOL     OW24514   6.465   2.913   3.182
 7872SOL    HW124515   6.471   2.866   3.094
 7872SOL    HW224516   6.376   2.959   3.190
 7873SOL     OW24517   0.268   5.008   5.563
 7873SOL    HW124518   0.356   4.996   5.517
 7873SOL    HW224519   0.233   4.919   5.592
 7874SOL     OW24520   5.614   1.070   0.272
 7874SOL    HW124521   5.621   1.072   0.173
 7874SOL    HW224522   5.573   1.156   0.304
 7875SOL     OW24523   4.441   2.950   6.767
 7875SOL    HW124524   4.502   2.977   6.841
 7875SOL    HW224525   4.405   2.858   6.785
 7876SOL     OW24526   6.626   0.754   4.136
 7876SOL    HW124527   6.605   0.801   4.050
 7876SOL    HW224528   6.588   0.661   4.133
 7877SOL     OW24529   0.232   2.257   2.526
 7877SOL    HW124530   0.218   2.272   2.428
 7877SOL    HW224531   0.325   2.224   2.541
 7878SOL     OW24532   4.726   4.078   1.803
 7878SOL    HW124533   4.643   4.124   1.834
 7878SOL    HW224534   4.762   4.126   1.723
 7879SOL     OW24535   5.158   0.328   3.780
 7879SOL    HW124536   5.063   0.316   3.809
 7879SOL    HW224537   5.186   0.423   3.798
 7880SOL     OW24538   0.449   0.107   6.630
 7880SOL    HW124539   0.351   0.111   6.608
 7880SOL    HW224540   0.470   0.174   6.701
 7881SOL     OW24541   0.067   4.945   3.898
 7881SOL    HW124542   0.098   4.850   3.895
 7881SOL    HW224543   0.145   5.005   3.882
 7882SOL     OW24544   0.042   4.155   2.246
 7882SOL    HW124545   0.062   4.182   2.340
 7882SOL    HW224546   6.973   4.196   2.217
 7883SOL     OW24547   3.618   1.383   4.206
 7883SOL    HW124548   3.621   1.438   4.122
 7883SOL    HW224549   3.523   1.357   4.226
 7884SOL     OW24550   0.340   3.694   3.887
 7884SOL    HW124551   0.311   3.644   3.969
 7884SOL    HW224552   0.399   3.635   3.832
 7885SOL     OW24553   5.974   5.392   3.196
 7885SOL    HW124554   5.953   5.370   3.291
 7885SOL    HW224555   6.021   5.479   3.192
 7886SOL     OW24556   5.016   3.129   2.856
 7886SOL    HW124557   4.956   3.093   2.785
 7886SOL    HW224558   5.111   3.126   2.825
 7887SOL     OW24559   2.396   3.359   0.949
 7887SOL    HW124560   2.338   3.393   0.875
 7887SOL    HW224561   2.338   3.320   1.021
 7888SOL     OW24562   5.675   2.192   4.690
 7888SOL    HW124563   5.744   2.136   4.645
 7888SOL    HW224564   5.635   2.255   4.623
 7889SOL     OW24565   5.938   5.407   7.013
 7889SOL    HW124566   5.909   5.336   6.949
 7889SOL    HW224567   5.891   5.493   6.991
 7890SOL     OW24568   1.276   3.461   4.462
 7890SOL    HW124569   1.193   3.509   4.435
 7890SOL    HW224570   1.303   3.489   4.553
 7891SOL     OW24571   0.531   1.189   4.350
 7891SOL    HW124572   0.497   1.246   4.425
 7891SOL    HW224573   0.501   1.094   4.364
 7892SOL     OW24574   0.575   2.440   5.876
 7892SOL    HW124575   0.494   2.389   5.847
 7892SOL    HW224576   0.634   2.455   5.797
 7893SOL     OW24577   6.286   0.651   0.404
 7893SOL    HW124578   6.248   0.741   0.425
 7893SOL    HW224579   6.309   0.604   0.488
 7894SOL     OW24580   3.341   1.660   5.989
 7894SOL    HW124581   3.342   1.760   5.977
 7894SOL    HW224582   3.302   1.617   5.908
 7895SOL     OW24583   4.289   6.471   4.008
 7895SOL    HW124584   4.224   6.547   4.015
 7895SOL    HW224585   4.259   6.408   3.937
 7896SOL     OW24586   2.687   2.223   0.996
 7896SOL    HW124587   2.694   2.299   0.932
 7896SOL    HW224588   2.606   2.235   1.054
 7897SOL     OW24589   3.541   3.686   0.114
 7897SOL    HW124590   3.505   3.609   0.062
 7897SOL    HW224591   3.504   3.685   0.206
 7898SOL     OW24592   5.248   0.127   3.642
 7898SOL    HW124593   5.337   0.168   3.621
 7898SOL    HW224594   5.199   0.185   3.707
 7899SOL     OW24595   5.998   4.371   2.765
 7899SOL    HW124596   6.053   4.417   2.695
 7899SOL    HW224597   6.053   4.298   2.807
 7900SOL     OW24598   0.544   4.568   1.460
 7900SOL    HW124599   0.634   4.610   1.457
 7900SOL    HW224600   0.545   4.491   1.525
 7901SOL     OW24601   6.377   1.310   6.160
 7901SOL    HW124602   6.426   1.326   6.245
 7901SOL    HW224603   6.362   1.212   6.148
 7902SOL     OW24604   0.767   6.584   3.263
 7902SOL    HW124605   0.833   6.611   3.193
 7902SOL    HW224606   0.787   6.491   3.294
 7903SOL     OW24607   2.831   2.399   5.357
 7903SOL    HW124608   2.900   2.470   5.367
 7903SOL    HW224609   2.853   2.341   5.279
 7904SOL     OW24610   4.801   1.437   2.338
 7904SOL    HW124611   4.860   1.489   2.401
 7904SOL    HW224612   4.852   1.416   2.255
 7905SOL     OW24613   5.932   0.766   0.707
 7905SOL    HW124614   5.971   0.851   0.670
 7905SOL    HW224615   5.967   0.751   0.799
 7906SOL     OW24616   2.199   5.616   0.373
 7906SOL    HW124617   2.290   5.639   0.338
 7906SOL    HW224618   2.153   5.555   0.308
 7907SOL     OW24619   6.297   0.258   2.637
 7907SOL    HW124620   6.378   0.312   2.660
 7907SOL    HW224621   6.218   0.319   2.630
 7908SOL     OW24622   0.696   0.229   6.900
 7908SOL    HW124623   0.659   0.316   6.867
 7908SOL    HW224624   0.777   0.247   6.956
 7909SOL     OW24625   5.876   4.416   1.849
 7909SOL    HW124626   5.878   4.318   1.832
 7909SOL    HW224627   5.827   4.462   1.776
 7910SOL     OW24628   1.463   3.567   0.390
 7910SOL    HW124629   1.525   3.537   0.317
 7910SOL    HW224630   1.376   3.519   0.381
 7911SOL     OW24631   0.536   3.983   0.852
 7911SOL    HW124632   0.608   3.924   0.814
 7911SOL    HW224633   0.499   3.941   0.935
 7912SOL     OW24634   5.692   5.771   0.587
 7912SOL    HW124635   5.597   5.743   0.589
 7912SOL    HW224636   5.720   5.787   0.492
 7913SOL     OW24637   0.760   3.675   0.841
 7913SOL    HW124638   0.780   3.766   0.877
 7913SOL    HW224639   0.675   3.642   0.881
 7914SOL     OW24640   6.468   5.542   4.733
 7914SOL    HW124641   6.518   5.516   4.651
 7914SOL    HW224642   6.417   5.626   4.716
 7915SOL     OW24643   3.762   6.337   2.783
 7915SOL    HW124644   3.861   6.322   2.784
 7915SOL    HW224645   3.733   6.368   2.693
 7916SOL     OW24646   1.734   0.843   4.421
 7916SOL    HW124647   1.701   0.756   4.384
 7916SOL    HW224648   1.670   0.916   4.395
 7917SOL     OW24649   3.942   3.595   0.839
 7917SOL    HW124650   3.938   3.629   0.933
 7917SOL    HW224651   3.972   3.500   0.839
 7918SOL     OW24652   2.096   1.818   4.645
 7918SOL    HW124653   2.046   1.737   4.676
 7918SOL    HW224654   2.167   1.841   4.711
 7919SOL     OW24655   1.650   6.128   3.002
 7919SOL    HW124656   1.676   6.193   3.073
 7919SOL    HW224657   1.686   6.158   2.914
 7920SOL     OW24658   5.210   0.696   0.874
 7920SOL    HW124659   5.287   0.758   0.883
 7920SOL    HW224660   5.243   0.608   0.840
 7921SOL     OW24661   4.840   1.939   2.117
 7921SOL    HW124662   4.916   1.873   2.118
 7921SOL    HW224663   4.755   1.891   2.094
 7922SOL     OW24664   1.334   5.495   1.348
 7922SOL    HW124665   1.427   5.496   1.385
 7922SOL    HW224666   1.308   5.587   1.320
 7923SOL     OW24667   4.461   1.990   0.405
 7923SOL    HW124668   4.377   2.043   0.392
 7923SOL    HW224669   4.502   1.970   0.316
 7924SOL     OW24670   6.828   7.013   0.858
 7924SOL    HW124671   6.747   7.010   0.916
 7924SOL    HW224672   6.882   0.077   0.879
 7925SOL     OW24673   1.803   6.172   0.350
 7925SOL    HW124674   1.893   6.214   0.359
 7925SOL    HW224675   1.758   6.171   0.439
 7926SOL     OW24676   4.487   5.542   6.811
 7926SOL    HW124677   4.563   5.479   6.800
 7926SOL    HW224678   4.521   5.636   6.804
 7927SOL     OW24679   4.856   0.563   1.849
 7927SOL    HW124680   4.860   0.477   1.798
 7927SOL    HW224681   4.850   0.543   1.947
 7928SOL     OW24682   6.831   1.493   3.561
 7928SOL    HW124683   6.882   1.417   3.521
 7928SOL    HW224684   6.886   1.576   3.554
 7929SOL     OW24685   3.391   4.926   5.951
 7929SOL    HW124686   3.356   4.857   5.887
 7929SOL    HW224687   3.450   4.882   6.018
 7930SOL     OW24688   4.691   6.046   5.637
 7930SOL    HW124689   4.704   6.030   5.734
 7930SOL    HW224690   4.680   6.144   5.620
 7931SOL     OW24691   3.765   2.238   0.627
 7931SOL    HW124692   3.714   2.321   0.653
 7931SOL    HW224693   3.701   2.167   0.598
 7932SOL     OW24694   1.597   5.555   3.171
 7932SOL    HW124695   1.634   5.479   3.225
 7932SOL    HW224696   1.672   5.609   3.134
 7933SOL     OW24697   0.481   0.716   6.251
 7933SOL    HW124698   0.441   0.682   6.336
 7933SOL    HW224699   0.581   0.710   6.257
 7934SOL     OW24700   1.063   4.439   1.067
 7934SOL    HW124701   0.981   4.442   1.123
 7934SOL    HW224702   1.049   4.376   0.991
 7935SOL     OW24703   4.826   3.180   3.607
 7935SOL    HW124704   4.806   3.134   3.520
 7935SOL    HW224705   4.850   3.275   3.589
 7936SOL     OW24706   3.195   6.349   4.032
 7936SOL    HW124707   3.230   6.433   4.072
 7936SOL    HW224708   3.271   6.285   4.018
 7937SOL     OW24709   3.707   0.531   0.274
 7937SOL    HW124710   3.758   0.617   0.277
 7937SOL    HW224711   3.674   0.514   0.180
 7938SOL     OW24712   3.713   6.781   4.476
 7938SOL    HW124713   3.687   6.773   4.572
 7938SOL    HW224714   3.655   6.722   4.420
 7939SOL     OW24715   0.512   1.493   3.618
 7939SOL    HW124716   0.587   1.550   3.583
 7939SOL    HW224717   0.549   1.427   3.684
 7940SOL     OW24718   5.027   1.002   3.030
 7940SOL    HW124719   5.019   0.918   2.976
 7940SOL    HW224720   5.004   0.983   3.125
 7941SOL     OW24721   3.741   6.805   1.704
 7941SOL    HW124722   3.749   6.879   1.771
 7941SOL    HW224723   3.674   6.831   1.634
 7942SOL     OW24724   1.400   4.731   1.562
 7942SOL    HW124725   1.339   4.757   1.637
 7942SOL    HW224726   1.358   4.757   1.475
 7943SOL     OW24727   1.462   5.786   6.249
 7943SOL    HW124728   1.432   5.709   6.304
 7943SOL    HW224729   1.489   5.862   6.309
 7944SOL     OW24730   1.909   2.799   0.871
 7944SOL    HW124731   1.874   2.878   0.922
 7944SOL    HW224732   1.954   2.736   0.935
 7945SOL     OW24733   5.532   4.600   3.001
 7945SOL    HW124734   5.616   4.556   3.032
 7945SOL    HW224735   5.536   4.615   2.902
 7946SOL     OW24736   4.014   1.403   6.085
 7946SOL    HW124737   3.917   1.415   6.065
 7946SOL    HW224738   4.024   1.361   6.176
 7947SOL     OW24739   0.685   3.233   5.653
 7947SOL    HW124740   0.616   3.164   5.678
 7947SOL    HW224741   0.767   3.187   5.620
 7948SOL     OW24742   1.131   4.513   2.055
 7948SOL    HW124743   1.168   4.426   2.086
 7948SOL    HW224744   1.052   4.497   1.996
 7949SOL     OW24745   3.247   5.637   6.269
 7949SOL    HW124746   3.241   5.548   6.315
 7949SOL    HW224747   3.186   5.702   6.315
 7950SOL     OW24748   5.136   5.347   4.944
 7950SOL    HW124749   5.190   5.428   4.966
 7950SOL    HW224750   5.044   5.358   4.981
 7951SOL     OW24751   2.776   5.739   3.174
 7951SOL    HW124752   2.784   5.838   3.166
 7951SOL    HW224753   2.685   5.715   3.206
 7952SOL     OW24754   5.165   3.397   6.873
 7952SOL    HW124755   5.099   3.399   6.947
 7952SOL    HW224756   5.187   3.490   6.844
 7953SOL     OW24757   2.503   0.750   0.860
 7953SOL    HW124758   2.409   0.784   0.861
 7953SOL    HW224759   2.563   0.820   0.820
 7954SOL     OW24760   3.218   3.350   6.535
 7954SOL    HW124761   3.284   3.362   6.461
 7954SOL    HW224762   3.156   3.429   6.539
 7955SOL     OW24763   1.736   1.260   0.025
 7955SOL    HW124764   1.835   1.266   0.016
 7955SOL    HW224765   1.704   1.171   7.011
 7956SOL     OW24766   6.116   6.361   0.815
 7956SOL    HW124767   6.168   6.287   0.773
 7956SOL    HW224768   6.046   6.323   0.876
 7957SOL     OW24769   4.363   0.623   5.359
 7957SOL    HW124770   4.422   0.552   5.396
 7957SOL    HW224771   4.407   0.667   5.281
 7958SOL     OW24772   5.732   2.370   0.432
 7958SOL    HW124773   5.642   2.371   0.388
 7958SOL    HW224774   5.782   2.288   0.404
 7959SOL     OW24775   5.744   1.468   6.172
 7959SOL    HW124776   5.777   1.506   6.086
 7959SOL    HW224777   5.821   1.454   6.235
 7960SOL     OW24778   0.692   0.188   5.790
 7960SOL    HW124779   0.739   0.117   5.737
 7960SOL    HW224780   0.618   0.227   5.735
 7961SOL     OW24781   0.072   6.789   0.460
 7961SOL    HW124782   7.014   6.832   0.508
 7961SOL    HW224783   0.066   6.810   0.362
 7962SOL     OW24784   5.678   0.266   5.924
 7962SOL    HW124785   5.732   0.335   5.875
 7962SOL    HW224786   5.668   0.185   5.866
 7963SOL     OW24787   0.147   4.982   4.828
 7963SOL    HW124788   0.054   4.965   4.795
 7963SOL    HW224789   0.196   5.039   4.762
 7964SOL     OW24790   6.197   4.137   2.644
 7964SOL    HW124791   6.252   4.091   2.714
 7964SOL    HW224792   6.257   4.173   2.572
 7965SOL     OW24793   3.799   2.339   6.501
 7965SOL    HW124794   3.790   2.310   6.596
 7965SOL    HW224795   3.794   2.439   6.496
 7966SOL     OW24796   4.931   3.806   5.117
 7966SOL    HW124797   4.850   3.860   5.142
 7966SOL    HW224798   4.903   3.713   5.095
 7967SOL     OW24799   1.495   4.477   2.199
 7967SOL    HW124800   1.446   4.475   2.286
 7967SOL    HW224801   1.528   4.570   2.181
 7968SOL     OW24802   6.779   2.696   4.385
 7968SOL    HW124803   6.764   2.659   4.294
 7968SOL    HW224804   6.866   2.746   4.387
 7969SOL     OW24805   4.592   5.278   0.156
 7969SOL    HW124806   4.614   5.374   0.173
 7969SOL    HW224807   4.496   5.269   0.130
 7970SOL     OW24808   5.573   2.844   2.119
 7970SOL    HW124809   5.651   2.839   2.057
 7970SOL    HW224810   5.552   2.752   2.154
 7971SOL     OW24811   2.765   0.983   0.225
 7971SOL    HW124812   2.679   0.933   0.226
 7971SOL    HW224813   2.806   0.982   0.317
 7972SOL     OW24814   3.631   3.696   2.855
 7972SOL    HW124815   3.706   3.631   2.866
 7972SOL    HW224816   3.544   3.647   2.860
 7973SOL     OW24817   6.765   3.798   2.625
 7973SOL    HW124818   6.856   3.839   2.627
 7973SOL    HW224819   6.720   3.819   2.538
 7974SOL     OW24820   6.664   2.221   5.818
 7974SOL    HW124821   6.655   2.132   5.774
 7974SOL    HW224822   6.664   2.208   5.918
 7975SOL     OW24823   5.039   0.421   1.111
 7975SOL    HW124824   5.001   0.513   1.117
 7975SOL    HW224825   5.137   0.424   1.130
 7976SOL     OW24826   0.716   0.080   6.545
 7976SOL    HW124827   0.620   0.101   6.563
 7976SOL    HW224828   0.759   0.047   6.629
 7977SOL     OW24829   5.768   5.854   2.547
 7977SOL    HW124830   5.722   5.815   2.627
 7977SOL    HW224831   5.847   5.907   2.576
 7978SOL     OW24832   0.239   4.084   1.128
 7978SOL    HW124833   0.218   4.146   1.052
 7978SOL    HW224834   0.154   4.052   1.169
 7979SOL     OW24835   1.345   2.833   4.812
 7979SOL    HW124836   1.319   2.903   4.746
 7979SOL    HW224837   1.443   2.816   4.806
 7980SOL     OW24838   4.052   5.697   6.752
 7980SOL    HW124839   4.095   5.625   6.698
 7980SOL    HW224840   3.969   5.662   6.795
 7981SOL     OW24841   1.512   4.358   2.852
 7981SOL    HW124842   1.502   4.268   2.811
 7981SOL    HW224843   1.589   4.358   2.915
 7982SOL     OW24844   6.970   1.947   5.337
 7982SOL    HW124845   6.979   1.912   5.430
 7982SOL    HW224846   0.028   1.912   5.281
 7983SOL     OW24847   4.576   1.565   2.218
 7983SOL    HW124848   4.641   1.541   2.290
 7983SOL    HW224849   4.554   1.483   2.165
 7984SOL     OW24850   0.659   1.767   2.327
 7984SOL    HW124851   0.723   1.822   2.273
 7984SOL    HW224852   0.704   1.682   2.356
 7985SOL     OW24853   2.722   1.943   5.275
 7985SOL    HW124854   2.641   1.891   5.247
 7985SOL    HW224855   2.696   2.035   5.301
 7986SOL     OW24856   2.764   1.270   3.941
 7986SOL    HW124857   2.754   1.175   3.971
 7986SOL    HW224858   2.749   1.276   3.843
 7987SOL     OW24859   1.231   3.455   0.345
 7987SOL    HW124860   1.167   3.507   0.289
 7987SOL    HW224861   1.220   3.357   0.327
 7988SOL     OW24862   0.258   1.383   0.472
 7988SOL    HW124863   0.227   1.296   0.435
 7988SOL    HW224864   0.349   1.371   0.511
 7989SOL     OW24865   0.475   4.784   0.323
 7989SOL    HW124866   0.538   4.807   0.397
 7989SOL    HW224867   0.527   4.766   0.239
 7990SOL     OW24868   3.288   5.583   5.459
 7990SOL    HW124869   3.350   5.661   5.461
 7990SOL    HW224870   3.263   5.562   5.365
 7991SOL     OW24871   6.192   1.843   4.810
 7991SOL    HW124872   6.129   1.809   4.740
 7991SOL    HW224873   6.243   1.921   4.774
 7992SOL     OW24874   2.802   0.508   0.679
 7992SOL    HW124875   2.751   0.513   0.765
 7992SOL    HW224876   2.880   0.447   0.689
 7993SOL     OW24877   6.796   6.067   0.904
 7993SOL    HW124878   6.713   6.090   0.953
 7993SOL    HW224879   6.777   6.060   0.806
 7994SOL     OW24880   5.537   0.210   3.019
 7994SOL    HW124881   5.574   0.221   3.112
 7994SOL    HW224882   5.526   0.300   2.977
 7995SOL     OW24883   0.171   4.652   1.255
 7995SOL    HW124884   0.150   4.688   1.346
 7995SOL    HW224885   0.211   4.561   1.265
 7996SOL     OW24886   3.415   1.036   2.500
 7996SOL    HW124887   3.479   0.961   2.483
 7996SOL    HW224888   3.466   1.121   2.511
 7997SOL     OW24889   0.520   2.519   0.346
 7997SOL    HW124890   0.490   2.609   0.314
 7997SOL    HW224891   0.516   2.454   0.270
 7998SOL     OW24892   2.285   1.273   0.540
 7998SOL    HW124893   2.333   1.231   0.617
 7998SOL    HW224894   2.187   1.259   0.551
 7999SOL     OW24895   0.614   0.582   5.165
 7999SOL    HW124896   0.637   0.619   5.255
 7999SOL    HW224897   0.521   0.609   5.141
 8000SOL     OW24898   5.337   5.599   6.948
 8000SOL    HW124899   5.424   5.630   6.911
 8000SOL    HW224900   5.354   5.550   0.016
 8001SOL     OW24901   4.859   6.626   1.079
 8001SOL    HW124902   4.782   6.640   1.017
 8001SOL    HW224903   4.937   6.588   1.029
 8002SOL     OW24904   1.030   6.847   5.303
 8002SOL    HW124905   1.022   6.771   5.238
 8002SOL    HW224906   1.028   6.934   5.254
 8003SOL     OW24907   2.969   6.500   2.818
 8003SOL    HW124908   2.911   6.573   2.856
 8003SOL    HW224909   2.997   6.525   2.725
 8004SOL     OW24910   1.440   2.923   3.812
 8004SOL    HW124911   1.397   2.856   3.873
 8004SOL    HW224912   1.370   2.964   3.754
 8005SOL     OW24913   2.718   0.756   3.452
 8005SOL    HW124914   2.807   0.713   3.433
 8005SOL    HW224915   2.647   0.711   3.399
 8006SOL     OW24916   3.473   4.911   5.288
 8006SOL    HW124917   3.496   4.994   5.238
 8006SOL    HW224918   3.557   4.865   5.317
 8007SOL     OW24919   6.133   0.372   6.518
 8007SOL    HW124920   6.200   0.314   6.566
 8007SOL    HW224921   6.178   0.416   6.440
 8008SOL     OW24922   5.295   0.069   5.627
 8008SOL    HW124923   5.277   0.023   5.714
 8008SOL    HW224924   5.392   0.093   5.621
 8009SOL     OW24925   4.893   1.276   6.838
 8009SOL    HW124926   4.859   1.333   6.763
 8009SOL    HW224927   4.894   1.180   6.809
 8010SOL     OW24928   2.567   2.154   5.368
 8010SOL    HW124929   2.471   2.164   5.395
 8010SOL    HW224930   2.587   2.216   5.292
 8011SOL     OW24931   4.131   1.895   2.124
 8011SOL    HW124932   4.109   1.992   2.139
 8011SOL    HW224933   4.100   1.842   2.203
 8012SOL     OW24934   0.455   2.538   5.598
 8012SOL    HW124935   0.542   2.586   5.600
 8012SOL    HW224936   0.387   2.593   5.550
 8013SOL     OW24937   2.690   2.443   2.929
 8013SOL    HW124938   2.758   2.443   3.003
 8013SOL    HW224939   2.736   2.446   2.841
 8014SOL     OW24940   2.035   1.129   2.746
 8014SOL    HW124941   2.097   1.084   2.682
 8014SOL    HW224942   2.027   1.225   2.722
 8015SOL     OW24943   2.341   6.844   5.516
 8015SOL    HW124944   2.258   6.795   5.488
 8015SOL    HW224945   2.387   6.880   5.435
 8016SOL     OW24946   4.478   1.521   4.673
 8016SOL    HW124947   4.423   1.584   4.726
 8016SOL    HW224948   4.422   1.444   4.642
 8017SOL     OW24949   6.786   6.598   1.289
 8017SOL    HW124950   6.731   6.677   1.319
 8017SOL    HW224951   6.864   6.630   1.236
 8018SOL     OW24952   4.319   2.406   0.147
 8018SOL    HW124953   4.296   2.319   0.192
 8018SOL    HW224954   4.237   2.445   0.106
 8019SOL     OW24955   2.465   3.408   1.450
 8019SOL    HW124956   2.539   3.380   1.388
 8019SOL    HW224957   2.492   3.391   1.544
 8020SOL     OW24958   0.220   0.228   5.436
 8020SOL    HW124959   0.302   0.280   5.416
 8020SOL    HW224960   0.173   0.206   5.351
 8021SOL     OW24961   1.310   2.617   2.236
 8021SOL    HW124962   1.388   2.622   2.174
 8021SOL    HW224963   1.282   2.522   2.248
 8022SOL     OW24964   4.381   1.601   1.814
 8022SOL    HW124965   4.401   1.687   1.767
 8022SOL    HW224966   4.362   1.619   1.911
 8023SOL     OW24967   4.428   5.852   3.313
 8023SOL    HW124968   4.443   5.900   3.226
 8023SOL    HW224969   4.472   5.902   3.387
 8024SOL     OW24970   2.235   0.106   6.437
 8024SOL    HW124971   2.166   0.147   6.378
 8024SOL    HW224972   2.325   0.115   6.394
 8025SOL     OW24973   1.854   5.131   1.256
 8025SOL    HW124974   1.774   5.112   1.200
 8025SOL    HW224975   1.849   5.078   1.341
 8026SOL     OW24976   1.230   5.814   6.511
 8026SOL    HW124977   1.291   5.851   6.581
 8026SOL    HW224978   1.213   5.717   6.529
 8027SOL     OW24979   3.500   0.187   0.143
 8027SOL    HW124980   3.480   0.091   0.122
 8027SOL    HW224981   3.432   0.246   0.101
 8028SOL     OW24982   3.055   5.765   5.228
 8028SOL    HW124983   3.105   5.680   5.243
 8028SOL    HW224984   2.975   5.767   5.288
 8029SOL     OW24985   6.598   0.046   0.604
 8029SOL    HW124986   6.534   0.116   0.572
 8029SOL    HW224987   6.691   0.082   0.599
 8030SOL     OW24988   0.455   3.946   0.417
 8030SOL    HW124989   0.430   4.042   0.404
 8030SOL    HW224990   0.383   3.898   0.466
 8031SOL     OW24991   6.755   1.426   2.744
 8031SOL    HW124992   6.792   1.513   2.713
 8031SOL    HW224993   6.827   1.375   2.792
 8032SOL     OW24994   5.376   2.946   1.264
 8032SOL    HW124995   5.392   3.005   1.185
 8032SOL    HW224996   5.403   2.995   1.348
 8033SOL     OW24997   4.385   3.580   0.609
 8033SOL    HW124998   4.418   3.617   0.522
 8033SOL    HW224999   4.342   3.491   0.594
 8034SOL     OW25000   5.719   0.305   5.356
 8034SOL    HW125001   5.685   0.366   5.285
 8034SOL    HW225002   5.737   0.215   5.317
 8035SOL     OW25003   5.524   1.940   3.006
 8035SOL    HW125004   5.429   1.954   3.034
 8035SOL    HW225005   5.578   2.021   3.030
 8036SOL     OW25006   6.070   2.559   3.567
 8036SOL    HW125007   6.057   2.460   3.557
 8036SOL    HW225008   6.047   2.605   3.482
 8037SOL     OW25009   1.610   2.542   5.850
 8037SOL    HW125010   1.620   2.443   5.856
 8037SOL    HW225011   1.624   2.572   5.755
 8038SOL     OW25012   0.217   5.173   2.905
 8038SOL    HW125013   0.124   5.182   2.869
 8038SOL    HW225014   0.276   5.241   2.863
 8039SOL     OW25015   1.193   2.418   5.459
 8039SOL    HW125016   1.280   2.420   5.409
 8039SOL    HW225017   1.124   2.370   5.405
 8040SOL     OW25018   2.165   6.101   5.856
 8040SOL    HW125019   2.181   6.062   5.946
 8040SOL    HW225020   2.253   6.128   5.815
 8041SOL     OW25021   3.594   1.401   3.345
 8041SOL    HW125022   3.604   1.441   3.254
 8041SOL    HW225023   3.626   1.307   3.344
 8042SOL     OW25024   4.075   4.185   5.533
 8042SOL    HW125025   4.050   4.225   5.445
 8042SOL    HW225026   3.993   4.148   5.578
 8043SOL     OW25027   5.352   5.025   6.902
 8043SOL    HW125028   5.292   5.004   6.979
 8043SOL    HW225029   5.394   5.115   6.916
 8044SOL     OW25030   3.460   3.990   1.575
 8044SOL    HW125031   3.493   4.074   1.532
 8044SOL    HW225032   3.537   3.937   1.610
 8045SOL     OW25033   0.407   1.378   2.734
 8045SOL    HW125034   0.461   1.459   2.755
 8045SOL    HW225035   0.400   1.321   2.816
 8046SOL     OW25036   0.765   5.316   2.311
 8046SOL    HW125037   0.775   5.220   2.286
 8046SOL    HW225038   0.703   5.324   2.389
 8047SOL     OW25039   3.755   0.059   6.427
 8047SOL    HW125040   3.751   0.039   6.525
 8047SOL    HW225041   3.849   0.046   6.394
 8048SOL     OW25042   3.711   3.040   0.093
 8048SOL    HW125043   3.731   2.975   0.019
 8048SOL    HW225044   3.614   3.035   0.117
 8049SOL     OW25045   1.485   1.241   0.925
 8049SOL    HW125046   1.499   1.256   1.023
 8049SOL    HW225047   1.568   1.263   0.875
 8050SOL     OW25048   0.991   4.391   5.739
 8050SOL    HW125049   0.922   4.331   5.781
 8050SOL    HW225050   1.050   4.337   5.679
 8051SOL     OW25051   3.717   5.439   4.091
 8051SOL    HW125052   3.739   5.491   4.173
 8051SOL    HW225053   3.620   5.453   4.067
 8052SOL     OW25054   2.243   2.805   2.467
 8052SOL    HW125055   2.224   2.730   2.531
 8052SOL    HW225056   2.274   2.767   2.380
 8053SOL     OW25057   2.545   2.778   6.264
 8053SOL    HW125058   2.471   2.720   6.229
 8053SOL    HW225059   2.507   2.846   6.327
 8054SOL     OW25060   5.367   3.538   5.235
 8054SOL    HW125061   5.336   3.629   5.208
 8054SOL    HW225062   5.318   3.509   5.318
 8055SOL     OW25063   0.032   0.097   5.909
 8055SOL    HW125064   7.013   0.136   5.993
 8055SOL    HW225065   0.115   0.046   5.929
 8056SOL     OW25066   2.338   1.109   4.455
 8056SOL    HW125067   2.251   1.076   4.491
 8056SOL    HW225068   2.358   1.199   4.494
 8057SOL     OW25069   2.549   2.496   2.187
 8057SOL    HW125070   2.635   2.480   2.235
 8057SOL    HW225071   2.549   2.447   2.100
 8058SOL     OW25072   3.114   6.654   3.026
 8058SOL    HW125073   3.212   6.666   3.013
 8058SOL    HW225074   3.070   6.638   2.937
 8059SOL     OW25075   2.708   2.968   6.111
 8059SOL    HW125076   2.681   2.885   6.161
 8059SOL    HW225077   2.673   2.964   6.018
 8060SOL     OW25078   6.469   0.008   6.027
 8060SOL    HW125079   6.373   7.003   6.007
 8060SOL    HW225080   6.475   0.105   6.052
 8061SOL     OW25081   0.071   1.072   1.807
 8061SOL    HW125082   0.127   1.063   1.725
 8061SOL    HW225083   7.001   1.027   1.792
 8062SOL     OW25084   4.377   5.771   5.748
 8062SOL    HW125085   4.314   5.844   5.722
 8062SOL    HW225086   4.341   5.723   5.828
 8063SOL     OW25087   3.537   6.209   3.204
 8063SOL    HW125088   3.503   6.116   3.220
 8063SOL    HW225089   3.634   6.213   3.227
 8064SOL     OW25090   5.561   2.177   0.632
 8064SOL    HW125091   5.640   2.199   0.690
 8064SOL    HW225092   5.570   2.085   0.596
 8065SOL     OW25093   2.905   5.745   5.645
 8065SOL    HW125094   2.860   5.703   5.724
 8065SOL    HW225095   2.846   5.736   5.565
 8066SOL     OW25096   0.495   0.153   4.491
 8066SOL    HW125097   0.520   0.226   4.555
 8066SOL    HW225098   0.425   0.095   4.532
 8067SOL     OW25099   4.975   3.436   3.573
 8067SOL    HW125100   5.053   3.378   3.551
 8067SOL    HW225101   4.956   3.498   3.497
 8068SOL     OW25102   6.503   4.061   1.111
 8068SOL    HW125103   6.439   4.021   1.045
 8068SOL    HW225104   6.472   4.153   1.136
 8069SOL     OW25105   2.731   4.703   2.429
 8069SOL    HW125106   2.759   4.671   2.339
 8069SOL    HW225107   2.780   4.788   2.451
 8070SOL     OW25108   5.031   4.780   6.863
 8070SOL    HW125109   4.962   4.833   6.912
 8070SOL    HW225110   4.986   4.708   6.810
 8071SOL     OW25111   2.957   6.968   5.382
 8071SOL    HW125112   2.895   0.029   5.378
 8071SOL    HW225113   3.020   6.979   5.459
 8072SOL     OW25114   1.939   2.534   6.351
 8072SOL    HW125115   1.911   2.630   6.341
 8072SOL    HW225116   2.009   2.527   6.422
 8073SOL     OW25117   3.573   0.279   6.776
 8073SOL    HW125118   3.520   0.331   6.709
 8073SOL    HW225119   3.512   0.230   6.837
 8074SOL     OW25120   1.443   1.116   6.758
 8074SOL    HW125121   1.478   1.161   6.676
 8074SOL    HW225122   1.520   1.095   6.820
 8075SOL     OW25123   0.514   6.524   0.794
 8075SOL    HW125124   0.506   6.623   0.806
 8075SOL    HW225125   0.576   6.505   0.718
 8076SOL     OW25126   0.277   6.411   0.679
 8076SOL    HW125127   0.357   6.447   0.728
 8076SOL    HW225128   0.308   6.349   0.607
 8077SOL     OW25129   4.153   5.153   0.851
 8077SOL    HW125130   4.170   5.070   0.903
 8077SOL    HW225131   4.123   5.130   0.758
 8078SOL     OW25132   0.495   0.516   2.030
 8078SOL    HW125133   0.571   0.452   2.019
 8078SOL    HW225134   0.529   0.609   2.016
 8079SOL     OW25135   1.567   2.324   5.129
 8079SOL    HW125136   1.607   2.403   5.082
 8079SOL    HW225137   1.638   2.257   5.148
 8080SOL     OW25138   1.033   3.396   3.168
 8080SOL    HW125139   1.125   3.359   3.157
 8080SOL    HW225140   1.023   3.478   3.110
 8081SOL     OW25141   6.310   5.757   4.584
 8081SOL    HW125142   6.357   5.689   4.527
 8081SOL    HW225143   6.301   5.842   4.532
 8082SOL     OW25144   3.802   2.012   1.907
 8082SOL    HW125145   3.759   2.078   1.970
 8082SOL    HW225146   3.765   2.025   1.815
 8083SOL     OW25147   5.912   2.694   5.093
 8083SOL    HW125148   5.991   2.639   5.066
 8083SOL    HW225149   5.836   2.633   5.118
 8084SOL     OW25150   2.698   0.635   6.466
 8084SOL    HW125151   2.745   0.663   6.551
 8084SOL    HW225152   2.683   0.716   6.409
 8085SOL     OW25153   0.877   6.221   4.564
 8085SOL    HW125154   0.817   6.249   4.639
 8085SOL    HW225155   0.945   6.293   4.548
 8086SOL     OW25156   6.959   1.479   2.260
 8086SOL    HW125157   6.965   1.560   2.318
 8086SOL    HW225158   6.958   1.507   2.164
 8087SOL     OW25159   1.117   0.780   0.582
 8087SOL    HW125160   1.126   0.812   0.488
 8087SOL    HW225161   1.116   0.680   0.583
 8088SOL     OW25162   5.689   6.900   5.102
 8088SOL    HW125163   5.642   6.871   5.186
 8088SOL    HW225164   5.739   6.823   5.063
 8089SOL     OW25165   5.238   2.218   6.082
 8089SOL    HW125166   5.175   2.247   6.010
 8089SOL    HW225167   5.301   2.150   6.045
 8090SOL     OW25168   4.317   1.791   5.871
 8090SOL    HW125169   4.278   1.880   5.848
 8090SOL    HW225170   4.252   1.739   5.927
 8091SOL     OW25171   1.445   4.580   4.782
 8091SOL    HW125172   1.358   4.531   4.778
 8091SOL    HW225173   1.503   4.540   4.853
 8092SOL     OW25174   4.776   2.285   5.685
 8092SOL    HW125175   4.736   2.215   5.626
 8092SOL    HW225176   4.715   2.301   5.763
 8093SOL     OW25177   3.927   6.497   2.246
 8093SOL    HW125178   3.939   6.571   2.312
 8093SOL    HW225179   3.843   6.513   2.194
 8094SOL     OW25180   1.329   3.659   3.625
 8094SOL    HW125181   1.296   3.569   3.653
 8094SOL    HW225182   1.429   3.660   3.627
 8095SOL     OW25183   1.106   4.118   5.712
 8095SOL    HW125184   1.200   4.116   5.747
 8095SOL    HW225185   1.062   4.030   5.731
 8096SOL     OW25186   0.989   6.236   2.283
 8096SOL    HW125187   0.984   6.326   2.325
 8096SOL    HW225188   0.897   6.195   2.280
 8097SOL     OW25189   3.624   5.367   5.102
 8097SOL    HW125190   3.565   5.297   5.142
 8097SOL    HW225191   3.673   5.329   5.024
 8098SOL     OW25192   1.242   5.743   5.097
 8098SOL    HW125193   1.278   5.669   5.154
 8098SOL    HW225194   1.146   5.725   5.076
 8099SOL     OW25195   2.710   5.497   4.113
 8099SOL    HW125196   2.735   5.514   4.208
 8099SOL    HW225197   2.791   5.509   4.054
 8100SOL     OW25198   0.176   0.535   6.072
 8100SOL    HW125199   0.101   0.536   6.006
 8100SOL    HW225200   0.250   0.594   6.038
 8101SOL     OW25201   2.660   6.142   1.973
 8101SOL    HW125202   2.599   6.095   2.036
 8101SOL    HW225203   2.744   6.168   2.020
 8102SOL     OW25204   0.985   2.762   4.209
 8102SOL    HW125205   1.072   2.713   4.202
 8102SOL    HW225206   0.932   2.725   4.285
 8103SOL     OW25207   3.265   1.318   2.438
 8103SOL    HW125208   3.348   1.312   2.493
 8103SOL    HW225209   3.288   1.315   2.340
 8104SOL     OW25210   2.605   6.774   0.034
 8104SOL    HW125211   2.563   6.785   6.961
 8104SOL    HW225212   2.700   6.806   0.031
 8105SOL     OW25213   6.807   1.818   2.349
 8105SOL    HW125214   6.809   1.770   2.261
 8105SOL    HW225215   6.879   1.781   2.409
 8106SOL     OW25216   2.272   6.221   4.687
 8106SOL    HW125217   2.179   6.211   4.653
 8106SOL    HW225218   2.270   6.255   4.781
 8107SOL     OW25219   1.869   5.428   5.117
 8107SOL    HW125220   1.908   5.520   5.124
 8107SOL    HW225221   1.861   5.388   5.208
 8108SOL     OW25222   0.149   1.292   6.741
 8108SOL    HW125223   0.097   1.224   6.792
 8108SOL    HW225224   0.206   1.344   6.804
 8109SOL     OW25225   6.613   2.893   0.118
 8109SOL    HW125226   6.706   2.923   0.139
 8109SOL    HW225227   6.575   2.948   0.044
 8110SOL     OW25228   4.068   5.256   0.375
 8110SOL    HW125229   4.067   5.219   0.282
 8110SOL    HW225230   3.978   5.294   0.397
 8111SOL     OW25231   5.746   1.167   3.095
 8111SOL    HW125232   5.671   1.181   3.159
 8111SOL    HW225233   5.709   1.160   3.002
 8112SOL     OW25234   0.629   2.950   5.655
 8112SOL    HW125235   0.536   2.913   5.658
 8112SOL    HW225236   0.687   2.898   5.717
 8113SOL     OW25237   6.249   2.864   0.953
 8113SOL    HW125238   6.249   2.784   1.013
 8113SOL    HW225239   6.313   2.850   0.878
 8114SOL     OW25240   2.095   4.282   1.786
 8114SOL    HW125241   2.058   4.341   1.714
 8114SOL    HW225242   2.034   4.283   1.865
 8115SOL     OW25243   2.801   0.556   6.912
 8115SOL    HW125244   2.766   0.637   6.865
 8115SOL    HW225245   2.878   0.518   6.860
 8116SOL     OW25246   3.049   4.878   1.268
 8116SOL    HW125247   2.987   4.952   1.243
 8116SOL    HW225248   3.001   4.812   1.325
 8117SOL     OW25249   2.844   0.056   3.177
 8117SOL    HW125250   2.934   0.065   3.135
 8117SOL    HW225251   2.829   0.132   3.241
 8118SOL     OW25252   6.263   3.122   0.292
 8118SOL    HW125253   6.353   3.095   0.327
 8118SOL    HW225254   6.196   3.120   0.366
 8119SOL     OW25255   5.996   5.638   6.169
 8119SOL    HW125256   5.915   5.597   6.210
 8119SOL    HW225257   6.077   5.610   6.220
 8120SOL     OW25258   2.121   6.282   1.272
 8120SOL    HW125259   2.120   6.215   1.346
 8120SOL    HW225260   2.033   6.331   1.270
 8121SOL     OW25261   1.308   3.360   2.825
 8121SOL    HW125262   1.241   3.297   2.786
 8121SOL    HW225263   1.262   3.445   2.851
 8122SOL     OW25264   0.781   4.405   2.357
 8122SOL    HW125265   0.871   4.389   2.316
 8122SOL    HW225266   0.756   4.501   2.346
 8123SOL     OW25267   0.592   2.025   5.756
 8123SOL    HW125268   0.659   1.999   5.687
 8123SOL    HW225269   0.538   2.102   5.723
 8124SOL     OW25270   5.990   4.946   4.210
 8124SOL    HW125271   5.919   4.917   4.146
 8124SOL    HW225272   5.954   4.947   4.303
 8125SOL     OW25273   1.069   6.953   2.686
 8125SOL    HW125274   1.094   6.907   2.601
 8125SOL    HW225275   1.043   0.029   2.666
 8126SOL     OW25276   3.920   4.898   4.287
 8126SOL    HW125277   3.855   4.908   4.362
 8126SOL    HW225278   3.874   4.914   4.200
 8127SOL     OW25279   3.039   2.746   0.373
 8127SOL    HW125280   2.978   2.811   0.417
 8127SOL    HW225281   3.118   2.794   0.334
 8128SOL     OW25282   3.360   2.839   1.983
 8128SOL    HW125283   3.319   2.755   2.018
 8128SOL    HW225284   3.331   2.916   2.039
 8129SOL     OW25285   1.336   2.713   0.472
 8129SOL    HW125286   1.417   2.704   0.529
 8129SOL    HW225287   1.332   2.637   0.406
 8130SOL     OW25288   1.437   5.574   6.428
 8130SOL    HW125289   1.494   5.542   6.504
 8130SOL    HW225290   1.361   5.627   6.464
 8131SOL     OW25291   2.036   3.492   1.114
 8131SOL    HW125292   2.040   3.493   1.014
 8131SOL    HW225293   2.101   3.425   1.149
 8132SOL     OW25294   6.667   6.592   4.430
 8132SOL    HW125295   6.658   6.681   4.476
 8132SOL    HW225296   6.669   6.520   4.499
 8133SOL     OW25297   3.504   4.930   0.854
 8133SOL    HW125298   3.521   4.835   0.879
 8133SOL    HW225299   3.459   4.934   0.765
 8134SOL     OW25300   6.295   0.420   5.046
 8134SOL    HW125301   6.292   0.470   4.959
 8134SOL    HW225302   6.364   0.462   5.105
 8135SOL     OW25303   2.633   6.867   1.449
 8135SOL    HW125304   2.670   6.776   1.433
 8135SOL    HW225305   2.560   6.886   1.382
 8136SOL     OW25306   4.593   5.064   2.681
 8136SOL    HW125307   4.604   5.084   2.778
 8136SOL    HW225308   4.630   5.140   2.627
 8137SOL     OW25309   3.975   1.685   4.856
 8137SOL    HW125310   3.962   1.587   4.869
 8137SOL    HW225311   3.947   1.710   4.763
 8138SOL     OW25312   5.464   0.760   1.418
 8138SOL    HW125313   5.523   0.768   1.338
 8138SOL    HW225314   5.519   0.766   1.501
 8139SOL     OW25315   1.201   1.138   2.632
 8139SOL    HW125316   1.105   1.119   2.653
 8139SOL    HW225317   1.249   1.052   2.614
 8140SOL     OW25318   4.130   1.621   3.716
 8140SOL    HW125319   4.185   1.538   3.727
 8140SOL    HW225320   4.052   1.617   3.779
 8141SOL     OW25321   4.205   5.454   5.414
 8141SOL    HW125322   4.211   5.413   5.322
 8141SOL    HW225323   4.211   5.553   5.407
 8142SOL     OW25324   6.078   5.013   0.430
 8142SOL    HW125325   6.007   5.031   0.498
 8142SOL    HW225326   6.044   4.946   0.363
 8143SOL     OW25327   5.810   4.278   6.067
 8143SOL    HW125328   5.791   4.359   6.012
 8143SOL    HW225329   5.905   4.280   6.098
 8144SOL     OW25330   5.314   6.463   6.820
 8144SOL    HW125331   5.386   6.422   6.764
 8144SOL    HW225332   5.319   6.426   6.913
 8145SOL     OW25333   6.092   5.930   2.290
 8145SOL    HW125334   6.011   5.985   2.267
 8145SOL    HW225335   6.071   5.873   2.369
 8146SOL     OW25336   3.280   1.198   5.704
 8146SOL    HW125337   3.209   1.192   5.635
 8146SOL    HW225338   3.359   1.144   5.676
 8147SOL     OW25339   5.101   1.866   4.406
 8147SOL    HW125340   5.034   1.791   4.407
 8147SOL    HW225341   5.131   1.882   4.312
 8148SOL     OW25342   5.674   2.671   3.055
 8148SOL    HW125343   5.576   2.651   3.050
 8148SOL    HW225344   5.724   2.588   3.081
 8149SOL     OW25345   4.395   4.914   3.310
 8149SOL    HW125346   4.428   4.838   3.366
 8149SOL    HW225347   4.373   4.881   3.218
 8150SOL     OW25348   1.191   5.284   6.566
 8150SOL    HW125349   1.250   5.251   6.492
 8150SOL    HW225350   1.181   5.211   6.635
 8151SOL     OW25351   1.128   1.971   5.311
 8151SOL    HW125352   1.215   1.993   5.356
 8151SOL    HW225353   1.147   1.924   5.225
 8152SOL     OW25354   1.980   0.726   3.081
 8152SOL    HW125355   1.984   0.780   3.165
 8152SOL    HW225356   1.987   0.629   3.103
 8153SOL     OW25357   2.842   6.254   0.819
 8153SOL    HW125358   2.818   6.348   0.796
 8153SOL    HW225359   2.763   6.195   0.804
 8154SOL     OW25360   1.758   6.498   3.403
 8154SOL    HW125361   1.697   6.544   3.466
 8154SOL    HW225362   1.754   6.399   3.417
 8155SOL     OW25363   3.227   3.470   3.272
 8155SOL    HW125364   3.284   3.388   3.264
 8155SOL    HW225365   3.272   3.537   3.331
 8156SOL     OW25366   5.861   0.596   5.051
 8156SOL    HW125367   5.897   0.605   4.958
 8156SOL    HW225368   5.929   0.549   5.109
 8157SOL     OW25369   5.716   4.204   6.803
 8157SOL    HW125370   5.648   4.136   6.774
 8157SOL    HW225371   5.797   4.157   6.839
 8158SOL     OW25372   1.579   5.564   1.976
 8158SOL    HW125373   1.531   5.508   2.044
 8158SOL    HW225374   1.618   5.644   2.021
 8159SOL     OW25375   1.925   5.672   2.250
 8159SOL    HW125376   1.978   5.750   2.282
 8159SOL    HW225377   1.887   5.623   2.328
 8160SOL     OW25378   4.135   2.324   1.646
 8160SOL    HW125379   4.098   2.390   1.580
 8160SOL    HW225380   4.067   2.306   1.717
 8161SOL     OW25381   4.671   1.318   0.414
 8161SOL    HW125382   4.580   1.309   0.374
 8161SOL    HW225383   4.692   1.236   0.468
 8162SOL     OW25384   5.228   6.614   1.132
 8162SOL    HW125385   5.231   6.709   1.103
 8162SOL    HW225386   5.150   6.569   1.090
 8163SOL     OW25387   2.201   4.239   5.171
 8163SOL    HW125388   2.174   4.206   5.261
 8163SOL    HW225389   2.273   4.180   5.134
 8164SOL     OW25390   4.375   2.379   1.759
 8164SOL    HW125391   4.442   2.386   1.685
 8164SOL    HW225392   4.296   2.327   1.726
 8165SOL     OW25393   2.138   4.179   1.442
 8165SOL    HW125394   2.128   4.259   1.382
 8165SOL    HW225395   2.209   4.198   1.510
 8166SOL     OW25396   2.764   0.135   1.499
 8166SOL    HW125397   2.720   0.083   1.572
 8166SOL    HW225398   2.709   0.217   1.479
 8167SOL     OW25399   5.744   2.482   3.864
 8167SOL    HW125400   5.681   2.559   3.851
 8167SOL    HW225401   5.814   2.485   3.792
 8168SOL     OW25402   3.597   0.813   3.161
 8168SOL    HW125403   3.667   0.884   3.153
 8168SOL    HW225404   3.610   0.746   3.088
 8169SOL     OW25405   4.124   3.497   6.461
 8169SOL    HW125406   4.197   3.526   6.400
 8169SOL    HW225407   4.039   3.544   6.437
 8170SOL     OW25408   1.153   6.006   4.117
 8170SOL    HW125409   1.125   5.944   4.045
 8170SOL    HW225410   1.132   5.966   4.206
 8171SOL     OW25411   1.065   2.601   5.788
 8171SOL    HW125412   1.024   2.567   5.704
 8171SOL    HW225413   1.162   2.622   5.772
 8172SOL     OW25414   0.235   6.374   1.006
 8172SOL    HW125415   0.229   6.472   0.988
 8172SOL    HW225416   0.331   6.346   1.008
 8173SOL     OW25417   4.067   2.483   0.106
 8173SOL    HW125418   3.999   2.442   0.046
 8173SOL    HW225419   4.021   2.542   0.173
 8174SOL     OW25420   5.634   0.710   1.911
 8174SOL    HW125421   5.538   0.709   1.885
 8174SOL    HW225422   5.658   0.798   1.951
 8175SOL     OW25423   0.629   2.758   6.274
 8175SOL    HW125424   0.559   2.823   6.307
 8175SOL    HW225425   0.584   2.682   6.228
 8176SOL     OW25426   2.864   5.365   2.536
 8176SOL    HW125427   2.813   5.440   2.495
 8176SOL    HW225428   2.803   5.288   2.554
 8177SOL     OW25429   6.452   6.450   4.875
 8177SOL    HW125430   6.527   6.516   4.873
 8177SOL    HW225431   6.485   6.363   4.912
 8178SOL     OW25432   1.794   6.538   6.389
 8178SOL    HW125433   1.818   6.566   6.482
 8178SOL    HW225434   1.859   6.470   6.356
 8179SOL     OW25435   3.488   2.520   0.401
 8179SOL    HW125436   3.421   2.567   0.458
 8179SOL    HW225437   3.574   2.571   0.401
 8180SOL     OW25438   6.232   6.161   4.854
 8180SOL    HW125439   6.206   6.160   4.757
 8180SOL    HW225440   6.328   6.187   4.862
 8181SOL     OW25441   2.810   2.257   3.220
 8181SOL    HW125442   2.909   2.241   3.216
 8181SOL    HW225443   2.788   2.308   3.302
 8182SOL     OW25444   4.192   2.193   5.302
 8182SOL    HW125445   4.142   2.277   5.322
 8182SOL    HW225446   4.128   2.115   5.305
 8183SOL     OW25447   1.648   3.427   4.574
 8183SOL    HW125448   1.718   3.461   4.637
 8183SOL    HW225449   1.637   3.328   4.586
 8184SOL     OW25450   6.746   6.593   5.564
 8184SOL    HW125451   6.775   6.574   5.470
 8184SOL    HW225452   6.815   6.559   5.628
 8185SOL     OW25453   2.735   1.087   2.291
 8185SOL    HW125454   2.814   1.138   2.326
 8185SOL    HW225455   2.757   1.049   2.202
 8186SOL     OW25456   3.385   5.835   5.829
 8186SOL    HW125457   3.324   5.805   5.756
 8186SOL    HW225458   3.475   5.794   5.816
 8187SOL     OW25459   2.036   1.714   4.952
 8187SOL    HW125460   1.963   1.728   4.886
 8187SOL    HW225461   2.069   1.620   4.946
 8188SOL     OW25462   5.974   2.650   3.325
 8188SOL    HW125463   6.042   2.708   3.280
 8188SOL    HW225464   5.913   2.612   3.256
 8189SOL     OW25465   6.245   4.068   2.364
 8189SOL    HW125466   6.167   4.018   2.325
 8189SOL    HW225467   6.265   4.149   2.308
 8190SOL     OW25468   4.995   3.616   3.368
 8190SOL    HW125469   5.089   3.612   3.335
 8190SOL    HW225470   4.949   3.695   3.329
 8191SOL     OW25471   0.690   4.833   4.091
 8191SOL    HW125472   0.637   4.902   4.043
 8191SOL    HW225473   0.654   4.742   4.070
 8192SOL     OW25474   2.211   4.679   1.670
 8192SOL    HW125475   2.236   4.766   1.625
 8192SOL    HW225476   2.133   4.694   1.730
 8193SOL     OW25477   3.931   6.821   5.661
 8193SOL    HW125478   3.888   6.842   5.748
 8193SOL    HW225479   3.922   6.900   5.600
 8194SOL     OW25480   0.204   0.815   0.112
 8194SOL    HW125481   0.231   0.909   0.091
 8194SOL    HW225482   0.217   0.757   0.032
 8195SOL     OW25483   6.792   6.212   0.619
 8195SOL    HW125484   6.778   6.256   0.707
 8195SOL    HW225485   6.888   6.223   0.591
 8196SOL     OW25486   2.802   6.867   6.326
 8196SOL    HW125487   2.856   6.929   6.382
 8196SOL    HW225488   2.745   6.810   6.385
 8197SOL     OW25489   0.579   0.368   6.307
 8197SOL    HW125490   0.537   0.277   6.301
 8197SOL    HW225491   0.572   0.413   6.218
 8198SOL     OW25492   2.979   6.657   3.280
 8198SOL    HW125493   2.892   6.616   3.251
 8198SOL    HW225494   3.041   6.661   3.202
 8199SOL     OW25495   6.660   3.710   0.370
 8199SOL    HW125496   6.674   3.718   0.469
 8199SOL    HW225497   6.596   3.780   0.339
 8200SOL     OW25498   5.012   4.666   0.628
 8200SOL    HW125499   5.083   4.624   0.572
 8200SOL    HW225500   5.006   4.618   0.715
 8201SOL     OW25501   6.260   0.370   3.216
 8201SOL    HW125502   6.334   0.352   3.281
 8201SOL    HW225503   6.173   0.375   3.265
 8202SOL     OW25504   1.713   3.555   3.423
 8202SOL    HW125505   1.779   3.566   3.349
 8202SOL    HW225506   1.760   3.560   3.511
 8203SOL     OW25507   5.637   3.315   1.144
 8203SOL    HW125508   5.733   3.332   1.167
 8203SOL    HW225509   5.583   3.396   1.166
 8204SOL     OW25510   3.017   6.883   1.800
 8204SOL    HW125511   3.000   6.978   1.774
 8204SOL    HW225512   3.115   6.870   1.815
 8205SOL     OW25513   5.829   5.423   2.069
 8205SOL    HW125514   5.868   5.507   2.108
 8205SOL    HW225515   5.770   5.447   1.992
 8206SOL     OW25516   4.684   1.890   4.492
 8206SOL    HW125517   4.739   1.974   4.495
 8206SOL    HW225518   4.686   1.845   4.581
 8207SOL     OW25519   2.558   6.163   6.863
 8207SOL    HW125520   2.609   6.143   6.946
 8207SOL    HW225521   2.478   6.219   6.886
 8208SOL     OW25522   1.838   4.729   0.967
 8208SOL    HW125523   1.896   4.808   0.950
 8208SOL    HW225524   1.769   4.721   0.896
 8209SOL     OW25525   0.430   6.972   4.793
 8209SOL    HW125526   0.366   6.954   4.719
 8209SOL    HW225527   0.408   0.042   4.836
 8210SOL     OW25528   3.005   1.613   6.649
 8210SOL    HW125529   2.912   1.644   6.629
 8210SOL    HW225530   3.002   1.547   6.724
 8211SOL     OW25531   3.080   3.082   4.707
 8211SOL    HW125532   3.157   3.021   4.723
 8211SOL    HW225533   2.996   3.040   4.742
 8212SOL     OW25534   3.013   0.395   1.283
 8212SOL    HW125535   3.023   0.299   1.258
 8212SOL    HW225536   3.043   0.453   1.206
 8213SOL     OW25537   4.612   4.363   1.691
 8213SOL    HW125538   4.646   4.405   1.775
 8213SOL    HW225539   4.524   4.320   1.708
 8214SOL     OW25540   4.622   6.118   4.242
 8214SOL    HW125541   4.687   6.186   4.209
 8214SOL    HW225542   4.634   6.105   4.341
 8215SOL     OW25543   4.350   6.717   0.529
 8215SOL    HW125544   4.252   6.706   0.510
 8215SOL    HW225545   4.364   6.803   0.578
 8216SOL     OW25546   5.632   4.823   1.366
 8216SOL    HW125547   5.598   4.822   1.460
 8216SOL    HW225548   5.559   4.794   1.303
 8217SOL     OW25549   2.833   6.342   3.810
 8217SOL    HW125550   2.852   6.361   3.906
 8217SOL    HW225551   2.759   6.275   3.803
 8218SOL     OW25552   3.017   6.966   4.728
 8218SOL    HW125553   3.026   6.906   4.808
 8218SOL    HW225554   2.944   0.015   4.745
 8219SOL     OW25555   3.943   3.998   0.925
 8219SOL    HW125556   3.850   3.986   0.961
 8219SOL    HW225557   3.966   3.918   0.869
 8220SOL     OW25558   3.799   3.454   4.020
 8220SOL    HW125559   3.832   3.538   4.064
 8220SOL    HW225560   3.852   3.436   3.938
 8221SOL     OW25561   5.273   3.769   3.243
 8221SOL    HW125562   5.230   3.835   3.305
 8221SOL    HW225563   5.211   3.749   3.167
 8222SOL     OW25564   6.391   3.529   0.397
 8222SOL    HW125565   6.328   3.600   0.367
 8222SOL    HW225566   6.483   3.567   0.405
 8223SOL     OW25567   0.899   5.893   5.431
 8223SOL    HW125568   0.953   5.866   5.511
 8223SOL    HW225569   0.802   5.891   5.454
 8224SOL     OW25570   5.323   1.828   0.607
 8224SOL    HW125571   5.335   1.846   0.509
 8224SOL    HW225572   5.290   1.911   0.652
 8225SOL     OW25573   5.266   1.302   0.519
 8225SOL    HW125574   5.332   1.289   0.592
 8225SOL    HW225575   5.254   1.400   0.501
 8226SOL     OW25576   4.364   0.109   0.367
 8226SOL    HW125577   4.389   0.074   0.277
 8226SOL    HW225578   4.271   0.078   0.390
 8227SOL     OW25579   4.832   2.383   3.079
 8227SOL    HW125580   4.752   2.360   3.024
 8227SOL    HW225581   4.910   2.402   3.018
 8228SOL     OW25582   2.299   0.475   4.576
 8228SOL    HW125583   2.306   0.570   4.543
 8228SOL    HW225584   2.390   0.433   4.574
 8229SOL     OW25585   4.624   3.965   0.616
 8229SOL    HW125586   4.574   4.025   0.678
 8229SOL    HW225587   4.707   3.932   0.660
 8230SOL     OW25588   5.848   0.342   6.303
 8230SOL    HW125589   5.808   0.419   6.354
 8230SOL    HW225590   5.889   0.277   6.368
 8231SOL     OW25591   2.796   1.798   2.642
 8231SOL    HW125592   2.856   1.778   2.564
 8231SOL    HW225593   2.846   1.781   2.727
 8232SOL     OW25594   3.900   5.613   2.850
 8232SOL    HW125595   3.968   5.634   2.780
 8232SOL    HW225596   3.859   5.524   2.832
 8233SOL     OW25597   0.485   0.996   6.235
 8233SOL    HW125598   0.456   0.901   6.248
 8233SOL    HW225599   0.584   1.003   6.251
 8234SOL     OW25600   1.029   2.271   1.028
 8234SOL    HW125601   1.015   2.324   0.944
 8234SOL    HW225602   1.125   2.248   1.038
 8235SOL     OW25603   1.160   6.225   1.259
 8235SOL    HW125604   1.076   6.251   1.306
 8235SOL    HW225605   1.228   6.194   1.326
 8236SOL     OW25606   0.492   5.894   1.648
 8236SOL    HW125607   0.477   5.928   1.555
 8236SOL    HW225608   0.530   5.802   1.644
 8237SOL     OW25609   4.011   5.086   0.175
 8237SOL    HW125610   3.975   5.098   0.083
 8237SOL    HW225611   4.039   4.991   0.188
 8238SOL     OW25612   0.894   4.357   0.370
 8238SOL    HW125613   0.809   4.382   0.417
 8238SOL    HW225614   0.909   4.420   0.293
 8239SOL     OW25615   1.733   1.337   5.031
 8239SOL    HW125616   1.717   1.341   4.933
 8239SOL    HW225617   1.722   1.429   5.070
 8240SOL     OW25618   3.313   3.466   4.706
 8240SOL    HW125619   3.308   3.543   4.643
 8240SOL    HW225620   3.331   3.382   4.654
 8241SOL     OW25621   1.739   4.186   5.764
 8241SOL    HW125622   1.670   4.244   5.808
 8241SOL    HW225623   1.806   4.156   5.833
 8242SOL     OW25624   0.703   2.904   3.083
 8242SOL    HW125625   0.725   2.997   3.055
 8242SOL    HW225626   0.621   2.873   3.035
 8243SOL     OW25627   0.911   5.962   4.545
 8243SOL    HW125628   0.918   6.061   4.561
 8243SOL    HW225629   0.821   5.930   4.574
 8244SOL     OW25630   0.406   0.949   4.424
 8244SOL    HW125631   0.439   0.856   4.434
 8244SOL    HW225632   0.379   0.986   4.513
 8245SOL     OW25633   5.241   1.928   3.122
 8245SOL    HW125634   5.274   1.839   3.154
 8245SOL    HW225635   5.217   1.985   3.200
 8246SOL     OW25636   2.106   5.239   0.012
 8246SOL    HW125637   2.019   5.267   6.990
 8246SOL    HW225638   2.116   5.280   0.103
 8247SOL     OW25639   3.082   5.220   3.358
 8247SOL    HW125640   3.040   5.270   3.282
 8247SOL    HW225641   3.050   5.126   3.358
 8248SOL     OW25642   6.534   4.921   3.003
 8248SOL    HW125643   6.526   4.904   3.101
 8248SOL    HW225644   6.513   5.016   2.984
 8249SOL     OW25645   3.440   1.811   6.465
 8249SOL    HW125646   3.455   1.847   6.557
 8249SOL    HW225647   3.347   1.774   6.459
 8250SOL     OW25648   0.996   1.470   0.097
 8250SOL    HW125649   1.038   1.420   0.172
 8250SOL    HW225650   1.067   1.516   0.044
 8251SOL     OW25651   0.523   2.189   4.549
 8251SOL    HW125652   0.424   2.179   4.551
 8251SOL    HW225653   0.557   2.201   4.643
 8252SOL     OW25654   1.152   2.410   6.092
 8252SOL    HW125655   1.177   2.314   6.104
 8252SOL    HW225656   1.054   2.421   6.109
 8253SOL     OW25657   4.516   5.867   0.301
 8253SOL    HW125658   4.572   5.862   0.383
 8253SOL    HW225659   4.538   5.949   0.249
 8254SOL     OW25660   5.216   4.572   6.307
 8254SOL    HW125661   5.213   4.474   6.285
 8254SOL    HW225662   5.208   4.625   6.223
 8255SOL     OW25663   1.583   6.958   6.197
 8255SOL    HW125664   1.618   7.012   6.121
 8255SOL    HW225665   1.653   6.891   6.225
 8256SOL     OW25666   0.979   5.391   4.741
 8256SOL    HW125667   1.026   5.323   4.798
 8256SOL    HW225668   0.881   5.371   4.739
 8257SOL     OW25669   5.526   3.804   3.109
 8257SOL    HW125670   5.464   3.824   3.033
 8257SOL    HW225671   5.476   3.753   3.180
 8258SOL     OW25672   6.964   3.729   1.853
 8258SOL    HW125673   6.977   3.640   1.809
 8258SOL    HW225674   6.877   3.729   1.902
 8259SOL     OW25675   5.280   1.542   4.330
 8259SOL    HW125676   5.318   1.627   4.296
 8259SOL    HW225677   5.289   1.538   4.429
 8260SOL     OW25678   4.427   1.415   1.170
 8260SOL    HW125679   4.449   1.508   1.199
 8260SOL    HW225680   4.443   1.351   1.245
 8261SOL     OW25681   5.631   0.714   2.375
 8261SOL    HW125682   5.667   0.807   2.386
 8261SOL    HW225683   5.553   0.701   2.436
 8262SOL     OW25684   5.508   3.979   1.629
 8262SOL    HW125685   5.532   4.035   1.549
 8262SOL    HW225686   5.569   4.001   1.705
 8263SOL     OW25687   6.631   2.510   5.876
 8263SOL    HW125688   6.681   2.427   5.852
 8263SOL    HW225689   6.683   2.561   5.944
 8264SOL     OW25690   3.134   0.147   3.106
 8264SOL    HW125691   3.124   0.149   3.007
 8264SOL    HW225692   3.214   0.093   3.131
 8265SOL     OW25693   5.345   6.583   0.285
 8265SOL    HW125694   5.247   6.590   0.269
 8265SOL    HW225695   5.391   6.664   0.248
 8266SOL     OW25696   2.457   0.924   3.648
 8266SOL    HW125697   2.358   0.936   3.638
 8266SOL    HW225698   2.504   0.997   3.599
 8267SOL     OW25699   1.747   4.270   2.461
 8267SOL    HW125700   1.773   4.179   2.494
 8267SOL    HW225701   1.647   4.274   2.450
 8268SOL     OW25702   3.756   5.234   6.262
 8268SOL    HW125703   3.830   5.283   6.310
 8268SOL    HW225704   3.682   5.216   6.326
 8269SOL     OW25705   5.991   2.724   4.000
 8269SOL    HW125706   6.008   2.737   3.903
 8269SOL    HW225707   6.058   2.776   4.053
 8270SOL     OW25708   3.815   6.933   6.955
 8270SOL    HW125709   3.739   6.925   0.001
 8270SOL    HW225710   3.882   6.861   6.972
 8271SOL     OW25711   3.351   6.438   6.372
 8271SOL    HW125712   3.304   6.403   6.453
 8271SOL    HW225713   3.312   6.527   6.347
 8272SOL     OW25714   0.726   0.362   1.997
 8272SOL    HW125715   0.791   0.366   2.073
 8272SOL    HW225716   0.776   0.352   1.911
 8273SOL     OW25717   4.102   0.480   6.818
 8273SOL    HW125718   4.140   0.572   6.810
 8273SOL    HW225719   4.034   0.465   6.746
 8274SOL     OW25720   5.347   6.363   5.410
 8274SOL    HW125721   5.340   6.324   5.319
 8274SOL    HW225722   5.443   6.369   5.437
 8275SOL     OW25723   5.613   0.298   3.258
 8275SOL    HW125724   5.567   0.216   3.291
 8275SOL    HW225725   5.608   0.370   3.328
 8276SOL     OW25726   6.933   1.832   6.474
 8276SOL    HW125727   6.869   1.820   6.399
 8276SOL    HW225728   6.939   1.929   6.497
 8277SOL     OW25729   1.511   6.889   6.730
 8277SOL    HW125730   1.563   6.889   6.645
 8277SOL    HW225731   1.571   6.865   6.806
 8278SOL     OW25732   3.256   1.157   0.391
 8278SOL    HW125733   3.242   1.171   0.489
 8278SOL    HW225734   3.306   1.235   0.353
 8279SOL     OW25735   4.349   5.626   5.081
 8279SOL    HW125736   4.284   5.673   5.021
 8279SOL    HW225737   4.439   5.668   5.072
 8280SOL     OW25738   5.453   3.398   0.447
 8280SOL    HW125739   5.465   3.474   0.511
 8280SOL    HW225740   5.443   3.313   0.499
 8281SOL     OW25741   3.027   5.000   0.319
 8281SOL    HW125742   3.053   4.997   0.416
 8281SOL    HW225743   2.999   5.093   0.295
 8282SOL     OW25744   3.043   2.554   0.950
 8282SOL    HW125745   3.142   2.568   0.953
 8282SOL    HW225746   2.998   2.624   1.005
 8283SOL     OW25747   0.251   5.571   3.667
 8283SOL    HW125748   0.315   5.634   3.623
 8283SOL    HW225749   0.198   5.523   3.597
 8284SOL     OW25750   3.099   1.735   1.744
 8284SOL    HW125751   3.148   1.724   1.657
 8284SOL    HW225752   3.002   1.715   1.731
 8285SOL     OW25753   2.701   4.561   6.395
 8285SOL    HW125754   2.733   4.480   6.346
 8285SOL    HW225755   2.646   4.532   6.474
 8286SOL     OW25756   5.709   2.070   5.444
 8286SOL    HW125757   5.680   2.119   5.362
 8286SOL    HW225758   5.628   2.039   5.494
 8287SOL     OW25759   1.997   0.155   3.843
 8287SOL    HW125760   1.966   0.208   3.922
 8287SOL    HW225761   1.982   0.058   3.860
 8288SOL     OW25762   2.685   0.319   3.011
 8288SOL    HW125763   2.629   0.290   2.933
 8288SOL    HW225764   2.781   0.307   2.989
 8289SOL     OW25765   6.920   1.023   5.851
 8289SOL    HW125766   6.894   1.046   5.944
 8289SOL    HW225767   6.890   0.930   5.829
 8290SOL     OW25768   4.590   2.766   1.811
 8290SOL    HW125769   4.593   2.862   1.841
 8290SOL    HW225770   4.682   2.735   1.789
 8291SOL     OW25771   3.627   5.581   6.474
 8291SOL    HW125772   3.614   5.656   6.539
 8291SOL    HW225773   3.610   5.615   6.381
 8292SOL     OW25774   0.847   3.147   4.498
 8292SOL    HW125775   0.836   3.201   4.415
 8292SOL    HW225776   0.766   3.158   4.556
 8293SOL     OW25777   2.785   4.709   3.802
 8293SOL    HW125778   2.720   4.664   3.864
 8293SOL    HW225779   2.878   4.689   3.830
 8294SOL     OW25780   4.577   3.418   5.902
 8294SOL    HW125781   4.597   3.374   5.989
 8294SOL    HW225782   4.503   3.369   5.856
 8295SOL     OW25783   5.332   4.492   2.569
 8295SOL    HW125784   5.248   4.517   2.617
 8295SOL    HW225785   5.354   4.396   2.589
 8296SOL     OW25786   4.006   6.209   2.297
 8296SOL    HW125787   4.058   6.287   2.262
 8296SOL    HW225788   4.053   6.171   2.377
 8297SOL     OW25789   5.748   4.542   3.703
 8297SOL    HW125790   5.768   4.445   3.692
 8297SOL    HW225791   5.702   4.575   3.621
 8298SOL     OW25792   6.637   6.802   6.417
 8298SOL    HW125793   6.723   6.838   6.453
 8298SOL    HW225794   6.628   6.826   6.321
 8299SOL     OW25795   0.530   3.605   0.978
 8299SOL    HW125796   0.461   3.676   0.989
 8299SOL    HW225797   0.581   3.595   1.064
 8300SOL     OW25798   5.428   4.985   2.752
 8300SOL    HW125799   5.474   4.962   2.838
 8300SOL    HW225800   5.340   5.028   2.772
 8301SOL     OW25801   5.048   6.604   0.246
 8301SOL    HW125802   5.033   6.686   0.191
 8301SOL    HW225803   4.998   6.527   0.206
 8302SOL     OW25804   3.435   6.762   5.265
 8302SOL    HW125805   3.473   6.694   5.202
 8302SOL    HW225806   3.499   6.837   5.275
 8303SOL     OW25807   0.303   5.421   3.048
 8303SOL    HW125808   0.260   5.331   3.035
 8303SOL    HW225809   0.402   5.412   3.037
 8304SOL     OW25810   5.910   4.444   3.187
 8304SOL    HW125811   5.877   4.435   3.093
 8304SOL    HW225812   5.990   4.385   3.200
 8305SOL     OW25813   5.291   6.602   4.811
 8305SOL    HW125814   5.319   6.687   4.767
 8305SOL    HW225815   5.350   6.527   4.780
 8306SOL     OW25816   6.335   1.253   2.200
 8306SOL    HW125817   6.345   1.185   2.272
 8306SOL    HW225818   6.383   1.222   2.118
 8307SOL     OW25819   1.757   3.390   3.002
 8307SOL    HW125820   1.787   3.375   2.908
 8307SOL    HW225821   1.722   3.484   3.012
 8308SOL     OW25822   1.757   5.060   0.830
 8308SOL    HW125823   1.701   5.025   0.755
 8308SOL    HW225824   1.740   5.158   0.842
 8309SOL     OW25825   6.499   5.065   4.684
 8309SOL    HW125826   6.573   5.101   4.740
 8309SOL    HW225827   6.499   4.965   4.689
 8310SOL     OW25828   1.892   0.061   0.775
 8310SOL    HW125829   1.920   0.154   0.797
 8310SOL    HW225830   1.793   0.054   0.774
 8311SOL     OW25831   5.309   6.358   3.355
 8311SOL    HW125832   5.347   6.413   3.280
 8311SOL    HW225833   5.237   6.409   3.400
 8312SOL     OW25834   5.388   1.477   0.070
 8312SOL    HW125835   5.367   1.574   0.069
 8312SOL    HW225836   5.434   1.452   7.002
 8313SOL     OW25837   5.424   2.389   5.611
 8313SOL    HW125838   5.376   2.311   5.572
 8313SOL    HW225839   5.505   2.357   5.660
 8314SOL     OW25840   4.975   6.471   4.041
 8314SOL    HW125841   5.039   6.419   3.984
 8314SOL    HW225842   5.026   6.519   4.112
 8315SOL     OW25843   3.512   4.213   4.594
 8315SOL    HW125844   3.479   4.236   4.503
 8315SOL    HW225845   3.609   4.188   4.589
 8316SOL     OW25846   1.824   2.009   6.380
 8316SOL    HW125847   1.846   1.990   6.476
 8316SOL    HW225848   1.829   2.107   6.364
 8317SOL     OW25849   1.326   1.932   3.607
 8317SOL    HW125850   1.311   1.843   3.564
 8317SOL    HW225851   1.422   1.939   3.636
 8318SOL     OW25852   4.550   0.277   6.437
 8318SOL    HW125853   4.485   0.284   6.513
 8318SOL    HW225854   4.635   0.323   6.461
 8319SOL     OW25855   1.541   6.279   6.752
 8319SOL    HW125856   1.493   6.270   6.840
 8319SOL    HW225857   1.615   6.212   6.748
 8320SOL     OW25858   2.965   3.181   5.049
 8320SOL    HW125859   3.009   3.248   4.990
 8320SOL    HW225860   2.885   3.144   5.003
 8321SOL     OW25861   0.094   6.943   1.322
 8321SOL    HW125862   0.162   7.015   1.333
 8321SOL    HW225863   0.139   6.856   1.307
 8322SOL     OW25864   0.662   6.756   0.496
 8322SOL    HW125865   0.691   6.711   0.581
 8322SOL    HW225866   0.582   6.710   0.459
 8323SOL     OW25867   5.649   4.669   0.924
 8323SOL    HW125868   5.711   4.670   0.845
 8323SOL    HW225869   5.692   4.619   0.999
 8324SOL     OW25870   4.918   5.363   6.101
 8324SOL    HW125871   4.995   5.410   6.144
 8324SOL    HW225872   4.946   5.333   6.009
 8325SOL     OW25873   1.741   5.712   6.528
 8325SOL    HW125874   1.698   5.622   6.525
 8325SOL    HW225875   1.676   5.779   6.566
 8326SOL     OW25876   1.650   3.155   0.194
 8326SOL    HW125877   1.555   3.126   0.204
 8326SOL    HW225878   1.673   3.162   0.097
 8327SOL     OW25879   0.849   6.920   4.757
 8327SOL    HW125880   0.888   6.889   4.671
 8327SOL    HW225881   0.784   6.851   4.791
 8328SOL     OW25882   0.791   6.970   0.621
 8328SOL    HW125883   0.758   6.890   0.570
 8328SOL    HW225884   0.848   6.939   0.698
 8329SOL     OW25885   1.906   2.866   4.838
 8329SOL    HW125886   1.974   2.915   4.784
 8329SOL    HW225887   1.864   2.929   4.903
 8330SOL     OW25888   3.578   1.412   0.336
 8330SOL    HW125889   3.602   1.432   0.241
 8330SOL    HW225890   3.599   1.317   0.358
 8331SOL     OW25891   1.819   2.336   6.011
 8331SOL    HW125892   1.779   2.323   5.920
 8331SOL    HW225893   1.857   2.428   6.017
 8332SOL     OW25894   6.384   5.562   1.323
 8332SOL    HW125895   6.388   5.464   1.344
 8332SOL    HW225896   6.288   5.591   1.320
 8333SOL     OW25897   1.927   4.145   0.231
 8333SOL    HW125898   1.958   4.140   0.136
 8333SOL    HW225899   1.971   4.072   0.284
 8334SOL     OW25900   3.974   2.158   6.319
 8334SOL    HW125901   3.926   2.207   6.392
 8334SOL    HW225902   3.907   2.119   6.256
 8335SOL     OW25903   5.203   4.024   6.322
 8335SOL    HW125904   5.222   4.036   6.225
 8335SOL    HW225905   5.130   4.087   6.349
 8336SOL     OW25906   0.855   3.969   3.750
 8336SOL    HW125907   0.881   4.005   3.840
 8336SOL    HW225908   0.782   3.902   3.761
 8337SOL     OW25909   0.855   1.233   4.340
 8337SOL    HW125910   0.757   1.219   4.351
 8337SOL    HW225911   0.873   1.272   4.250
 8338SOL     OW25912   3.933   5.709   1.624
 8338SOL    HW125913   3.919   5.660   1.710
 8338SOL    HW225914   4.014   5.672   1.578
 8339SOL     OW25915   5.919   0.307   1.447
 8339SOL    HW125916   5.855   0.381   1.428
 8339SOL    HW225917   5.976   0.289   1.367
 8340SOL     OW25918   6.107   2.008   6.450
 8340SOL    HW125919   6.206   2.006   6.437
 8340SOL    HW225920   6.065   1.931   6.402
 8341SOL     OW25921   3.503   0.548   1.098
 8341SOL    HW125922   3.602   0.556   1.108
 8341SOL    HW225923   3.465   0.501   1.177
 8342SOL     OW25924   4.708   0.514   0.308
 8342SOL    HW125925   4.795   0.563   0.303
 8342SOL    HW225926   4.634   0.572   0.275
 8343SOL     OW25927   5.462   3.616   4.184
 8343SOL    HW125928   5.514   3.701   4.185
 8343SOL    HW225929   5.365   3.635   4.169
 8344SOL     OW25930   1.266   5.193   5.299
 8344SOL    HW125931   1.273   5.115   5.237
 8344SOL    HW225932   1.291   5.164   5.392
 8345SOL     OW25933   4.649   0.790   3.502
 8345SOL    HW125934   4.586   0.720   3.535
 8345SOL    HW225935   4.686   0.764   3.413
 8346SOL     OW25936   5.845   3.962   5.321
 8346SOL    HW125937   5.758   3.913   5.325
 8346SOL    HW225938   5.915   3.903   5.281
 8347SOL     OW25939   2.156   0.495   6.754
 8347SOL    HW125940   2.098   0.549   6.814
 8347SOL    HW225941   2.165   0.540   6.665
 8348SOL     OW25942   3.104   5.947   2.083
 8348SOL    HW125943   3.181   5.951   2.020
 8348SOL    HW225944   3.063   5.856   2.081
 8349SOL     OW25945   0.187   6.831   2.437
 8349SOL    HW125946   0.099   6.785   2.424
 8349SOL    HW225947   0.243   6.820   2.355
 8350SOL     OW25948   1.913   0.324   0.433
 8350SOL    HW125949   1.983   0.314   0.503
 8350SOL    HW225950   1.957   0.345   0.345
 8351SOL     OW25951   0.086   3.336   3.295
 8351SOL    HW125952   0.026   3.408   3.330
 8351SOL    HW225953   0.083   3.257   3.356
 8352SOL     OW25954   3.097   6.169   1.909
 8352SOL    HW125955   3.041   6.236   1.958
 8352SOL    HW225956   3.103   6.085   1.962
 8353SOL     OW25957   1.376   4.865   2.342
 8353SOL    HW125958   1.372   4.774   2.384
 8353SOL    HW225959   1.287   4.909   2.348
 8354SOL     OW25960   3.925   0.735   3.193
 8354SOL    HW125961   3.848   0.762   3.251
 8354SOL    HW225962   3.903   0.651   3.144
 8355SOL     OW25963   2.597   6.715   6.456
 8355SOL    HW125964   2.645   6.667   6.529
 8355SOL    HW225965   2.499   6.699   6.465
 8356SOL     OW25966   2.232   5.468   0.614
 8356SOL    HW125967   2.195   5.506   0.699
 8356SOL    HW225968   2.200   5.521   0.536
 8357SOL     OW25969   4.691   6.338   5.606
 8357SOL    HW125970   4.663   6.422   5.652
 8357SOL    HW225971   4.755   6.360   5.533
 8358SOL     OW25972   0.937   1.192   5.309
 8358SOL    HW125973   0.935   1.259   5.235
 8358SOL    HW225974   0.844   1.162   5.330
 8359SOL     OW25975   4.030   2.367   5.669
 8359SOL    HW125976   3.976   2.349   5.587
 8359SOL    HW225977   4.119   2.406   5.642
 8360SOL     OW25978   4.341   0.788   1.207
 8360SOL    HW125979   4.405   0.779   1.130
 8360SOL    HW225980   4.391   0.820   1.287
 8361SOL     OW25981   4.002   0.996   0.131
 8361SOL    HW125982   4.052   0.925   0.082
 8361SOL    HW225983   3.938   1.041   0.069
 8362SOL     OW25984   6.629   4.210   1.341
 8362SOL    HW125985   6.549   4.198   1.399
 8362SOL    HW225986   6.609   4.177   1.249
 8363SOL     OW25987   2.801   3.342   0.265
 8363SOL    HW125988   2.798   3.440   0.246
 8363SOL    HW225989   2.895   3.315   0.288
 8364SOL     OW25990   0.411   3.482   4.344
 8364SOL    HW125991   0.489   3.434   4.304
 8364SOL    HW225992   0.388   3.441   4.432
 8365SOL     OW25993   1.239   2.039   2.414
 8365SOL    HW125994   1.236   2.116   2.349
 8365SOL    HW225995   1.147   2.017   2.444
 8366SOL     OW25996   5.134   4.849   2.196
 8366SOL    HW125997   5.208   4.905   2.234
 8366SOL    HW225998   5.047   4.893   2.215
 8367SOL     OW25999   3.639   5.101   4.263
 8367SOL    HW126000   3.733   5.130   4.246
 8367SOL    HW226001   3.578   5.180   4.260
 8368SOL     OW26002   6.318   6.183   6.731
 8368SOL    HW126003   6.337   6.279   6.711
 8368SOL    HW226004   6.388   6.147   6.792
 8369SOL     OW26005   2.684   6.609   1.403
 8369SOL    HW126006   2.722   6.615   1.495
 8369SOL    HW226007   2.595   6.563   1.406
 8370SOL     OW26008   2.379   3.699   6.802
 8370SOL    HW126009   2.307   3.695   6.733
 8370SOL    HW226010   2.398   3.606   6.836
 8371SOL     OW26011   1.709   4.708   5.978
 8371SOL    HW126012   1.727   4.716   6.076
 8371SOL    HW226013   1.788   4.745   5.928
 8372SOL     OW26014   2.608   6.016   2.550
 8372SOL    HW126015   2.599   6.111   2.522
 8372SOL    HW226016   2.526   5.966   2.523
 8373SOL     OW26017   6.780   1.373   4.139
 8373SOL    HW126018   6.723   1.412   4.066
 8373SOL    HW226019   6.747   1.281   4.160
 8374SOL     OW26020   0.979   0.461   4.044
 8374SOL    HW126021   1.058   0.425   4.093
 8374SOL    HW226022   0.948   0.394   3.977
 8375SOL     OW26023   3.162   0.628   4.969
 8375SOL    HW126024   3.219   0.620   4.887
 8375SOL    HW226025   3.219   0.657   5.046
 8376SOL     OW26026   2.042   0.583   2.697
 8376SOL    HW126027   2.058   0.644   2.774
 8376SOL    HW226028   2.106   0.604   2.623
 8377SOL     OW26029   4.771   5.072   0.215
 8377SOL    HW126030   4.713   5.149   0.189
 8377SOL    HW226031   4.809   5.088   0.306
 8378SOL     OW26032   5.299   6.318   3.984
 8378SOL    HW126033   5.284   6.311   3.886
 8378SOL    HW226034   5.389   6.281   4.007
 8379SOL     OW26035   6.022   1.288   1.198
 8379SOL    HW126036   5.972   1.294   1.284
 8379SOL    HW226037   6.007   1.199   1.157
 8380SOL     OW26038   6.798   5.568   0.591
 8380SOL    HW126039   6.716   5.582   0.647
 8380SOL    HW226040   6.830   5.657   0.557
 8381SOL     OW26041   0.424   1.912   2.421
 8381SOL    HW126042   0.484   1.839   2.389
 8381SOL    HW226043   0.328   1.882   2.413
 8382SOL     OW26044   2.041   0.817   1.217
 8382SOL    HW126045   2.094   0.751   1.163
 8382SOL    HW226046   2.101   0.891   1.248
 8383SOL     OW26047   2.914   6.682   6.564
 8383SOL    HW126048   2.966   6.686   6.478
 8383SOL    HW226049   2.978   6.691   6.641
 8384SOL     OW26050   0.419   3.028   2.579
 8384SOL    HW126051   0.508   3.039   2.625
 8384SOL    HW226052   0.346   3.035   2.646
 8385SOL     OW26053   4.018   3.444   1.538
 8385SOL    HW126054   4.009   3.532   1.584
 8385SOL    HW226055   3.934   3.423   1.489
 8386SOL     OW26056   2.625   6.130   2.277
 8386SOL    HW126057   2.672   6.217   2.292
 8386SOL    HW226058   2.692   6.056   2.276
 8387SOL     OW26059   1.785   1.374   2.515
 8387SOL    HW126060   1.746   1.285   2.537
 8387SOL    HW226061   1.874   1.384   2.560
 8388SOL     OW26062   3.955   6.387   1.611
 8388SOL    HW126063   3.924   6.482   1.607
 8388SOL    HW226064   3.977   6.356   1.518
 8389SOL     OW26065   0.366   2.367   4.106
 8389SOL    HW126066   0.337   2.417   4.187
 8389SOL    HW226067   0.431   2.295   4.132
 8390SOL     OW26068   3.430   0.589   5.878
 8390SOL    HW126069   3.495   0.657   5.912
 8390SOL    HW226070   3.455   0.564   5.784
 8391SOL     OW26071   5.443   5.724   0.925
 8391SOL    HW126072   5.535   5.712   0.963
 8391SOL    HW226073   5.439   5.809   0.872
 8392SOL     OW26074   5.496   6.425   5.797
 8392SOL    HW126075   5.433   6.501   5.782
 8392SOL    HW226076   5.516   6.417   5.895
 8393SOL     OW26077   0.024   5.987   2.975
 8393SOL    HW126078   7.017   5.966   2.881
 8393SOL    HW226079   0.119   5.960   2.991
 8394SOL     OW26080   0.844   2.039   2.850
 8394SOL    HW126081   0.868   2.064   2.944
 8394SOL    HW226082   0.855   1.940   2.839
 8395SOL     OW26083   0.393   5.853   5.962
 8395SOL    HW126084   0.424   5.898   5.878
 8395SOL    HW226085   0.454   5.877   6.037
 8396SOL     OW26086   4.611   3.373   1.497
 8396SOL    HW126087   4.611   3.273   1.487
 8396SOL    HW226088   4.531   3.401   1.551
 8397SOL     OW26089   2.470   5.938   3.192
 8397SOL    HW126090   2.478   6.029   3.233
 8397SOL    HW226091   2.424   5.945   3.104
 8398SOL     OW26092   4.962   2.203   0.674
 8398SOL    HW126093   4.891   2.260   0.633
 8398SOL    HW226094   4.921   2.129   0.726
 8399SOL     OW26095   5.762   5.790   0.322
 8399SOL    HW126096   5.723   5.717   0.266
 8399SOL    HW226097   5.733   5.879   0.286
 8400SOL     OW26098   6.198   0.844   3.510
 8400SOL    HW126099   6.230   0.893   3.429
 8400SOL    HW226100   6.114   0.795   3.488
 8401SOL     OW26101   2.876   3.847   6.562
 8401SOL    HW126102   2.830   3.923   6.608
 8401SOL    HW226103   2.852   3.761   6.606
 8402SOL     OW26104   4.259   2.095   0.167
 8402SOL    HW126105   4.304   2.047   0.093
 8402SOL    HW226106   4.163   2.111   0.144
 8403SOL     OW26107   1.689   1.556   4.459
 8403SOL    HW126108   1.757   1.616   4.418
 8403SOL    HW226109   1.732   1.471   4.489
 8404SOL     OW26110   4.370   4.983   5.737
 8404SOL    HW126111   4.351   4.979   5.836
 8404SOL    HW226112   4.309   5.049   5.694
 8405SOL     OW26113   0.693   2.779   5.015
 8405SOL    HW126114   0.690   2.878   5.003
 8405SOL    HW226115   0.672   2.756   5.110
 8406SOL     OW26116   5.568   3.373   1.598
 8406SOL    HW126117   5.552   3.274   1.592
 8406SOL    HW226118   5.481   3.421   1.589
 8407SOL     OW26119   4.845   4.012   2.758
 8407SOL    HW126120   4.865   3.948   2.832
 8407SOL    HW226121   4.859   3.967   2.670
 8408SOL     OW26122   4.781   2.340   4.884
 8408SOL    HW126123   4.699   2.392   4.859
 8408SOL    HW226124   4.828   2.310   4.802
 8409SOL     OW26125   0.443   2.315   3.843
 8409SOL    HW126126   0.420   2.326   3.940
 8409SOL    HW226127   0.388   2.378   3.789
 8410SOL     OW26128   3.980   0.069   1.392
 8410SOL    HW126129   4.009   0.133   1.463
 8410SOL    HW226130   4.016   6.996   1.412
 8411SOL     OW26131   1.772   3.174   4.008
 8411SOL    HW126132   1.763   3.239   3.933
 8411SOL    HW226133   1.788   3.223   4.094
 8412SOL     OW26134   5.889   1.994   3.956
 8412SOL    HW126135   5.816   2.012   3.890
 8412SOL    HW226136   5.958   1.935   3.914
 8413SOL     OW26137   3.383   5.050   0.601
 8413SOL    HW126138   3.404   5.139   0.642
 8413SOL    HW226139   3.414   5.049   0.506
 8414SOL     OW26140   4.115   6.201   2.875
 8414SOL    HW126141   4.172   6.277   2.908
 8414SOL    HW226142   4.080   6.222   2.784
 8415SOL     OW26143   0.000   3.953   2.636
 8415SOL    HW126144   0.099   3.946   2.620
 8415SOL    HW226145   6.990   4.049   2.629
 8416SOL     OW26146   5.470   4.240   2.622
 8416SOL    HW126147   5.447   4.203   2.533
 8416SOL    HW226148   5.487   4.165   2.686
 8417SOL     OW26149   2.480   6.009   5.970
 8417SOL    HW126150   2.388   6.043   5.991
 8417SOL    HW226151   2.548   6.071   6.010
 8418SOL     OW26152   6.389   5.593   2.509
 8418SOL    HW126153   6.344   5.567   2.594
 8418SOL    HW226154   6.327   5.576   2.432
 8419SOL     OW26155   4.486   0.445   3.838
 8419SOL    HW126156   4.568   0.497   3.814
 8419SOL    HW226157   4.510   0.372   3.902
 8420SOL     OW26158   4.092   1.284   6.508
 8420SOL    HW126159   4.070   1.206   6.567
 8420SOL    HW226160   4.170   1.333   6.545
 8421SOL     OW26161   2.428   6.778   1.846
 8421SOL    HW126162   2.494   6.704   1.834
 8421SOL    HW226163   2.370   6.758   1.926
 8422SOL     OW26164   3.957   6.328   1.165
 8422SOL    HW126165   3.998   6.343   1.075
 8422SOL    HW226166   3.861   6.302   1.154
 8423SOL     OW26167   3.237   4.170   1.262
 8423SOL    HW126168   3.218   4.142   1.357
 8423SOL    HW226169   3.222   4.092   1.201
 8424SOL     OW26170   3.479   1.626   2.557
 8424SOL    HW126171   3.417   1.583   2.622
 8424SOL    HW226172   3.426   1.677   2.489
 8425SOL     OW26173   6.244   4.319   0.067
 8425SOL    HW126174   6.221   4.246   0.003
 8425SOL    HW226175   6.257   4.281   0.158
 8426SOL     OW26176   4.007   3.297   3.024
 8426SOL    HW126177   3.938   3.297   3.097
 8426SOL    HW226178   4.069   3.374   3.038
 8427SOL     OW26179   2.102   3.589   6.293
 8427SOL    HW126180   2.190   3.618   6.257
 8427SOL    HW226181   2.046   3.553   6.219
 8428SOL     OW26182   6.138   4.326   2.280
 8428SOL    HW126183   6.221   4.340   2.335
 8428SOL    HW226184   6.061   4.310   2.341
 8429SOL     OW26185   2.354   6.699   2.550
 8429SOL    HW126186   2.444   6.686   2.507
 8429SOL    HW226187   2.317   6.609   2.574
 8430SOL     OW26188   4.521   4.700   3.412
 8430SOL    HW126189   4.618   4.689   3.435
 8430SOL    HW226190   4.496   4.633   3.342
 8431SOL     OW26191   3.703   4.356   1.082
 8431SOL    HW126192   3.627   4.393   1.137
 8431SOL    HW226193   3.676   4.353   0.986
 8432SOL     OW26194   4.095   6.867   0.175
 8432SOL    HW126195   4.094   6.767   0.187
 8432SOL    HW226196   4.188   6.901   0.191
 8433SOL     OW26197   1.215   1.952   5.947
 8433SOL    HW126198   1.157   2.017   5.996
 8433SOL    HW226199   1.274   2.001   5.883
 8434SOL     OW26200   5.315   6.919   5.233
 8434SOL    HW126201   5.292   6.911   5.136
 8434SOL    HW226202   5.409   6.953   5.243
 8435SOL     OW26203   4.722   1.717   1.300
 8435SOL    HW126204   4.623   1.731   1.304
 8435SOL    HW226205   4.746   1.684   1.209
 8436SOL     OW26206   3.979   4.452   1.527
 8436SOL    HW126207   4.047   4.464   1.600
 8436SOL    HW226208   4.013   4.494   1.443
 8437SOL     OW26209   0.423   1.168   1.251
 8437SOL    HW126210   0.428   1.069   1.263
 8437SOL    HW226211   0.512   1.201   1.218
 8438SOL     OW26212   1.461   6.758   1.681
 8438SOL    HW126213   1.381   6.739   1.624
 8438SOL    HW226214   1.432   6.798   1.768
 8439SOL     OW26215   0.352   5.809   2.396
 8439SOL    HW126216   0.270   5.861   2.419
 8439SOL    HW226217   0.360   5.731   2.458
 8440SOL     OW26218   0.397   1.155   2.946
 8440SOL    HW126219   0.449   1.153   3.032
 8440SOL    HW226220   0.299   1.149   2.966
 8441SOL     OW26221   4.898   5.638   6.414
 8441SOL    HW126222   4.820   5.587   6.451
 8441SOL    HW226223   4.877   5.667   6.320
 8442SOL     OW26224   2.208   4.763   6.931
 8442SOL    HW126225   2.206   4.863   6.932
 8442SOL    HW226226   2.287   4.731   6.983
 8443SOL     OW26227   1.808   0.816   2.655
 8443SOL    HW126228   1.787   0.844   2.749
 8443SOL    HW226229   1.899   0.774   2.652
 8444SOL     OW26230   3.285   6.091   3.498
 8444SOL    HW126231   3.356   6.162   3.493
 8444SOL    HW226232   3.201   6.126   3.458
 8445SOL     OW26233   4.008   4.863   2.118
 8445SOL    HW126234   4.064   4.885   2.198
 8445SOL    HW226235   3.923   4.915   2.122
 8446SOL     OW26236   5.848   4.706   2.831
 8446SOL    HW126237   5.887   4.624   2.872
 8446SOL    HW226238   5.839   4.777   2.901
 8447SOL     OW26239   4.507   2.520   1.991
 8447SOL    HW126240   4.417   2.504   1.951
 8447SOL    HW226241   4.578   2.491   1.927
 8448SOL     OW26242   0.965   3.040   6.621
 8448SOL    HW126243   0.952   3.048   6.720
 8448SOL    HW226244   0.902   2.972   6.583
 8449SOL     OW26245   1.609   2.780   4.766
 8449SOL    HW126246   1.594   2.691   4.725
 8449SOL    HW226247   1.707   2.800   4.766
 8450SOL     OW26248   2.255   5.232   2.130
 8450SOL    HW126249   2.195   5.160   2.165
 8450SOL    HW226250   2.254   5.310   2.193
 8451SOL     OW26251   3.424   2.808   0.777
 8451SOL    HW126252   3.441   2.887   0.718
 8451SOL    HW226253   3.492   2.805   0.850
 8452SOL     OW26254   6.568   6.084   0.526
 8452SOL    HW126255   6.645   6.136   0.563
 8452SOL    HW226256   6.483   6.134   0.543
 8453SOL     OW26257   6.592   4.275   6.450
 8453SOL    HW126258   6.537   4.280   6.367
 8453SOL    HW226259   6.540   4.229   6.522
 8454SOL     OW26260   1.603   0.369   4.384
 8454SOL    HW126261   1.519   0.316   4.370
 8454SOL    HW226262   1.682   0.307   4.381
 8455SOL     OW26263   4.955   1.100   1.347
 8455SOL    HW126264   5.035   1.050   1.379
 8455SOL    HW226265   4.965   1.197   1.368
 8456SOL     OW26266   5.566   5.822   3.021
 8456SOL    HW126267   5.533   5.885   3.092
 8456SOL    HW226268   5.489   5.796   2.962
 8457SOL     OW26269   0.181   6.006   6.342
 8457SOL    HW126270   0.186   5.996   6.243
 8457SOL    HW226271   0.261   5.963   6.385
 8458SOL     OW26272   1.499   1.627   0.955
 8458SOL    HW126273   1.512   1.568   0.875
 8458SOL    HW226274   1.430   1.696   0.935
 8459SOL     OW26275   3.205   5.576   2.246
 8459SOL    HW126276   3.107   5.582   2.266
 8459SOL    HW226277   3.219   5.570   2.147
 8460SOL     OW26278   4.551   1.538   0.935
 8460SOL    HW126279   4.509   1.572   0.851
 8460SOL    HW226280   4.487   1.548   1.011
 8461SOL     OW26281   6.349   4.105   1.865
 8461SOL    HW126282   6.293   4.113   1.783
 8461SOL    HW226283   6.312   4.032   1.924
 8462SOL     OW26284   2.870   4.968   6.856
 8462SOL    HW126285   2.966   4.943   6.846
 8462SOL    HW226286   2.818   4.888   6.886
 8463SOL     OW26287   6.470   1.176   0.173
 8463SOL    HW126288   6.392   1.121   0.202
 8463SOL    HW226289   6.502   1.143   0.084
 8464SOL     OW26290   0.252   3.404   0.155
 8464SOL    HW126291   0.287   3.449   0.073
 8464SOL    HW226292   0.268   3.461   0.235
 8465SOL     OW26293   4.014   3.235   1.046
 8465SOL    HW126294   4.074   3.237   1.126
 8465SOL    HW226295   3.919   3.227   1.076
 8466SOL     OW26296   6.065   0.806   5.875
 8466SOL    HW126297   6.125   0.739   5.920
 8466SOL    HW226298   5.992   0.832   5.938
 8467SOL     OW26299   3.353   1.005   1.037
 8467SOL    HW126300   3.353   0.924   1.096
 8467SOL    HW226301   3.445   1.044   1.034
 8468SOL     OW26302   6.280   3.185   0.689
 8468SOL    HW126303   6.193   3.210   0.731
 8468SOL    HW226304   6.325   3.267   0.654
 8469SOL     OW26305   4.128   3.063   5.917
 8469SOL    HW126306   4.171   3.145   5.956
 8469SOL    HW226307   4.060   3.091   5.849
 8470SOL     OW26308   1.564   5.107   1.630
 8470SOL    HW126309   1.600   5.064   1.547
 8470SOL    HW226310   1.477   5.151   1.610
 8471SOL     OW26311   3.567   2.129   5.111
 8471SOL    HW126312   3.515   2.172   5.185
 8471SOL    HW226313   3.625   2.057   5.148
 8472SOL     OW26314   5.901   1.297   5.792
 8472SOL    HW126315   5.991   1.294   5.748
 8472SOL    HW226316   5.889   1.385   5.838
 8473SOL     OW26317   4.681   4.672   6.489
 8473SOL    HW126318   4.664   4.770   6.481
 8473SOL    HW226319   4.735   4.641   6.411
 8474SOL     OW26320   3.730   3.743   2.594
 8474SOL    HW126321   3.684   3.757   2.681
 8474SOL    HW226322   3.796   3.816   2.578
 8475SOL     OW26323   6.547   2.967   2.200
 8475SOL    HW126324   6.569   2.925   2.112
 8475SOL    HW226325   6.453   3.001   2.199
 8476SOL     OW26326   6.207   0.068   2.016
 8476SOL    HW126327   6.116   0.093   2.049
 8476SOL    HW226328   6.210   0.076   1.917
 8477SOL     OW26329   5.832   6.472   1.660
 8477SOL    HW126330   5.796   6.555   1.617
 8477SOL    HW226331   5.818   6.476   1.758
 8478SOL     OW26332   6.571   0.205   5.664
 8478SOL    HW126333   6.662   0.172   5.690
 8478SOL    HW226334   6.560   0.199   5.565
 8479SOL     OW26335   0.654   2.744   1.668
 8479SOL    HW126336   0.639   2.831   1.715
 8479SOL    HW226337   0.733   2.753   1.607
 8480SOL     OW26338   4.977   4.291   0.545
 8480SOL    HW126339   5.021   4.381   0.539
 8480SOL    HW226340   4.962   4.268   0.641
 8481SOL     OW26341   3.981   2.117   3.555
 8481SOL    HW126342   4.029   2.172   3.624
 8481SOL    HW226343   4.045   2.055   3.510
 8482SOL     OW26344   4.240   1.132   0.575
 8482SOL    HW126345   4.232   1.033   0.589
 8482SOL    HW226346   4.219   1.153   0.480
 8483SOL     OW26347   3.122   5.248   3.627
 8483SOL    HW126348   3.115   5.220   3.532
 8483SOL    HW226349   3.031   5.258   3.666
 8484SOL     OW26350   5.573   5.818   4.011
 8484SOL    HW126351   5.586   5.853   3.918
 8484SOL    HW226352   5.612   5.727   4.018
 8485SOL     OW26353   2.769   2.873   0.500
 8485SOL    HW126354   2.680   2.881   0.546
 8485SOL    HW226355   2.812   2.963   0.497
 8486SOL     OW26356   0.909   1.115   2.669
 8486SOL    HW126357   0.888   1.170   2.749
 8486SOL    HW226358   0.907   1.173   2.587
 8487SOL     OW26359   6.370   1.662   5.720
 8487SOL    HW126360   6.336   1.619   5.636
 8487SOL    HW226361   6.463   1.694   5.706
 8488SOL     OW26362   4.937   4.556   1.774
 8488SOL    HW126363   4.866   4.504   1.820
 8488SOL    HW226364   4.936   4.535   1.676
 8489SOL     OW26365   4.947   1.336   1.841
 8489SOL    HW126366   4.916   1.336   1.746
 8489SOL    HW226367   4.958   1.241   1.872
 8490SOL     OW26368   2.190   0.360   0.024
 8490SOL    HW126369   2.203   0.394   6.949
 8490SOL    HW226370   2.276   0.368   0.074
 8491SOL     OW26371   3.364   5.322   2.553
 8491SOL    HW126372   3.362   5.356   2.459
 8491SOL    HW226373   3.283   5.354   2.602
 8492SOL     OW26374   6.632   5.690   4.226
 8492SOL    HW126375   6.617   5.780   4.267
 8492SOL    HW226376   6.699   5.698   4.152
 8493SOL     OW26377   3.886   0.664   7.001
 8493SOL    HW126378   3.886   0.570   6.967
 8493SOL    HW226379   3.861   0.727   6.928
 8494SOL     OW26380   6.572   5.316   2.248
 8494SOL    HW126381   6.481   5.351   2.224
 8494SOL    HW226382   6.591   5.337   2.344
 8495SOL     OW26383   6.602   5.588   0.348
 8495SOL    HW126384   6.689   5.604   0.394
 8495SOL    HW226385   6.584   5.663   0.284
 8496SOL     OW26386   4.983   2.596   2.570
 8496SOL    HW126387   4.900   2.572   2.619
 8496SOL    HW226388   4.973   2.574   2.473
 8497SOL     OW26389   5.969   0.984   3.847
 8497SOL    HW126390   5.955   0.887   3.868
 8497SOL    HW226391   5.907   1.040   3.901
 8498SOL     OW26392   5.101   0.560   4.395
 8498SOL    HW126393   5.115   0.462   4.388
 8498SOL    HW226394   5.039   0.580   4.471
 8499SOL     OW26395   6.487   6.641   6.091
 8499SOL    HW126396   6.494   6.542   6.074
 8499SOL    HW226397   6.402   6.676   6.052
 8500SOL     OW26398   1.369   0.750   4.637
 8500SOL    HW126399   1.320   0.697   4.706
 8500SOL    HW226400   1.464   0.718   4.632
 8501SOL     OW26401   1.053   2.142   6.055
 8501SOL    HW126402   0.969   2.114   6.101
 8501SOL    HW226403   1.033   2.217   5.992
 8502SOL     OW26404   0.620   2.820   7.016
 8502SOL    HW126405   0.604   2.876   6.935
 8502SOL    HW226406   0.718   2.797   0.004
 8503SOL     OW26407   5.698   0.339   4.083
 8503SOL    HW126408   5.683   0.389   4.168
 8503SOL    HW226409   5.620   0.279   4.065
 8504SOL     OW26410   1.726   5.768   2.094
 8504SOL    HW126411   1.691   5.858   2.121
 8504SOL    HW226412   1.792   5.736   2.161
 8505SOL     OW26413   5.320   3.011   2.812
 8505SOL    HW126414   5.418   2.992   2.802
 8505SOL    HW226415   5.288   3.063   2.732
 8506SOL     OW26416   1.971   0.224   0.146
 8506SOL    HW126417   2.057   0.272   0.129
 8506SOL    HW226418   1.988   0.148   0.210
 8507SOL     OW26419   4.404   6.200   5.805
 8507SOL    HW126420   4.498   6.234   5.797
 8507SOL    HW226421   4.342   6.277   5.815
 8508SOL     OW26422   3.366   1.848   0.040
 8508SOL    HW126423   3.393   1.753   0.023
 8508SOL    HW226424   3.267   1.856   0.035
 8509SOL     OW26425   5.442   0.739   3.717
 8509SOL    HW126426   5.433   0.817   3.779
 8509SOL    HW226427   5.365   0.737   3.654
 8510SOL     OW26428   6.643   2.149   4.668
 8510SOL    HW126429   6.672   2.084   4.598
 8510SOL    HW226430   6.550   2.128   4.696
 8511SOL     OW26431   5.796   2.841   1.951
 8511SOL    HW126432   5.813   2.916   1.887
 8511SOL    HW226433   5.768   2.760   1.901
 8512SOL     OW26434   1.789   0.125   4.878
 8512SOL    HW126435   1.804   0.196   4.947
 8512SOL    HW226436   1.786   0.036   4.923
 8513SOL     OW26437   5.153   5.728   6.294
 8513SOL    HW126438   5.067   5.779   6.295
 8513SOL    HW226439   5.139   5.639   6.250
 8514SOL     OW26440   2.423   5.851   3.716
 8514SOL    HW126441   2.479   5.912   3.660
 8514SOL    HW226442   2.477   5.818   3.794
 8515SOL     OW26443   4.756   2.140   1.267
 8515SOL    HW126444   4.836   2.191   1.238
 8515SOL    HW226445   4.673   2.193   1.248
 8516SOL     OW26446   0.097   2.043   2.147
 8516SOL    HW126447   0.130   2.037   2.053
 8516SOL    HW226448   0.000   2.070   2.147
 8517SOL     OW26449   2.286   2.704   6.568
 8517SOL    HW126450   2.338   2.634   6.617
 8517SOL    HW226451   2.346   2.749   6.502
 8518SOL     OW26452   3.789   5.316   0.315
 8518SOL    HW126453   3.841   5.259   0.252
 8518SOL    HW226454   3.754   5.260   0.390
 8519SOL     OW26455   1.306   5.182   3.012
 8519SOL    HW126456   1.352   5.266   2.984
 8519SOL    HW226457   1.207   5.197   3.016
 8520SOL     OW26458   3.606   0.866   0.439
 8520SOL    HW126459   3.600   0.815   0.525
 8520SOL    HW226460   3.698   0.856   0.402
 8521SOL     OW26461   1.119   6.150   6.229
 8521SOL    HW126462   1.163   6.070   6.186
 8521SOL    HW226463   1.122   6.140   6.328
 8522SOL     OW26464   1.622   5.757   5.023
 8522SOL    HW126465   1.703   5.815   5.030
 8522SOL    HW226466   1.581   5.745   5.113
 8523SOL     OW26467   1.332   0.059   6.793
 8523SOL    HW126468   1.409   7.014   6.778
 8523SOL    HW226469   1.351   0.146   6.749
 8524SOL     OW26470   1.058   2.883   6.133
 8524SOL    HW126471   1.087   2.906   6.226
 8524SOL    HW226472   1.139   2.876   6.074
 8525SOL     OW26473   5.601   3.009   2.707
 8525SOL    HW126474   5.619   2.981   2.613
 8525SOL    HW226475   5.671   3.075   2.736
 8526SOL     OW26476   1.934   2.975   2.425
 8526SOL    HW126477   2.010   3.024   2.383
 8526SOL    HW226478   1.855   3.035   2.433
 8527SOL     OW26479   4.386   0.970   4.621
 8527SOL    HW126480   4.386   0.888   4.564
 8527SOL    HW226481   4.355   1.049   4.567
 8528SOL     OW26482   4.932   2.420   6.368
 8528SOL    HW126483   4.982   2.497   6.329
 8528SOL    HW226484   4.915   2.437   6.465
 8529SOL     OW26485   0.180   4.705   0.274
 8529SOL    HW126486   0.270   4.713   0.318
 8529SOL    HW226487   0.193   4.693   0.175
 8530SOL     OW26488   1.703   3.560   5.639
 8530SOL    HW126489   1.657   3.647   5.621
 8530SOL    HW226490   1.734   3.520   5.553
 8531SOL     OW26491   4.638   4.715   2.880
 8531SOL    HW126492   4.569   4.656   2.924
 8531SOL    HW226493   4.598   4.755   2.797
 8532SOL     OW26494   1.917   4.042   5.894
 8532SOL    HW126495   1.989   3.973   5.898
 8532SOL    HW226496   1.848   4.022   5.964
 8533SOL     OW26497   3.493   0.240   5.457
 8533SOL    HW126498   3.574   0.282   5.499
 8533SOL    HW226499   3.487   0.269   5.362
 8534SOL     OW26500   1.574   2.588   3.152
 8534SOL    HW126501   1.549   2.628   3.064
 8534SOL    HW226502   1.546   2.650   3.225
 8535SOL     OW26503   0.014   2.371   4.417
 8535SOL    HW126504   7.002   2.289   4.369
 8535SOL    HW226505   6.957   2.405   4.475
 8536SOL     OW26506   0.291   1.698   5.835
 8536SOL    HW126507   0.262   1.783   5.880
 8536SOL    HW226508   0.333   1.719   5.747
 8537SOL     OW26509   5.412   0.491   2.043
 8537SOL    HW126510   5.313   0.507   2.040
 8537SOL    HW226511   5.434   0.410   1.989
 8538SOL     OW26512   5.772   1.348   4.642
 8538SOL    HW126513   5.708   1.272   4.637
 8538SOL    HW226514   5.815   1.362   4.553
 8539SOL     OW26515   6.896   3.515   2.503
 8539SOL    HW126516   6.920   3.469   2.589
 8539SOL    HW226517   6.843   3.598   2.523
 8540SOL     OW26518   4.626   0.374   0.088
 8540SOL    HW126519   4.672   0.405   0.172
 8540SOL    HW226520   4.553   0.437   0.064
 8541SOL     OW26521   3.380   6.944   5.026
 8541SOL    HW126522   3.329   6.958   5.111
 8541SOL    HW226523   3.476   6.969   5.040
 8542SOL     OW26524   1.239   4.534   6.435
 8542SOL    HW126525   1.318   4.508   6.379
 8542SOL    HW226526   1.229   4.634   6.434
 8543SOL     OW26527   2.106   2.026   6.315
 8543SOL    HW126528   2.006   2.034   6.312
 8543SOL    HW226529   2.130   1.933   6.343
 8544SOL     OW26530   5.664   4.301   5.633
 8544SOL    HW126531   5.565   4.290   5.633
 8544SOL    HW226532   5.690   4.368   5.564
 8545SOL     OW26533   2.978   0.459   6.737
 8545SOL    HW126534   3.008   0.384   6.796
 8545SOL    HW226535   3.002   0.437   6.642
 8546SOL     OW26536   5.196   6.884   1.058
 8546SOL    HW126537   5.230   6.930   0.975
 8546SOL    HW226538   5.146   6.950   1.114
 8547SOL     OW26539   6.260   5.901   5.349
 8547SOL    HW126540   6.252   5.859   5.440
 8547SOL    HW226541   6.223   5.994   5.352
 8548SOL     OW26542   0.325   2.979   5.698
 8548SOL    HW126543   0.340   3.038   5.778
 8548SOL    HW226544   0.240   3.006   5.653
 8549SOL     OW26545   1.897   0.221   3.592
 8549SOL    HW126546   1.940   0.178   3.672
 8549SOL    HW226547   1.877   0.151   3.524
 8550SOL     OW26548   6.799   4.232   6.202
 8550SOL    HW126549   6.758   4.323   6.212
 8550SOL    HW226550   6.870   4.220   6.271
 8551SOL     OW26551   1.807   1.300   6.406
 8551SOL    HW126552   1.777   1.287   6.500
 8551SOL    HW226553   1.738   1.264   6.343
 8552SOL     OW26554   3.120   1.790   3.463
 8552SOL    HW126555   3.162   1.835   3.384
 8552SOL    HW226556   3.060   1.717   3.431
 8553SOL     OW26557   4.790   3.547   6.897
 8553SOL    HW126558   4.715   3.555   6.963
 8553SOL    HW226559   4.753   3.532   6.806
 8554SOL     OW26560   1.740   1.226   1.119
 8554SOL    HW126561   1.727   1.167   1.198
 8554SOL    HW226562   1.773   1.315   1.149
 8555SOL     OW26563   4.303   1.501   4.003
 8555SOL    HW126564   4.248   1.420   4.024
 8555SOL    HW226565   4.253   1.583   4.032
 8556SOL     OW26566   2.042   6.281   0.356
 8556SOL    HW126567   2.111   6.353   0.362
 8556SOL    HW226568   2.079   6.203   0.305
 8557SOL     OW26569   0.374   0.513   0.114
 8557SOL    HW126570   0.304   0.475   0.174
 8557SOL    HW226571   0.463   0.474   0.139
 8558SOL     OW26572   3.166   5.967   4.658
 8558SOL    HW126573   3.153   5.925   4.569
 8558SOL    HW226574   3.083   5.956   4.713
 8559SOL     OW26575   1.410   4.839   2.650
 8559SOL    HW126576   1.396   4.740   2.654
 8559SOL    HW226577   1.379   4.881   2.735
 8560SOL     OW26578   3.258   4.475   1.526
 8560SOL    HW126579   3.210   4.392   1.497
 8560SOL    HW226580   3.203   4.524   1.593
 8561SOL     OW26581   4.804   0.630   2.330
 8561SOL    HW126582   4.899   0.659   2.343
 8561SOL    HW226583   4.743   0.703   2.360
 8562SOL     OW26584   4.974   1.544   6.604
 8562SOL    HW126585   4.881   1.511   6.622
 8562SOL    HW226586   5.027   1.472   6.559
 8563SOL     OW26587   2.368   5.112   1.920
 8563SOL    HW126588   2.404   5.024   1.952
 8563SOL    HW226589   2.326   5.161   1.996
 8564SOL     OW26590   4.254   0.363   7.005
 8564SOL    HW126591   4.194   0.400   6.935
 8564SOL    HW226592   4.312   0.436   0.023
 8565SOL     OW26593   2.449   4.573   0.999
 8565SOL    HW126594   2.405   4.619   0.922
 8565SOL    HW226595   2.385   4.567   1.076
 8566SOL     OW26596   3.588   1.249   2.518
 8566SOL    HW126597   3.626   1.276   2.430
 8566SOL    HW226598   3.659   1.254   2.588
 8567SOL     OW26599   1.973   2.922   2.116
 8567SOL    HW126600   1.874   2.937   2.113
 8567SOL    HW226601   1.993   2.842   2.173
 8568SOL     OW26602   5.879   0.252   6.555
 8568SOL    HW126603   5.876   0.227   6.651
 8568SOL    HW226604   5.959   0.310   6.537
 8569SOL     OW26605   4.727   2.045   6.214
 8569SOL    HW126606   4.662   1.987   6.165
 8569SOL    HW226607   4.817   2.000   6.214
 8570SOL     OW26608   1.631   2.292   3.113
 8570SOL    HW126609   1.633   2.391   3.127
 8570SOL    HW226610   1.725   2.257   3.114
 8571SOL     OW26611   1.298   0.900   2.566
 8571SOL    HW126612   1.228   0.833   2.590
 8571SOL    HW226613   1.389   0.860   2.581
 8572SOL     OW26614   2.665   4.551   5.507
 8572SOL    HW126615   2.679   4.477   5.441
 8572SOL    HW226616   2.690   4.520   5.598
 8573SOL     OW26617   4.166   6.289   0.352
 8573SOL    HW126618   4.249   6.325   0.393
 8573SOL    HW226619   4.185   6.257   0.259
 8574SOL     OW26620   5.389   0.822   4.833
 8574SOL    HW126621   5.321   0.767   4.785
 8574SOL    HW226622   5.467   0.764   4.858
 8575SOL     OW26623   3.204   5.803   3.528
 8575SOL    HW126624   3.171   5.779   3.436
 8575SOL    HW226625   3.253   5.890   3.524
 8576SOL     OW26626   1.344   4.698   3.392
 8576SOL    HW126627   1.413   4.743   3.335
 8576SOL    HW226628   1.256   4.745   3.381
 8577SOL     OW26629   1.734   1.767   0.790
 8577SOL    HW126630   1.655   1.722   0.832
 8577SOL    HW226631   1.744   1.736   0.695
 8578SOL     OW26632   6.961   6.466   6.363
 8578SOL    HW126633   7.015   6.448   6.281
 8578SOL    HW226634   6.866   6.485   6.338
 8579SOL     OW26635   3.278   6.196   2.834
 8579SOL    HW126636   3.377   6.206   2.831
 8579SOL    HW226637   3.252   6.106   2.797
 8580SOL     OW26638   2.362   0.435   1.140
 8580SOL    HW126639   2.433   0.367   1.123
 8580SOL    HW226640   2.402   0.527   1.143
 8581SOL     OW26641   3.173   5.109   1.456
 8581SOL    HW126642   3.236   5.035   1.433
 8581SOL    HW226643   3.140   5.152   1.372
 8582SOL     OW26644   3.752   4.630   6.027
 8582SOL    HW126645   3.705   4.645   6.114
 8582SOL    HW226646   3.752   4.714   5.973
 8583SOL     OW26647   4.562   0.384   2.717
 8583SOL    HW126648   4.471   0.373   2.755
 8583SOL    HW226649   4.588   0.302   2.666
 8584SOL     OW26650   6.610   1.620   4.728
 8584SOL    HW126651   6.581   1.715   4.737
 8584SOL    HW226652   6.537   1.560   4.760
 8585SOL     OW26653   4.820   2.266   2.377
 8585SOL    HW126654   4.808   2.290   2.473
 8585SOL    HW226655   4.847   2.347   2.326
 8586SOL     OW26656   6.430   5.932   0.320
 8586SOL    HW126657   6.482   5.969   0.397
 8586SOL    HW226658   6.333   5.927   0.345
 8587SOL     OW26659   1.061   1.838   6.770
 8587SOL    HW126660   1.105   1.928   6.773
 8587SOL    HW226661   1.113   1.777   6.711
 8588SOL     OW26662   2.117   1.530   6.729
 8588SOL    HW126663   2.150   1.594   6.659
 8588SOL    HW226664   2.195   1.480   6.768
 8589SOL     OW26665   6.524   2.369   6.506
 8589SOL    HW126666   6.491   2.457   6.473
 8589SOL    HW226667   6.566   2.381   6.596
 8590SOL     OW26668   1.293   1.422   3.910
 8590SOL    HW126669   1.237   1.454   3.987
 8590SOL    HW226670   1.355   1.350   3.941
 8591SOL     OW26671   6.443   4.179   6.683
 8591SOL    HW126672   6.410   4.086   6.696
 8591SOL    HW226673   6.379   4.243   6.725
 8592SOL     OW26674   0.945   1.754   5.878
 8592SOL    HW126675   0.954   1.785   5.973
 8592SOL    HW226676   0.848   1.752   5.853
 8593SOL     OW26677   4.131   1.403   0.285
 8593SOL    HW126678   4.051   1.429   0.339
 8593SOL    HW226679   4.101   1.358   0.200
 8594SOL     OW26680   6.386   3.016   5.424
 8594SOL    HW126681   6.459   2.970   5.475
 8594SOL    HW226682   6.414   3.110   5.404
 8595SOL     OW26683   6.150   6.767   2.441
 8595SOL    HW126684   6.081   6.780   2.369
 8595SOL    HW226685   6.240   6.788   2.404
 8596SOL     OW26686   0.986   1.645   3.936
 8596SOL    HW126687   1.034   1.697   3.865
 8596SOL    HW226688   1.052   1.615   4.004
 8597SOL     OW26689   5.696   3.185   6.927
 8597SOL    HW126690   5.606   3.209   6.891
 8597SOL    HW226691   5.760   3.172   6.852
 8598SOL     OW26692   5.865   6.757   4.077
 8598SOL    HW126693   5.768   6.755   4.101
 8598SOL    HW226694   5.911   6.826   4.132
 8599SOL     OW26695   0.576   3.352   3.965
 8599SOL    HW126696   0.533   3.410   3.897
 8599SOL    HW226697   0.600   3.264   3.924
 8600SOL     OW26698   4.161   2.298   1.105
 8600SOL    HW126699   4.232   2.268   1.041
 8600SOL    HW226700   4.172   2.395   1.125
 8601SOL     OW26701   0.987   6.643   3.110
 8601SOL    HW126702   0.961   6.687   3.023
 8601SOL    HW226703   1.072   6.593   3.097
 8602SOL     OW26704   2.712   6.429   5.077
 8602SOL    HW126705   2.781   6.358   5.091
 8602SOL    HW226706   2.622   6.387   5.072
 8603SOL     OW26707   0.167   0.296   0.088
 8603SOL    HW126708   0.259   0.273   0.055
 8603SOL    HW226709   0.168   0.299   0.188
 8604SOL     OW26710   0.209   4.543   5.886
 8604SOL    HW126711   0.234   4.553   5.790
 8604SOL    HW226712   0.222   4.631   5.933
 8605SOL     OW26713   6.814   5.429   4.288
 8605SOL    HW126714   6.822   5.345   4.341
 8605SOL    HW226715   6.774   5.501   4.345
 8606SOL     OW26716   1.593   2.493   0.395
 8606SOL    HW126717   1.565   2.433   0.320
 8606SOL    HW226718   1.691   2.509   0.391
 8607SOL     OW26719   2.627   4.186   1.388
 8607SOL    HW126720   2.625   4.100   1.336
 8607SOL    HW226721   2.722   4.213   1.403
 8608SOL     OW26722   2.177   5.184   2.817
 8608SOL    HW126723   2.225   5.211   2.901
 8608SOL    HW226724   2.140   5.092   2.828
 8609SOL     OW26725   4.626   1.167   4.393
 8609SOL    HW126726   4.547   1.222   4.364
 8609SOL    HW226727   4.709   1.204   4.351
 8610SOL     OW26728   0.216   6.017   3.247
 8610SOL    HW126729   0.283   5.984   3.181
 8610SOL    HW226730   0.175   6.103   3.215
 8611SOL     OW26731   3.208   1.528   5.113
 8611SOL    HW126732   3.280   1.461   5.098
 8611SOL    HW226733   3.162   1.548   5.026
 8612SOL     OW26734   3.822   3.913   4.040
 8612SOL    HW126735   3.799   3.961   3.955
 8612SOL    HW226736   3.840   3.980   4.112
 8613SOL     OW26737   3.992   2.920   1.832
 8613SOL    HW126738   4.026   2.993   1.891
 8613SOL    HW226739   3.896   2.938   1.808
 8614SOL     OW26740   1.563   1.978   2.946
 8614SOL    HW126741   1.502   1.918   2.996
 8614SOL    HW226742   1.550   1.965   2.848
 8615SOL     OW26743   4.089   1.550   4.497
 8615SOL    HW126744   4.167   1.580   4.443
 8615SOL    HW226745   4.058   1.624   4.556
 8616SOL     OW26746   4.726   4.177   2.917
 8616SOL    HW126747   4.745   4.106   2.849
 8616SOL    HW226748   4.668   4.248   2.877
 8617SOL     OW26749   3.189   0.308   3.892
 8617SOL    HW126750   3.286   0.326   3.877
 8617SOL    HW226751   3.156   0.243   3.824
 8618SOL     OW26752   5.834   4.771   0.431
 8618SOL    HW126753   5.853   4.727   0.519
 8618SOL    HW226754   5.918   4.775   0.377
 8619SOL     OW26755   5.077   4.937   0.593
 8619SOL    HW126756   5.176   4.944   0.597
 8619SOL    HW226757   5.050   4.841   0.600
 8620SOL     OW26758   1.959   0.448   4.658
 8620SOL    HW126759   2.023   0.442   4.735
 8620SOL    HW226760   1.896   0.524   4.673
 8621SOL     OW26761   5.707   2.823   1.510
 8621SOL    HW126762   5.778   2.810   1.441
 8621SOL    HW226763   5.742   2.793   1.599
 8622SOL     OW26764   6.673   5.187   2.768
 8622SOL    HW126765   6.609   5.163   2.841
 8622SOL    HW226766   6.693   5.285   2.773
 8623SOL     OW26767   0.759   3.556   4.008
 8623SOL    HW126768   0.705   3.474   3.990
 8623SOL    HW226769   0.800   3.588   3.922
 8624SOL     OW26770   2.917   3.896   4.921
 8624SOL    HW126771   2.984   3.822   4.915
 8624SOL    HW226772   2.857   3.894   4.841
 8625SOL     OW26773   4.478   2.819   5.711
 8625SOL    HW126774   4.504   2.812   5.615
 8625SOL    HW226775   4.401   2.882   5.720
 8626SOL     OW26776   3.968   4.366   0.751
 8626SOL    HW126777   4.020   4.280   0.755
 8626SOL    HW226778   3.914   4.368   0.667
 8627SOL     OW26779   1.745   0.520   1.918
 8627SOL    HW126780   1.802   0.509   1.999
 8627SOL    HW226781   1.648   0.522   1.944
 8628SOL     OW26782   0.749   6.209   0.805
 8628SOL    HW126783   0.812   6.160   0.744
 8628SOL    HW226784   0.696   6.143   0.858
 8629SOL     OW26785   6.672   6.845   5.612
 8629SOL    HW126786   6.747   6.896   5.655
 8629SOL    HW226787   6.695   6.747   5.610
 8630SOL     OW26788   5.383   3.125   2.398
 8630SOL    HW126789   5.394   3.117   2.299
 8630SOL    HW226790   5.386   3.033   2.439
 8631SOL     OW26791   2.653   0.024   0.384
 8631SOL    HW126792   2.696   6.965   0.431
 8631SOL    HW226793   2.724   0.078   0.338
 8632SOL     OW26794   5.244   4.737   5.547
 8632SOL    HW126795   5.206   4.754   5.457
 8632SOL    HW226796   5.333   4.782   5.555
 8633SOL     OW26797   5.564   4.025   6.369
 8633SOL    HW126798   5.509   4.100   6.406
 8633SOL    HW226799   5.532   3.938   6.407
 8634SOL     OW26800   4.390   3.612   0.242
 8634SOL    HW126801   4.413   3.678   0.313
 8634SOL    HW226802   4.322   3.548   0.278
 8635SOL     OW26803   5.569   2.254   6.066
 8635SOL    HW126804   5.580   2.201   6.150
 8635SOL    HW226805   5.553   2.350   6.089
 8636SOL     OW26806   5.093   0.056   1.221
 8636SOL    HW126807   5.075   0.025   1.314
 8636SOL    HW226808   5.061   0.151   1.211
 8637SOL     OW26809   1.476   2.072   0.444
 8637SOL    HW126810   1.554   2.073   0.383
 8637SOL    HW226811   1.484   1.995   0.508
 8638SOL     OW26812   4.817   2.399   4.235
 8638SOL    HW126813   4.827   2.456   4.316
 8638SOL    HW226814   4.743   2.434   4.178
 8639SOL     OW26815   3.319   4.146   6.846
 8639SOL    HW126816   3.253   4.165   6.774
 8639SOL    HW226817   3.308   4.052   6.879
 8640SOL     OW26818   2.955   3.215   1.473
 8640SOL    HW126819   2.979   3.191   1.379
 8640SOL    HW226820   2.948   3.132   1.528
 8641SOL     OW26821   4.217   6.477   2.515
 8641SOL    HW126822   4.254   6.562   2.552
 8641SOL    HW226823   4.253   6.462   2.423
 8642SOL     OW26824   1.288   5.717   3.817
 8642SOL    HW126825   1.229   5.718   3.897
 8642SOL    HW226826   1.236   5.745   3.736
 8643SOL     OW26827   4.003   5.830   1.297
 8643SOL    HW126828   4.077   5.878   1.251
 8643SOL    HW226829   3.989   5.868   1.388
 8644SOL     OW26830   6.587   1.714   6.798
 8644SOL    HW126831   6.685   1.729   6.786
 8644SOL    HW226832   6.568   1.691   6.893
 8645SOL     OW26833   5.734   3.834   2.326
 8645SOL    HW126834   5.665   3.898   2.360
 8645SOL    HW226835   5.754   3.766   2.397
 8646SOL     OW26836   0.308   2.129   5.154
 8646SOL    HW126837   0.237   2.158   5.218
 8646SOL    HW226838   0.266   2.097   5.070
 8647SOL     OW26839   2.514   5.531   1.794
 8647SOL    HW126840   2.479   5.604   1.736
 8647SOL    HW226841   2.502   5.557   1.890
 8648SOL     OW26842   5.201   5.292   0.214
 8648SOL    HW126843   5.222   5.194   0.214
 8648SOL    HW226844   5.113   5.307   0.260
 8649SOL     OW26845   4.392   0.201   1.523
 8649SOL    HW126846   4.358   0.212   1.616
 8649SOL    HW226847   4.328   0.244   1.459
 8650SOL     OW26848   1.862   6.886   4.384
 8650SOL    HW126849   1.958   6.873   4.408
 8650SOL    HW226850   1.804   6.830   4.443
 8651SOL     OW26851   3.421   1.852   1.242
 8651SOL    HW126852   3.501   1.793   1.256
 8651SOL    HW226853   3.342   1.795   1.218
 8652SOL     OW26854   1.001   2.869   3.554
 8652SOL    HW126855   0.910   2.884   3.592
 8652SOL    HW226856   0.994   2.856   3.455
 8653SOL     OW26857   6.717   1.400   6.140
 8653SOL    HW126858   6.769   1.387   6.225
 8653SOL    HW226859   6.665   1.317   6.119
 8654SOL     OW26860   0.266   4.486   1.631
 8654SOL    HW126861   0.276   4.585   1.626
 8654SOL    HW226862   0.357   4.443   1.639
 8655SOL     OW26863   0.599   0.400   4.556
 8655SOL    HW126864   0.662   0.387   4.479
 8655SOL    HW226865   0.509   0.424   4.522
 8656SOL     OW26866   4.665   0.116   1.144
 8656SOL    HW126867   4.596   0.067   1.091
 8656SOL    HW226868   4.623   0.194   1.190
 8657SOL     OW26869   4.715   1.276   3.529
 8657SOL    HW126870   4.689   1.224   3.449
 8657SOL    HW226871   4.791   1.230   3.576
 8658SOL     OW26872   6.556   4.401   0.688
 8658SOL    HW126873   6.533   4.308   0.714
 8658SOL    HW226874   6.634   4.400   0.625
 8659SOL     OW26875   4.297   0.896   2.590
 8659SOL    HW126876   4.380   0.937   2.628
 8659SOL    HW226877   4.217   0.945   2.625
 8660SOL     OW26878   6.427   3.722   1.600
 8660SOL    HW126879   6.435   3.821   1.609
 8660SOL    HW226880   6.385   3.684   1.683
 8661SOL     OW26881   6.299   3.948   2.835
 8661SOL    HW126882   6.366   3.882   2.801
 8661SOL    HW226883   6.304   3.954   2.935
 8662SOL     OW26884   2.493   4.502   3.216
 8662SOL    HW126885   2.453   4.586   3.253
 8662SOL    HW226886   2.566   4.525   3.152
 8663SOL     OW26887   4.011   5.411   2.576
 8663SOL    HW126888   4.021   5.315   2.603
 8663SOL    HW226889   4.017   5.420   2.477
 8664SOL     OW26890   3.387   5.951   4.195
 8664SOL    HW126891   3.435   5.864   4.200
 8664SOL    HW226892   3.403   5.993   4.105
 8665SOL     OW26893   5.980   2.834   6.694
 8665SOL    HW126894   5.935   2.921   6.715
 8665SOL    HW226895   5.955   2.765   6.762
 8666SOL     OW26896   4.635   6.612   2.451
 8666SOL    HW126897   4.542   6.639   2.475
 8666SOL    HW226898   4.672   6.675   2.383
 8667SOL     OW26899   5.216   1.910   3.768
 8667SOL    HW126900   5.265   1.862   3.841
 8667SOL    HW226901   5.254   1.882   3.679
 8668SOL     OW26902   4.837   2.530   5.096
 8668SOL    HW126903   4.813   2.472   5.018
 8668SOL    HW226904   4.899   2.602   5.065
 8669SOL     OW26905   6.064   6.108   5.694
 8669SOL    HW126906   6.005   6.187   5.709
 8669SOL    HW226907   6.011   6.024   5.705
 8670SOL     OW26908   6.093   4.098   6.011
 8670SOL    HW126909   6.048   4.037   6.076
 8670SOL    HW226910   6.079   4.064   5.918
 8671SOL     OW26911   6.961   2.129   2.607
 8671SOL    HW126912   6.943   2.163   2.699
 8671SOL    HW226913   6.976   2.206   2.545
 8672SOL     OW26914   1.008   0.895   3.359
 8672SOL    HW126915   0.964   0.940   3.437
 8672SOL    HW226916   0.967   0.929   3.274
 8673SOL     OW26917   0.900   1.141   1.139
 8673SOL    HW126918   0.937   1.212   1.079
 8673SOL    HW226919   0.931   1.051   1.107
 8674SOL     OW26920   6.672   4.442   3.552
 8674SOL    HW126921   6.647   4.514   3.488
 8674SOL    HW226922   6.703   4.361   3.502
 8675SOL     OW26923   3.853   2.220   5.493
 8675SOL    HW126924   3.918   2.147   5.471
 8675SOL    HW226925   3.770   2.181   5.533
 8676SOL     OW26926   5.515   1.432   0.893
 8676SOL    HW126927   5.466   1.381   0.822
 8676SOL    HW226928   5.607   1.394   0.904
 8677SOL     OW26929   2.248   6.568   6.123
 8677SOL    HW126930   2.238   6.656   6.170
 8677SOL    HW226931   2.273   6.584   6.028
 8678SOL     OW26932   1.509   1.958   1.099
 8678SOL    HW126933   1.549   1.868   1.082
 8678SOL    HW226934   1.564   2.028   1.054
 8679SOL     OW26935   1.342   1.530   4.986
 8679SOL    HW126936   1.323   1.552   5.081
 8679SOL    HW226937   1.259   1.542   4.931
 8680SOL     OW26938   6.325   1.314   6.856
 8680SOL    HW126939   6.360   1.220   6.854
 8680SOL    HW226940   6.379   1.371   6.794
 8681SOL     OW26941   5.364   5.769   1.720
 8681SOL    HW126942   5.282   5.789   1.774
 8681SOL    HW226943   5.417   5.853   1.707
 8682SOL     OW26944   1.399   0.875   1.153
 8682SOL    HW126945   1.323   0.933   1.124
 8682SOL    HW226946   1.377   0.779   1.133
 8683SOL     OW26947   1.912   4.108   4.491
 8683SOL    HW126948   1.987   4.133   4.552
 8683SOL    HW226949   1.874   4.191   4.449
 8684SOL     OW26950   1.027   3.608   4.436
 8684SOL    HW126951   0.966   3.581   4.510
 8684SOL    HW226952   1.010   3.551   4.356
 8685SOL     OW26953   5.172   2.359   5.125
 8685SOL    HW126954   5.257   2.409   5.141
 8685SOL    HW226955   5.136   2.383   5.034
 8686SOL     OW26956   0.553   5.467   2.997
 8686SOL    HW126957   0.607   5.522   2.933
 8686SOL    HW226958   0.615   5.411   3.053
 8687SOL     OW26959   5.397   4.029   5.159
 8687SOL    HW126960   5.302   4.052   5.180
 8687SOL    HW226961   5.433   4.093   5.091
 8688SOL     OW26962   0.413   3.866   6.192
 8688SOL    HW126963   0.386   3.944   6.135
 8688SOL    HW226964   0.509   3.843   6.173
 8689SOL     OW26965   4.180   3.826   6.748
 8689SOL    HW126966   4.191   3.869   6.838
 8689SOL    HW226967   4.089   3.846   6.713
 8690SOL     OW26968   1.548   2.079   3.276
 8690SOL    HW126969   1.609   2.072   3.355
 8690SOL    HW226970   1.560   2.168   3.233
 8691SOL     OW26971   3.345   2.681   5.301
 8691SOL    HW126972   3.306   2.590   5.291
 8691SOL    HW226973   3.435   2.675   5.345
 8692SOL     OW26974   4.375   1.855   5.230
 8692SOL    HW126975   4.387   1.764   5.190
 8692SOL    HW226976   4.312   1.908   5.173
 8693SOL     OW26977   6.379   6.873   6.695
 8693SOL    HW126978   6.383   6.917   6.605
 8693SOL    HW226979   6.471   6.843   6.721
 8694SOL     OW26980   6.233   3.209   3.991
 8694SOL    HW126981   6.289   3.292   3.998
 8694SOL    HW226982   6.138   3.231   4.016
 8695SOL     OW26983   3.656   4.267   5.757
 8695SOL    HW126984   3.597   4.201   5.803
 8695SOL    HW226985   3.656   4.353   5.808
 8696SOL     OW26986   3.150   5.652   6.012
 8696SOL    HW126987   3.161   5.598   5.928
 8696SOL    HW226988   3.214   5.618   6.081
 8697SOL     OW26989   1.286   3.516   5.842
 8697SOL    HW126990   1.242   3.503   5.753
 8697SOL    HW226991   1.358   3.448   5.855
 8698SOL     OW26992   5.491   5.476   5.129
 8698SOL    HW126993   5.471   5.541   5.202
 8698SOL    HW226994   5.588   5.481   5.105
 8699SOL     OW26995   1.242   3.018   7.005
 8699SOL    HW126996   1.230   3.046   6.910
 8699SOL    HW226997   1.281   2.926   7.008
 8700SOL     OW26998   0.792   6.684   5.052
 8700SOL    HW126999   0.760   6.710   5.143
 8700SOL    HW227000   0.733   6.725   4.983
 8701SOL     OW27001   0.481   2.600   0.688
 8701SOL    HW127002   0.568   2.560   0.717
 8701SOL    HW227003   0.440   2.543   0.617
 8702SOL     OW27004   5.513   4.908   2.012
 8702SOL    HW127005   5.586   4.977   2.009
 8702SOL    HW227006   5.426   4.951   1.985
 8703SOL     OW27007   2.595   5.469   1.413
 8703SOL    HW127008   2.678   5.438   1.367
 8703SOL    HW227009   2.600   5.447   1.510
 8704SOL     OW27010   0.941   0.587   4.307
 8704SOL    HW127011   0.923   0.491   4.329
 8704SOL    HW227012   1.014   0.594   4.239
 8705SOL     OW27013   4.509   2.720   0.110
 8705SOL    HW127014   4.436   2.776   0.070
 8705SOL    HW227015   4.514   2.633   0.061
 8706SOL     OW27016   4.543   2.962   6.509
 8706SOL    HW127017   4.550   2.931   6.604
 8706SOL    HW227018   4.490   2.895   6.456
 8707SOL     OW27019   1.804   1.995   4.831
 8707SOL    HW127020   1.764   1.905   4.851
 8707SOL    HW227021   1.903   1.990   4.839
 8708SOL     OW27022   6.171   2.194   1.440
 8708SOL    HW127023   6.266   2.226   1.435
 8708SOL    HW227024   6.130   2.197   1.349
 8709SOL     OW27025   6.545   0.308   5.917
 8709SOL    HW127026   6.509   0.268   5.833
 8709SOL    HW227027   6.644   0.323   5.907
 8710SOL     OW27028   2.511   1.079   3.023
 8710SOL    HW127029   2.473   1.164   3.060
 8710SOL    HW227030   2.437   1.021   2.990
 8711SOL     OW27031   1.691   0.647   1.666
 8711SOL    HW127032   1.770   0.688   1.620
 8711SOL    HW227033   1.722   0.599   1.748
 8712SOL     OW27034   1.638   3.952   5.958
 8712SOL    HW127035   1.637   3.970   5.860
 8712SOL    HW227036   1.662   3.857   5.975
 8713SOL     OW27037   0.344   5.112   1.792
 8713SOL    HW127038   0.369   5.171   1.869
 8713SOL    HW227039   0.294   5.165   1.724
 8714SOL     OW27040   0.188   5.899   6.920
 8714SOL    HW127041   0.168   5.982   6.972
 8714SOL    HW227042   0.103   5.856   6.890
 8715SOL     OW27043   2.225   3.197   1.501
 8715SOL    HW127044   2.289   3.261   1.457
 8715SOL    HW227045   2.261   3.171   1.591
 8716SOL     OW27046   6.705   6.692   1.783
 8716SOL    HW127047   6.692   6.790   1.796
 8716SOL    HW227048   6.617   6.645   1.791
 8717SOL     OW27049   3.104   4.204   0.869
 8717SOL    HW127050   3.133   4.298   0.883
 8717SOL    HW227051   3.031   4.200   0.801
 8718SOL     OW27052   2.191   4.408   6.647
 8718SOL    HW127053   2.268   4.419   6.584
 8718SOL    HW227054   2.135   4.491   6.646
 8719SOL     OW27055   4.195   0.088   5.399
 8719SOL    HW127056   4.115   0.147   5.384
 8719SOL    HW227057   4.205   0.070   5.497
 8720SOL     OW27058   6.756   4.620   4.990
 8720SOL    HW127059   6.793   4.600   5.081
 8720SOL    HW227060   6.656   4.614   4.993
 8721SOL     OW27061   0.590   0.453   6.568
 8721SOL    HW127062   0.595   0.436   6.469
 8721SOL    HW227063   0.682   0.446   6.606
 8722SOL     OW27064   3.180   1.689   1.179
 8722SOL    HW127065   3.201   1.592   1.192
 8722SOL    HW227066   3.081   1.702   1.179
 8723SOL     OW27067   4.433   0.504   2.394
 8723SOL    HW127068   4.411   0.561   2.315
 8723SOL    HW227069   4.359   0.511   2.461
 8724SOL     OW27070   4.047   1.100   4.724
 8724SOL    HW127071   4.026   1.070   4.631
 8724SOL    HW227072   4.114   1.037   4.765
 8725SOL     OW27073   0.041   6.521   3.761
 8725SOL    HW127074   0.032   6.435   3.811
 8725SOL    HW227075   0.092   6.587   3.816
 8726SOL     OW27076   0.612   0.985   1.004
 8726SOL    HW127077   0.612   0.939   1.093
 8726SOL    HW227078   0.630   0.918   0.932
 8727SOL     OW27079   4.527   5.546   5.938
 8727SOL    HW127080   4.524   5.509   5.845
 8727SOL    HW227081   4.433   5.561   5.971
 8728SOL     OW27082   6.812   0.445   3.251
 8728SOL    HW127083   6.873   0.464   3.328
 8728SOL    HW227084   6.777   0.531   3.214
 8729SOL     OW27085   4.128   6.411   6.476
 8729SOL    HW127086   4.129   6.313   6.495
 8729SOL    HW227087   4.038   6.449   6.498
 8730SOL     OW27088   4.196   5.344   1.859
 8730SOL    HW127089   4.285   5.301   1.873
 8730SOL    HW227090   4.126   5.273   1.847
 8731SOL     OW27091   0.238   1.808   3.480
 8731SOL    HW127092   0.253   1.718   3.522
 8731SOL    HW227093   0.234   1.797   3.381
 8732SOL     OW27094   5.938   6.680   0.380
 8732SOL    HW127095   5.966   6.664   0.474
 8732SOL    HW227096   5.871   6.754   0.377
 8733SOL     OW27097   6.399   5.488   1.732
 8733SOL    HW127098   6.431   5.544   1.656
 8733SOL    HW227099   6.433   5.527   1.818
 8734SOL     OW27100   0.157   3.827   2.393
 8734SOL    HW127101   0.220   3.878   2.451
 8734SOL    HW227102   0.083   3.789   2.449
 8735SOL     OW27103   1.143   3.671   5.550
 8735SOL    HW127104   1.094   3.666   5.462
 8735SOL    HW227105   1.199   3.590   5.562
 8736SOL     OW27106   1.147   6.049   3.521
 8736SOL    HW127107   1.201   6.121   3.563
 8736SOL    HW227108   1.165   6.047   3.422
 8737SOL     OW27109   1.796   6.487   0.067
 8737SOL    HW127110   1.782   6.505   6.987
 8737SOL    HW227111   1.801   6.574   0.117
 8738SOL     OW27112   1.184   2.572   3.410
 8738SOL    HW127113   1.123   2.573   3.489
 8738SOL    HW227114   1.202   2.666   3.381
 8739SOL     OW27115   4.924   4.188   5.831
 8739SOL    HW127116   4.935   4.091   5.850
 8739SOL    HW227117   4.829   4.215   5.844
 8740SOL     OW27118   2.554   0.897   5.474
 8740SOL    HW127119   2.597   0.827   5.532
 8740SOL    HW227120   2.456   0.878   5.466
 8741SOL     OW27121   0.941   0.187   2.607
 8741SOL    HW127122   0.899   0.194   2.516
 8741SOL    HW227123   0.871   0.203   2.677
 8742SOL     OW27124   2.499   1.309   2.812
 8742SOL    HW127125   2.510   1.363   2.729
 8742SOL    HW227126   2.426   1.349   2.868
 8743SOL     OW27127   0.258   1.838   1.714
 8743SOL    HW127128   0.284   1.841   1.617
 8743SOL    HW227129   0.167   1.798   1.722
 8744SOL     OW27130   3.149   4.497   6.292
 8744SOL    HW127131   3.133   4.595   6.295
 8744SOL    HW227132   3.227   4.474   6.350
 8745SOL     OW27133   5.739   1.223   5.476
 8745SOL    HW127134   5.767   1.296   5.414
 8745SOL    HW227135   5.817   1.194   5.531
 8746SOL     OW27136   4.320   5.319   5.109
 8746SOL    HW127137   4.222   5.321   5.088
 8746SOL    HW227138   4.358   5.411   5.096
 8747SOL     OW27139   0.113   0.611   1.668
 8747SOL    HW127140   0.147   0.562   1.748
 8747SOL    HW227141   0.056   0.687   1.697
 8748SOL     OW27142   6.669   1.863   3.496
 8748SOL    HW127143   6.715   1.952   3.500
 8748SOL    HW227144   6.712   1.806   3.426
 8749SOL     OW27145   2.761   1.072   4.485
 8749SOL    HW127146   2.767   1.073   4.385
 8749SOL    HW227147   2.773   0.979   4.518
 8750SOL     OW27148   3.994   3.011   6.649
 8750SOL    HW127149   3.924   3.062   6.598
 8750SOL    HW227150   3.996   2.917   6.618
 8751SOL     OW27151   1.330   6.177   1.482
 8751SOL    HW127152   1.321   6.095   1.539
 8751SOL    HW227153   1.361   6.253   1.538
 8752SOL     OW27154   5.669   3.569   6.763
 8752SOL    HW127155   5.686   3.610   6.853
 8752SOL    HW227156   5.576   3.534   6.759
 8753SOL     OW27157   2.387   3.087   0.413
 8753SOL    HW127158   2.374   3.141   0.330
 8753SOL    HW227159   2.303   3.091   0.468
 8754SOL     OW27160   2.226   5.038   6.906
 8754SOL    HW127161   2.295   5.086   6.851
 8754SOL    HW227162   2.176   5.103   6.962
 8755SOL     OW27163   6.755   2.801   1.992
 8755SOL    HW127164   6.742   2.721   2.050
 8755SOL    HW227165   6.852   2.825   1.991
 8756SOL     OW27166   1.667   1.669   2.203
 8756SOL    HW127167   1.680   1.742   2.136
 8756SOL    HW227168   1.574   1.674   2.240
 8757SOL     OW27169   5.602   6.373   5.498
 8757SOL    HW127170   5.623   6.405   5.590
 8757SOL    HW227171   5.619   6.446   5.432
 8758SOL     OW27172   3.452   5.579   5.058
 8758SOL    HW127173   3.515   5.502   5.059
 8758SOL    HW227174   3.501   5.663   5.077
 8759SOL     OW27175   5.950   0.736   0.320
 8759SOL    HW127176   5.958   0.751   0.221
 8759SOL    HW227177   5.905   0.815   0.362
 8760SOL     OW27178   2.443   2.621   4.147
 8760SOL    HW127179   2.400   2.682   4.080
 8760SOL    HW227180   2.428   2.657   4.239
 8761SOL     OW27181   4.696   1.216   2.497
 8761SOL    HW127182   4.633   1.161   2.442
 8761SOL    HW227183   4.705   1.307   2.456
 8762SOL     OW27184   1.600   4.793   3.007
 8762SOL    HW127185   1.634   4.723   3.069
 8762SOL    HW227186   1.662   4.802   2.929
 8763SOL     OW27187   0.758   0.959   6.224
 8763SOL    HW127188   0.831   0.987   6.287
 8763SOL    HW227189   0.754   0.859   6.220
 8764SOL     OW27190   2.772   4.981   5.330
 8764SOL    HW127191   2.780   5.013   5.425
 8764SOL    HW227192   2.749   4.883   5.330
 8765SOL     OW27193   5.246   0.673   4.665
 8765SOL    HW127194   5.304   0.616   4.607
 8765SOL    HW227195   5.188   0.614   4.721
 8766SOL     OW27196   4.932   5.911   5.799
 8766SOL    HW127197   4.923   5.814   5.773
 8766SOL    HW227198   4.974   5.961   5.723
 8767SOL     OW27199   2.328   1.008   4.156
 8767SOL    HW127200   2.402   1.050   4.104
 8767SOL    HW227201   2.331   1.041   4.251
 8768SOL     OW27202   6.010   2.051   6.713
 8768SOL    HW127203   5.940   1.984   6.738
 8768SOL    HW227204   6.044   2.030   6.621
 8769SOL     OW27205   6.388   0.382   0.076
 8769SOL    HW127206   6.332   0.389   0.159
 8769SOL    HW227207   6.434   0.293   0.075
 8770SOL     OW27208   5.095   3.456   0.391
 8770SOL    HW127209   5.072   3.437   0.296
 8770SOL    HW227210   5.181   3.508   0.395
 8771SOL     OW27211   0.280   3.617   0.339
 8771SOL    HW127212   0.215   3.690   0.356
 8771SOL    HW227213   0.299   3.569   0.425
 8772SOL     OW27214   5.758   7.017   4.331
 8772SOL    HW127215   5.837   0.050   4.297
 8772SOL    HW227216   5.676   0.057   4.326
 8773SOL     OW27217   0.138   1.395   3.955
 8773SOL    HW127218   0.094   1.485   3.951
 8773SOL    HW227219   0.075   1.329   3.995
 8774SOL     OW27220   1.936   1.815   0.985
 8774SOL    HW127221   1.877   1.795   0.907
 8774SOL    HW227222   1.961   1.730   1.031
 8775SOL     OW27223   5.653   2.008   4.118
 8775SOL    HW127224   5.721   1.966   4.057
 8775SOL    HW227225   5.652   2.107   4.104
 8776SOL     OW27226   4.250   3.080   0.610
 8776SOL    HW127227   4.224   2.984   0.595
 8776SOL    HW227228   4.323   3.105   0.546
 8777SOL     OW27229   0.222   2.020   3.664
 8777SOL    HW127230   0.244   1.935   3.617
 8777SOL    HW227231   0.306   2.070   3.684
 8778SOL     OW27232   3.118   4.842   6.865
 8778SOL    HW127233   3.151   4.906   6.935
 8778SOL    HW227234   3.174   4.759   6.868
 8779SOL     OW27235   4.748   4.829   3.822
 8779SOL    HW127236   4.723   4.867   3.733
 8779SOL    HW227237   4.845   4.803   3.820
 8780SOL     OW27238   5.865   5.063   3.841
 8780SOL    HW127239   5.862   4.980   3.896
 8780SOL    HW227240   5.852   5.143   3.899
 8781SOL     OW27241   3.343   0.081   1.694
 8781SOL    HW127242   3.355   7.016   1.748
 8781SOL    HW227243   3.273   0.066   1.624
 8782SOL     OW27244   5.409   1.852   1.581
 8782SOL    HW127245   5.339   1.889   1.520
 8782SOL    HW227246   5.489   1.911   1.580
 8783SOL     OW27247   5.201   3.823   4.687
 8783SOL    HW127248   5.253   3.759   4.744
 8783SOL    HW227249   5.113   3.844   4.731
 8784SOL     OW27250   5.748   0.671   0.988
 8784SOL    HW127251   5.689   0.608   0.937
 8784SOL    HW227252   5.839   0.631   0.997
 8785SOL     OW27253   0.436   5.046   6.304
 8785SOL    HW127254   0.501   4.971   6.313
 8785SOL    HW227255   0.346   5.016   6.337
 8786SOL     OW27256   4.486   1.561   2.582
 8786SOL    HW127257   4.417   1.570   2.510
 8786SOL    HW227258   4.563   1.622   2.561
 8787SOL     OW27259   3.579   6.079   0.854
 8787SOL    HW127260   3.510   6.085   0.925
 8787SOL    HW227261   3.628   5.992   0.861
 8788SOL     OW27262   0.421   6.824   4.221
 8788SOL    HW127263   0.488   6.872   4.278
 8788SOL    HW227264   0.407   6.732   4.255
 8789SOL     OW27265   6.884   3.202   5.883
 8789SOL    HW127266   6.814   3.219   5.813
 8789SOL    HW227267   6.936   3.286   5.900
 8790SOL     OW27268   5.628   3.595   5.973
 8790SOL    HW127269   5.641   3.576   5.876
 8790SOL    HW227270   5.689   3.669   6.001
 8791SOL     OW27271   3.752   5.901   5.262
 8791SOL    HW127272   3.815   5.845   5.208
 8791SOL    HW227273   3.774   5.891   5.359
 8792SOL     OW27274   4.944   5.225   1.029
 8792SOL    HW127275   4.934   5.151   1.095
 8792SOL    HW227276   4.918   5.312   1.072
 8793SOL     OW27277   6.979   5.115   4.106
 8793SOL    HW127278   0.006   5.204   4.108
 8793SOL    HW227279   6.996   5.071   4.018
 8794SOL     OW27280   0.440   0.708   2.249
 8794SOL    HW127281   0.512   0.761   2.204
 8794SOL    HW227282   0.482   0.638   2.307
 8795SOL     OW27283   1.257   5.916   6.113
 8795SOL    HW127284   1.260   5.871   6.024
 8795SOL    HW227285   1.333   5.884   6.170
 8796SOL     OW27286   6.733   3.781   3.320
 8796SOL    HW127287   6.712   3.843   3.396
 8796SOL    HW227288   6.675   3.805   3.241
 8797SOL     OW27289   4.542   7.007   4.042
 8797SOL    HW127290   4.598   6.929   4.071
 8797SOL    HW227291   4.445   6.982   4.048
 8798SOL     OW27292   3.042   6.470   5.755
 8798SOL    HW127293   3.035   6.371   5.763
 8798SOL    HW227294   2.975   6.504   5.689
 8799SOL     OW27295   1.211   5.340   2.450
 8799SOL    HW127296   1.252   5.403   2.516
 8799SOL    HW227297   1.283   5.294   2.398
 8800SOL     OW27298   6.790   5.490   6.111
 8800SOL    HW127299   6.880   5.454   6.087
 8800SOL    HW227300   6.800   5.564   6.178
 8801SOL     OW27301   5.965   3.095   5.691
 8801SOL    HW127302   5.893   3.037   5.728
 8801SOL    HW227303   6.020   3.042   5.625
 8802SOL     OW27304   1.165   6.396   6.105
 8802SOL    HW127305   1.250   6.387   6.053
 8802SOL    HW227306   1.134   6.306   6.135
 8803SOL     OW27307   6.173   6.658   6.991
 8803SOL    HW127308   6.161   6.700   6.901
 8803SOL    HW227309   6.252   6.597   6.989
 8804SOL     OW27310   1.831   5.969   2.517
 8804SOL    HW127311   1.757   6.025   2.478
 8804SOL    HW227312   1.900   5.953   2.447
 8805SOL     OW27313   5.545   5.134   3.373
 8805SOL    HW127314   5.541   5.142   3.273
 8805SOL    HW227315   5.506   5.216   3.414
 8806SOL     OW27316   2.109   0.571   1.081
 8806SOL    HW127317   2.116   0.611   0.990
 8806SOL    HW227318   2.197   0.532   1.107
 8807SOL     OW27319   5.224   2.693   1.528
 8807SOL    HW127320   5.147   2.702   1.466
 8807SOL    HW227321   5.310   2.702   1.477
 8808SOL     OW27322   2.117   2.739   0.153
 8808SOL    HW127323   2.107   2.758   0.250
 8808SOL    HW227324   2.033   2.696   0.119
 8809SOL     OW27325   0.135   4.030   2.937
 8809SOL    HW127326   0.164   3.936   2.954
 8809SOL    HW227327   0.177   4.064   2.853
 8810SOL     OW27328   0.964   1.002   6.400
 8810SOL    HW127329   1.057   1.039   6.389
 8810SOL    HW227330   0.952   0.968   6.493
 8811SOL     OW27331   3.738   5.421   2.694
 8811SOL    HW127332   3.654   5.452   2.650
 8811SOL    HW227333   3.817   5.446   2.638
 8812SOL     OW27334   4.954   1.372   6.124
 8812SOL    HW127335   4.865   1.343   6.160
 8812SOL    HW227336   5.013   1.292   6.111
 8813SOL     OW27337   1.848   4.134   3.349
 8813SOL    HW127338   1.749   4.144   3.339
 8813SOL    HW227339   1.885   4.088   3.269
 8814SOL     OW27340   4.730   0.275   6.009
 8814SOL    HW127341   4.722   0.178   6.033
 8814SOL    HW227342   4.801   0.286   5.939
 8815SOL     OW27343   5.902   1.694   0.128
 8815SOL    HW127344   5.942   1.767   0.072
 8815SOL    HW227345   5.975   1.630   0.155
 8816SOL     OW27346   1.005   6.512   4.372
 8816SOL    HW127347   1.034   6.418   4.391
 8816SOL    HW227348   1.077   6.560   4.322
 8817SOL     OW27349   1.532   2.795   3.342
 8817SOL    HW127350   1.450   2.836   3.303
 8817SOL    HW227351   1.568   2.856   3.413
 8818SOL     OW27352   1.601   0.617   4.285
 8818SOL    HW127353   1.527   0.629   4.219
 8818SOL    HW227354   1.600   0.523   4.320
 8819SOL     OW27355   5.647   4.075   6.086
 8819SOL    HW127356   5.626   4.067   6.183
 8819SOL    HW227357   5.718   4.144   6.072
 8820SOL     OW27358   3.033   0.321   4.852
 8820SOL    HW127359   3.096   0.246   4.833
 8820SOL    HW227360   3.070   0.380   4.924
 8821SOL     OW27361   0.161   4.571   6.476
 8821SOL    HW127362   0.106   4.536   6.551
 8821SOL    HW227363   0.234   4.505   6.455
 8822SOL     OW27364   6.528   6.865   4.242
 8822SOL    HW127365   6.533   6.954   4.288
 8822SOL    HW227366   6.468   6.804   4.293
 8823SOL     OW27367   4.038   0.998   2.638
 8823SOL    HW127368   3.961   0.957   2.688
 8823SOL    HW227369   4.002   1.055   2.564
 8824SOL     OW27370   2.113   0.753   2.477
 8824SOL    HW127371   2.077   0.724   2.389
 8824SOL    HW227372   2.104   0.852   2.486
 8825SOL     OW27373   6.847   5.783   0.408
 8825SOL    HW127374   6.848   5.753   0.313
 8825SOL    HW227375   6.789   5.864   0.418
 8826SOL     OW27376   1.550   3.871   0.747
 8826SOL    HW127377   1.637   3.845   0.706
 8826SOL    HW227378   1.491   3.911   0.677
 8827SOL     OW27379   4.391   0.121   1.970
 8827SOL    HW127380   4.317   0.175   2.011
 8827SOL    HW227381   4.433   0.064   2.041
 8828SOL     OW27382   3.104   3.303   6.028
 8828SOL    HW127383   3.183   3.265   5.980
 8828SOL    HW227384   3.028   3.238   6.025
 8829SOL     OW27385   6.648   1.496   2.026
 8829SOL    HW127386   6.735   1.544   2.022
 8829SOL    HW227387   6.664   1.397   2.026
 8830SOL     OW27388   3.100   0.964   3.694
 8830SOL    HW127389   3.007   0.992   3.674
 8830SOL    HW227390   3.161   0.994   3.620
 8831SOL     OW27391   0.353   2.346   2.283
 8831SOL    HW127392   0.278   2.380   2.225
 8831SOL    HW227393   0.383   2.419   2.345
 8832SOL     OW27394   5.832   0.793   4.037
 8832SOL    HW127395   5.735   0.787   4.063
 8832SOL    HW227396   5.856   0.713   3.982
 8833SOL     OW27397   4.020   2.809   1.433
 8833SOL    HW127398   3.971   2.728   1.401
 8833SOL    HW227399   4.032   2.804   1.532
 8834SOL     OW27400   5.394   4.345   5.455
 8834SOL    HW127401   5.344   4.262   5.480
 8834SOL    HW227402   5.337   4.425   5.475
 8835SOL     OW27403   6.986   0.509   5.893
 8835SOL    HW127404   6.973   0.436   5.826
 8835SOL    HW227405   6.922   0.497   5.968
 8836SOL     OW27406   4.674   1.975   1.038
 8836SOL    HW127407   4.717   1.885   1.044
 8836SOL    HW227408   4.708   2.033   1.112
 8837SOL     OW27409   4.884   0.226   1.007
 8837SOL    HW127410   4.936   0.303   1.042
 8837SOL    HW227411   4.805   0.210   1.065
 8838SOL     OW27412   0.760   3.587   2.465
 8838SOL    HW127413   0.773   3.668   2.521
 8838SOL    HW227414   0.693   3.527   2.509
 8839SOL     OW27415   5.045   5.374   3.237
 8839SOL    HW127416   5.026   5.287   3.281
 8839SOL    HW227417   5.109   5.361   3.161
 8840SOL     OW27418   6.902   0.893   1.223
 8840SOL    HW127419   6.865   0.845   1.143
 8840SOL    HW227420   6.911   0.991   1.201
 8841SOL     OW27421   3.062   1.336   1.359
 8841SOL    HW127422   3.132   1.283   1.406
 8841SOL    HW227423   2.977   1.284   1.354
 8842SOL     OW27424   3.480   2.906   4.297
 8842SOL    HW127425   3.385   2.901   4.328
 8842SOL    HW227426   3.531   2.967   4.358
 8843SOL     OW27427   2.327   5.406   6.578
 8843SOL    HW127428   2.314   5.420   6.676
 8843SOL    HW227429   2.252   5.351   6.542
 8844SOL     OW27430   4.366   2.148   5.595
 8844SOL    HW127431   4.331   2.187   5.509
 8844SOL    HW227432   4.460   2.118   5.582
 8845SOL     OW27433   0.138   4.890   1.755
 8845SOL    HW127434   0.081   4.971   1.742
 8845SOL    HW227435   0.234   4.917   1.759
 8846SOL     OW27436   5.972   4.307   4.590
 8846SOL    HW127437   6.013   4.386   4.636
 8846SOL    HW227438   5.976   4.319   4.491
 8847SOL     OW27439   2.702   1.758   3.435
 8847SOL    HW127440   2.752   1.842   3.416
 8847SOL    HW227441   2.615   1.759   3.384
 8848SOL     OW27442   3.505   1.667   1.005
 8848SOL    HW127443   3.416   1.653   0.962
 8848SOL    HW227444   3.551   1.745   0.962
 8849SOL     OW27445   2.374   4.950   4.624
 8849SOL    HW127446   2.364   4.863   4.673
 8849SOL    HW227447   2.361   5.026   4.688
 8850SOL     OW27448   3.058   0.861   1.609
 8850SOL    HW127449   3.065   0.763   1.595
 8850SOL    HW227450   3.001   0.901   1.536
 8851SOL     OW27451   0.161   4.783   2.425
 8851SOL    HW127452   0.087   4.743   2.372
 8851SOL    HW227453   0.246   4.733   2.407
 8852SOL     OW27454   5.021   2.722   4.996
 8852SOL    HW127455   4.958   2.752   4.924
 8852SOL    HW227456   5.066   2.802   5.037
 8853SOL     OW27457   4.293   1.101   5.890
 8853SOL    HW127458   4.387   1.068   5.878
 8853SOL    HW227459   4.232   1.023   5.904
 8854SOL     OW27460   1.156   2.091   6.710
 8854SOL    HW127461   1.186   2.142   6.630
 8854SOL    HW227462   1.234   2.070   6.768
 8855SOL     OW27463   6.131   5.032   6.841
 8855SOL    HW127464   6.212   4.990   6.800
 8855SOL    HW227465   6.051   5.011   6.785
 8856SOL     OW27466   5.935   0.975   4.208
 8856SOL    HW127467   5.915   0.897   4.149
 8856SOL    HW227468   5.856   1.037   4.209
 8857SOL     OW27469   0.141   2.736   4.243
 8857SOL    HW127470   0.080   2.716   4.166
 8857SOL    HW227471   0.089   2.780   4.316
 8858SOL     OW27472   0.146   3.550   6.648
 8858SOL    HW127473   0.049   3.540   6.624
 8858SOL    HW227474   0.198   3.575   6.566
 8859SOL     OW27475   2.207   5.520   5.283
 8859SOL    HW127476   2.266   5.484   5.355
 8859SOL    HW227477   2.164   5.444   5.234
 8860SOL     OW27478   1.251   2.327   2.230
 8860SOL    HW127479   1.328   2.346   2.169
 8860SOL    HW227480   1.185   2.269   2.183
 8861SOL     OW27481   3.167   3.822   0.214
 8861SOL    HW127482   3.204   3.772   0.136
 8861SOL    HW227483   3.234   3.889   0.247
 8862SOL     OW27484   6.232   2.235   3.965
 8862SOL    HW127485   6.170   2.199   4.035
 8862SOL    HW227486   6.178   2.279   3.893
 8863SOL     OW27487   2.339   5.694   4.964
 8863SOL    HW127488   2.415   5.726   4.908
 8863SOL    HW227489   2.361   5.603   5.000
 8864SOL     OW27490   1.276   2.229   6.522
 8864SOL    HW127491   1.198   2.272   6.478
 8864SOL    HW227492   1.352   2.223   6.457
 8865SOL     OW27493   3.514   2.439   6.042
 8865SOL    HW127494   3.587   2.428   5.976
 8865SOL    HW227495   3.544   2.402   6.131
 8866SOL     OW27496   3.737   6.453   4.461
 8866SOL    HW127497   3.766   6.429   4.368
 8866SOL    HW227498   3.651   6.504   4.456
 8867SOL     OW27499   0.220   2.971   3.793
 8867SOL    HW127500   0.135   2.946   3.840
 8867SOL    HW227501   0.205   2.973   3.694
 8868SOL     OW27502   4.004   3.945   6.988
 8868SOL    HW127503   3.971   4.032   0.007
 8868SOL    HW227504   4.062   3.899   0.037
 8869SOL     OW27505   5.567   2.721   3.837
 8869SOL    HW127506   5.547   2.775   3.754
 8869SOL    HW227507   5.578   2.783   3.914
 8870SOL     OW27508   4.406   1.297   0.710
 8870SOL    HW127509   4.355   1.226   0.661
 8870SOL    HW227510   4.387   1.291   0.808
 8871SOL     OW27511   2.631   2.111   4.237
 8871SOL    HW127512   2.663   2.150   4.323
 8871SOL    HW227513   2.694   2.038   4.209
 8872SOL     OW27514   1.902   3.221   4.699
 8872SOL    HW127515   1.922   3.255   4.791
 8872SOL    HW227516   1.985   3.221   4.644
 8873SOL     OW27517   7.008   5.587   4.619
 8873SOL    HW127518   0.001   5.665   4.680
 8873SOL    HW227519   6.984   5.506   4.672
 8874SOL     OW27520   2.729   0.738   0.576
 8874SOL    HW127521   2.809   0.766   0.523
 8874SOL    HW227522   2.748   0.651   0.621
 8875SOL     OW27523   2.029   2.491   4.529
 8875SOL    HW127524   2.019   2.426   4.453
 8875SOL    HW227525   2.102   2.461   4.590
 8876SOL     OW27526   1.311   6.875   4.420
 8876SOL    HW127527   1.404   6.887   4.455
 8876SOL    HW227528   1.292   6.777   4.410
 8877SOL     OW27529   2.801   6.623   4.827
 8877SOL    HW127530   2.721   6.662   4.781
 8877SOL    HW227531   2.772   6.548   4.887
 8878SOL     OW27532   6.289   4.365   6.787
 8878SOL    HW127533   6.244   4.446   6.750
 8878SOL    HW227534   6.290   4.369   6.887
 8879SOL     OW27535   5.062   6.553   5.094
 8879SOL    HW127536   5.067   6.586   5.000
 8879SOL    HW227537   4.979   6.589   5.137
 8880SOL     OW27538   0.104   4.988   5.306
 8880SOL    HW127539   0.141   4.969   5.398
 8880SOL    HW227540   0.015   4.944   5.296
 8881SOL     OW27541   6.406   0.616   0.881
 8881SOL    HW127542   6.487   0.568   0.847
 8881SOL    HW227543   6.393   0.595   0.978
 8882SOL     OW27544   5.844   1.624   6.575
 8882SOL    HW127545   5.859   1.719   6.602
 8882SOL    HW227546   5.759   1.617   6.522
 8883SOL     OW27547   6.601   1.263   5.510
 8883SOL    HW127548   6.672   1.326   5.478
 8883SOL    HW227549   6.563   1.213   5.432
 8884SOL     OW27550   6.804   0.027   6.267
 8884SOL    HW127551   6.788   6.962   6.213
 8884SOL    HW227552   6.867   0.006   6.342
 8885SOL     OW27553   5.271   3.985   1.837
 8885SOL    HW127554   5.348   3.930   1.806
 8885SOL    HW227555   5.186   3.949   1.799
 8886SOL     OW27556   3.212   6.942   6.877
 8886SOL    HW127557   3.138   7.005   6.853
 8886SOL    HW227558   3.217   6.934   6.977
 8887SOL     OW27559   2.761   1.660   1.128
 8887SOL    HW127560   2.677   1.703   1.162
 8887SOL    HW227561   2.799   1.714   1.053
 8888SOL     OW27562   2.981   1.631   2.126
 8888SOL    HW127563   2.921   1.671   2.056
 8888SOL    HW227564   3.064   1.595   2.082
 8889SOL     OW27565   3.671   6.932   4.928
 8889SOL    HW127566   3.644   7.009   4.871
 8889SOL    HW227567   3.730   6.964   5.002
 8890SOL     OW27568   1.025   4.975   4.627
 8890SOL    HW127569   1.048   5.070   4.649
 8890SOL    HW227570   1.100   4.915   4.656
 8891SOL     OW27571   4.365   2.618   6.508
 8891SOL    HW127572   4.377   2.657   6.600
 8891SOL    HW227573   4.345   2.520   6.516
 8892SOL     OW27574   1.628   6.158   2.415
 8892SOL    HW127575   1.538   6.202   2.424
 8892SOL    HW227576   1.681   6.207   2.346
 8893SOL     OW27577   0.664   1.306   1.055
 8893SOL    HW127578   0.723   1.231   1.086
 8893SOL    HW227579   0.605   1.274   0.981
 8894SOL     OW27580   4.069   2.671   6.093
 8894SOL    HW127581   3.981   2.623   6.105
 8894SOL    HW227582   4.058   2.767   6.119
 8895SOL     OW27583   1.056   6.665   2.358
 8895SOL    HW127584   1.136   6.606   2.346
 8895SOL    HW227585   1.086   6.757   2.383
 8896SOL     OW27586   1.268   3.104   4.931
 8896SOL    HW127587   1.318   3.031   4.978
 8896SOL    HW227588   1.186   3.067   4.889
 8897SOL     OW27589   1.172   2.433   1.470
 8897SOL    HW127590   1.122   2.467   1.390
 8897SOL    HW227591   1.122   2.456   1.553
 8898SOL     OW27592   5.467   3.899   3.999
 8898SOL    HW127593   5.426   3.975   4.050
 8898SOL    HW227594   5.427   3.896   3.907
 8899SOL     OW27595   1.527   4.374   6.969
 8899SOL    HW127596   1.588   4.386   0.029
 8899SOL    HW227597   1.463   4.451   6.965
 8900SOL     OW27598   6.088   2.000   4.139
 8900SOL    HW127599   6.058   1.926   4.198
 8900SOL    HW227600   6.015   2.023   4.074
 8901SOL     OW27601   1.699   6.823   2.776
 8901SOL    HW127602   1.715   6.741   2.721
 8901SOL    HW227603   1.785   6.853   2.817
 8902SOL     OW27604   1.496   5.364   6.053
 8902SOL    HW127605   1.481   5.273   6.016
 8902SOL    HW227606   1.594   5.378   6.069
 8903SOL     OW27607   2.248   1.362   3.497
 8903SOL    HW127608   2.273   1.436   3.434
 8903SOL    HW227609   2.209   1.401   3.580
 8904SOL     OW27610   1.376   6.777   3.304
 8904SOL    HW127611   1.369   6.711   3.230
 8904SOL    HW227612   1.344   6.866   3.273
 8905SOL     OW27613   2.725   3.909   5.288
 8905SOL    HW127614   2.640   3.917   5.236
 8905SOL    HW227615   2.703   3.893   5.384
 8906SOL     OW27616   6.540   5.699   5.777
 8906SOL    HW127617   6.508   5.757   5.702
 8906SOL    HW227618   6.462   5.659   5.825
 8907SOL     OW27619   3.163   2.819   5.480
 8907SOL    HW127620   3.219   2.771   5.411
 8907SOL    HW227621   3.152   2.914   5.453
 8908SOL     OW27622   0.736   2.770   1.400
 8908SOL    HW127623   0.643   2.806   1.398
 8908SOL    HW227624   0.735   2.673   1.376
 8909SOL     OW27625   2.218   0.581   6.472
 8909SOL    HW127626   2.172   0.650   6.416
 8909SOL    HW227627   2.200   0.490   6.434
 8910SOL     OW27628   3.251   3.645   0.018
 8910SOL    HW127629   3.170   3.590   0.002
 8910SOL    HW227630   3.329   3.605   6.988
 8911SOL     OW27631   3.925   2.155   3.934
 8911SOL    HW127632   3.923   2.185   3.839
 8911SOL    HW227633   3.836   2.174   3.976
 8912SOL     OW27634   4.881   2.843   5.859
 8912SOL    HW127635   4.788   2.849   5.895
 8912SOL    HW227636   4.884   2.880   5.766
 8913SOL     OW27637   5.237   4.110   1.396
 8913SOL    HW127638   5.237   4.010   1.398
 8913SOL    HW227639   5.197   4.142   1.311
 8914SOL     OW27640   4.102   2.008   4.780
 8914SOL    HW127641   4.073   2.099   4.750
 8914SOL    HW227642   4.110   1.948   4.700
 8915SOL     OW27643   1.323   4.586   2.435
 8915SOL    HW127644   1.345   4.551   2.525
 8915SOL    HW227645   1.230   4.558   2.410
 8916SOL     OW27646   6.729   3.286   2.527
 8916SOL    HW127647   6.793   3.360   2.510
 8916SOL    HW227648   6.729   3.223   2.449
 8917SOL     OW27649   5.952   5.225   6.573
 8917SOL    HW127650   5.974   5.128   6.561
 8917SOL    HW227651   6.014   5.265   6.641
 8918SOL     OW27652   5.146   5.476   6.194
 8918SOL    HW127653   5.162   5.397   6.253
 8918SOL    HW227654   5.231   5.503   6.150
 8919SOL     OW27655   2.844   4.804   0.846
 8919SOL    HW127656   2.827   4.738   0.919
 8919SOL    HW227657   2.759   4.822   0.796
 8920SOL     OW27658   6.231   5.772   5.567
 8920SOL    HW127659   6.277   5.693   5.528
 8920SOL    HW227660   6.134   5.753   5.577
 8921SOL     OW27661   1.448   0.178   4.030
 8921SOL    HW127662   1.497   0.260   3.999
 8921SOL    HW227663   1.505   0.129   4.096
 8922SOL     OW27664   0.376   4.207   6.763
 8922SOL    HW127665   0.453   4.208   6.827
 8922SOL    HW227666   0.298   4.253   6.805
 8923SOL     OW27667   2.199   4.438   5.572
 8923SOL    HW127668   2.184   4.530   5.610
 8923SOL    HW227669   2.199   4.371   5.646
 8924SOL     OW27670   2.669   5.231   5.372
 8924SOL    HW127671   2.738   5.303   5.374
 8924SOL    HW227672   2.713   5.144   5.350
 8925SOL     OW27673   0.045   6.799   2.055
 8925SOL    HW127674   0.126   6.802   2.113
 8925SOL    HW227675   7.013   6.885   2.063
 8926SOL     OW27676   5.202   2.036   0.755
 8926SOL    HW127677   5.242   2.040   0.847
 8926SOL    HW227678   5.145   2.117   0.739
 8927SOL     OW27679   2.418   2.259   4.853
 8927SOL    HW127680   2.464   2.246   4.765
 8927SOL    HW227681   2.453   2.342   4.897
 8928SOL     OW27682   0.803   0.043   5.253
 8928SOL    HW127683   0.765   0.085   5.171
 8928SOL    HW227684   0.755   6.975   5.272
 8929SOL     OW27685   5.708   3.709   3.467
 8929SOL    HW127686   5.733   3.720   3.564
 8929SOL    HW227687   5.610   3.691   3.460
 8930SOL     OW27688   1.056   4.925   4.965
 8930SOL    HW127689   1.121   4.857   4.997
 8930SOL    HW227690   0.963   4.894   4.986
 8931SOL     OW27691   4.709   1.272   0.907
 8931SOL    HW127692   4.642   1.198   0.906
 8931SOL    HW227693   4.662   1.360   0.918
 8932SOL     OW27694   6.978   6.994   0.036
 8932SOL    HW127695   6.910   6.949   0.095
 8932SOL    HW227696   6.945   0.066   0.009
 8933SOL     OW27697   1.559   0.415   5.158
 8933SOL    HW127698   1.476   0.379   5.115
 8933SOL    HW227699   1.534   0.476   5.233
 8934SOL     OW27700   3.548   5.891   2.839
 8934SOL    HW127701   3.496   5.866   2.921
 8934SOL    HW227702   3.646   5.879   2.857
 8935SOL     OW27703   5.258   2.325   3.534
 8935SOL    HW127704   5.175   2.377   3.551
 8935SOL    HW227705   5.338   2.380   3.558
 8936SOL     OW27706   1.033   4.948   2.093
 8936SOL    HW127707   1.105   4.886   2.064
 8936SOL    HW227708   1.073   5.030   2.134
 8937SOL     OW27709   4.892   0.050   4.218
 8937SOL    HW127710   4.943   0.087   4.140
 8937SOL    HW227711   4.804   0.015   4.185
 8938SOL     OW27712   6.207   0.554   1.446
 8938SOL    HW127713   6.289   0.600   1.477
 8938SOL    HW227714   6.127   0.613   1.461
 8939SOL     OW27715   0.061   3.118   3.466
 8939SOL    HW127716   6.986   3.119   3.504
 8939SOL    HW227717   0.103   3.029   3.483
 8940SOL     OW27718   6.494   3.009   0.714
 8940SOL    HW127719   6.417   3.072   0.718
 8940SOL    HW227720   6.467   2.927   0.663
 8941SOL     OW27721   4.095   2.745   1.676
 8941SOL    HW127722   4.189   2.735   1.710
 8941SOL    HW227723   4.047   2.814   1.731
 8942SOL     OW27724   5.785   4.852   4.423
 8942SOL    HW127725   5.711   4.823   4.484
 8942SOL    HW227726   5.748   4.865   4.331
 8943SOL     OW27727   4.496   3.734   6.886
 8943SOL    HW127728   4.515   3.645   6.845
 8943SOL    HW227729   4.562   3.801   6.853
 8944SOL     OW27730   5.944   5.881   4.711
 8944SOL    HW127731   6.004   5.960   4.705
 8944SOL    HW227732   5.849   5.911   4.706
 8945SOL     OW27733   5.567   4.504   4.697
 8945SOL    HW127734   5.479   4.488   4.653
 8945SOL    HW227735   5.636   4.444   4.656
 8946SOL     OW27736   5.003   1.158   5.273
 8946SOL    HW127737   5.023   1.213   5.354
 8946SOL    HW227738   5.079   1.163   5.209
 8947SOL     OW27739   1.750   5.199   6.520
 8947SOL    HW127740   1.758   5.233   6.426
 8947SOL    HW227741   1.724   5.102   6.518
 8948SOL     OW27742   6.567   1.068   2.739
 8948SOL    HW127743   6.552   0.974   2.710
 8948SOL    HW227744   6.516   1.130   2.679
 8949SOL     OW27745   3.894   6.974   0.632
 8949SOL    HW127746   3.940   7.004   0.715
 8949SOL    HW227747   3.813   0.012   0.616
 8950SOL     OW27748   4.084   3.555   0.042
 8950SOL    HW127749   4.005   3.546   0.102
 8950SOL    HW227750   4.075   3.492   6.983
 8951SOL     OW27751   1.937   1.608   4.705
 8951SOL    HW127752   1.999   1.549   4.653
 8951SOL    HW227753   1.845   1.603   4.664
 8952SOL     OW27754   1.646   3.635   4.367
 8952SOL    HW127755   1.659   3.551   4.419
 8952SOL    HW227756   1.703   3.708   4.405
 8953SOL     OW27757   1.282   4.697   1.300
 8953SOL    HW127758   1.182   4.707   1.298
 8953SOL    HW227759   1.309   4.613   1.252
 8954SOL     OW27760   1.766   4.856   5.378
 8954SOL    HW127761   1.792   4.761   5.363
 8954SOL    HW227762   1.759   4.873   5.477
 8955SOL     OW27763   5.547   2.343   4.510
 8955SOL    HW127764   5.614   2.411   4.481
 8955SOL    HW227765   5.458   2.365   4.472
 8956SOL     OW27766   0.647   5.333   6.592
 8956SOL    HW127767   0.562   5.300   6.551
 8956SOL    HW227768   0.677   5.270   6.663
 8957SOL     OW27769   0.637   5.985   3.320
 8957SOL    HW127770   0.730   6.020   3.329
 8957SOL    HW227771   0.601   5.960   3.410
 8958SOL     OW27772   1.764   3.424   5.403
 8958SOL    HW127773   1.688   3.434   5.339
 8958SOL    HW227774   1.797   3.330   5.400
 8959SOL     OW27775   6.929   2.385   3.098
 8959SOL    HW127776   6.866   2.455   3.132
 8959SOL    HW227777   6.932   2.309   3.162
 8960SOL     OW27778   5.345   4.718   3.163
 8960SOL    HW127779   5.415   4.671   3.109
 8960SOL    HW227780   5.376   4.728   3.257
 8961SOL     OW27781   2.274   0.454   5.333
 8961SOL    HW127782   2.199   0.514   5.359
 8961SOL    HW227783   2.238   0.366   5.302
 8962SOL     OW27784   0.135   5.961   2.490
 8962SOL    HW127785   0.066   5.999   2.428
 8962SOL    HW227786   0.193   6.035   2.525
 8963SOL     OW27787   5.068   6.961   4.463
 8963SOL    HW127788   5.026   7.003   4.383
 8963SOL    HW227789   4.997   6.939   4.530
 8964SOL     OW27790   1.181   3.197   4.144
 8964SOL    HW127791   1.261   3.149   4.179
 8964SOL    HW227792   1.102   3.136   4.146
 8965SOL     OW27793   3.635   5.983   6.526
 8965SOL    HW127794   3.641   5.891   6.565
 8965SOL    HW227795   3.601   5.976   6.432
 8966SOL     OW27796   4.486   5.480   5.444
 8966SOL    HW127797   4.394   5.442   5.431
 8966SOL    HW227798   4.519   5.455   5.536
 8967SOL     OW27799   3.080   6.937   4.118
 8967SOL    HW127800   3.084   0.018   4.131
 8967SOL    HW227801   3.127   6.913   4.033
 8968SOL     OW27802   4.151   5.231   2.183
 8968SOL    HW127803   4.217   5.157   2.181
 8968SOL    HW227804   4.083   5.217   2.111
 8969SOL     OW27805   1.013   0.474   2.509
 8969SOL    HW127806   0.948   0.539   2.470
 8969SOL    HW227807   0.976   0.382   2.502
 8970SOL     OW27808   2.028   0.775   4.444
 8970SOL    HW127809   2.058   0.775   4.348
 8970SOL    HW227810   1.977   0.692   4.463
 8971SOL     OW27811   3.620   5.124   0.190
 8971SOL    HW127812   3.682   5.046   0.194
 8971SOL    HW227813   3.592   5.150   0.282
 8972SOL     OW27814   6.141   4.529   0.523
 8972SOL    HW127815   6.130   4.433   0.497
 8972SOL    HW227816   6.119   4.540   0.620
 8973SOL     OW27817   1.292   2.810   3.197
 8973SOL    HW127818   1.245   2.761   3.123
 8973SOL    HW227819   1.242   2.894   3.218
 8974SOL     OW27820   2.094   4.179   4.663
 8974SOL    HW127821   2.117   4.103   4.725
 8974SOL    HW227822   2.136   4.263   4.697
 8975SOL     OW27823   6.825   5.868   6.244
 8975SOL    HW127824   6.773   5.882   6.160
 8975SOL    HW227825   6.908   5.817   6.225
 8976SOL     OW27826   6.617   6.504   2.146
 8976SOL    HW127827   6.693   6.562   2.117
 8976SOL    HW227828   6.540   6.518   2.084
 8977SOL     OW27829   6.789   4.922   6.378
 8977SOL    HW127830   6.773   5.020   6.367
 8977SOL    HW227831   6.874   4.908   6.428
 8978SOL     OW27832   5.816   5.880   6.545
 8978SOL    HW127833   5.847   5.954   6.485
 8978SOL    HW227834   5.719   5.861   6.527
 8979SOL     OW27835   1.203   4.814   5.510
 8979SOL    HW127836   1.245   4.786   5.424
 8979SOL    HW227837   1.196   4.735   5.571
 8980SOL     OW27838   3.347   0.261   5.853
 8980SOL    HW127839   3.303   0.223   5.934
 8980SOL    HW227840   3.279   0.308   5.797
 8981SOL     OW27841   4.626   3.253   0.123
 8981SOL    HW127842   4.552   3.188   0.140
 8981SOL    HW227843   4.589   3.345   0.112
 8982SOL     OW27844   0.516   1.590   1.636
 8982SOL    HW127845   0.471   1.544   1.712
 8982SOL    HW227846   0.554   1.677   1.667
 8983SOL     OW27847   1.261   6.473   2.269
 8983SOL    HW127848   1.294   6.439   2.181
 8983SOL    HW227849   1.304   6.421   2.343
 8984SOL     OW27850   6.403   0.406   3.982
 8984SOL    HW127851   6.451   0.466   3.918
 8984SOL    HW227852   6.434   0.424   4.075
 8985SOL     OW27853   4.964   2.584   1.045
 8985SOL    HW127854   5.036   2.525   1.082
 8985SOL    HW227855   4.907   2.618   1.119
 8986SOL     OW27856   6.857   5.164   0.028
 8986SOL    HW127857   6.827   5.148   0.122
 8986SOL    HW227858   6.957   5.164   0.024
 8987SOL     OW27859   2.097   0.507   1.666
 8987SOL    HW127860   2.026   0.438   1.652
 8987SOL    HW227861   2.099   0.534   1.762
 8988SOL     OW27862   1.796   5.207   2.112
 8988SOL    HW127863   1.769   5.173   2.022
 8988SOL    HW227864   1.833   5.299   2.103
 8989SOL     OW27865   5.687   1.697   2.472
 8989SOL    HW127866   5.640   1.785   2.465
 8989SOL    HW227867   5.619   1.623   2.479
 8990SOL     OW27868   3.526   0.940   1.554
 8990SOL    HW127869   3.459   0.867   1.559
 8990SOL    HW227870   3.488   1.017   1.502
 8991SOL     OW27871   2.094   2.580   0.762
 8991SOL    HW127872   2.066   2.674   0.745
 8991SOL    HW227873   2.037   2.518   0.708
 8992SOL     OW27874   0.894   4.076   0.147
 8992SOL    HW127875   0.870   4.016   0.071
 8992SOL    HW227876   0.833   4.058   0.224
 8993SOL     OW27877   6.292   3.761   3.682
 8993SOL    HW127878   6.290   3.674   3.632
 8993SOL    HW227879   6.369   3.816   3.650
 8994SOL     OW27880   1.354   4.919   2.892
 8994SOL    HW127881   1.426   4.869   2.941
 8994SOL    HW227882   1.338   5.006   2.937
 8995SOL     OW27883   2.173   4.013   4.855
 8995SOL    HW127884   2.236   4.021   4.932
 8995SOL    HW227885   2.192   3.929   4.804
 8996SOL     OW27886   0.743   4.119   2.383
 8996SOL    HW127887   0.751   4.218   2.370
 8996SOL    HW227888   0.799   4.072   2.315
 8997SOL     OW27889   4.311   1.524   5.732
 8997SOL    HW127890   4.313   1.622   5.750
 8997SOL    HW227891   4.321   1.474   5.818
 8998SOL     OW27892   0.897   2.450   6.224
 8998SOL    HW127893   0.912   2.544   6.195
 8998SOL    HW227894   0.875   2.447   6.321
 8999SOL     OW27895   6.081   1.292   4.461
 8999SOL    HW127896   6.151   1.268   4.393
 8999SOL    HW227897   6.042   1.209   4.501
 9000SOL     OW27898   3.075   4.080   0.575
 9000SOL    HW127899   3.113   4.140   0.503
 9000SOL    HW227900   2.989   4.119   0.609
 9001SOL     OW27901   1.440   4.255   3.670
 9001SOL    HW127902   1.455   4.290   3.763
 9001SOL    HW227903   1.360   4.301   3.630
 9002SOL     OW27904   5.147   4.471   5.486
 9002SOL    HW127905   5.055   4.446   5.514
 9002SOL    HW227906   5.171   4.559   5.526
 9003SOL     OW27907   5.467   2.067   6.334
 9003SOL    HW127908   5.499   1.973   6.318
 9003SOL    HW227909   5.544   2.124   6.361
 9004SOL     OW27910   4.614   5.974   1.313
 9004SOL    HW127911   4.579   5.922   1.391
 9004SOL    HW227912   4.658   6.057   1.346
 9005SOL     OW27913   4.967   1.935   2.998
 9005SOL    HW127914   4.929   1.988   2.921
 9005SOL    HW227915   5.066   1.948   3.000
 9006SOL     OW27916   1.528   6.115   1.313
 9006SOL    HW127917   1.488   6.152   1.229
 9006SOL    HW227918   1.468   6.134   1.390
 9007SOL     OW27919   2.709   6.394   4.541
 9007SOL    HW127920   2.658   6.363   4.621
 9007SOL    HW227921   2.807   6.399   4.564
 9008SOL     OW27922   6.592   4.767   2.291
 9008SOL    HW127923   6.556   4.762   2.198
 9008SOL    HW227924   6.567   4.854   2.332
 9009SOL     OW27925   3.701   6.274   1.069
 9009SOL    HW127926   3.617   6.307   1.111
 9009SOL    HW227927   3.684   6.252   0.972
 9010SOL     OW27928   0.943   6.472   4.807
 9010SOL    HW127929   0.981   6.402   4.867
 9010SOL    HW227930   0.964   6.562   4.845
 9011SOL     OW27931   4.383   2.202   0.949
 9011SOL    HW127932   4.458   2.263   0.922
 9011SOL    HW227933   4.400   2.111   0.912
 9012SOL     OW27934   6.827   5.543   1.327
 9012SOL    HW127935   6.829   5.626   1.270
 9012SOL    HW227936   6.766   5.558   1.405
 9013SOL     OW27937   5.201   5.953   3.689
 9013SOL    HW127938   5.131   6.013   3.651
 9013SOL    HW227939   5.185   5.859   3.659
 9014SOL     OW27940   2.656   1.043   1.039
 9014SOL    HW127941   2.686   0.947   1.044
 9014SOL    HW227942   2.723   1.096   0.988
 9015SOL     OW27943   0.286   0.896   5.691
 9015SOL    HW127944   0.252   0.816   5.641
 9015SOL    HW227945   0.243   0.899   5.782
 9016SOL     OW27946   6.703   6.243   6.716
 9016SOL    HW127947   6.795   6.280   6.734
 9016SOL    HW227948   6.695   6.222   6.619
 9017SOL     OW27949   6.836   3.167   3.529
 9017SOL    HW127950   6.802   3.245   3.475
 9017SOL    HW227951   6.763   3.100   3.540
 9018SOL     OW27952   3.682   2.399   5.393
 9018SOL    HW127953   3.592   2.366   5.363
 9018SOL    HW227954   3.743   2.321   5.408
 9019SOL     OW27955   1.888   0.344   1.099
 9019SOL    HW127956   1.895   0.439   1.128
 9019SOL    HW227957   1.831   0.293   1.164
 9020SOL     OW27958   0.684   5.079   3.249
 9020SOL    HW127959   0.712   5.114   3.339
 9020SOL    HW227960   0.738   4.998   3.227
 9021SOL     OW27961   6.806   5.613   4.954
 9021SOL    HW127962   6.858   5.668   4.887
 9021SOL    HW227963   6.843   5.520   4.956
 9022SOL     OW27964   3.204   0.767   6.989
 9022SOL    HW127965   3.120   0.763   0.026
 9022SOL    HW227966   3.253   0.680   6.997
 9023SOL     OW27967   3.108   3.037   3.447
 9023SOL    HW127968   3.177   2.985   3.497
 9023SOL    HW227969   3.127   3.032   3.349
 9024SOL     OW27970   1.861   6.444   0.504
 9024SOL    HW127971   1.870   6.485   0.414
 9024SOL    HW227972   1.898   6.351   0.503
 9025SOL     OW27973   5.871   5.071   0.670
 9025SOL    HW127974   5.791   5.071   0.730
 9025SOL    HW227975   5.927   4.991   0.689
 9026SOL     OW27976   3.361   3.011   5.342
 9026SOL    HW127977   3.346   2.918   5.309
 9026SOL    HW227978   3.440   3.013   5.403
 9027SOL     OW27979   2.099   2.692   3.319
 9027SOL    HW127980   2.061   2.783   3.334
 9027SOL    HW227981   2.088   2.637   3.402
 9028SOL     OW27982   2.545   4.623   4.510
 9028SOL    HW127983   2.496   4.535   4.509
 9028SOL    HW227984   2.634   4.612   4.466
 9029SOL     OW27985   5.045   5.644   2.952
 9029SOL    HW127986   5.023   5.728   3.001
 9029SOL    HW227987   5.007   5.566   3.000
 9030SOL     OW27988   2.552   1.058   1.477
 9030SOL    HW127989   2.498   1.134   1.440
 9030SOL    HW227990   2.494   1.004   1.539
 9031SOL     OW27991   2.506   6.822   6.794
 9031SOL    HW127992   2.471   6.737   6.756
 9031SOL    HW227993   2.441   6.896   6.776
 9032SOL     OW27994   1.865   1.444   1.970
 9032SOL    HW127995   1.920   1.380   1.916
 9032SOL    HW227996   1.864   1.415   2.066
 9033SOL     OW27997   1.030   3.703   2.528
 9033SOL    HW127998   1.019   3.707   2.429
 9033SOL    HW227999   1.093   3.628   2.551
 9034SOL     OW28000   2.831   6.471   6.080
 9034SOL    HW128001   2.928   6.454   6.097
 9034SOL    HW228002   2.821   6.531   6.001
 9035SOL     OW28003   6.873   1.465   4.961
 9035SOL    HW128004   6.920   1.549   4.987
 9035SOL    HW228005   6.775   1.483   4.951
 9036SOL     OW28006   1.441   1.766   5.149
 9036SOL    HW128007   1.487   1.854   5.161
 9036SOL    HW228008   1.392   1.765   5.061
 9037SOL     OW28009   1.968   3.802   6.065
 9037SOL    HW128010   2.043   3.810   5.999
 9037SOL    HW228011   1.982   3.867   6.139
 9038SOL     OW28012   5.869   6.600   5.478
 9038SOL    HW128013   5.887   6.510   5.517
 9038SOL    HW228014   5.951   6.656   5.485
 9039SOL     OW28015   2.075   5.295   5.561
 9039SOL    HW128016   2.070   5.196   5.555
 9039SOL    HW228017   2.168   5.326   5.541
 9040SOL     OW28018   2.220   1.022   2.559
 9040SOL    HW128019   2.223   1.064   2.469
 9040SOL    HW228020   2.311   1.028   2.602
 9041SOL     OW28021   1.873   3.472   6.908
 9041SOL    HW128022   1.795   3.532   6.893
 9041SOL    HW228023   1.949   3.500   6.848
 9042SOL     OW28024   2.958   4.961   3.711
 9042SOL    HW128025   2.860   4.941   3.706
 9042SOL    HW228026   2.998   4.913   3.789
 9043SOL     OW28027   0.001   2.233   6.149
 9043SOL    HW128028   0.080   2.292   6.128
 9043SOL    HW228029   0.034   2.146   6.185
 9044SOL     OW28030   6.197   5.909   0.524
 9044SOL    HW128031   6.172   5.837   0.460
 9044SOL    HW228032   6.197   5.872   0.617
 9045SOL     OW28033   3.430   6.397   4.223
 9045SOL    HW128034   3.431   6.445   4.311
 9045SOL    HW228035   3.452   6.461   4.150
 9046SOL     OW28036   3.356   3.961   4.987
 9046SOL    HW128037   3.378   3.974   5.084
 9046SOL    HW228038   3.266   3.999   4.968
 9047SOL     OW28039   1.249   4.674   5.017
 9047SOL    HW128040   1.325   4.691   4.954
 9047SOL    HW228041   1.278   4.697   5.110
 9048SOL     OW28042   0.869   2.676   4.449
 9048SOL    HW128043   0.811   2.596   4.465
 9048SOL    HW228044   0.812   2.757   4.436
 9049SOL     OW28045   5.139   5.601   5.824
 9049SOL    HW128046   5.177   5.542   5.753
 9049SOL    HW228047   5.196   5.683   5.834
 9050SOL     OW28048   0.591   5.351   5.976
 9050SOL    HW128049   0.679   5.398   5.984
 9050SOL    HW228050   0.577   5.293   6.056
 9051SOL     OW28051   5.287   6.620   6.003
 9051SOL    HW128052   5.292   6.661   5.912
 9051SOL    HW228053   5.342   6.537   6.005
 9052SOL     OW28054   2.181   5.226   5.224
 9052SOL    HW128055   2.275   5.202   5.201
 9052SOL    HW228056   2.118   5.162   5.180
 9053SOL     OW28057   3.278   1.646   3.621
 9053SOL    HW128058   3.365   1.688   3.646
 9053SOL    HW228059   3.221   1.712   3.573
 9054SOL     OW28060   3.186   0.325   0.932
 9054SOL    HW128061   3.133   0.344   1.015
 9054SOL    HW228062   3.226   0.411   0.897
 9055SOL     OW28063   1.288   2.191   3.605
 9055SOL    HW128064   1.299   2.091   3.604
 9055SOL    HW228065   1.350   2.232   3.538
 9056SOL     OW28066   5.512   1.327   2.964
 9056SOL    HW128067   5.570   1.261   2.918
 9056SOL    HW228068   5.566   1.407   2.990
 9057SOL     OW28069   4.890   5.798   6.195
 9057SOL    HW128070   4.849   5.744   6.121
 9057SOL    HW228071   4.858   5.892   6.188
 9058SOL     OW28072   1.503   3.150   4.707
 9058SOL    HW128073   1.476   3.145   4.803
 9058SOL    HW228074   1.422   3.139   4.649
 9059SOL     OW28075   0.382   1.616   2.346
 9059SOL    HW128076   0.326   1.692   2.314
 9059SOL    HW228077   0.325   1.536   2.362
 9060SOL     OW28078   0.411   4.921   0.933
 9060SOL    HW128079   0.322   4.888   0.900
 9060SOL    HW228080   0.397   4.984   1.009
 9061SOL     OW28081   5.484   4.674   2.164
 9061SOL    HW128082   5.485   4.764   2.120
 9061SOL    HW228083   5.577   4.649   2.191
 9062SOL     OW28084   0.509   5.690   3.556
 9062SOL    HW128085   0.522   5.656   3.463
 9062SOL    HW228086   0.568   5.638   3.619
 9063SOL     OW28087   3.801   1.420   1.529
 9063SOL    HW128088   3.720   1.433   1.473
 9063SOL    HW228089   3.853   1.506   1.534
 9064SOL     OW28090   0.763   5.182   3.500
 9064SOL    HW128091   0.823   5.257   3.526
 9064SOL    HW228092   0.690   5.173   3.569
 9065SOL     OW28093   2.377   4.628   5.257
 9065SOL    HW128094   2.406   4.535   5.281
 9065SOL    HW228095   2.442   4.668   5.193
 9066SOL     OW28096   4.947   4.737   5.426
 9066SOL    HW128097   4.860   4.726   5.474
 9066SOL    HW228098   4.963   4.658   5.367
 9067SOL     OW28099   0.832   6.891   4.434
 9067SOL    HW128100   0.898   6.863   4.364
 9067SOL    HW228101   0.739   6.871   4.402
 9068SOL     OW28102   4.740   6.921   4.989
 9068SOL    HW128103   4.740   6.883   5.082
 9068SOL    HW228104   4.713   6.850   4.924
 9069SOL     OW28105   5.120   1.733   1.553
 9069SOL    HW128106   5.074   1.819   1.577
 9069SOL    HW228107   5.103   1.712   1.456
 9070SOL     OW28108   1.239   1.955   6.279
 9070SOL    HW128109   1.174   2.029   6.262
 9070SOL    HW228110   1.331   1.992   6.286
 9071SOL     OW28111   4.840   1.556   5.555
 9071SOL    HW128112   4.890   1.576   5.470
 9071SOL    HW228113   4.837   1.639   5.611
 9072SOL     OW28114   4.853   1.101   2.688
 9072SOL    HW128115   4.806   1.128   2.772
 9072SOL    HW228116   4.810   1.146   2.609
 9073SOL     OW28117   4.722   1.148   6.340
 9073SOL    HW128118   4.663   1.153   6.259
 9073SOL    HW228119   4.697   1.067   6.393
 9074SOL     OW28120   1.980   0.030   2.205
 9074SOL    HW128121   1.933   0.109   2.164
 9074SOL    HW228122   2.027   0.059   2.288
 9075SOL     OW28123   6.518   6.508   1.203
 9075SOL    HW128124   6.613   6.515   1.234
 9075SOL    HW228125   6.517   6.484   1.105
 9076SOL     OW28126   6.665   0.832   1.988
 9076SOL    HW128127   6.697   0.745   2.026
 9076SOL    HW228128   6.732   0.904   2.009
 9077SOL     OW28129   6.153   1.499   6.200
 9077SOL    HW128130   6.232   1.438   6.202
 9077SOL    HW228131   6.148   1.543   6.110
 9078SOL     OW28132   5.209   5.802   6.780
 9078SOL    HW128133   5.255   5.738   6.841
 9078SOL    HW228134   5.130   5.757   6.739
 9079SOL     OW28135   1.291   0.434   6.474
 9079SOL    HW128136   1.257   0.385   6.393
 9079SOL    HW228137   1.260   0.529   6.471
 9080SOL     OW28138   5.714   3.624   1.499
 9080SOL    HW128139   5.662   3.545   1.531
 9080SOL    HW228140   5.769   3.661   1.574
 9081SOL     OW28141   4.227   1.938   0.618
 9081SOL    HW128142   4.326   1.950   0.621
 9081SOL    HW228143   4.186   2.014   0.567
 9082SOL     OW28144   2.681   6.234   5.570
 9082SOL    HW128145   2.702   6.260   5.664
 9082SOL    HW228146   2.718   6.142   5.552
 9083SOL     OW28147   4.069   5.393   6.799
 9083SOL    HW128148   4.144   5.441   6.753
 9083SOL    HW228149   4.036   5.319   6.741
 9084SOL     OW28150   0.319   2.690   5.805
 9084SOL    HW128151   0.297   2.754   5.732
 9084SOL    HW228152   0.360   2.607   5.767
 9085SOL     OW28153   2.591   5.194   6.811
 9085SOL    HW128154   2.564   5.170   6.717
 9085SOL    HW228155   2.667   5.135   6.839
 9086SOL     OW28156   6.810   4.342   0.535
 9086SOL    HW128157   6.892   4.295   0.502
 9086SOL    HW228158   6.833   4.392   0.619
 9087SOL     OW28159   6.045   0.779   1.233
 9087SOL    HW128160   6.019   0.725   1.313
 9087SOL    HW228161   6.082   0.718   1.162
 9088SOL     OW28162   6.897   6.885   0.606
 9088SOL    HW128163   6.811   6.864   0.560
 9088SOL    HW228164   6.879   6.946   0.684
 9089SOL     OW28165   4.843   5.592   3.861
 9089SOL    HW128166   4.847   5.689   3.883
 9089SOL    HW228167   4.752   5.556   3.882
 9090SOL     OW28168   5.788   6.616   4.710
 9090SOL    HW128169   5.845   6.538   4.736
 9090SOL    HW228170   5.708   6.584   4.660
 9091SOL     OW28171   2.252   1.869   1.529
 9091SOL    HW128172   2.234   1.774   1.503
 9091SOL    HW228173   2.311   1.912   1.462
 9092SOL     OW28174   1.186   6.606   5.493
 9092SOL    HW128175   1.103   6.662   5.499
 9092SOL    HW228176   1.164   6.519   5.449
 9093SOL     OW28177   2.403   5.115   0.710
 9093SOL    HW128178   2.352   5.032   0.735
 9093SOL    HW228179   2.373   5.146   0.619
 9094SOL     OW28180   0.300   5.249   2.077
 9094SOL    HW128181   0.311   5.349   2.079
 9094SOL    HW228182   0.306   5.213   2.170
 9095SOL     OW28183   3.471   3.545   6.631
 9095SOL    HW128184   3.406   3.477   6.666
 9095SOL    HW228185   3.548   3.497   6.587
 9096SOL     OW28186   5.804   2.443   2.828
 9096SOL    HW128187   5.733   2.379   2.802
 9096SOL    HW228188   5.775   2.536   2.806
 9097SOL     OW28189   1.172   4.164   6.778
 9097SOL    HW128190   1.240   4.232   6.751
 9097SOL    HW228191   1.136   4.119   6.696
 9098SOL     OW28192   3.933   3.960   2.022
 9098SOL    HW128193   3.901   3.989   2.113
 9098SOL    HW228194   3.872   3.997   1.952
 9099SOL     OW28195   2.847   3.663   1.156
 9099SOL    HW128196   2.754   3.641   1.124
 9099SOL    HW228197   2.888   3.731   1.095
 9100SOL     OW28198   1.041   3.030   0.859
 9100SOL    HW128199   1.132   3.064   0.880
 9100SOL    HW228200   1.038   2.931   0.872
 9101SOL     OW28201   1.759   2.509   2.174
 9101SOL    HW128202   1.725   2.578   2.237
 9101SOL    HW228203   1.783   2.553   2.087
 9102SOL     OW28204   3.844   5.518   2.012
 9102SOL    HW128205   3.936   5.482   2.029
 9102SOL    HW228206   3.842   5.615   2.035
 9103SOL     OW28207   6.835   4.069   0.900
 9103SOL    HW128208   6.886   4.146   0.938
 9103SOL    HW228209   6.815   4.003   0.972
 9104SOL     OW28210   4.557   6.223   1.491
 9104SOL    HW128211   4.642   6.194   1.536
 9104SOL    HW228212   4.500   6.274   1.555
 9105SOL     OW28213   1.359   1.453   6.501
 9105SOL    HW128214   1.394   1.495   6.417
 9105SOL    HW228215   1.309   1.370   6.479
 9106SOL     OW28216   5.618   4.883   6.828
 9106SOL    HW128217   5.659   4.793   6.838
 9106SOL    HW228218   5.519   4.875   6.829
 9107SOL     OW28219   3.552   0.126   0.846
 9107SOL    HW128220   3.631   0.131   0.784
 9107SOL    HW228221   3.469   0.148   0.795
 9108SOL     OW28222   4.376   5.085   5.244
 9108SOL    HW128223   4.348   5.154   5.178
 9108SOL    HW228224   4.306   5.078   5.316
 9109SOL     OW28225   3.437   2.139   3.918
 9109SOL    HW128226   3.476   2.124   3.828
 9109SOL    HW228227   3.338   2.150   3.910
 9110SOL     OW28228   1.753   4.075   3.780
 9110SOL    HW128229   1.844   4.032   3.781
 9110SOL    HW228230   1.756   4.158   3.725
 9111SOL     OW28231   3.997   4.372   1.125
 9111SOL    HW128232   4.037   4.280   1.126
 9111SOL    HW228233   3.904   4.367   1.090
 9112SOL     OW28234   0.270   4.383   1.945
 9112SOL    HW128235   0.315   4.295   1.961
 9112SOL    HW228236   0.213   4.406   2.025
 9113SOL     OW28237   5.247   0.159   0.408
 9113SOL    HW128238   5.193   0.201   0.335
 9113SOL    HW228239   5.185   0.130   0.482
 9114SOL     OW28240   2.496   4.871   2.030
 9114SOL    HW128241   2.550   4.948   2.064
 9114SOL    HW228242   2.466   4.815   2.108
 9115SOL     OW28243   1.262   4.831   4.718
 9115SOL    HW128244   1.271   4.916   4.770
 9115SOL    HW228245   1.351   4.807   4.679
 9116SOL     OW28246   6.867   1.724   6.735
 9116SOL    HW128247   6.939   1.680   6.788
 9116SOL    HW228248   6.907   1.770   6.656
 9117SOL     OW28249   6.322   2.725   6.602
 9117SOL    HW128250   6.271   2.643   6.627
 9117SOL    HW228251   6.348   2.775   6.685
 9118SOL     OW28252   0.120   6.487   1.248
 9118SOL    HW128253   0.181   6.410   1.228
 9118SOL    HW228254   0.050   6.493   1.177
 9119SOL     OW28255   5.537   0.441   2.281
 9119SOL    HW128256   5.563   0.536   2.298
 9119SOL    HW228257   5.489   0.435   2.194
 9120SOL     OW28258   5.794   1.057   5.695
 9120SOL    HW128259   5.824   1.148   5.723
 9120SOL    HW228260   5.727   1.022   5.760
 9121SOL     OW28261   0.266   2.341   5.509
 9121SOL    HW128262   0.193   2.397   5.470
 9121SOL    HW228263   0.337   2.400   5.547
 9122SOL     OW28264   1.920   2.408   2.986
 9122SOL    HW128265   1.912   2.391   3.085
 9122SOL    HW228266   2.010   2.375   2.955
 9123SOL     OW28267   2.635   6.239   6.065
 9123SOL    HW128268   2.557   6.295   6.039
 9123SOL    HW228269   2.720   6.286   6.042
 9124SOL     OW28270   6.482   5.801   5.216
 9124SOL    HW128271   6.445   5.749   5.140
 9124SOL    HW228272   6.408   5.853   5.260
 9125SOL     OW28273   5.036   4.228   3.656
 9125SOL    HW128274   5.031   4.296   3.729
 9125SOL    HW228275   5.043   4.275   3.568
 9126SOL     OW28276   5.611   0.902   1.642
 9126SOL    HW128277   5.529   0.958   1.630
 9126SOL    HW228278   5.664   0.937   1.719
 9127SOL     OW28279   5.519   0.439   6.399
 9127SOL    HW128280   5.431   0.462   6.440
 9127SOL    HW228281   5.505   0.413   6.303
 9128SOL     OW28282   3.771   1.839   5.409
 9128SOL    HW128283   3.834   1.848   5.331
 9128SOL    HW228284   3.722   1.752   5.401
 9129SOL     OW28285   1.541   2.452   6.470
 9129SOL    HW128286   1.596   2.494   6.398
 9129SOL    HW228287   1.469   2.515   6.499
 9130SOL     OW28288   6.742   4.604   0.437
 9130SOL    HW128289   6.772   4.632   0.528
 9130SOL    HW228290   6.755   4.506   0.426
 9131SOL     OW28291   0.514   4.258   4.313
 9131SOL    HW128292   0.419   4.268   4.284
 9131SOL    HW228293   0.520   4.271   4.412
 9132SOL     OW28294   6.608   3.506   3.439
 9132SOL    HW128295   6.562   3.452   3.509
 9132SOL    HW228296   6.541   3.538   3.372
 9133SOL     OW28297   2.474   4.267   1.131
 9133SOL    HW128298   2.481   4.272   1.230
 9133SOL    HW228299   2.563   4.283   1.090
 9134SOL     OW28300   3.834   6.909   0.316
 9134SOL    HW128301   3.917   6.887   0.265
 9134SOL    HW228302   3.813   7.006   0.305
 9135SOL     OW28303   6.356   6.715   2.848
 9135SOL    HW128304   6.339   6.674   2.759
 9135SOL    HW228305   6.287   6.785   2.867
 9136SOL     OW28306   5.130   5.113   5.753
 9136SOL    HW128307   5.094   5.204   5.772
 9136SOL    HW228308   5.195   5.118   5.677
 9137SOL     OW28309   5.397   1.806   1.205
 9137SOL    HW128310   5.485   1.760   1.213
 9137SOL    HW228311   5.326   1.737   1.184
 9138SOL     OW28312   5.907   4.766   5.994
 9138SOL    HW128313   5.907   4.809   6.085
 9138SOL    HW228314   5.999   4.736   5.971
 9139SOL     OW28315   2.992   0.930   6.029
 9139SOL    HW128316   3.066   0.977   5.982
 9139SOL    HW228317   2.954   0.859   5.970
 9140SOL     OW28318   6.358   2.375   3.042
 9140SOL    HW128319   6.401   2.286   3.031
 9140SOL    HW228320   6.260   2.363   3.057
 9141SOL     OW28321   5.269   0.348   5.823
 9141SOL    HW128322   5.294   0.413   5.751
 9141SOL    HW228323   5.298   0.256   5.796
 9142SOL     OW28324   0.380   3.173   5.291
 9142SOL    HW128325   0.445   3.098   5.299
 9142SOL    HW228326   0.412   3.251   5.345
 9143SOL     OW28327   4.323   3.137   0.186
 9143SOL    HW128328   4.246   3.193   0.215
 9143SOL    HW228329   4.308   3.105   0.092
 9144SOL     OW28330   1.918   6.237   5.849
 9144SOL    HW128331   2.002   6.183   5.857
 9144SOL    HW228332   1.930   6.307   5.778
 9145SOL     OW28333   0.509   4.488   0.748
 9145SOL    HW128334   0.572   4.416   0.719
 9145SOL    HW228335   0.449   4.453   0.820
 9146SOL     OW28336   5.526   2.542   1.634
 9146SOL    HW128337   5.452   2.475   1.639
 9146SOL    HW228338   5.504   2.611   1.566
 9147SOL     OW28339   4.525   6.396   3.689
 9147SOL    HW128340   4.483   6.475   3.735
 9147SOL    HW228341   4.545   6.420   3.594
 9148SOL     OW28342   5.640   6.349   2.476
 9148SOL    HW128343   5.604   6.293   2.402
 9148SOL    HW228344   5.564   6.378   2.535
 9149SOL     OW28345   4.812   2.991   4.086
 9149SOL    HW128346   4.721   2.962   4.112
 9149SOL    HW228347   4.812   3.021   3.991
 9150SOL     OW28348   4.604   6.570   2.962
 9150SOL    HW128349   4.534   6.570   2.891
 9150SOL    HW228350   4.582   6.501   3.031
 9151SOL     OW28351   1.506   4.020   1.688
 9151SOL    HW128352   1.603   4.011   1.710
 9151SOL    HW228353   1.490   3.993   1.594
 9152SOL     OW28354   2.502   5.774   3.974
 9152SOL    HW128355   2.559   5.804   4.050
 9152SOL    HW228356   2.485   5.676   3.982
 9153SOL     OW28357   1.428   2.366   6.728
 9153SOL    HW128358   1.372   2.442   6.759
 9153SOL    HW228359   1.372   2.302   6.675
 9154SOL     OW28360   2.881   6.091   6.476
 9154SOL    HW128361   2.828   6.126   6.554
 9154SOL    HW228362   2.920   6.168   6.425
 9155SOL     OW28363   2.059   3.566   6.750
 9155SOL    HW128364   2.037   3.610   6.663
 9155SOL    HW228365   2.136   3.504   6.737
 9156SOL     OW28366   3.202   2.282   1.398
 9156SOL    HW128367   3.297   2.313   1.402
 9156SOL    HW228368   3.200   2.182   1.403
 9157SOL     OW28369   6.039   4.709   5.431
 9157SOL    HW128370   6.094   4.641   5.479
 9157SOL    HW228371   6.067   4.714   5.336
 9158SOL     OW28372   7.016   3.686   4.538
 9158SOL    HW128373   0.029   3.779   4.557
 9158SOL    HW228374   6.939   3.663   4.599
 9159SOL     OW28375   0.193   5.621   3.209
 9159SOL    HW128376   0.224   5.539   3.160
 9159SOL    HW228377   0.273   5.673   3.240
 9160SOL     OW28378   0.351   6.838   5.640
 9160SOL    HW128379   0.428   6.790   5.681
 9160SOL    HW228380   0.266   6.808   5.683
 9161SOL     OW28381   4.857   4.156   4.950
 9161SOL    HW128382   4.835   4.076   5.005
 9161SOL    HW228383   4.893   4.229   5.009
 9162SOL     OW28384   5.125   2.419   3.100
 9162SOL    HW128385   5.077   2.488   3.045
 9162SOL    HW228386   5.155   2.460   3.186
 9163SOL     OW28387   2.259   2.754   4.023
 9163SOL    HW128388   2.167   2.724   3.999
 9163SOL    HW228389   2.255   2.837   4.077
 9164SOL     OW28390   2.871   0.703   6.677
 9164SOL    HW128391   2.949   0.750   6.718
 9164SOL    HW228392   2.892   0.605   6.669
 9165SOL     OW28393   6.296   0.514   5.810
 9165SOL    HW128394   6.247   0.516   5.896
 9165SOL    HW228395   6.294   0.421   5.772
 9166SOL     OW28396   4.811   6.336   1.078
 9166SOL    HW128397   4.842   6.356   1.171
 9166SOL    HW228398   4.763   6.416   1.041
 9167SOL     OW28399   1.654   3.128   5.825
 9167SOL    HW128400   1.628   3.031   5.819
 9167SOL    HW228401   1.736   3.137   5.881
 9168SOL     OW28402   2.356   0.106   5.850
 9168SOL    HW128403   2.339   0.024   5.904
 9168SOL    HW228404   2.320   0.093   5.758
 9169SOL     OW28405   0.058   0.686   4.929
 9169SOL    HW128406   0.143   0.674   4.980
 9169SOL    HW228407   7.007   0.728   4.988
 9170SOL     OW28408   0.272   4.966   6.704
 9170SOL    HW128409   0.310   4.889   6.653
 9170SOL    HW228410   0.319   5.050   6.677
 9171SOL     OW28411   3.116   5.614   6.958
 9171SOL    HW128412   3.063   5.565   6.889
 9171SOL    HW228413   3.213   5.591   6.950
 9172SOL     OW28414   3.320   1.013   4.576
 9172SOL    HW128415   3.350   1.099   4.618
 9172SOL    HW228416   3.228   0.991   4.608
 9173SOL     OW28417   5.574   4.816   4.570
 9173SOL    HW128418   5.568   4.722   4.605
 9173SOL    HW228419   5.512   4.874   4.623
 9174SOL     OW28420   6.045   3.790   0.659
 9174SOL    HW128421   5.967   3.730   0.642
 9174SOL    HW228422   6.127   3.735   0.672
 9175SOL     OW28423   2.498   6.172   5.379
 9175SOL    HW128424   2.564   6.229   5.427
 9175SOL    HW228425   2.472   6.095   5.437
 9176SOL     OW28426   1.733   1.085   5.288
 9176SOL    HW128427   1.772   1.029   5.362
 9176SOL    HW228428   1.687   1.165   5.328
 9177SOL     OW28429   1.188   4.361   4.011
 9177SOL    HW128430   1.187   4.261   4.014
 9177SOL    HW228431   1.103   4.394   3.970
 9178SOL     OW28432   2.369   4.660   0.744
 9178SOL    HW128433   2.281   4.705   0.732
 9178SOL    HW228434   2.436   4.727   0.777
 9179SOL     OW28435   2.177   5.187   4.092
 9179SOL    HW128436   2.140   5.203   4.184
 9179SOL    HW228437   2.234   5.105   4.094
 9180SOL     OW28438   6.125   2.400   3.230
 9180SOL    HW128439   6.060   2.475   3.213
 9180SOL    HW228440   6.109   2.328   3.163
 9181SOL     OW28441   4.499   2.545   3.044
 9181SOL    HW128442   4.413   2.500   3.022
 9181SOL    HW228443   4.535   2.507   3.129
 9182SOL     OW28444   2.880   0.156   2.429
 9182SOL    HW128445   2.824   0.099   2.488
 9182SOL    HW228446   2.956   0.194   2.482
 9183SOL     OW28447   5.342   5.923   0.526
 9183SOL    HW128448   5.370   6.018   0.518
 9183SOL    HW228449   5.372   5.872   0.445
 9184SOL     OW28450   5.327   0.795   0.326
 9184SOL    HW128451   5.363   0.848   0.403
 9184SOL    HW228452   5.232   0.772   0.344
 9185SOL     OW28453   4.063   0.021   5.896
 9185SOL    HW128454   4.076   0.118   5.915
 9185SOL    HW228455   4.097   0.001   5.804
 9186SOL     OW28456   6.252   1.619   4.480
 9186SOL    HW128457   6.331   1.673   4.451
 9186SOL    HW228458   6.273   1.575   4.567
 9187SOL     OW28459   2.346   0.104   1.201
 9187SOL    HW128460   2.261   0.118   1.151
 9187SOL    HW228461   2.325   0.085   1.297
 9188SOL     OW28462   2.265   6.445   1.587
 9188SOL    HW128463   2.351   6.445   1.638
 9188SOL    HW228464   2.204   6.376   1.625
 9189SOL     OW28465   5.262   6.221   2.716
 9189SOL    HW128466   5.341   6.159   2.714
 9189SOL    HW228467   5.291   6.312   2.686
 9190SOL     OW28468   1.656   5.284   0.481
 9190SOL    HW128469   1.599   5.254   0.557
 9190SOL    HW228470   1.651   5.217   0.407
 9191SOL     OW28471   5.816   1.310   5.139
 9191SOL    HW128472   5.771   1.224   5.163
 9191SOL    HW228473   5.838   1.310   5.041
 9192SOL     OW28474   0.147   4.033   4.426
 9192SOL    HW128475   0.098   3.989   4.501
 9192SOL    HW228476   0.244   4.041   4.449
 9193SOL     OW28477   4.296   4.014   6.950
 9193SOL    HW128478   4.289   3.943   0.002
 9193SOL    HW228479   4.367   3.988   6.884
 9194SOL     OW28480   3.729   0.621   3.513
 9194SOL    HW128481   3.656   0.572   3.560
 9194SOL    HW228482   3.753   0.703   3.565
 9195SOL     OW28483   1.935   2.392   4.270
 9195SOL    HW128484   1.889   2.309   4.238
 9195SOL    HW228485   1.942   2.457   4.194
 9196SOL     OW28486   4.132   1.169   5.118
 9196SOL    HW128487   4.165   1.097   5.179
 9196SOL    HW228488   4.203   1.191   5.051
 9197SOL     OW28489   1.997   4.448   1.590
 9197SOL    HW128490   1.947   4.410   1.512
 9197SOL    HW228491   1.938   4.511   1.640
 9198SOL     OW28492   6.382   5.222   5.113
 9198SOL    HW128493   6.298   5.192   5.159
 9198SOL    HW228494   6.358   5.262   5.025
 9199SOL     OW28495   0.555   3.188   6.276
 9199SOL    HW128496   0.614   3.172   6.354
 9199SOL    HW228497   0.594   3.260   6.218
 9200SOL     OW28498   2.325   6.770   1.289
 9200SOL    HW128499   2.364   6.750   1.199
 9200SOL    HW228500   2.248   6.833   1.279
 9201SOL     OW28501   0.624   3.569   0.287
 9201SOL    HW128502   0.674   3.484   0.269
 9201SOL    HW228503   0.545   3.549   0.346
 9202SOL     OW28504   2.452   6.533   3.878
 9202SOL    HW128505   2.492   6.557   3.966
 9202SOL    HW228506   2.356   6.561   3.876
 9203SOL     OW28507   0.488   5.353   6.901
 9203SOL    HW128508   0.439   5.303   6.972
 9203SOL    HW228509   0.424   5.383   6.831
 9204SOL     OW28510   4.934   2.279   6.797
 9204SOL    HW128511   4.838   2.289   6.821
 9204SOL    HW228512   4.943   2.264   6.699
 9205SOL     OW28513   6.453   4.337   2.749
 9205SOL    HW128514   6.519   4.262   2.741
 9205SOL    HW228515   6.415   4.358   2.659
 9206SOL     OW28516   3.512   5.289   1.258
 9206SOL    HW128517   3.500   5.201   1.211
 9206SOL    HW228518   3.523   5.273   1.356
 9207SOL     OW28519   4.318   5.137   0.148
 9207SOL    HW128520   4.337   5.053   0.199
 9207SOL    HW228521   4.223   5.136   0.116
 9208SOL     OW28522   6.034   4.021   4.366
 9208SOL    HW128523   6.091   4.066   4.297
 9208SOL    HW228524   5.959   4.082   4.392
 9209SOL     OW28525   2.978   1.128   0.380
 9209SOL    HW128526   2.960   1.106   0.476
 9209SOL    HW228527   3.076   1.131   0.364
 9210SOL     OW28528   6.331   1.610   3.034
 9210SOL    HW128529   6.341   1.656   2.945
 9210SOL    HW228530   6.249   1.552   3.032
 9211SOL     OW28531   6.886   2.651   4.082
 9211SOL    HW128532   6.812   2.717   4.076
 9211SOL    HW228533   6.857   2.573   4.137
 9212SOL     OW28534   3.820   5.361   4.506
 9212SOL    HW128535   3.798   5.298   4.580
 9212SOL    HW228536   3.845   5.309   4.424
 9213SOL     OW28537   6.095   3.043   5.412
 9213SOL    HW128538   6.195   3.040   5.406
 9213SOL    HW228539   6.055   3.018   5.324
 9214SOL     OW28540   6.719   5.500   5.823
 9214SOL    HW128541   6.646   5.563   5.798
 9214SOL    HW228542   6.701   5.461   5.913
 9215SOL     OW28543   0.818   2.265   0.515
 9215SOL    HW128544   0.767   2.179   0.512
 9215SOL    HW228545   0.880   2.264   0.593
 9216SOL     OW28546   2.783   0.229   3.378
 9216SOL    HW128547   2.862   0.279   3.342
 9216SOL    HW228548   2.745   0.279   3.455
 9217SOL     OW28549   0.391   1.057   5.976
 9217SOL    HW128550   0.435   1.035   6.063
 9217SOL    HW228551   0.457   1.098   5.914
 9218SOL     OW28552   3.893   6.595   0.374
 9218SOL    HW128553   3.880   6.520   0.440
 9218SOL    HW228554   3.805   6.625   0.339
 9219SOL     OW28555   0.566   3.018   0.167
 9219SOL    HW128556   0.514   3.093   0.127
 9219SOL    HW228557   0.598   2.957   0.094
 9220SOL     OW28558   3.376   6.142   1.239
 9220SOL    HW128559   3.417   6.232   1.222
 9220SOL    HW228560   3.444   6.070   1.223
 9221SOL     OW28561   3.682   0.664   3.991
 9221SOL    HW128562   3.654   0.694   4.083
 9221SOL    HW228563   3.623   0.706   3.923
 9222SOL     OW28564   2.444   0.470   6.828
 9222SOL    HW128565   2.464   0.561   6.863
 9222SOL    HW228566   2.365   0.475   6.766
 9223SOL     OW28567   1.841   2.163   5.137
 9223SOL    HW128568   1.855   2.173   5.038
 9223SOL    HW228569   1.927   2.137   5.180
 9224SOL     OW28570   2.942   5.238   4.238
 9224SOL    HW128571   3.000   5.266   4.313
 9224SOL    HW228572   2.847   5.230   4.270
 9225SOL     OW28573   3.422   6.645   6.735
 9225SOL    HW128574   3.505   6.620   6.786
 9225SOL    HW228575   3.446   6.666   6.640
 9226SOL     OW28576   5.498   6.382   1.441
 9226SOL    HW128577   5.401   6.355   1.445
 9226SOL    HW228578   5.550   6.313   1.392
 9227SOL     OW28579   1.212   4.971   3.690
 9227SOL    HW128580   1.129   5.026   3.680
 9227SOL    HW228581   1.266   4.975   3.606
 9228SOL     OW28582   1.388   0.752   5.671
 9228SOL    HW128583   1.429   0.830   5.718
 9228SOL    HW228584   1.390   0.768   5.573
 9229SOL     OW28585   1.885   5.664   4.230
 9229SOL    HW128586   1.834   5.579   4.214
 9229SOL    HW228587   1.945   5.682   4.152
 9230SOL     OW28588   5.744   0.296   2.379
 9230SOL    HW128589   5.811   0.257   2.317
 9230SOL    HW228590   5.679   0.352   2.327
 9231SOL     OW28591   1.818   3.297   4.259
 9231SOL    HW128592   1.918   3.302   4.261
 9231SOL    HW228593   1.784   3.267   4.348
 9232SOL     OW28594   3.520   5.023   1.118
 9232SOL    HW128595   3.421   5.033   1.133
 9232SOL    HW228596   3.536   4.992   1.024
 9233SOL     OW28597   6.103   5.388   1.558
 9233SOL    HW128598   6.197   5.419   1.540
 9233SOL    HW228599   6.093   5.369   1.656
 9234SOL     OW28600   3.188   5.610   4.104
 9234SOL    HW128601   3.101   5.590   4.059
 9234SOL    HW228602   3.173   5.620   4.202
 9235SOL     OW28603   1.902   1.688   3.169
 9235SOL    HW128604   1.968   1.736   3.111
 9235SOL    HW228605   1.949   1.617   3.221
 9236SOL     OW28606   3.579   4.256   5.495
 9236SOL    HW128607   3.625   4.235   5.582
 9236SOL    HW228608   3.648   4.270   5.424
 9237SOL     OW28609   1.416   4.259   4.627
 9237SOL    HW128610   1.439   4.333   4.563
 9237SOL    HW228611   1.466   4.176   4.602
 9238SOL     OW28612   4.420   2.279   6.234
 9238SOL    HW128613   4.366   2.358   6.204
 9238SOL    HW228614   4.513   2.310   6.256
 9239SOL     OW28615   0.046   3.810   1.050
 9239SOL    HW128616   6.976   3.763   1.041
 9239SOL    HW228617   0.063   3.831   1.146
 9240SOL     OW28618   5.882   1.643   0.593
 9240SOL    HW128619   5.822   1.651   0.514
 9240SOL    HW228620   5.865   1.556   0.640
 9241SOL     OW28621   6.490   5.524   6.524
 9241SOL    HW128622   6.585   5.509   6.496
 9241SOL    HW228623   6.440   5.438   6.518
 9242SOL     OW28624   0.288   5.238   0.735
 9242SOL    HW128625   0.246   5.220   0.823
 9242SOL    HW228626   0.223   5.219   0.662
 9243SOL     OW28627   6.354   5.514   3.365
 9243SOL    HW128628   6.281   5.545   3.426
 9243SOL    HW228629   6.425   5.584   3.358
 9244SOL     OW28630   4.711   5.802   6.536
 9244SOL    HW128631   4.748   5.737   6.470
 9244SOL    HW228632   4.752   5.785   6.626
 9245SOL     OW28633   1.478   5.141   2.381
 9245SOL    HW128634   1.495   5.179   2.290
 9245SOL    HW228635   1.458   5.044   2.373
 9246SOL     OW28636   5.962   4.685   3.592
 9246SOL    HW128637   5.926   4.726   3.509
 9246SOL    HW228638   5.889   4.637   3.640
 9247SOL     OW28639   0.680   0.271   2.706
 9247SOL    HW128640   0.629   0.346   2.746
 9247SOL    HW228641   0.666   0.270   2.607
 9248SOL     OW28642   2.331   2.504   5.931
 9248SOL    HW128643   2.266   2.538   5.863
 9248SOL    HW228644   2.422   2.542   5.913
 9249SOL     OW28645   5.230   2.186   5.536
 9249SOL    HW128646   5.150   2.234   5.571
 9249SOL    HW228647   5.208   2.143   5.449
 9250SOL     OW28648   5.018   4.006   4.452
 9250SOL    HW128649   4.940   4.049   4.498
 9250SOL    HW228650   5.012   3.907   4.464
 9251SOL     OW28651   4.034   1.670   2.985
 9251SOL    HW128652   4.112   1.700   2.931
 9251SOL    HW228653   3.955   1.729   2.966
 9252SOL     OW28654   6.803   0.007   4.473
 9252SOL    HW128655   6.715   6.987   4.502
 9252SOL    HW228656   6.806   0.105   4.495
 9253SOL     OW28657   3.049   6.220   6.281
 9253SOL    HW128658   3.038   6.253   6.187
 9253SOL    HW228659   3.064   6.298   6.342
 9254SOL     OW28660   5.200   3.565   1.323
 9254SOL    HW128661   5.108   3.581   1.288
 9254SOL    HW228662   5.195   3.547   1.422
 9255SOL     OW28663   5.235   3.003   0.124
 9255SOL    HW128664   5.211   2.915   0.082
 9255SOL    HW228665   5.151   3.052   0.150
 9256SOL     OW28666   4.361   4.597   2.874
 9256SOL    HW128667   4.315   4.605   2.962
 9256SOL    HW228668   4.361   4.686   2.828
 9257SOL     OW28669   1.066   4.081   2.432
 9257SOL    HW128670   1.018   4.055   2.516
 9257SOL    HW228671   1.065   4.004   2.368
 9258SOL     OW28672   3.291   3.285   4.110
 9258SOL    HW128673   3.347   3.293   4.027
 9258SOL    HW228674   3.195   3.273   4.084
 9259SOL     OW28675   0.796   2.289   1.583
 9259SOL    HW128676   0.842   2.207   1.617
 9259SOL    HW228677   0.807   2.294   1.484
 9260SOL     OW28678   4.896   2.242   5.381
 9260SOL    HW128679   4.952   2.159   5.385
 9260SOL    HW228680   4.904   2.292   5.467
 9261SOL     OW28681   4.352   0.292   6.635
 9261SOL    HW128682   4.302   0.208   6.656
 9261SOL    HW228683   4.340   0.357   6.709
 9262SOL     OW28684   5.881   1.981   5.722
 9262SOL    HW128685   5.808   1.983   5.654
 9262SOL    HW228686   5.843   1.954   5.811
 9263SOL     OW28687   6.009   4.228   1.529
 9263SOL    HW128688   6.077   4.155   1.522
 9263SOL    HW228689   5.971   4.230   1.622
 9264SOL     OW28690   6.218   3.740   0.248
 9264SOL    HW128691   6.119   3.750   0.258
 9264SOL    HW228692   6.238   3.677   0.173
 9265SOL     OW28693   3.103   1.912   0.454
 9265SOL    HW128694   3.090   1.991   0.393
 9265SOL    HW228695   3.103   1.943   0.549
 9266SOL     OW28696   2.803   6.000   3.146
 9266SOL    HW128697   2.749   6.078   3.178
 9266SOL    HW228698   2.889   5.995   3.197
 9267SOL     OW28699   0.259   4.131   4.173
 9267SOL    HW128700   0.247   4.124   4.272
 9267SOL    HW228701   0.342   4.083   4.147
 9268SOL     OW28702   0.968   6.492   2.769
 9268SOL    HW128703   0.943   6.583   2.801
 9268SOL    HW228704   1.064   6.473   2.792
 9269SOL     OW28705   3.000   2.432   6.981
 9269SOL    HW128706   3.045   2.506   6.931
 9269SOL    HW228707   2.957   2.469   0.045
 9270SOL     OW28708   6.080   6.880   5.672
 9270SOL    HW128709   6.021   6.922   5.603
 9270SOL    HW228710   6.097   6.785   5.648
 9271SOL     OW28711   1.778   6.193   1.288
 9271SOL    HW128712   1.806   6.220   1.196
 9271SOL    HW228713   1.679   6.181   1.291
 9272SOL     OW28714   3.062   4.371   5.854
 9272SOL    HW128715   3.035   4.442   5.918
 9272SOL    HW228716   3.012   4.286   5.875
 9273SOL     OW28717   4.144   5.864   3.825
 9273SOL    HW128718   4.205   5.824   3.894
 9273SOL    HW228719   4.072   5.916   3.871
 9274SOL     OW28720   5.326   2.122   6.673
 9274SOL    HW128721   5.328   2.024   6.694
 9274SOL    HW228722   5.417   2.152   6.644
 9275SOL     OW28723   0.902   1.227   0.191
 9275SOL    HW128724   0.839   1.236   0.267
 9275SOL    HW228725   0.909   1.314   0.142
 9276SOL     OW28726   2.799   4.712   4.414
 9276SOL    HW128727   2.733   4.776   4.373
 9276SOL    HW228728   2.843   4.755   4.492
 9277SOL     OW28729   3.461   3.227   0.433
 9277SOL    HW128730   3.547   3.278   0.437
 9277SOL    HW228731   3.386   3.289   0.409
 9278SOL     OW28732   1.617   1.707   4.163
 9278SOL    HW128733   1.623   1.785   4.100
 9278SOL    HW228734   1.697   1.707   4.223
 9279SOL     OW28735   4.365   0.623   2.169
 9279SOL    HW128736   4.433   0.595   2.102
 9279SOL    HW228737   4.277   0.582   2.147
 9280SOL     OW28738   1.402   0.132   3.626
 9280SOL    HW128739   1.480   0.179   3.669
 9280SOL    HW228740   1.328   0.122   3.692
 9281SOL     OW28741   2.550   3.129   0.852
 9281SOL    HW128742   2.582   3.184   0.775
 9281SOL    HW228743   2.487   3.183   0.908
 9282SOL     OW28744   4.867   2.102   4.427
 9282SOL    HW128745   4.853   2.197   4.400
 9282SOL    HW228746   4.908   2.052   4.351
 9283SOL     OW28747   6.161   1.544   2.761
 9283SOL    HW128748   6.244   1.599   2.761
 9283SOL    HW228749   6.181   1.452   2.796
 9284SOL     OW28750   3.784   4.861   0.178
 9284SOL    HW128751   3.869   4.878   0.229
 9284SOL    HW228752   3.762   4.764   0.182
 9285SOL     OW28753   5.607   2.783   0.066
 9285SOL    HW128754   5.518   2.791   0.109
 9285SOL    HW228755   5.655   2.703   0.101
 9286SOL     OW28756   5.642   0.044   5.800
 9286SOL    HW128757   5.657   0.029   5.702
 9286SOL    HW228758   5.635   6.974   5.846
 9287SOL     OW28759   3.517   5.695   1.259
 9287SOL    HW128760   3.444   5.627   1.266
 9287SOL    HW228761   3.553   5.696   1.166
 9288SOL     OW28762   4.239   1.464   6.247
 9288SOL    HW128763   4.243   1.505   6.338
 9288SOL    HW228764   4.172   1.512   6.191
 9289SOL     OW28765   4.421   1.943   2.507
 9289SOL    HW128766   4.502   1.974   2.456
 9289SOL    HW228767   4.447   1.920   2.601
 9290SOL     OW28768   4.187   1.634   5.407
 9290SOL    HW128769   4.215   1.610   5.314
 9290SOL    HW228770   4.244   1.708   5.441
 9291SOL     OW28771   2.022   0.459   5.130
 9291SOL    HW128772   2.043   0.554   5.153
 9291SOL    HW228773   2.035   0.444   5.032
 9292SOL     OW28774   6.393   3.065   6.414
 9292SOL    HW128775   6.311   3.102   6.457
 9292SOL    HW228776   6.369   2.985   6.359
 9293SOL     OW28777   5.685   4.292   0.909
 9293SOL    HW128778   5.601   4.328   0.868
 9293SOL    HW228779   5.759   4.295   0.841
 9294SOL     OW28780   3.825   6.237   0.028
 9294SOL    HW128781   3.904   6.192   7.004
 9294SOL    HW228782   3.741   6.206   7.000
 9295SOL     OW28783   5.090   1.524   3.077
 9295SOL    HW128784   5.031   1.599   3.047
 9295SOL    HW228785   5.115   1.468   2.998
 9296SOL     OW28786   6.328   6.561   6.345
 9296SOL    HW128787   6.357   6.596   6.256
 9296SOL    HW228788   6.235   6.524   6.337
 9297SOL     OW28789   0.287   0.699   1.488
 9297SOL    HW128790   0.213   0.715   1.423
 9297SOL    HW228791   0.250   0.662   1.573
 9298SOL     OW28792   2.326   6.423   5.617
 9298SOL    HW128793   2.338   6.330   5.651
 9298SOL    HW228794   2.326   6.422   5.517
 9299SOL     OW28795   1.298   2.793   4.379
 9299SOL    HW128796   1.393   2.773   4.403
 9299SOL    HW228797   1.256   2.712   4.339
 9300SOL     OW28798   6.563   4.795   4.693
 9300SOL    HW128799   6.619   4.795   4.610
 9300SOL    HW228800   6.582   4.712   4.746
 9301SOL     OW28801   4.990   4.410   3.186
 9301SOL    HW128802   4.959   4.503   3.164
 9301SOL    HW228803   5.051   4.378   3.113
 9302SOL     OW28804   2.329   2.721   3.739
 9302SOL    HW128805   2.313   2.721   3.837
 9302SOL    HW228806   2.419   2.681   3.720
 9303SOL     OW28807   4.182   6.565   0.805
 9303SOL    HW128808   4.222   6.624   0.735
 9303SOL    HW228809   4.086   6.588   0.817
 9304SOL     OW28810   3.635   3.971   0.263
 9304SOL    HW128811   3.678   3.882   0.273
 9304SOL    HW228812   3.635   3.999   0.167
 9305SOL     OW28813   5.659   2.002   1.595
 9305SOL    HW128814   5.736   1.939   1.600
 9305SOL    HW228815   5.689   2.094   1.618
 9306SOL     OW28816   0.753   4.734   4.499
 9306SOL    HW128817   0.697   4.664   4.544
 9306SOL    HW228818   0.840   4.693   4.472
 9307SOL     OW28819   1.494   2.648   0.894
 9307SOL    HW128820   1.542   2.587   0.957
 9307SOL    HW228821   1.475   2.601   0.808
 9308SOL     OW28822   0.847   3.903   0.957
 9308SOL    HW128823   0.946   3.897   0.962
 9308SOL    HW228824   0.809   3.912   1.049
 9309SOL     OW28825   3.769   5.007   5.304
 9309SOL    HW128826   3.750   4.917   5.343
 9309SOL    HW228827   3.735   5.078   5.366
 9310SOL     OW28828   4.561   6.284   6.107
 9310SOL    HW128829   4.637   6.321   6.055
 9310SOL    HW228830   4.483   6.347   6.102
 9311SOL     OW28831   5.742   4.474   1.113
 9311SOL    HW128832   5.710   4.392   1.065
 9311SOL    HW228833   5.765   4.450   1.207
 9312SOL     OW28834   1.809   4.572   0.193
 9312SOL    HW128835   1.757   4.492   0.165
 9312SOL    HW228836   1.864   4.605   0.117
 9313SOL     OW28837   6.708   1.197   1.861
 9313SOL    HW128838   6.719   1.120   1.798
 9313SOL    HW228839   6.749   1.279   1.820
 9314SOL     OW28840   3.853   5.429   6.429
 9314SOL    HW128841   3.772   5.483   6.450
 9314SOL    HW228842   3.881   5.376   6.509
 9315SOL     OW28843   6.373   0.256   5.363
 9315SOL    HW128844   6.465   0.226   5.337
 9315SOL    HW228845   6.316   0.264   5.282
 9316SOL     OW28846   4.441   5.949   4.734
 9316SOL    HW128847   4.362   5.952   4.795
 9316SOL    HW228848   4.516   5.900   4.778
 9317SOL     OW28849   5.827   5.966   2.911
 9317SOL    HW128850   5.737   5.949   2.950
 9317SOL    HW228851   5.818   6.023   2.829
 9318SOL     OW28852   6.812   0.756   5.831
 9318SOL    HW128853   6.742   0.732   5.764
 9318SOL    HW228854   6.887   0.690   5.827
 9319SOL     OW28855   0.420   2.958   6.227
 9319SOL    HW128856   0.465   3.047   6.229
 9319SOL    HW228857   0.373   2.947   6.139
 9320SOL     OW28858   3.732   2.603   5.799
 9320SOL    HW128859   3.708   2.511   5.769
 9320SOL    HW228860   3.818   2.631   5.757
 9321SOL     OW28861   5.973   0.211   2.247
 9321SOL    HW128862   6.037   0.172   2.314
 9321SOL    HW228863   5.902   0.144   2.227
 9322SOL     OW28864   0.021   6.165   6.114
 9322SOL    HW128865   0.057   6.075   6.090
 9322SOL    HW228866   7.012   6.214   6.031
 9323SOL     OW28867   1.176   6.934   5.640
 9323SOL    HW128868   1.193   6.955   5.544
 9323SOL    HW228869   1.251   6.971   5.695
 9324SOL     OW28870   1.952   5.146   0.443
 9324SOL    HW128871   1.993   5.186   0.525
 9324SOL    HW228872   1.855   5.169   0.439
 9325SOL     OW28873   5.102   1.692   1.276
 9325SOL    HW128874   5.054   1.780   1.271
 9325SOL    HW228875   5.084   1.640   1.192
 9326SOL     OW28876   2.728   6.839   0.548
 9326SOL    HW128877   2.656   6.869   0.611
 9326SOL    HW228878   2.793   6.781   0.597
 9327SOL     OW28879   4.834   6.913   3.402
 9327SOL    HW128880   4.931   6.891   3.390
 9327SOL    HW228881   4.820   7.012   3.389
 9328SOL     OW28882   3.719   1.577   6.882
 9328SOL    HW128883   3.779   1.503   6.853
 9328SOL    HW228884   3.651   1.594   6.810
 9329SOL     OW28885   6.759   3.042   3.176
 9329SOL    HW128886   6.660   3.033   3.190
 9329SOL    HW228887   6.786   3.136   3.195
 9330SOL     OW28888   0.324   6.237   0.458
 9330SOL    HW128889   0.420   6.248   0.432
 9330SOL    HW228890   0.301   6.140   0.461
 9331SOL     OW28891   0.543   1.093   6.490
 9331SOL    HW128892   0.625   1.141   6.458
 9331SOL    HW228893   0.476   1.088   6.415
 9332SOL     OW28894   3.212   4.101   3.655
 9332SOL    HW128895   3.206   4.105   3.755
 9332SOL    HW228896   3.139   4.044   3.620
 9333SOL     OW28897   4.983   4.046   0.416
 9333SOL    HW128898   4.942   4.131   0.449
 9333SOL    HW228899   5.073   4.034   0.457
 9334SOL     OW28900   3.302   0.337   3.011
 9334SOL    HW128901   3.347   0.251   2.989
 9334SOL    HW228902   3.237   0.323   3.086
 9335SOL     OW28903   1.232   1.671   6.638
 9335SOL    HW128904   1.313   1.698   6.690
 9335SOL    HW228905   1.258   1.600   6.572
 9336SOL     OW28906   2.617   6.494   6.233
 9336SOL    HW128907   2.631   6.585   6.272
 9336SOL    HW228908   2.688   6.476   6.165
 9337SOL     OW28909   5.113   0.412   2.648
 9337SOL    HW128910   5.043   0.340   2.657
 9337SOL    HW228911   5.112   0.468   2.731
 9338SOL     OW28912   4.196   0.311   2.047
 9338SOL    HW128913   4.136   0.246   2.095
 9338SOL    HW228914   4.156   0.402   2.050
 9339SOL     OW28915   5.799   0.062   0.602
 9339SOL    HW128916   5.895   0.038   0.618
 9339SOL    HW228917   5.764   0.113   0.680
 9340SOL     OW28918   5.218   3.575   5.522
 9340SOL    HW128919   5.218   3.675   5.523
 9340SOL    HW228920   5.296   3.541   5.574
 9341SOL     OW28921   1.293   5.805   6.818
 9341SOL    HW128922   1.246   5.724   6.853
 9341SOL    HW228923   1.245   5.887   6.851
 9342SOL     OW28924   2.522   0.232   4.398
 9342SOL    HW128925   2.557   0.326   4.404
 9342SOL    HW228926   2.467   0.222   4.316
 9343SOL     OW28927   6.270   4.746   4.588
 9343SOL    HW128928   6.329   4.783   4.516
 9343SOL    HW228929   6.178   4.783   4.578
 9344SOL     OW28930   5.100   6.214   0.379
 9344SOL    HW128931   5.061   6.164   0.301
 9344SOL    HW228932   5.195   6.184   0.392
 9345SOL     OW28933   6.186   2.572   2.694
 9345SOL    HW128934   6.103   2.529   2.659
 9345SOL    HW228935   6.258   2.567   2.624
 9346SOL     OW28936   6.124   0.391   1.077
 9346SOL    HW128937   6.057   0.343   1.020
 9346SOL    HW228938   6.113   0.362   1.172
 9347SOL     OW28939   1.963   5.896   1.270
 9347SOL    HW128940   1.866   5.906   1.248
 9347SOL    HW228941   1.986   5.799   1.275
 9348SOL     OW28942   4.180   5.870   0.827
 9348SOL    HW128943   4.258   5.933   0.824
 9348SOL    HW228944   4.097   5.921   0.845
 9349SOL     OW28945   0.642   6.861   2.382
 9349SOL    HW128946   0.681   6.801   2.451
 9349SOL    HW228947   0.633   6.812   2.295
 9350SOL     OW28948   0.690   2.970   6.066
 9350SOL    HW128949   0.750   3.042   6.102
 9350SOL    HW228950   0.659   2.912   6.141
 9351SOL     OW28951   3.302   2.502   6.599
 9351SOL    HW128952   3.303   2.502   6.499
 9351SOL    HW228953   3.252   2.422   6.631
 9352SOL     OW28954   2.601   3.829   6.912
 9352SOL    HW128955   2.534   3.774   6.861
 9352SOL    HW228956   2.573   3.925   6.911
 9353SOL     OW28957   1.156   5.494   2.027
 9353SOL    HW128958   1.095   5.459   2.098
 9353SOL    HW228959   1.149   5.437   1.946
 9354SOL     OW28960   6.375   2.099   6.651
 9354SOL    HW128961   6.474   2.103   6.634
 9354SOL    HW228962   6.331   2.178   6.610
 9355SOL     OW28963   0.511   1.695   4.619
 9355SOL    HW128964   0.414   1.690   4.643
 9355SOL    HW228965   0.527   1.644   4.535
 9356SOL     OW28966   4.294   6.914   1.814
 9356SOL    HW128967   4.370   6.876   1.760
 9356SOL    HW228968   4.324   6.997   1.860
 9357SOL     OW28969   0.945   2.173   6.864
 9357SOL    HW128970   1.024   2.162   6.803
 9357SOL    HW228971   0.966   2.135   6.953
 9358SOL     OW28972   0.887   3.576   2.212
 9358SOL    HW128973   0.840   3.508   2.156
 9358SOL    HW228974   0.824   3.610   2.283
 9359SOL     OW28975   1.961   6.411   5.660
 9359SOL    HW128976   1.983   6.492   5.715
 9359SOL    HW228977   1.991   6.426   5.566
 9360SOL     OW28978   1.455   6.736   6.438
 9360SOL    HW128979   1.362   6.747   6.403
 9360SOL    HW228980   1.465   6.645   6.479
 9361SOL     OW28981   1.998   6.209   3.725
 9361SOL    HW128982   2.068   6.137   3.723
 9361SOL    HW228983   1.954   6.210   3.815
 9362SOL     OW28984   2.373   0.750   2.472
 9362SOL    HW128985   2.277   0.734   2.493
 9362SOL    HW228986   2.415   0.805   2.544
 9363SOL     OW28987   3.040   5.117   2.415
 9363SOL    HW128988   2.980   5.045   2.450
 9363SOL    HW228989   3.001   5.207   2.437
 9364SOL     OW28990   1.798   2.195   2.139
 9364SOL    HW128991   1.807   2.291   2.168
 9364SOL    HW228992   1.703   2.166   2.151
 9365SOL     OW28993   3.415   1.756   4.225
 9365SOL    HW128994   3.385   1.748   4.320
 9365SOL    HW228995   3.336   1.744   4.164
 9366SOL     OW28996   3.454   5.842   0.543
 9366SOL    HW128997   3.506   5.759   0.563
 9366SOL    HW228998   3.434   5.847   0.446
 9367SOL     OW28999   5.688   0.247   0.773
 9367SOL    HW129000   5.634   0.286   0.847
 9367SOL    HW229001   5.718   0.320   0.711
 9368SOL     OW29002   3.550   0.792   2.422
 9368SOL    HW129003   3.621   0.802   2.352
 9368SOL    HW229004   3.469   0.750   2.381
 9369SOL     OW29005   1.191   4.816   6.315
 9369SOL    HW129006   1.252   4.895   6.321
 9369SOL    HW229007   1.101   4.840   6.351
 9370SOL     OW29008   4.552   2.089   4.726
 9370SOL    HW129009   4.510   2.047   4.646
 9370SOL    HW229010   4.565   2.020   4.797
 9371SOL     OW29011   3.284   5.970   1.562
 9371SOL    HW129012   3.364   5.921   1.526
 9371SOL    HW229013   3.264   6.049   1.504
 9372SOL     OW29014   4.904   6.663   1.686
 9372SOL    HW129015   4.836   6.689   1.618
 9372SOL    HW229016   4.962   6.742   1.706
 9373SOL     OW29017   6.641   1.541   0.364
 9373SOL    HW129018   6.685   1.616   0.315
 9373SOL    HW229019   6.668   1.454   0.323
 9374SOL     OW29020   0.450   5.042   5.830
 9374SOL    HW129021   0.419   5.112   5.766
 9374SOL    HW229022   0.399   5.051   5.916
 9375SOL     OW29023   0.199   1.501   6.383
 9375SOL    HW129024   0.254   1.522   6.464
 9375SOL    HW229025   0.229   1.415   6.344
 9376SOL     OW29026   2.190   3.783   2.115
 9376SOL    HW129027   2.219   3.832   2.033
 9376SOL    HW229028   2.245   3.700   2.125
 9377SOL     OW29029   2.376   5.884   2.490
 9377SOL    HW129030   2.399   5.880   2.393
 9377SOL    HW229031   2.410   5.801   2.535
 9378SOL     OW29032   3.486   0.367   3.831
 9378SOL    HW129033   3.541   0.421   3.894
 9378SOL    HW229034   3.543   0.296   3.789
 9379SOL     OW29035   4.539   6.519   4.099
 9379SOL    HW129036   4.454   6.481   4.064
 9379SOL    HW229037   4.518   6.588   4.169
 9380SOL     OW29038   4.799   5.620   0.001
 9380SOL    HW129039   4.835   5.531   0.029
 9380SOL    HW229040   4.713   5.638   0.049
 9381SOL     OW29041   5.701   2.096   5.111
 9381SOL    HW129042   5.657   2.010   5.083
 9381SOL    HW229043   5.798   2.079   5.126
 9382SOL     OW29044   3.673   0.592   4.327
 9382SOL    HW129045   3.703   0.518   4.266
 9382SOL    HW229046   3.749   0.654   4.345
 9383SOL     OW29047   4.804   4.087   3.673
 9383SOL    HW129048   4.901   4.114   3.675
 9383SOL    HW229049   4.760   4.126   3.593
 9384SOL     OW29050   1.761   0.186   2.073
 9384SOL    HW129051   1.778   0.275   2.114
 9384SOL    HW229052   1.703   0.197   1.992
 9385SOL     OW29053   4.198   1.350   3.675
 9385SOL    HW129054   4.126   1.282   3.665
 9385SOL    HW229055   4.285   1.305   3.689
 9386SOL     OW29056   4.202   6.410   5.814
 9386SOL    HW129057   4.200   6.477   5.741
 9386SOL    HW229058   4.114   6.407   5.860
 9387SOL     OW29059   3.747   2.236   6.749
 9387SOL    HW129060   3.788   2.168   6.810
 9387SOL    HW229061   3.649   2.218   6.739
 9388SOL     OW29062   2.055   0.012   4.185
 9388SOL    HW129063   2.053   0.111   4.176
 9388SOL    HW229064   1.983   7.000   4.247
 9389SOL     OW29065   3.350   5.119   1.721
 9389SOL    HW129066   3.251   5.123   1.730
 9389SOL    HW229067   3.379   5.023   1.719
 9390SOL     OW29068   4.632   5.127   5.736
 9390SOL    HW129069   4.710   5.068   5.713
 9390SOL    HW229070   4.550   5.072   5.745
 9391SOL     OW29071   1.216   6.652   4.264
 9391SOL    HW129072   1.224   6.704   4.179
 9391SOL    HW229073   1.278   6.573   4.261
 9392SOL     OW29074   5.579   4.560   2.751
 9392SOL    HW129075   5.657   4.556   2.688
 9392SOL    HW229076   5.502   4.509   2.711
 9393SOL     OW29077   2.842   6.549   5.276
 9393SOL    HW129078   2.819   6.485   5.203
 9393SOL    HW229079   2.833   6.643   5.242
 9394SOL     OW29080   4.767   6.898   0.916
 9394SOL    HW129081   4.738   6.970   0.979
 9394SOL    HW229082   4.867   6.901   0.907
 9395SOL     OW29083   2.513   2.241   0.486
 9395SOL    HW129084   2.457   2.175   0.435
 9395SOL    HW229085   2.556   2.195   0.564
 9396SOL     OW29086   1.299   6.278   6.617
 9396SOL    HW129087   1.381   6.293   6.673
 9396SOL    HW229088   1.326   6.256   6.524
 9397SOL     OW29089   3.866   0.303   6.641
 9397SOL    HW129090   3.943   0.285   6.579
 9397SOL    HW229091   3.882   0.257   6.728
 9398SOL     OW29092   0.292   1.444   6.926
 9398SOL    HW129093   0.336   1.533   6.937
 9398SOL    HW229094   0.342   1.376   6.980
 9399SOL     OW29095   2.002   2.738   3.962
 9399SOL    HW129096   2.002   2.825   4.010
 9399SOL    HW229097   1.938   2.742   3.885
 9400SOL     OW29098   5.796   1.365   0.734
 9400SOL    HW129099   5.735   1.361   0.655
 9400SOL    HW229100   5.770   1.295   0.800
 9401SOL     OW29101   0.247   1.962   2.719
 9401SOL    HW129102   0.211   2.033   2.779
 9401SOL    HW229103   0.317   2.001   2.660
 9402SOL     OW29104   1.434   5.786   3.221
 9402SOL    HW129105   1.526   5.794   3.183
 9402SOL    HW229106   1.421   5.695   3.260
 9403SOL     OW29107   6.293   2.984   1.821
 9403SOL    HW129108   6.363   2.927   1.865
 9403SOL    HW229109   6.225   2.925   1.777
 9404SOL     OW29110   2.144   3.198   0.941
 9404SOL    HW129111   2.103   3.161   1.025
 9404SOL    HW229112   2.074   3.241   0.885
 9405SOL     OW29113   0.138   5.297   5.699
 9405SOL    HW129114   0.196   5.238   5.755
 9405SOL    HW229115   0.073   5.346   5.758
 9406SOL     OW29116   7.001   2.868   0.022
 9406SOL    HW129117   6.943   2.930   0.077
 9406SOL    HW229118   6.946   2.829   6.966
 9407SOL     OW29119   1.506   4.968   5.339
 9407SOL    HW129120   1.487   5.041   5.405
 9407SOL    HW229121   1.600   4.938   5.348
 9408SOL     OW29122   6.767   4.570   4.280
 9408SOL    HW129123   6.775   4.625   4.197
 9408SOL    HW229124   6.849   4.513   4.290
 9409SOL     OW29125   6.991   5.177   2.086
 9409SOL    HW129126   7.009   5.082   2.110
 9409SOL    HW229127   0.060   5.227   2.083
 9410SOL     OW29128   4.149   1.188   1.578
 9410SOL    HW129129   4.178   1.270   1.627
 9410SOL    HW229130   4.187   1.190   1.485
 9411SOL     OW29131   3.043   3.292   3.955
 9411SOL    HW129132   3.061   3.389   3.944
 9411SOL    HW229133   2.985   3.260   3.880
 9412SOL     OW29134   6.233   6.684   1.593
 9412SOL    HW129135   6.295   6.644   1.660
 9412SOL    HW229136   6.217   6.618   1.519
 9413SOL     OW29137   4.220   4.785   3.948
 9413SOL    HW129138   4.170   4.820   3.869
 9413SOL    HW229139   4.289   4.719   3.917
 9414SOL     OW29140   2.267   2.339   4.368
 9414SOL    HW129141   2.320   2.259   4.396
 9414SOL    HW229142   2.273   2.348   4.268
 9415SOL     OW29143   3.785   1.382   1.912
 9415SOL    HW129144   3.722   1.410   1.840
 9415SOL    HW229145   3.875   1.422   1.894
 9416SOL     OW29146   6.365   5.130   6.311
 9416SOL    HW129147   6.342   5.188   6.389
 9416SOL    HW229148   6.449   5.079   6.331
 9417SOL     OW29149   3.965   6.292   1.886
 9417SOL    HW129150   3.948   6.321   1.792
 9417SOL    HW229151   3.998   6.370   1.939
 9418SOL     OW29152   3.241   2.077   4.412
 9418SOL    HW129153   3.261   2.141   4.485
 9418SOL    HW229154   3.294   2.101   4.331
 9419SOL     OW29155   2.135   2.802   6.768
 9419SOL    HW129156   2.065   2.733   6.791
 9419SOL    HW229157   2.182   2.775   6.684
 9420SOL     OW29158   5.774   3.717   6.977
 9420SOL    HW129159   5.774   3.671   0.048
 9420SOL    HW229160   5.789   3.815   6.990
 9421SOL     OW29161   3.544   6.343   5.576
 9421SOL    HW129162   3.538   6.245   5.591
 9421SOL    HW229163   3.607   6.361   5.501
 9422SOL     OW29164   2.988   5.613   4.753
 9422SOL    HW129165   2.890   5.609   4.771
 9422SOL    HW229166   3.005   5.598   4.656
 9423SOL     OW29167   4.818   5.054   3.550
 9423SOL    HW129168   4.866   5.049   3.637
 9423SOL    HW229169   4.884   5.071   3.476
 9424SOL     OW29170   5.654   0.800   4.521
 9424SOL    HW129171   5.579   0.750   4.562
 9424SOL    HW229172   5.682   0.875   4.581
 9425SOL     OW29173   6.921   5.327   0.699
 9425SOL    HW129174   6.894   5.423   0.696
 9425SOL    HW229175   6.854   5.275   0.751
 9426SOL     OW29176   6.768   2.211   6.412
 9426SOL    HW129177   6.851   2.156   6.419
 9426SOL    HW229178   6.705   2.188   6.486
 9427SOL     OW29179   4.183   5.378   3.322
 9427SOL    HW129180   4.248   5.326   3.378
 9427SOL    HW229181   4.211   5.474   3.319
 9428SOL     OW29182   6.443   6.836   5.781
 9428SOL    HW129183   6.500   6.899   5.834
 9428SOL    HW229184   6.494   6.803   5.701
 9429SOL     OW29185   2.431   1.905   4.130
 9429SOL    HW129186   2.527   1.877   4.133
 9429SOL    HW229187   2.379   1.853   4.198
 9430SOL     OW29188   0.072   1.924   4.579
 9430SOL    HW129189   0.032   2.016   4.585
 9430SOL    HW229190   0.092   1.904   4.483
 9431SOL     OW29191   0.296   5.024   6.088
 9431SOL    HW129192   0.208   5.062   6.117
 9431SOL    HW229193   0.366   5.044   6.158
 9432SOL     OW29194   6.393   1.120   4.104
 9432SOL    HW129195   6.378   1.061   4.025
 9432SOL    HW229196   6.378   1.216   4.078
 9433SOL     OW29197   4.307   5.519   3.051
 9433SOL    HW129198   4.379   5.561   3.106
 9433SOL    HW229199   4.295   5.424   3.078
 9434SOL     OW29200   5.261   5.150   4.202
 9434SOL    HW129201   5.313   5.149   4.287
 9434SOL    HW229202   5.164   5.133   4.222
 9435SOL     OW29203   0.416   2.739   2.144
 9435SOL    HW129204   0.400   2.692   2.231
 9435SOL    HW229205   0.495   2.698   2.098
 9436SOL     OW29206   1.901   0.434   2.951
 9436SOL    HW129207   1.969   0.401   2.886
 9436SOL    HW229208   1.822   0.471   2.902
 9437SOL     OW29209   6.273   5.810   4.859
 9437SOL    HW129210   6.233   5.892   4.901
 9437SOL    HW229211   6.242   5.803   4.764
 9438SOL     OW29212   3.881   5.899   2.582
 9438SOL    HW129213   3.932   5.820   2.549
 9438SOL    HW229214   3.784   5.888   2.559
 9439SOL     OW29215   1.324   2.969   0.904
 9439SOL    HW129216   1.327   2.995   0.808
 9439SOL    HW229217   1.278   2.881   0.914
 9440SOL     OW29218   2.193   5.501   3.238
 9440SOL    HW129219   2.179   5.438   3.314
 9440SOL    HW229220   2.167   5.593   3.265
 9441SOL     OW29221   6.993   6.172   4.817
 9441SOL    HW129222   0.055   6.189   4.874
 9441SOL    HW229223   6.937   6.255   4.812
 9442SOL     OW29224   4.285   3.376   0.436
 9442SOL    HW129225   4.380   3.347   0.444
 9442SOL    HW229226   4.238   3.360   0.522
 9443SOL     OW29227   1.710   4.289   3.023
 9443SOL    HW129228   1.697   4.263   3.118
 9443SOL    HW229229   1.790   4.348   3.015
 9444SOL     OW29230   0.941   4.424   6.812
 9444SOL    HW129231   0.974   4.346   6.865
 9444SOL    HW229232   0.846   4.409   6.785
 9445SOL     OW29233   6.920   1.311   4.491
 9445SOL    HW129234   6.961   1.365   4.564
 9445SOL    HW229235   6.822   1.328   4.487
 9446SOL     OW29236   6.468   5.205   2.961
 9446SOL    HW129237   6.486   5.256   3.045
 9446SOL    HW229238   6.380   5.233   2.923
 9447SOL     OW29239   5.130   4.423   2.098
 9447SOL    HW129240   5.035   4.449   2.116
 9447SOL    HW229241   5.147   4.423   2.000
 9448SOL     OW29242   5.887   0.078   5.079
 9448SOL    HW129243   5.954   0.031   5.023
 9448SOL    HW229244   5.813   0.015   5.103
 9449SOL     OW29245   5.953   0.210   1.702
 9449SOL    HW129246   5.951   0.251   1.612
 9449SOL    HW229247   6.034   0.151   1.711
 9450SOL     OW29248   2.036   5.756   3.956
 9450SOL    HW129249   2.087   5.699   3.892
 9450SOL    HW229250   1.946   5.777   3.919
 9451SOL     OW29251   3.600   6.354   6.444
 9451SOL    HW129252   3.512   6.370   6.401
 9451SOL    HW229253   3.647   6.279   6.397
 9452SOL     OW29254   6.506   4.023   0.107
 9452SOL    HW129255   6.577   3.986   0.047
 9452SOL    HW229256   6.542   4.101   0.158
 9453SOL     OW29257   4.651   5.901   2.900
 9453SOL    HW129258   4.637   5.803   2.891
 9453SOL    HW229259   4.591   5.937   2.972
 9454SOL     OW29260   4.941   3.476   0.674
 9454SOL    HW129261   5.012   3.440   0.614
 9454SOL    HW229262   4.872   3.524   0.620
 9455SOL     OW29263   3.040   2.071   2.278
 9455SOL    HW129264   2.974   1.996   2.286
 9455SOL    HW229265   3.012   2.132   2.204
 9456SOL     OW29266   6.907   3.103   1.751
 9456SOL    HW129267   6.997   3.068   1.776
 9456SOL    HW229268   6.918   3.187   1.697
 9457SOL     OW29269   0.319   5.355   3.799
 9457SOL    HW129270   0.358   5.407   3.875
 9457SOL    HW229271   0.250   5.411   3.752
 9458SOL     OW29272   5.954   3.233   0.264
 9458SOL    HW129273   5.900   3.162   0.309
 9458SOL    HW229274   6.051   3.212   0.272
 9459SOL     OW29275   4.435   4.820   5.243
 9459SOL    HW129276   4.519   4.790   5.197
 9459SOL    HW229277   4.429   4.919   5.237
 9460SOL     OW29278   1.436   1.802   3.103
 9460SOL    HW129279   1.435   1.809   3.203
 9460SOL    HW229280   1.513   1.745   3.075
 9461SOL     OW29281   0.930   2.202   2.500
 9461SOL    HW129282   0.895   2.227   2.590
 9461SOL    HW229283   0.970   2.282   2.456
 9462SOL     OW29284   1.522   1.463   4.259
 9462SOL    HW129285   1.583   1.450   4.337
 9462SOL    HW229286   1.544   1.549   4.213
 9463SOL     OW29287   5.505   5.279   1.100
 9463SOL    HW129288   5.603   5.298   1.093
 9463SOL    HW229289   5.464   5.284   1.009
 9464SOL     OW29290   0.737   0.898   1.356
 9464SOL    HW129291   0.823   0.869   1.313
 9464SOL    HW229292   0.740   0.997   1.372
 9465SOL     OW29293   6.361   4.573   0.813
 9465SOL    HW129294   6.383   4.669   0.832
 9465SOL    HW229295   6.435   4.531   0.762
 9466SOL     OW29296   3.084   4.978   5.945
 9466SOL    HW129297   3.183   4.963   5.940
 9466SOL    HW229298   3.056   4.982   6.041
 9467SOL     OW29299   2.415   3.704   1.030
 9467SOL    HW129300   2.459   3.640   1.093
 9467SOL    HW229301   2.433   3.675   0.936
 9468SOL     OW29302   6.256   1.857   0.641
 9468SOL    HW129303   6.319   1.817   0.575
 9468SOL    HW229304   6.170   1.882   0.596
 9469SOL     OW29305   1.158   6.477   1.076
 9469SOL    HW129306   1.230   6.545   1.090
 9469SOL    HW229307   1.163   6.407   1.146
 9470SOL     OW29308   3.529   4.279   0.608
 9470SOL    HW129309   3.599   4.271   0.538
 9470SOL    HW229310   3.472   4.197   0.607
 9471SOL     OW29311   6.145   3.302   5.098
 9471SOL    HW129312   6.212   3.231   5.076
 9471SOL    HW229313   6.090   3.322   5.017
 9472SOL     OW29314   1.409   3.263   5.864
 9472SOL    HW129315   1.360   3.205   5.929
 9472SOL    HW229316   1.502   3.228   5.852
 9473SOL     OW29317   3.206   4.947   0.107
 9473SOL    HW129318   3.136   4.963   0.177
 9473SOL    HW229319   3.220   4.849   0.096
 9474SOL     OW29320   5.839   2.919   1.196
 9474SOL    HW129321   5.798   2.930   1.105
 9474SOL    HW229322   5.865   3.009   1.231
 9475SOL     OW29323   4.463   3.935   5.911
 9475SOL    HW129324   4.494   3.982   5.828
 9475SOL    HW229325   4.503   3.844   5.914
 9476SOL     OW29326   3.695   4.080   6.217
 9476SOL    HW129327   3.770   4.015   6.210
 9476SOL    HW229328   3.615   4.045   6.169
 9477SOL     OW29329   2.280   4.241   0.943
 9477SOL    HW129330   2.207   4.195   0.993
 9477SOL    HW229331   2.357   4.258   1.004
 9478SOL     OW29332   5.423   1.987   0.309
 9478SOL    HW129333   5.355   1.939   0.253
 9478SOL    HW229334   5.376   2.053   0.368
 9479SOL     OW29335   3.779   0.821   1.561
 9479SOL    HW129336   3.703   0.879   1.589
 9479SOL    HW229337   3.847   0.876   1.513
 9480SOL     OW29338   6.528   6.827   0.062
 9480SOL    HW129339   6.494   6.744   0.019
 9480SOL    HW229340   6.454   6.874   0.109
 9481SOL     OW29341   4.155   1.060   3.344
 9481SOL    HW129342   4.134   0.967   3.374
 9481SOL    HW229343   4.074   1.118   3.356
 9482SOL     OW29344   6.316   6.348   0.271
 9482SOL    HW129345   6.267   6.288   0.334
 9482SOL    HW229346   6.281   6.442   0.279
 9483SOL     OW29347   6.848   0.707   0.687
 9483SOL    HW129348   6.897   0.780   0.735
 9483SOL    HW229349   6.752   0.734   0.675
 9484SOL     OW29350   3.951   6.192   5.320
 9484SOL    HW129351   3.926   6.183   5.223
 9484SOL    HW229352   3.879   6.243   5.368
 9485SOL     OW29353   6.894   1.332   0.066
 9485SOL    HW129354   6.836   1.298   7.010
 9485SOL    HW229355   6.908   1.430   0.054
 9486SOL     OW29356   5.187   5.573   0.308
 9486SOL    HW129357   5.129   5.633   0.253
 9486SOL    HW229358   5.133   5.496   0.342
 9487SOL     OW29359   2.945   3.510   3.681
 9487SOL    HW129360   2.960   3.412   3.664
 9487SOL    HW229361   2.937   3.525   3.780
 9488SOL     OW29362   1.225   1.769   0.528
 9488SOL    HW129363   1.160   1.844   0.517
 9488SOL    HW229364   1.246   1.729   0.439
 9489SOL     OW29365   4.872   4.007   0.187
 9489SOL    HW129366   4.927   4.013   0.103
 9489SOL    HW229367   4.932   4.009   0.266
 9490SOL     OW29368   5.701   3.901   4.155
 9490SOL    HW129369   5.637   3.897   4.078
 9490SOL    HW229370   5.791   3.929   4.121
 9491SOL     OW29371   5.149   6.264   3.015
 9491SOL    HW129372   5.057   6.270   2.978
 9491SOL    HW229373   5.215   6.287   2.944
 9492SOL     OW29374   4.720   2.571   4.715
 9492SOL    HW129375   4.798   2.568   4.651
 9492SOL    HW229376   4.727   2.654   4.771
 9493SOL     OW29377   4.100   0.054   2.782
 9493SOL    HW129378   4.133   0.061   2.876
 9493SOL    HW229379   4.170   0.090   2.720
 9494SOL     OW29380   5.451   2.225   2.022
 9494SOL    HW129381   5.512   2.162   1.973
 9494SOL    HW229382   5.438   2.193   2.115
 9495SOL     OW29383   0.879   1.038   2.257
 9495SOL    HW129384   0.878   1.108   2.328
 9495SOL    HW229385   0.938   1.068   2.182
 9496SOL     OW29386   4.985   2.213   2.066
 9496SOL    HW129387   4.942   2.123   2.067
 9496SOL    HW229388   4.923   2.281   2.105
 9497SOL     OW29389   5.095   4.924   4.872
 9497SOL    HW129390   5.128   4.959   4.960
 9497SOL    HW229391   5.110   4.994   4.801
 9498SOL     OW29392   0.194   5.779   4.088
 9498SOL    HW129393   0.180   5.833   4.171
 9498SOL    HW229394   0.113   5.724   4.069
 9499SOL     OW29395   6.278   5.970   5.809
 9499SOL    HW129396   6.285   5.894   5.745
 9499SOL    HW229397   6.206   6.032   5.780
 9500SOL     OW29398   4.115   1.096   0.964
 9500SOL    HW129399   4.207   1.132   0.975
 9500SOL    HW229400   4.054   1.169   0.931
 9501SOL     OW29401   1.440   2.953   5.102
 9501SOL    HW129402   1.452   2.956   5.201
 9501SOL    HW229403   1.467   2.863   5.068
 9502SOL     OW29404   5.879   4.898   5.072
 9502SOL    HW129405   5.842   4.956   5.144
 9502SOL    HW229406   5.942   4.830   5.112
 9503SOL     OW29407   0.847   2.735   6.956
 9503SOL    HW129408   0.901   2.672   6.901
 9503SOL    HW229409   0.869   2.721   0.035
 9504SOL     OW29410   6.531   5.141   1.763
 9504SOL    HW129411   6.578   5.229   1.763
 9504SOL    HW229412   6.584   5.074   1.815
 9505SOL     OW29413   4.046   4.922   5.300
 9505SOL    HW129414   3.964   4.953   5.349
 9505SOL    HW229415   4.043   4.953   5.206
 9506SOL     OW29416   2.753   1.389   1.101
 9506SOL    HW129417   2.728   1.484   1.121
 9506SOL    HW229418   2.785   1.382   1.007
 9507SOL     OW29419   5.214   0.235   1.916
 9507SOL    HW129420   5.153   0.156   1.904
 9507SOL    HW229421   5.305   0.212   1.883
 9508SOL     OW29422   5.351   1.716   2.716
 9508SOL    HW129423   5.450   1.717   2.728
 9508SOL    HW229424   5.313   1.635   2.759
 9509SOL     OW29425   6.219   6.917   3.210
 9509SOL    HW129426   6.153   6.969   3.156
 9509SOL    HW229427   6.204   6.935   3.307
 9510SOL     OW29428   0.912   2.416   3.353
 9510SOL    HW129429   0.904   2.318   3.367
 9510SOL    HW229430   0.947   2.434   3.261
 9511SOL     OW29431   1.827   1.670   0.543
 9511SOL    HW129432   1.893   1.649   0.616
 9511SOL    HW229433   1.873   1.719   0.470
 9512SOL     OW29434   6.711   1.974   1.146
 9512SOL    HW129435   6.740   1.985   1.242
 9512SOL    HW229436   6.632   2.032   1.129
 9513SOL     OW29437   3.879   5.090   6.939
 9513SOL    HW129438   3.930   5.061   6.858
 9513SOL    HW229439   3.782   5.075   6.924
 9514SOL     OW29440   3.087   3.411   0.551
 9514SOL    HW129441   3.089   3.365   0.639
 9514SOL    HW229442   2.992   3.416   0.518
 9515SOL     OW29443   1.612   5.155   4.103
 9515SOL    HW129444   1.595   5.238   4.050
 9515SOL    HW229445   1.529   5.129   4.152
 9516SOL     OW29446   6.583   4.025   0.491
 9516SOL    HW129447   6.679   3.995   0.491
 9516SOL    HW229448   6.530   3.966   0.430
 9517SOL     OW29449   1.234   4.828   0.301
 9517SOL    HW129450   1.294   4.771   0.358
 9517SOL    HW229451   1.142   4.829   0.340
 9518SOL     OW29452   1.380   1.216   0.206
 9518SOL    HW129453   1.376   1.184   0.112
 9518SOL    HW229454   1.305   1.279   0.224
 9519SOL     OW29455   1.413   2.441   5.301
 9519SOL    HW129456   1.399   2.538   5.279
 9519SOL    HW229457   1.453   2.394   5.223
 9520SOL     OW29458   3.035   6.535   2.244
 9520SOL    HW129459   2.993   6.507   2.158
 9520SOL    HW229460   3.129   6.501   2.248
 9521SOL     OW29461   5.521   5.422   4.199
 9521SOL    HW129462   5.448   5.480   4.234
 9521SOL    HW229463   5.482   5.340   4.157
 9522SOL     OW29464   3.758   5.880   0.933
 9522SOL    HW129465   3.776   5.793   0.888
 9522SOL    HW229466   3.844   5.930   0.943
 9523SOL     OW29467   3.299   5.594   4.376
 9523SOL    HW129468   3.396   5.584   4.351
 9523SOL    HW229469   3.270   5.687   4.358
 9524SOL     OW29470   4.000   3.326   0.787
 9524SOL    HW129471   4.001   3.279   0.875
 9524SOL    HW229472   4.094   3.337   0.754
 9525SOL     OW29473   3.148   0.783   6.705
 9525SOL    HW129474   3.232   0.797   6.652
 9525SOL    HW229475   3.169   0.791   6.803
 9526SOL     OW29476   6.003   5.171   2.325
 9526SOL    HW129477   5.942   5.096   2.299
 9526SOL    HW229478   6.032   5.220   2.242
 9527SOL     OW29479   6.736   1.908   1.968
 9527SOL    HW129480   6.646   1.939   1.936
 9527SOL    HW229481   6.801   1.910   1.892
 9528SOL     OW29482   6.749   1.070   2.108
 9528SOL    HW129483   6.758   1.136   2.033
 9528SOL    HW229484   6.774   1.113   2.194
 9529SOL     OW29485   0.806   3.502   5.766
 9529SOL    HW129486   0.738   3.576   5.773
 9529SOL    HW229487   0.759   3.414   5.762
 9530SOL     OW29488   1.048   2.145   3.728
 9530SOL    HW129489   1.128   2.188   3.685
 9530SOL    HW229490   0.967   2.163   3.673
 9531SOL     OW29491   3.577   6.788   2.572
 9531SOL    HW129492   3.501   6.757   2.515
 9531SOL    HW229493   3.641   6.712   2.586
 9532SOL     OW29494   2.114   0.212   1.857
 9532SOL    HW129495   2.158   0.192   1.770
 9532SOL    HW229496   2.015   0.202   1.848
 9533SOL     OW29497   1.870   0.746   5.243
 9533SOL    HW129498   1.776   0.736   5.211
 9533SOL    HW229499   1.923   0.799   5.176
 9534SOL     OW29500   5.485   2.470   4.761
 9534SOL    HW129501   5.505   2.432   4.670
 9534SOL    HW229502   5.388   2.457   4.782
 9535SOL     OW29503   2.167   1.556   5.680
 9535SOL    HW129504   2.134   1.476   5.631
 9535SOL    HW229505   2.138   1.551   5.776
 9536SOL     OW29506   1.733   6.285   5.532
 9536SOL    HW129507   1.819   6.303   5.579
 9536SOL    HW229508   1.695   6.198   5.562
 9537SOL     OW29509   2.928   6.899   0.960
 9537SOL    HW129510   3.006   6.961   0.958
 9537SOL    HW229511   2.931   6.845   1.044
 9538SOL     OW29512   6.361   2.579   4.234
 9538SOL    HW129513   6.423   2.500   4.229
 9538SOL    HW229514   6.336   2.595   4.329
 9539SOL     OW29515   0.834   5.795   0.980
 9539SOL    HW129516   0.813   5.731   1.054
 9539SOL    HW229517   0.930   5.822   0.986
 9540SOL     OW29518   4.854   4.428   5.122
 9540SOL    HW129519   4.930   4.488   5.145
 9540SOL    HW229520   4.776   4.484   5.092
 9541SOL     OW29521   2.130   2.449   3.884
 9541SOL    HW129522   2.074   2.531   3.871
 9541SOL    HW229523   2.086   2.371   3.840
 9542SOL     OW29524   4.928   3.628   4.332
 9542SOL    HW129525   5.008   3.640   4.392
 9542SOL    HW229526   4.896   3.717   4.301
 9543SOL     OW29527   5.110   2.162   2.380
 9543SOL    HW129528   5.071   2.132   2.467
 9543SOL    HW229529   5.037   2.188   2.317
 9544SOL     OW29530   3.634   1.813   2.191
 9544SOL    HW129531   3.554   1.873   2.194
 9544SOL    HW229532   3.620   1.742   2.122
 9545SOL     OW29533   6.863   0.427   4.154
 9545SOL    HW129534   6.917   0.502   4.192
 9545SOL    HW229535   6.910   0.340   4.173
 9546SOL     OW29536   2.757   5.299   0.558
 9546SOL    HW129537   2.663   5.331   0.549
 9546SOL    HW229538   2.809   5.324   0.477
 9547SOL     OW29539   0.003   6.311   3.344
 9547SOL    HW129540   0.008   6.277   3.438
 9547SOL    HW229541   0.031   6.407   3.342
 9548SOL     OW29542   4.495   6.012   3.085
 9548SOL    HW129543   4.466   6.100   3.124
 9548SOL    HW229544   4.417   5.969   3.040
 9549SOL     OW29545   2.629   6.023   0.635
 9549SOL    HW129546   2.617   6.120   0.652
 9549SOL    HW229547   2.541   5.976   0.641
 9550SOL     OW29548   0.977   1.765   0.322
 9550SOL    HW129549   0.994   1.842   0.383
 9550SOL    HW229550   0.936   1.690   0.374
 9551SOL     OW29551   1.423   6.232   4.762
 9551SOL    HW129552   1.433   6.317   4.814
 9551SOL    HW229553   1.328   6.201   4.765
 9552SOL     OW29554   1.015   5.376   3.239
 9552SOL    HW129555   1.111   5.396   3.215
 9552SOL    HW229556   0.995   5.416   3.329
 9553SOL     OW29557   5.939   4.551   4.993
 9553SOL    HW129558   5.928   4.520   4.899
 9553SOL    HW229559   5.867   4.617   5.015
 9554SOL     OW29560   2.165   1.471   2.072
 9554SOL    HW129561   2.260   1.482   2.100
 9554SOL    HW229562   2.148   1.524   1.989
 9555SOL     OW29563   6.873   2.323   0.130
 9555SOL    HW129564   6.811   2.396   0.158
 9555SOL    HW229565   6.966   2.347   0.154
 9556SOL     OW29566   1.691   1.850   1.990
 9556SOL    HW129567   1.697   1.950   2.001
 9556SOL    HW229568   1.596   1.824   1.980
 9557SOL     OW29569   5.295   1.747   1.842
 9557SOL    HW129570   5.219   1.683   1.825
 9557SOL    HW229571   5.316   1.796   1.757
 9558SOL     OW29572   6.570   5.342   2.509
 9558SOL    HW129573   6.617   5.346   2.597
 9558SOL    HW229574   6.474   5.316   2.524
 9559SOL     OW29575   6.721   3.031   2.789
 9559SOL    HW129576   6.814   3.025   2.752
 9559SOL    HW229577   6.680   2.940   2.792
 9560SOL     OW29578   3.159   1.730   4.093
 9560SOL    HW129579   3.200   1.774   4.014
 9560SOL    HW229580   3.064   1.707   4.072
 9561SOL     OW29581   3.839   6.516   1.342
 9561SOL    HW129582   3.783   6.454   1.398
 9561SOL    HW229583   3.879   6.466   1.266
 9562SOL     OW29584   5.702   5.439   3.099
 9562SOL    HW129585   5.644   5.508   3.143
 9562SOL    HW229586   5.778   5.416   3.160
 9563SOL     OW29587   6.618   5.868   6.661
 9563SOL    HW129588   6.591   5.939   6.597
 9563SOL    HW229589   6.716   5.877   6.681
 9564SOL     OW29590   2.522   0.177   6.889
 9564SOL    HW129591   2.484   0.270   6.892
 9564SOL    HW229592   2.485   0.129   6.809
 9565SOL     OW29593   3.727   5.827   4.436
 9565SOL    HW129594   3.643   5.849   4.487
 9565SOL    HW229595   3.786   5.908   4.435
 9566SOL     OW29596   2.885   4.881   5.060
 9566SOL    HW129597   2.936   4.863   5.144
 9566SOL    HW229598   2.830   4.802   5.036
 9567SOL     OW29599   5.981   5.434   5.593
 9567SOL    HW129600   5.965   5.348   5.641
 9567SOL    HW229601   5.991   5.416   5.495
 9568SOL     OW29602   4.579   3.444   6.524
 9568SOL    HW129603   4.531   3.407   6.444
 9568SOL    HW229604   4.610   3.369   6.582
 9569SOL     OW29605   6.280   0.834   0.803
 9569SOL    HW129606   6.347   0.767   0.833
 9569SOL    HW229607   6.288   0.847   0.704
 9570SOL     OW29608   0.282   0.361   0.370
 9570SOL    HW129609   0.373   0.396   0.392
 9570SOL    HW229610   0.223   0.370   0.451
 9571SOL     OW29611   2.302   3.872   0.399
 9571SOL    HW129612   2.301   3.951   0.339
 9571SOL    HW229613   2.385   3.819   0.383
 9572SOL     OW29614   1.828   4.634   1.247
 9572SOL    HW129615   1.815   4.681   1.159
 9572SOL    HW229616   1.752   4.657   1.308
 9573SOL     OW29617   0.561   2.278   1.356
 9573SOL    HW129618   0.497   2.349   1.387
 9573SOL    HW229619   0.635   2.321   1.303
 9574SOL     OW29620   2.260   1.943   5.409
 9574SOL    HW129621   2.294   1.874   5.473
 9574SOL    HW229622   2.291   2.034   5.438
 9575SOL     OW29623   5.098   0.459   1.527
 9575SOL    HW129624   5.108   0.364   1.555
 9575SOL    HW229625   5.081   0.516   1.607
 9576SOL     OW29626   3.666   2.058   5.814
 9576SOL    HW129627   3.744   2.020   5.863
 9576SOL    HW229628   3.668   2.028   5.719
 9577SOL     OW29629   0.734   6.213   3.116
 9577SOL    HW129630   0.773   6.274   3.185
 9577SOL    HW229631   0.638   6.194   3.138
 9578SOL     OW29632   5.719   3.446   2.081
 9578SOL    HW129633   5.773   3.388   2.020
 9578SOL    HW229634   5.651   3.390   2.128
 9579SOL     OW29635   1.254   6.381   2.781
 9579SOL    HW129636   1.263   6.465   2.727
 9579SOL    HW229637   1.272   6.302   2.723
 9580SOL     OW29638   4.202   3.787   6.244
 9580SOL    HW129639   4.189   3.846   6.164
 9580SOL    HW229640   4.250   3.838   6.315
 9581SOL     OW29641   1.629   4.654   6.238
 9581SOL    HW129642   1.627   4.562   6.201
 9581SOL    HW229643   1.607   4.651   6.336
 9582SOL     OW29644   4.403   5.593   4.478
 9582SOL    HW129645   4.318   5.645   4.471
 9582SOL    HW229646   4.390   5.503   4.437
 9583SOL     OW29647   2.369   4.272   1.836
 9583SOL    HW129648   2.269   4.271   1.829
 9583SOL    HW229649   2.403   4.364   1.816
 9584SOL     OW29650   5.787   5.525   6.331
 9584SOL    HW129651   5.837   5.561   6.410
 9584SOL    HW229652   5.728   5.450   6.360
 9585SOL     OW29653   6.350   0.332   4.399
 9585SOL    HW129654   6.303   0.270   4.336
 9585SOL    HW229655   6.318   0.317   4.492
 9586SOL     OW29656   5.566   3.335   3.493
 9586SOL    HW129657   5.473   3.299   3.504
 9586SOL    HW229658   5.568   3.400   3.417
 9587SOL     OW29659   5.148   6.175   2.064
 9587SOL    HW129660   5.125   6.121   1.983
 9587SOL    HW229661   5.192   6.116   2.132
 9588SOL     OW29662   6.688   0.634   2.238
 9588SOL    HW129663   6.772   0.611   2.286
 9588SOL    HW229664   6.663   0.560   2.175
 9589SOL     OW29665   2.420   1.086   6.210
 9589SOL    HW129666   2.432   0.987   6.211
 9589SOL    HW229667   2.510   1.130   6.204
 9590SOL     OW29668   6.737   4.504   4.732
 9590SOL    HW129669   6.726   4.554   4.818
 9590SOL    HW229670   6.715   4.407   4.748
 9591SOL     OW29671   1.581   4.744   2.209
 9591SOL    HW129672   1.557   4.783   2.298
 9591SOL    HW229673   1.571   4.815   2.138
 9592SOL     OW29674   5.225   5.176   2.189
 9592SOL    HW129675   5.131   5.208   2.196
 9592SOL    HW229676   5.249   5.125   2.272
 9593SOL     OW29677   0.787   2.725   4.000
 9593SOL    HW129678   0.698   2.751   4.038
 9593SOL    HW229679   0.859   2.747   4.065
 9594SOL     OW29680   5.988   6.889   1.888
 9594SOL    HW129681   6.010   6.871   1.792
 9594SOL    HW229682   6.003   6.985   1.909
 9595SOL     OW29683   0.521   4.300   4.610
 9595SOL    HW129684   0.530   4.389   4.655
 9595SOL    HW229685   0.612   4.259   4.599
 9596SOL     OW29686   4.731   5.839   3.931
 9596SOL    HW129687   4.673   5.887   3.996
 9596SOL    HW229688   4.695   5.852   3.838
 9597SOL     OW29689   2.233   3.960   1.304
 9597SOL    HW129690   2.192   3.995   1.219
 9597SOL    HW229691   2.225   4.030   1.375
 9598SOL     OW29692   6.644   5.264   6.161
 9598SOL    HW129693   6.590   5.224   6.087
 9598SOL    HW229694   6.700   5.339   6.125
 9599SOL     OW29695   5.191   2.123   4.826
 9599SOL    HW129696   5.232   2.066   4.754
 9599SOL    HW229697   5.149   2.204   4.784
 9600SOL     OW29698   1.801   6.202   6.722
 9600SOL    HW129699   1.855   6.174   6.801
 9600SOL    HW229700   1.835   6.155   6.641
 9601SOL     OW29701   0.765   5.241   5.622
 9601SOL    HW129702   0.802   5.267   5.533
 9601SOL    HW229703   0.833   5.188   5.673
 9602SOL     OW29704   1.832   5.589   0.747
 9602SOL    HW129705   1.890   5.670   0.759
 9602SOL    HW229706   1.869   5.514   0.801
 9603SOL     OW29707   1.180   5.198   4.657
 9603SOL    HW129708   1.203   5.170   4.750
 9603SOL    HW229709   1.201   5.296   4.646
 9604SOL     OW29710   0.372   0.793   0.316
 9604SOL    HW129711   0.298   0.782   0.251
 9604SOL    HW229712   0.458   0.805   0.267
 9605SOL     OW29713   1.952   5.727   6.365
 9605SOL    HW129714   2.027   5.667   6.392
 9605SOL    HW229715   1.871   5.706   6.418
 9606SOL     OW29716   6.399   6.663   4.394
 9606SOL    HW129717   6.494   6.630   4.387
 9606SOL    HW229718   6.337   6.585   4.391
 9607SOL     OW29719   0.644   3.020   1.757
 9607SOL    HW129720   0.735   3.017   1.798
 9607SOL    HW229721   0.605   3.111   1.769
 9608SOL     OW29722   0.099   6.304   2.983
 9608SOL    HW129723   0.068   6.390   3.024
 9608SOL    HW229724   0.065   6.227   3.037
 9609SOL     OW29725   1.988   2.584   3.582
 9609SOL    HW129726   1.959   2.492   3.556
 9609SOL    HW229727   1.922   2.624   3.646
 9610SOL     OW29728   3.171   1.791   6.162
 9610SOL    HW129729   3.110   1.796   6.083
 9610SOL    HW229730   3.234   1.714   6.151
 9611SOL     OW29731   6.328   6.536   0.907
 9611SOL    HW129732   6.245   6.488   0.880
 9611SOL    HW229733   6.310   6.592   0.988
 9612SOL     OW29734   5.760   3.201   2.533
 9612SOL    HW129735   5.854   3.236   2.541
 9612SOL    HW229736   5.747   3.161   2.443
 9613SOL     OW29737   5.371   6.685   5.706
 9613SOL    HW129738   5.456   6.711   5.660
 9613SOL    HW229739   5.309   6.644   5.640
 9614SOL     OW29740   2.987   3.253   2.680
 9614SOL    HW129741   2.957   3.319   2.750
 9614SOL    HW229742   2.947   3.278   2.592
 9615SOL     OW29743   0.911   6.598   3.874
 9615SOL    HW129744   0.848   6.621   3.799
 9615SOL    HW229745   0.982   6.536   3.840
 9616SOL     OW29746   2.903   3.333   1.851
 9616SOL    HW129747   2.882   3.371   1.941
 9616SOL    HW229748   2.863   3.391   1.780
 9617SOL     OW29749   1.044   3.439   3.459
 9617SOL    HW129750   0.960   3.493   3.448
 9617SOL    HW229751   1.101   3.451   3.378
 9618SOL     OW29752   3.817   5.907   0.006
 9618SOL    HW129753   3.816   6.002   6.993
 9618SOL    HW229754   3.876   5.899   0.086
 9619SOL     OW29755   1.906   6.948   1.038
 9619SOL    HW129756   1.986   6.950   0.977
 9619SOL    HW229757   1.834   6.893   0.997
 9620SOL     OW29758   3.806   1.759   0.065
 9620SOL    HW129759   3.776   1.700   7.008
 9620SOL    HW229760   3.772   1.722   0.151
 9621SOL     OW29761   1.165   2.095   1.891
 9621SOL    HW129762   1.145   2.043   1.973
 9621SOL    HW229763   1.088   2.156   1.871
 9622SOL     OW29764   6.627   6.851   6.151
 9622SOL    HW129765   6.581   6.930   6.111
 9622SOL    HW229766   6.574   6.768   6.132
 9623SOL     OW29767   4.344   6.497   6.631
 9623SOL    HW129768   4.299   6.458   6.551
 9623SOL    HW229769   4.434   6.455   6.644
 9624SOL     OW29770   4.475   5.096   4.912
 9624SOL    HW129771   4.529   5.062   4.989
 9624SOL    HW229772   4.531   5.158   4.857
 9625SOL     OW29773   4.928   3.547   5.704
 9625SOL    HW129774   4.901   3.633   5.748
 9625SOL    HW229775   4.943   3.477   5.774
 9626SOL     OW29776   2.362   3.174   6.123
 9626SOL    HW129777   2.360   3.210   6.216
 9626SOL    HW229778   2.448   3.200   6.079
 9627SOL     OW29779   0.962   4.923   6.473
 9627SOL    HW129780   0.965   4.919   6.573
 9627SOL    HW229781   0.868   4.907   6.442
 9628SOL     OW29782   6.039   1.777   6.263
 9628SOL    HW129783   6.069   1.808   6.173
 9628SOL    HW229784   6.068   1.682   6.277
 9629SOL     OW29785   6.723   5.956   4.375
 9629SOL    HW129786   6.733   5.889   4.449
 9629SOL    HW229787   6.811   6.001   4.359
 9630SOL     OW29788   5.838   6.713   6.299
 9630SOL    HW129789   5.808   6.770   6.375
 9630SOL    HW229790   5.848   6.769   6.217
 9631SOL     OW29791   3.625   0.743   0.683
 9631SOL    HW129792   3.558   0.672   0.663
 9631SOL    HW229793   3.641   0.748   0.781
 9632SOL     OW29794   3.628   5.851   2.492
 9632SOL    HW129795   3.583   5.844   2.403
 9632SOL    HW229796   3.570   5.904   2.555
 9633SOL     OW29797   3.259   3.070   2.963
 9633SOL    HW129798   3.291   3.006   3.033
 9633SOL    HW229799   3.163   3.091   2.978
 9634SOL     OW29800   5.567   5.214   3.093
 9634SOL    HW129801   5.590   5.149   3.021
 9634SOL    HW229802   5.621   5.298   3.081
 9635SOL     OW29803   0.269   5.250   4.223
 9635SOL    HW129804   0.322   5.333   4.240
 9635SOL    HW229805   0.189   5.271   4.167
 9636SOL     OW29806   5.099   3.376   4.022
 9636SOL    HW129807   5.028   3.360   4.091
 9636SOL    HW229808   5.065   3.440   3.953
 9637SOL     OW29809   2.485   2.902   0.134
 9637SOL    HW129810   2.563   2.955   0.166
 9637SOL    HW229811   2.405   2.924   0.190
 9638SOL     OW29812   6.380   4.972   5.505
 9638SOL    HW129813   6.280   4.979   5.505
 9638SOL    HW229814   6.412   4.952   5.412
 9639SOL     OW29815   4.006   1.796   2.334
 9639SOL    HW129816   3.975   1.857   2.406
 9639SOL    HW229817   3.930   1.741   2.301
 9640SOL     OW29818   4.711   0.099   3.019
 9640SOL    HW129819   4.699   0.044   3.101
 9640SOL    HW229820   4.651   0.064   2.947
 9641SOL     OW29821   6.328   4.000   3.115
 9641SOL    HW129822   6.376   4.085   3.135
 9641SOL    HW229823   6.335   3.937   3.193
 9642SOL     OW29824   1.427   0.638   4.057
 9642SOL    HW129825   1.338   0.681   4.075
 9642SOL    HW229826   1.450   0.647   3.960
 9643SOL     OW29827   4.983   5.006   4.200
 9643SOL    HW129828   4.996   4.994   4.298
 9643SOL    HW229829   4.900   4.958   4.171
 9644SOL     OW29830   1.295   5.491   4.229
 9644SOL    HW129831   1.228   5.559   4.258
 9644SOL    HW229832   1.365   5.481   4.299
 9645SOL     OW29833   0.191   4.990   6.405
 9645SOL    HW129834   0.135   4.938   6.470
 9645SOL    HW229835   0.132   5.027   6.333
 9646SOL     OW29836   2.800   5.547   5.821
 9646SOL    HW129837   2.898   5.529   5.836
 9646SOL    HW229838   2.765   5.602   5.896
 9647SOL     OW29839   6.462   6.920   3.519
 9647SOL    HW129840   6.497   6.865   3.594
 9647SOL    HW229841   6.370   6.889   3.495
 9648SOL     OW29842   3.635   1.932   0.961
 9648SOL    HW129843   3.708   1.940   1.029
 9648SOL    HW229844   3.566   2.003   0.978
 9649SOL     OW29845   1.282   6.093   6.832
 9649SOL    HW129846   1.267   6.115   6.736
 9649SOL    HW229847   1.252   6.170   6.889
 9650SOL     OW29848   6.756   4.854   4.508
 9650SOL    HW129849   6.816   4.930   4.485
 9650SOL    HW229850   6.679   4.852   4.445
 9651SOL     OW29851   4.445   1.556   0.675
 9651SOL    HW129852   4.373   1.590   0.615
 9651SOL    HW229853   4.434   1.458   0.688
 9652SOL     OW29854   6.949   3.705   0.333
 9652SOL    HW129855   6.851   3.705   0.352
 9652SOL    HW229856   6.995   3.770   0.393
 9653SOL     OW29857   4.022   4.669   6.239
 9653SOL    HW129858   3.973   4.726   6.305
 9653SOL    HW229859   3.960   4.600   6.202
 9654SOL     OW29860   3.762   3.460   3.448
 9654SOL    HW129861   3.732   3.529   3.514
 9654SOL    HW229862   3.846   3.417   3.481
 9655SOL     OW29863   3.934   1.395   1.282
 9655SOL    HW129864   3.920   1.382   1.380
 9655SOL    HW229865   4.020   1.443   1.267
 9656SOL     OW29866   5.791   3.994   0.576
 9656SOL    HW129867   5.884   4.025   0.557
 9656SOL    HW229868   5.781   3.973   0.673
 9657SOL     OW29869   5.782   4.259   3.654
 9657SOL    HW129870   5.770   4.267   3.555
 9657SOL    HW229871   5.736   4.176   3.687
 9658SOL     OW29872   4.603   2.219   2.973
 9658SOL    HW129873   4.595   2.161   3.054
 9658SOL    HW229874   4.513   2.251   2.946
 9659SOL     OW29875   2.396   3.616   0.747
 9659SOL    HW129876   2.321   3.682   0.752
 9659SOL    HW229877   2.472   3.655   0.695
 9660SOL     OW29878   1.080   5.800   1.535
 9660SOL    HW129879   1.180   5.808   1.536
 9660SOL    HW229880   1.049   5.756   1.619
 9661SOL     OW29881   5.236   4.730   0.825
 9661SOL    HW129882   5.140   4.719   0.799
 9661SOL    HW229883   5.249   4.818   0.871
 9662SOL     OW29884   5.636   5.343   5.827
 9662SOL    HW129885   5.689   5.364   5.909
 9662SOL    HW229886   5.672   5.394   5.750
 9663SOL     OW29887   0.733   5.357   3.158
 9663SOL    HW129888   0.702   5.279   3.212
 9663SOL    HW229889   0.831   5.372   3.173
 9664SOL     OW29890   4.826   4.089   3.150
 9664SOL    HW129891   4.786   4.102   3.059
 9664SOL    HW229892   4.775   4.145   3.216
 9665SOL     OW29893   5.928   5.644   6.528
 9665SOL    HW129894   6.022   5.644   6.494
 9665SOL    HW229895   5.890   5.737   6.520
 9666SOL     OW29896   5.670   3.626   0.859
 9666SOL    HW129897   5.763   3.600   0.832
 9666SOL    HW229898   5.667   3.639   0.958
 9667SOL     OW29899   6.019   6.081   6.425
 9667SOL    HW129900   6.104   6.044   6.463
 9667SOL    HW229901   5.999   6.036   6.338
 9668SOL     OW29902   0.488   0.594   5.683
 9668SOL    HW129903   0.583   0.626   5.690
 9668SOL    HW229904   0.435   0.630   5.760
 9669SOL     OW29905   3.883   0.772   0.638
 9669SOL    HW129906   3.786   0.749   0.644
 9669SOL    HW229907   3.920   0.789   0.729
 9670SOL     OW29908   0.202   6.995   6.856
 9670SOL    HW129909   0.168   6.996   6.950
 9670SOL    HW229910   0.276   6.929   6.848
 9671SOL     OW29911   1.134   5.558   6.538
 9671SOL    HW129912   1.035   5.571   6.550
 9671SOL    HW229913   1.155   5.461   6.547
 9672SOL     OW29914   0.866   3.230   4.254
 9672SOL    HW129915   0.889   3.188   4.166
 9672SOL    HW229916   0.920   3.313   4.266
 9673SOL     OW29917   2.232   4.000   0.630
 9673SOL    HW129918   2.302   4.064   0.661
 9673SOL    HW229919   2.259   3.959   0.543
 9674SOL     OW29920   2.624   5.775   4.226
 9674SOL    HW129921   2.664   5.695   4.271
 9674SOL    HW229922   2.529   5.786   4.255
 9675SOL     OW29923   4.762   3.259   1.058
 9675SOL    HW129924   4.819   3.323   1.007
 9675SOL    HW229925   4.764   3.283   1.155
 9676SOL     OW29926   0.271   3.015   0.027
 9676SOL    HW129927   0.352   3.074   0.021
 9676SOL    HW229928   0.298   2.921   0.009
 9677SOL     OW29929   6.986   5.318   0.991
 9677SOL    HW129930   6.895   5.289   1.023
 9677SOL    HW229931   0.024   5.237   0.973
 9678SOL     OW29932   3.735   3.475   5.089
 9678SOL    HW129933   3.757   3.476   4.991
 9678SOL    HW229934   3.641   3.442   5.101
 9679SOL     OW29935   1.957   1.969   4.453
 9679SOL    HW129936   2.010   2.038   4.403
 9679SOL    HW229937   2.011   1.936   4.530
 9680SOL     OW29938   4.720   5.547   2.239
 9680SOL    HW129939   4.758   5.591   2.320
 9680SOL    HW229940   4.653   5.608   2.197
 9681SOL     OW29941   1.613   1.466   2.780
 9681SOL    HW129942   1.656   1.552   2.754
 9681SOL    HW229943   1.573   1.423   2.699
 9682SOL     OW29944   4.894   5.210   5.435
 9682SOL    HW129945   4.807   5.162   5.446
 9682SOL    HW229946   4.970   5.146   5.450
 9683SOL     OW29947   3.223   6.547   1.939
 9683SOL    HW129948   3.231   6.510   2.031
 9683SOL    HW229949   3.165   6.487   1.883
 9684SOL     OW29950   0.421   3.345   5.724
 9684SOL    HW129951   0.459   3.436   5.711
 9684SOL    HW229952   0.470   3.298   5.797
 9685SOL     OW29953   3.876   4.200   1.600
 9685SOL    HW129954   3.881   4.299   1.586
 9685SOL    HW229955   3.959   4.157   1.565
 9686SOL     OW29956   0.019   1.829   5.580
 9686SOL    HW129957   0.072   1.755   5.539
 9686SOL    HW229958   6.968   1.790   5.641
 9687SOL     OW29959   5.887   1.181   2.337
 9687SOL    HW129960   5.855   1.102   2.389
 9687SOL    HW229961   5.920   1.251   2.400
 9688SOL     OW29962   0.015   4.812   1.106
 9688SOL    HW129963   0.031   4.909   1.126
 9688SOL    HW229964   0.067   4.756   1.170
 9689SOL     OW29965   1.817   6.299   1.032
 9689SOL    HW129966   1.767   6.257   0.956
 9689SOL    HW229967   1.906   6.331   0.999
 9690SOL     OW29968   6.493   4.966   5.022
 9690SOL    HW129969   6.458   5.053   5.058
 9690SOL    HW229970   6.417   4.905   5.003
 9691SOL     OW29971   3.308   4.081   1.952
 9691SOL    HW129972   3.228   4.139   1.934
 9691SOL    HW229973   3.389   4.122   1.910
 9692SOL     OW29974   5.009   5.109   1.489
 9692SOL    HW129975   5.027   5.068   1.579
 9692SOL    HW229976   5.054   5.199   1.485
 9693SOL     OW29977   5.294   3.619   4.841
 9693SOL    HW129978   5.363   3.666   4.895
 9693SOL    HW229979   5.328   3.530   4.813
 9694SOL     OW29980   3.328   6.748   2.416
 9694SOL    HW129981   3.334   6.655   2.450
 9694SOL    HW229982   3.235   6.766   2.384
 9695SOL     OW29983   0.856   2.001   3.324
 9695SOL    HW129984   0.877   1.946   3.243
 9695SOL    HW229985   0.939   2.045   3.358
 9696SOL     OW29986   5.865   2.205   2.357
 9696SOL    HW129987   5.792   2.274   2.360
 9696SOL    HW229988   5.885   2.175   2.451
 9697SOL     OW29989   1.657   6.542   0.690
 9697SOL    HW129990   1.738   6.513   0.638
 9697SOL    HW229991   1.636   6.637   0.667
 9698SOL     OW29992   5.446   3.529   1.157
 9698SOL    HW129993   5.383   3.519   1.234
 9698SOL    HW229994   5.396   3.558   1.076
 9699SOL     OW29995   1.523   5.625   1.146
 9699SOL    HW129996   1.567   5.643   1.058
 9699SOL    HW229997   1.561   5.542   1.186
 9700SOL     OW29998   5.110   0.388   5.121
 9700SOL    HW129999   5.115   0.288   5.128
 9700SOL    HW230000   5.015   0.417   5.113
 9701SOL     OW30001   4.452   3.367   6.279
 9701SOL    HW130002   4.390   3.289   6.286
 9701SOL    HW230003   4.540   3.337   6.243
 9702SOL     OW30004   3.685   3.662   1.428
 9702SOL    HW130005   3.749   3.737   1.447
 9702SOL    HW230006   3.736   3.576   1.420
 9703SOL     OW30007   6.923   4.107   4.255
 9703SOL    HW130008   6.994   4.058   4.307
 9703SOL    HW230009   6.937   4.093   4.157
 9704SOL     OW30010   2.090   4.197   2.616
 9704SOL    HW130011   2.144   4.246   2.548
 9704SOL    HW230012   2.004   4.167   2.575
 9705SOL     OW30013   6.340   3.173   5.664
 9705SOL    HW130014   6.306   3.079   5.673
 9705SOL    HW230015   6.346   3.215   5.754
 9706SOL     OW30016   1.157   1.273   2.111
 9706SOL    HW130017   1.133   1.296   2.205
 9706SOL    HW230018   1.216   1.344   2.073
 9707SOL     OW30019   0.800   5.035   2.251
 9707SOL    HW130020   0.816   5.040   2.349
 9707SOL    HW230021   0.881   4.998   2.205
 9708SOL     OW30022   2.599   0.308   2.567
 9708SOL    HW130023   2.580   0.285   2.472
 9708SOL    HW230024   2.671   0.378   2.571
 9709SOL     OW30025   5.059   2.125   1.285
 9709SOL    HW130026   5.008   2.039   1.274
 9709SOL    HW230027   5.156   2.104   1.295
 9710SOL     OW30028   6.870   5.444   3.773
 9710SOL    HW130029   6.874   5.345   3.778
 9710SOL    HW230030   6.775   5.474   3.778
 9711SOL     OW30031   3.983   0.349   0.183
 9711SOL    HW130032   3.893   0.324   0.147
 9711SOL    HW230033   4.054   0.313   0.123
 9712SOL     OW30034   5.710   1.689   6.937
 9712SOL    HW130035   5.781   1.682   7.006
 9712SOL    HW230036   5.674   1.598   6.916
 9713SOL     OW30037   1.025   6.493   3.505
 9713SOL    HW130038   1.099   6.493   3.439
 9713SOL    HW230039   1.061   6.470   3.596
 9714SOL     OW30040   2.161   4.671   4.850
 9714SOL    HW130041   2.253   4.692   4.818
 9714SOL    HW230042   2.166   4.600   4.920
 9715SOL     OW30043   6.292   3.627   0.004
 9715SOL    HW130044   6.240   3.549   0.040
 9715SOL    HW230045   6.301   3.617   6.922
 9716SOL     OW30046   2.296   5.007   6.586
 9716SOL    HW130047   2.337   4.920   6.612
 9716SOL    HW230048   2.197   5.000   6.589
 9717SOL     OW30049   4.057   1.469   5.613
 9717SOL    HW130050   4.146   1.475   5.657
 9717SOL    HW230051   4.058   1.523   5.529
 9718SOL     OW30052   3.465   3.057   0.174
 9718SOL    HW130053   3.493   2.967   0.205
 9718SOL    HW230054   3.454   3.118   0.252
 9719SOL     OW30055   4.595   6.441   5.261
 9719SOL    HW130056   4.556   6.504   5.328
 9719SOL    HW230057   4.525   6.377   5.230
 9720SOL     OW30058   2.142   3.745   3.526
 9720SOL    HW130059   2.222   3.726   3.469
 9720SOL    HW230060   2.095   3.826   3.491
 9721SOL     OW30061   1.194   1.477   0.696
 9721SOL    HW130062   1.176   1.572   0.671
 9721SOL    HW230063   1.180   1.465   0.794
 9722SOL     OW30064   4.175   3.002   5.467
 9722SOL    HW130065   4.077   3.016   5.486
 9722SOL    HW230066   4.186   2.924   5.406
 9723SOL     OW30067   6.594   6.120   4.576
 9723SOL    HW130068   6.581   6.105   4.478
 9723SOL    HW230069   6.563   6.039   4.626
 9724SOL     OW30070   1.541   5.100   6.982
 9724SOL    HW130071   1.545   5.200   6.986
 9724SOL    HW230072   1.491   5.066   0.044
 9725SOL     OW30073   3.762   5.198   5.494
 9725SOL    HW130074   3.674   5.243   5.484
 9725SOL    HW230075   3.791   5.202   5.590
 9726SOL     OW30076   6.077   1.787   4.325
 9726SOL    HW130077   6.091   1.695   4.360
 9726SOL    HW230078   6.046   1.847   4.399
 9727SOL     OW30079   0.591   1.045   7.010
 9727SOL    HW130080   0.595   1.139   6.974
 9727SOL    HW230081   0.681   1.003   7.003
 9728SOL     OW30082   4.576   0.904   5.385
 9728SOL    HW130083   4.602   0.841   5.458
 9728SOL    HW230084   4.479   0.928   5.395
 9729SOL     OW30085   0.443   4.991   3.528
 9729SOL    HW130086   0.438   5.089   3.509
 9729SOL    HW230087   0.450   4.977   3.627
 9730SOL     OW30088   6.804   4.199   3.176
 9730SOL    HW130089   6.802   4.100   3.159
 9730SOL    HW230090   6.844   4.245   3.097
 9731SOL     OW30091   4.956   3.420   2.165
 9731SOL    HW130092   4.893   3.489   2.130
 9731SOL    HW230093   5.026   3.464   2.222
 9732SOL     OW30094   1.602   2.705   2.857
 9732SOL    HW130095   1.670   2.650   2.808
 9732SOL    HW230096   1.630   2.801   2.855
 9733SOL     OW30097   6.902   4.631   2.131
 9733SOL    HW130098   6.837   4.707   2.140
 9733SOL    HW230099   6.979   4.660   2.074
 9734SOL     OW30100   6.360   6.186   6.183
 9734SOL    HW130101   6.356   6.112   6.250
 9734SOL    HW230102   6.268   6.204   6.147
 9735SOL     OW30103   1.021   3.022   1.904
 9735SOL    HW130104   1.023   3.029   1.805
 9735SOL    HW230105   0.984   3.106   1.944
 9736SOL     OW30106   5.192   2.084   5.090
 9736SOL    HW130107   5.227   2.057   5.001
 9736SOL    HW230108   5.170   2.182   5.088
 9737SOL     OW30109   5.778   2.615   2.436
 9737SOL    HW130110   5.689   2.604   2.480
 9737SOL    HW230111   5.772   2.584   2.341
 9738SOL     OW30112   1.916   5.910   1.949
 9738SOL    HW130113   2.000   5.864   1.920
 9738SOL    HW230114   1.856   5.844   1.994
 9739SOL     OW30115   6.046   6.951   0.017
 9739SOL    HW130116   6.132   6.997   7.012
 9739SOL    HW230117   6.032   6.873   6.973
 9740SOL     OW30118   6.396   0.891   2.009
 9740SOL    HW130119   6.493   0.898   2.030
 9740SOL    HW230120   6.374   0.797   1.984
 9741SOL     OW30121   2.461   1.403   4.600
 9741SOL    HW130122   2.502   1.393   4.509
 9741SOL    HW230123   2.519   1.358   4.668
 9742SOL     OW30124   4.109   2.145   6.067
 9742SOL    HW130125   4.073   2.231   6.032
 9742SOL    HW230126   4.054   2.115   6.146
 9743SOL     OW30127   5.984   3.311   3.937
 9743SOL    HW130128   5.935   3.291   4.022
 9743SOL    HW230129   5.955   3.399   3.901
 9744SOL     OW30130   1.774   0.794   3.671
 9744SOL    HW130131   1.785   0.761   3.765
 9744SOL    HW230132   1.723   0.726   3.618
 9745SOL     OW30133   6.736   0.900   5.376
 9745SOL    HW130134   6.817   0.842   5.363
 9745SOL    HW230135   6.738   0.937   5.469
 9746SOL     OW30136   4.325   5.554   6.306
 9746SOL    HW130137   4.265   5.490   6.257
 9746SOL    HW230138   4.416   5.552   6.265
 9747SOL     OW30139   2.512   1.973   3.053
 9747SOL    HW130140   2.412   1.978   3.051
 9747SOL    HW230141   2.550   2.064   3.033
 9748SOL     OW30142   1.271   0.905   3.349
 9748SOL    HW130143   1.292   0.981   3.286
 9748SOL    HW230144   1.172   0.891   3.352
 9749SOL     OW30145   6.809   1.241   2.305
 9749SOL    HW130146   6.876   1.304   2.266
 9749SOL    HW230147   6.780   1.274   2.395
 9750SOL     OW30148   0.024   4.311   3.724
 9750SOL    HW130149   0.084   4.283   3.799
 9750SOL    HW230150   6.948   4.314   3.756
 9751SOL     OW30151   3.079   0.598   1.539
 9751SOL    HW130152   3.085   0.584   1.440
 9751SOL    HW230153   2.985   0.582   1.569
 9752SOL     OW30154   2.987   3.066   0.106
 9752SOL    HW130155   3.046   3.010   0.165
 9752SOL    HW230156   2.891   3.045   0.126
 9753SOL     OW30157   6.708   5.768   4.606
 9753SOL    HW130158   6.639   5.823   4.654
 9753SOL    HW230159   6.683   5.671   4.610
 9754SOL     OW30160   3.255   1.010   1.371
 9754SOL    HW130161   3.161   0.996   1.341
 9754SOL    HW230162   3.257   1.023   1.470
 9755SOL     OW30163   2.987   4.355   6.541
 9755SOL    HW130164   3.055   4.425   6.520
 9755SOL    HW230165   2.975   4.296   6.462
 9756SOL     OW30166   5.805   0.140   6.121
 9756SOL    HW130167   5.762   0.182   6.041
 9756SOL    HW230168   5.777   0.190   6.204
 9757SOL     OW30169   5.307   3.940   3.760
 9757SOL    HW130170   5.346   4.032   3.763
 9757SOL    HW230171   5.263   3.925   3.671
 9758SOL     OW30172   1.908   0.268   1.635
 9758SOL    HW130173   1.820   0.301   1.599
 9758SOL    HW230174   1.965   0.236   1.559
 9759SOL     OW30175   0.187   1.024   0.964
 9759SOL    HW130176   0.215   1.120   0.970
 9759SOL    HW230177   0.268   0.965   0.964
 9760SOL     OW30178   4.666   1.678   0.014
 9760SOL    HW130179   4.619   1.685   6.943
 9760SOL    HW230180   4.647   1.589   0.055
 9761SOL     OW30181   1.247   2.156   1.419
 9761SOL    HW130182   1.178   2.096   1.459
 9761SOL    HW230183   1.222   2.252   1.435
 9762SOL     OW30184   2.467   1.493   5.498
 9762SOL    HW130185   2.427   1.577   5.534
 9762SOL    HW230186   2.408   1.456   5.427
 9763SOL     OW30187   6.061   1.003   0.869
 9763SOL    HW130188   6.044   1.067   0.794
 9763SOL    HW230189   6.143   0.949   0.848
 9764SOL     OW30190   6.023   2.463   2.237
 9764SOL    HW130191   6.053   2.549   2.196
 9764SOL    HW230192   5.924   2.461   2.243
 9765SOL     OW30193   6.451   0.664   1.514
 9765SOL    HW130194   6.479   0.706   1.600
 9765SOL    HW230195   6.439   0.734   1.444
 9766SOL     OW30196   2.094   1.496   4.406
 9766SOL    HW130197   2.046   1.412   4.431
 9766SOL    HW230198   2.152   1.525   4.482
 9767SOL     OW30199   2.394   3.421   5.857
 9767SOL    HW130200   2.382   3.400   5.954
 9767SOL    HW230201   2.412   3.336   5.807
 9768SOL     OW30202   6.144   2.704   1.258
 9768SOL    HW130203   6.138   2.652   1.173
 9768SOL    HW230204   6.054   2.709   1.302
 9769SOL     OW30205   2.916   1.920   5.092
 9769SOL    HW130206   2.890   1.951   5.001
 9769SOL    HW230207   2.838   1.929   5.154
 9770SOL     OW30208   2.903   2.226   6.039
 9770SOL    HW130209   2.902   2.142   6.092
 9770SOL    HW230210   2.989   2.274   6.053
 9771SOL     OW30211   3.207   6.270   3.231
 9771SOL    HW130212   3.269   6.192   3.218
 9771SOL    HW230213   3.159   6.289   3.145
 9772SOL     OW30214   1.096   6.798   1.211
 9772SOL    HW130215   1.128   6.786   1.305
 9772SOL    HW230216   0.997   6.805   1.210
 9773SOL     OW30217   4.760   5.013   2.000
 9773SOL    HW130218   4.660   5.011   1.997
 9773SOL    HW230219   4.794   5.073   1.928
 9774SOL     OW30220   0.706   5.428   4.706
 9774SOL    HW130221   0.672   5.481   4.628
 9774SOL    HW230222   0.665   5.464   4.791
 9775SOL     OW30223   2.005   1.595   3.701
 9775SOL    HW130224   2.044   1.508   3.731
 9775SOL    HW230225   2.023   1.666   3.769
 9776SOL     OW30226   1.542   5.859   6.655
 9776SOL    HW130227   1.526   5.912   6.571
 9776SOL    HW230228   1.454   5.841   6.699
 9777SOL     OW30229   4.421   0.752   5.784
 9777SOL    HW130230   4.363   0.787   5.710
 9777SOL    HW230231   4.364   0.708   5.853
 9778SOL     OW30232   0.272   3.176   4.201
 9778SOL    HW130233   0.360   3.221   4.218
 9778SOL    HW230234   0.219   3.230   4.135
 9779SOL     OW30235   1.708   1.263   3.718
 9779SOL    HW130236   1.642   1.273   3.793
 9779SOL    HW230237   1.789   1.217   3.752
 9780SOL     OW30238   1.484   2.666   2.023
 9780SOL    HW130239   1.435   2.599   1.967
 9780SOL    HW230240   1.463   2.758   1.990
 9781SOL     OW30241   1.866   2.465   3.273
 9781SOL    HW130242   1.796   2.496   3.337
 9781SOL    HW230243   1.907   2.380   3.306
 9782SOL     OW30244   0.184   2.300   1.486
 9782SOL    HW130245   0.161   2.252   1.401
 9782SOL    HW230246   0.252   2.371   1.466
 9783SOL     OW30247   3.651   1.488   2.958
 9783SOL    HW130248   3.688   1.581   2.964
 9783SOL    HW230249   3.557   1.492   2.924
 9784SOL     OW30250   1.708   1.268   6.654
 9784SOL    HW130251   1.799   1.253   6.692
 9784SOL    HW230252   1.669   1.352   6.692
 9785SOL     OW30253   0.564   2.757   4.169
 9785SOL    HW130254   0.576   2.679   4.230
 9785SOL    HW230255   0.472   2.795   4.180
 9786SOL     OW30256   2.616   4.565   1.463
 9786SOL    HW130257   2.633   4.492   1.530
 9786SOL    HW230258   2.520   4.565   1.437
 9787SOL     OW30259   3.809   3.300   3.237
 9787SOL    HW130260   3.741   3.327   3.170
 9787SOL    HW230261   3.831   3.377   3.297
 9788SOL     OW30262   6.020   6.909   1.294
 9788SOL    HW130263   5.956   6.970   1.339
 9788SOL    HW230264   6.055   6.953   1.211
 9789SOL     OW30265   3.841   0.891   6.765
 9789SOL    HW130266   3.817   0.838   6.684
 9789SOL    HW230267   3.759   0.935   6.802
 9790SOL     OW30268   0.299   4.480   4.142
 9790SOL    HW130269   0.287   4.438   4.232
 9790SOL    HW230270   0.210   4.490   4.098
 9791SOL     OW30271   1.558   6.579   1.014
 9791SOL    HW130272   1.479   6.611   0.961
 9791SOL    HW230273   1.597   6.498   0.969
 9792SOL     OW30274   4.013   6.050   0.927
 9792SOL    HW130275   4.080   6.032   0.999
 9792SOL    HW230276   3.991   6.148   0.926
 9793SOL     OW30277   5.034   1.542   3.354
 9793SOL    HW130278   5.056   1.513   3.261
 9793SOL    HW230279   5.032   1.642   3.359
 9794SOL     OW30280   4.902   4.536   4.754
 9794SOL    HW130281   4.807   4.516   4.780
 9794SOL    HW230282   4.957   4.453   4.759
 9795SOL     OW30283   1.479   3.374   3.482
 9795SOL    HW130284   1.549   3.436   3.445
 9795SOL    HW230285   1.458   3.401   3.576
 9796SOL     OW30286   3.214   3.653   3.683
 9796SOL    HW130287   3.150   3.576   3.680
 9796SOL    HW230288   3.268   3.648   3.767
 9797SOL     OW30289   3.174   6.399   6.702
 9797SOL    HW130290   3.189   6.327   6.769
 9797SOL    HW230291   3.204   6.487   6.740
 9798SOL     OW30292   1.047   3.618   0.212
 9798SOL    HW130293   0.963   3.635   0.264
 9798SOL    HW230294   1.026   3.614   0.114
 9799SOL     OW30295   2.740   6.908   6.687
 9799SOL    HW130296   2.651   6.888   6.728
 9799SOL    HW230297   2.744   6.866   6.596
 9800SOL     OW30298   6.182   3.593   4.827
 9800SOL    HW130299   6.113   3.606   4.899
 9800SOL    HW230300   6.202   3.682   4.784
 9801SOL     OW30301   6.156   5.656   6.846
 9801SOL    HW130302   6.148   5.677   6.944
 9801SOL    HW230303   6.249   5.626   6.825
 9802SOL     OW30304   4.308   4.682   0.335
 9802SOL    HW130305   4.294   4.585   0.356
 9802SOL    HW230306   4.406   4.698   0.318
 9803SOL     OW30307   0.397   3.948   6.690
 9803SOL    HW130308   0.317   3.893   6.716
 9803SOL    HW230309   0.377   4.044   6.706
 9804SOL     OW30310   0.147   5.131   2.342
 9804SOL    HW130311   0.225   5.105   2.400
 9804SOL    HW230312   0.125   5.055   2.281
 9805SOL     OW30313   1.057   6.139   3.813
 9805SOL    HW130314   1.143   6.094   3.791
 9805SOL    HW230315   1.020   6.102   3.899
 9806SOL     OW30316   3.264   2.301   6.095
 9806SOL    HW130317   3.353   2.339   6.069
 9806SOL    HW230318   3.261   2.204   6.072
 9807SOL     OW30319   3.092   3.964   2.337
 9807SOL    HW130320   3.115   3.873   2.304
 9807SOL    HW230321   3.165   4.028   2.311
 9808SOL     OW30322   4.399   6.178   3.566
 9808SOL    HW130323   4.354   6.262   3.597
 9808SOL    HW230324   4.498   6.189   3.570
 9809SOL     OW30325   0.127   3.212   0.700
 9809SOL    HW130326   0.153   3.169   0.786
 9809SOL    HW230327   0.146   3.311   0.705
 9810SOL     OW30328   2.291   1.515   6.225
 9810SOL    HW130329   2.301   1.478   6.318
 9810SOL    HW230330   2.271   1.440   6.162
 9811SOL     OW30331   6.395   3.819   4.153
 9811SOL    HW130332   6.375   3.916   4.135
 9811SOL    HW230333   6.475   3.791   4.100
 9812SOL     OW30334   3.091   5.787   4.931
 9812SOL    HW130335   3.068   5.730   4.852
 9812SOL    HW230336   3.052   5.746   5.014
 9813SOL     OW30337   4.661   2.394   1.174
 9813SOL    HW130338   4.661   2.491   1.197
 9813SOL    HW230339   4.655   2.383   1.075
 9814SOL     OW30340   6.037   1.064   0.074
 9814SOL    HW130341   6.048   1.086   6.994
 9814SOL    HW230342   6.019   0.967   0.084
 9815SOL     OW30343   4.385   2.251   4.869
 9815SOL    HW130344   4.313   2.275   4.804
 9815SOL    HW230345   4.445   2.182   4.828
 9816SOL     OW30346   1.337   6.944   0.374
 9816SOL    HW130347   1.370   6.850   0.369
 9816SOL    HW230348   1.415   7.007   0.374
 9817SOL     OW30349   0.122   6.825   3.223
 9817SOL    HW130350   0.036   6.799   3.267
 9817SOL    HW230351   0.121   6.922   3.201
 9818SOL     OW30352   6.612   2.828   4.816
 9818SOL    HW130353   6.594   2.922   4.844
 9818SOL    HW230354   6.539   2.769   4.849
 9819SOL     OW30355   4.046   1.658   3.259
 9819SOL    HW130356   4.045   1.653   3.160
 9819SOL    HW230357   4.133   1.625   3.294
 9820SOL     OW30358   3.909   4.195   5.941
 9820SOL    HW130359   3.830   4.145   5.904
 9820SOL    HW230360   3.991   4.172   5.889
 9821SOL     OW30361   5.522   5.916   6.613
 9821SOL    HW130362   5.526   6.007   6.572
 9821SOL    HW230363   5.487   5.923   6.706
 9822SOL     OW30364   0.799   0.111   2.893
 9822SOL    HW130365   0.740   0.033   2.913
 9822SOL    HW230366   0.749   0.178   2.838
 9823SOL     OW30367   3.257   1.024   1.634
 9823SOL    HW130368   3.299   1.015   1.725
 9823SOL    HW230369   3.172   0.971   1.631
 9824SOL     OW30370   1.500   4.134   4.958
 9824SOL    HW130371   1.481   4.141   5.056
 9824SOL    HW230372   1.552   4.214   4.928
 9825SOL     OW30373   3.587   4.786   5.679
 9825SOL    HW130374   3.516   4.727   5.718
 9825SOL    HW230375   3.649   4.816   5.751
 9826SOL     OW30376   4.857   6.738   5.988
 9826SOL    HW130377   4.827   6.649   6.024
 9826SOL    HW230378   4.932   6.724   5.924
 9827SOL     OW30379   1.226   3.850   4.945
 9827SOL    HW130380   1.286   3.906   4.889
 9827SOL    HW230381   1.271   3.830   5.032
 9828SOL     OW30382   4.418   2.550   0.390
 9828SOL    HW130383   4.518   2.560   0.390
 9828SOL    HW230384   4.388   2.520   0.299
 9829SOL     OW30385   2.397   5.954   6.790
 9829SOL    HW130386   2.464   5.896   6.743
 9829SOL    HW230387   2.444   6.033   6.829
 9830SOL     OW30388   5.847   1.213   1.427
 9830SOL    HW130389   5.791   1.131   1.439
 9830SOL    HW230390   5.922   1.212   1.493
 9831SOL     OW30391   0.848   6.492   1.779
 9831SOL    HW130392   0.795   6.553   1.837
 9831SOL    HW230393   0.941   6.528   1.768
 9832SOL     OW30394   4.433   5.132   1.873
 9832SOL    HW130395   4.472   5.190   1.944
 9832SOL    HW230396   4.394   5.050   1.916
 9833SOL     OW30397   3.545   4.305   5.189
 9833SOL    HW130398   3.512   4.400   5.187
 9833SOL    HW230399   3.484   4.248   5.133
 9834SOL     OW30400   1.360   3.805   5.506
 9834SOL    HW130401   1.377   3.881   5.569
 9834SOL    HW230402   1.293   3.743   5.546
 9835SOL     OW30403   5.263   1.251   4.398
 9835SOL    HW130404   5.289   1.335   4.350
 9835SOL    HW230405   5.216   1.274   4.483
 9836SOL     OW30406   5.496   4.323   3.169
 9836SOL    HW130407   5.518   4.328   3.072
 9836SOL    HW230408   5.433   4.248   3.185
 9837SOL     OW30409   2.225   6.680   3.916
 9837SOL    HW130410   2.194   6.598   3.963
 9837SOL    HW230411   2.170   6.695   3.835
 9838SOL     OW30412   0.784   6.791   6.203
 9838SOL    HW130413   0.825   6.839   6.280
 9838SOL    HW230414   0.840   6.710   6.181
 9839SOL     OW30415   6.224   1.438   1.495
 9839SOL    HW130416   6.249   1.383   1.415
 9839SOL    HW230417   6.155   1.390   1.548
 9840SOL     OW30418   0.464   0.528   0.886
 9840SOL    HW130419   0.411   0.556   0.966
 9840SOL    HW230420   0.529   0.600   0.862
 9841SOL     OW30421   1.158   4.052   4.649
 9841SOL    HW130422   1.235   4.025   4.707
 9841SOL    HW230423   1.182   4.134   4.598
 9842SOL     OW30424   2.970   3.325   3.314
 9842SOL    HW130425   2.958   3.241   3.368
 9842SOL    HW230426   3.058   3.366   3.336
 9843SOL     OW30427   0.022   1.857   1.426
 9843SOL    HW130428   7.010   1.792   1.494
 9843SOL    HW230429   0.120   1.876   1.439
 9844SOL     OW30430   4.930   0.019   2.244
 9844SOL    HW130431   5.005   0.044   2.182
 9844SOL    HW230432   4.937   6.940   2.267
 9845SOL     OW30433   2.281   1.866   4.419
 9845SOL    HW130434   2.307   1.960   4.395
 9845SOL    HW230435   2.203   1.868   4.481
 9846SOL     OW30436   3.036   3.886   3.631
 9846SOL    HW130437   2.944   3.899   3.594
 9846SOL    HW230438   3.065   3.791   3.614
 9847SOL     OW30439   1.949   3.005   6.700
 9847SOL    HW130440   1.968   3.079   6.764
 9847SOL    HW230441   2.021   2.936   6.707
 9848SOL     OW30442   4.642   2.932   6.945
 9848SOL    HW130443   4.708   2.933   6.870
 9848SOL    HW230444   4.662   2.857   7.008
 9849SOL     OW30445   6.640   6.833   6.822
 9849SOL    HW130446   6.710   6.899   6.797
 9849SOL    HW230447   6.614   6.846   6.918
 9850SOL     OW30448   4.543   6.971   2.851
 9850SOL    HW130449   4.458   6.926   2.878
 9850SOL    HW230450   4.608   6.903   2.817
 9851SOL     OW30451   4.622   1.911   5.370
 9851SOL    HW130452   4.709   1.901   5.321
 9851SOL    HW230453   4.547   1.896   5.306
 9852SOL     OW30454   4.801   2.230   3.707
 9852SOL    HW130455   4.808   2.144   3.656
 9852SOL    HW230456   4.711   2.271   3.691
 9853SOL     OW30457   5.506   4.295   2.101
 9853SOL    HW130458   5.571   4.371   2.101
 9853SOL    HW230459   5.440   4.308   2.175
 9854SOL     OW30460   5.711   5.651   4.736
 9854SOL    HW130461   5.671   5.560   4.724
 9854SOL    HW230462   5.639   5.720   4.725
 9855SOL     OW30463   1.190   4.164   1.118
 9855SOL    HW130464   1.116   4.219   1.157
 9855SOL    HW230465   1.164   4.133   1.027
 9856SOL     OW30466   4.021   3.802   0.689
 9856SOL    HW130467   4.052   3.771   0.599
 9856SOL    HW230468   3.979   3.725   0.738
 9857SOL     OW30469   5.345   2.272   3.074
 9857SOL    HW130470   5.249   2.299   3.075
 9857SOL    HW230471   5.376   2.261   2.980
 9858SOL     OW30472   4.961   1.098   2.012
 9858SOL    HW130473   4.914   1.055   2.089
 9858SOL    HW230474   5.044   1.047   1.991
 9859SOL     OW30475   6.176   0.292   1.320
 9859SOL    HW130476   6.215   0.376   1.359
 9859SOL    HW230477   6.230   0.213   1.349
 9860SOL     OW30478   0.248   0.877   2.110
 9860SOL    HW130479   0.218   0.843   2.021
 9860SOL    HW230480   0.322   0.819   2.145
 9861SOL     OW30481   3.943   5.978   4.494
 9861SOL    HW130482   3.870   6.042   4.518
 9861SOL    HW230483   4.032   6.020   4.514
 9862SOL     OW30484   2.625   3.688   0.632
 9862SOL    HW130485   2.650   3.766   0.689
 9862SOL    HW230486   2.682   3.610   0.655
 9863SOL     OW30487   3.761   0.240   2.670
 9863SOL    HW130488   3.764   0.141   2.660
 9863SOL    HW230489   3.844   0.271   2.717
 9864SOL     OW30490   4.496   5.222   3.863
 9864SOL    HW130491   4.406   5.202   3.826
 9864SOL    HW230492   4.509   5.171   3.948
 9865SOL     OW30493   0.587   0.061   3.546
 9865SOL    HW130494   0.510   0.080   3.484
 9865SOL    HW230495   0.654   0.134   3.538
 9866SOL     OW30496   4.847   4.049   4.667
 9866SOL    HW130497   4.899   3.992   4.729
 9866SOL    HW230498   4.816   4.132   4.715
 9867SOL     OW30499   4.084   1.572   0.943
 9867SOL    HW130500   4.054   1.609   0.854
 9867SOL    HW230501   4.065   1.474   0.946
 9868SOL     OW30502   0.113   4.610   6.913
 9868SOL    HW130503   0.085   4.582   6.822
 9868SOL    HW230504   0.129   4.709   6.914
 9869SOL     OW30505   1.818   3.688   3.207
 9869SOL    HW130506   1.884   3.748   3.161
 9869SOL    HW230507   1.743   3.666   3.144
 9870SOL     OW30508   4.677   5.366   2.981
 9870SOL    HW130509   4.645   5.437   3.043
 9870SOL    HW230510   4.770   5.387   2.950
 9871SOL     OW30511   1.642   0.662   5.818
 9871SOL    HW130512   1.565   0.630   5.873
 9871SOL    HW230513   1.628   0.635   5.723
 9872SOL     OW30514   2.735   5.096   3.277
 9872SOL    HW130515   2.655   5.114   3.335
 9872SOL    HW230516   2.788   5.180   3.266
 9873SOL     OW30517   2.179   3.198   0.071
 9873SOL    HW130518   2.156   3.103   0.049
 9873SOL    HW230519   2.265   3.201   0.121
 9874SOL     OW30520   0.483   1.919   3.495
 9874SOL    HW130521   0.492   1.971   3.580
 9874SOL    HW230522   0.387   1.892   3.483
 9875SOL     OW30523   0.003   0.896   2.444
 9875SOL    HW130524   6.995   0.803   2.418
 9875SOL    HW230525   0.100   0.898   2.468
 9876SOL     OW30526   6.269   0.640   1.996
 9876SOL    HW130527   6.177   0.610   1.972
 9876SOL    HW230528   6.283   0.630   2.094
 9877SOL     OW30529   3.331   6.502   2.550
 9877SOL    HW130530   3.418   6.490   2.597
 9877SOL    HW230531   3.263   6.439   2.588
 9878SOL     OW30532   1.894   5.280   6.237
 9878SOL    HW130533   1.891   5.351   6.307
 9878SOL    HW230534   1.965   5.301   6.170
 9879SOL     OW30535   5.094   5.363   4.661
 9879SOL    HW130536   5.102   5.331   4.755
 9879SOL    HW230537   5.170   5.425   4.640
 9880SOL     OW30538   1.686   2.775   5.257
 9880SOL    HW130539   1.621   2.845   5.284
 9880SOL    HW230540   1.779   2.812   5.261
 9881SOL     OW30541   1.077   2.241   4.839
 9881SOL    HW130542   1.120   2.260   4.750
 9881SOL    HW230543   0.986   2.203   4.825
 9882SOL     OW30544   0.817   2.450   3.961
 9882SOL    HW130545   0.771   2.405   4.037
 9882SOL    HW230546   0.805   2.549   3.969
 9883SOL     OW30547   1.534   0.274   1.632
 9883SOL    HW130548   1.605   0.277   1.561
 9883SOL    HW230549   1.458   0.216   1.601
 9884SOL     OW30550   4.309   1.302   3.420
 9884SOL    HW130551   4.381   1.295   3.489
 9884SOL    HW230552   4.270   1.211   3.404
 9885SOL     OW30553   6.615   4.275   4.834
 9885SOL    HW130554   6.631   4.182   4.868
 9885SOL    HW230555   6.519   4.286   4.807
 9886SOL     OW30556   0.877   4.734   2.659
 9886SOL    HW130557   0.815   4.663   2.691
 9886SOL    HW230558   0.913   4.709   2.569
 9887SOL     OW30559   3.873   1.228   0.337
 9887SOL    HW130560   3.782   1.190   0.348
 9887SOL    HW230561   3.935   1.157   0.302
 9888SOL     OW30562   6.878   3.950   0.625
 9888SOL    HW130563   6.876   3.984   0.719
 9888SOL    HW230564   6.926   4.016   0.567
 9889SOL     OW30565   6.557   5.269   1.029
 9889SOL    HW130566   6.611   5.280   0.946
 9889SOL    HW230567   6.462   5.292   1.011
 9890SOL     OW30568   1.540   2.280   0.787
 9890SOL    HW130569   1.559   2.269   0.884
 9890SOL    HW230570   1.448   2.245   0.766
 9891SOL     OW30571   6.014   2.464   0.798
 9891SOL    HW130572   6.030   2.519   0.717
 9891SOL    HW230573   5.999   2.369   0.771
 9892SOL     OW30574   6.885   5.360   0.406
 9892SOL    HW130575   6.893   5.421   0.485
 9892SOL    HW230576   6.946   5.392   0.333
 9893SOL     OW30577   1.667   0.775   0.593
 9893SOL    HW130578   1.633   0.830   0.517
 9893SOL    HW230579   1.605   0.783   0.671
 9894SOL     OW30580   2.058   2.114   1.172
 9894SOL    HW130581   2.099   2.117   1.080
 9894SOL    HW230582   2.087   2.031   1.218
 9895SOL     OW30583   5.695   3.684   5.164
 9895SOL    HW130584   5.652   3.710   5.250
 9895SOL    HW230585   5.776   3.629   5.182
 9896SOL     OW30586   6.460   6.574   6.972
 9896SOL    HW130587   6.510   6.517   0.020
 9896SOL    HW230588   6.430   6.518   6.895
 9897SOL     OW30589   5.423   5.956   3.228
 9897SOL    HW130590   5.335   6.000   3.246
 9897SOL    HW230591   5.484   5.970   3.306
 9898SOL     OW30592   2.386   6.520   6.374
 9898SOL    HW130593   2.474   6.487   6.340
 9898SOL    HW230594   2.337   6.565   6.300
 9899SOL     OW30595   0.066   5.726   0.702
 9899SOL    HW130596   0.113   5.779   0.631
 9899SOL    HW230597   0.091   5.629   0.693
 9900SOL     OW30598   1.594   3.640   2.978
 9900SOL    HW130599   1.504   3.600   2.997
 9900SOL    HW230600   1.587   3.739   2.977
 9901SOL     OW30601   2.636   2.181   5.624
 9901SOL    HW130602   2.620   2.160   5.528
 9901SOL    HW230603   2.732   2.207   5.637
 9902SOL     OW30604   2.546   4.686   6.865
 9902SOL    HW130605   2.489   4.738   6.928
 9902SOL    HW230606   2.638   4.677   6.902
 9903SOL     OW30607   4.766   1.673   2.878
 9903SOL    HW130608   4.824   1.604   2.834
 9903SOL    HW230609   4.778   1.669   2.977
 9904SOL     OW30610   1.220   3.088   6.722
 9904SOL    HW130611   1.139   3.058   6.671
 9904SOL    HW230612   1.298   3.094   6.660
 9905SOL     OW30613   3.290   0.891   0.388
 9905SOL    HW130614   3.276   0.990   0.388
 9905SOL    HW230615   3.379   0.871   0.347
 9906SOL     OW30616   3.235   3.062   2.704
 9906SOL    HW130617   3.256   3.047   2.801
 9906SOL    HW230618   3.136   3.074   2.693
 9907SOL     OW30619   6.429   1.002   1.151
 9907SOL    HW130620   6.364   1.060   1.103
 9907SOL    HW230621   6.380   0.943   1.215
 9908SOL     OW30622   5.188   2.076   3.402
 9908SOL    HW130623   5.147   2.161   3.434
 9908SOL    HW230624   5.254   2.043   3.470
 9909SOL     OW30625   3.885   6.812   3.908
 9909SOL    HW130626   3.829   6.800   3.826
 9909SOL    HW230627   3.981   6.795   3.886
 9910SOL     OW30628   1.309   3.802   2.417
 9910SOL    HW130629   1.393   3.854   2.402
 9910SOL    HW230630   1.242   3.826   2.346
 9911SOL     OW30631   3.789   6.783   2.222
 9911SOL    HW130632   3.785   6.883   2.224
 9911SOL    HW230633   3.818   6.754   2.131
 9912SOL     OW30634   3.939   2.215   1.194
 9912SOL    HW130635   4.013   2.260   1.144
 9912SOL    HW230636   3.861   2.276   1.201
 9913SOL     OW30637   5.951   3.793   0.280
 9913SOL    HW130638   5.882   3.865   0.278
 9913SOL    HW230639   5.919   3.715   0.225
 9914SOL     OW30640   6.850   3.397   4.666
 9914SOL    HW130641   6.758   3.389   4.629
 9914SOL    HW230642   6.866   3.323   4.732
 9915SOL     OW30643   4.586   0.894   3.037
 9915SOL    HW130644   4.515   0.927   3.099
 9915SOL    HW230645   4.546   0.831   2.971
 9916SOL     OW30646   2.361   2.705   3.378
 9916SOL    HW130647   2.407   2.793   3.364
 9916SOL    HW230648   2.265   2.712   3.349
 9917SOL     OW30649   5.899   3.343   0.022
 9917SOL    HW130650   5.824   3.294   6.995
 9917SOL    HW230651   5.915   3.303   0.113
 9918SOL     OW30652   3.672   1.850   2.684
 9918SOL    HW130653   3.702   1.898   2.602
 9918SOL    HW230654   3.616   1.771   2.658
 9919SOL     OW30655   5.996   5.709   1.847
 9919SOL    HW130656   6.086   5.735   1.812
 9919SOL    HW230657   5.929   5.716   1.773
 9920SOL     OW30658   4.806   1.562   1.968
 9920SOL    HW130659   4.843   1.586   2.057
 9920SOL    HW230660   4.791   1.464   1.963
 9921SOL     OW30661   4.139   5.871   5.999
 9921SOL    HW130662   4.222   5.918   6.030
 9921SOL    HW230663   4.060   5.929   6.016
 9922SOL     OW30664   1.308   5.223   0.338
 9922SOL    HW130665   1.337   5.318   0.331
 9922SOL    HW230666   1.334   5.186   0.428
 9923SOL     OW30667   4.997   4.890   6.635
 9923SOL    HW130668   5.025   4.854   6.724
 9923SOL    HW230669   5.013   4.821   6.564
 9924SOL     OW30670   0.287   2.265   4.777
 9924SOL    HW130671   0.365   2.326   4.796
 9924SOL    HW230672   0.202   2.310   4.805
 9925SOL     OW30673   6.926   4.128   3.983
 9925SOL    HW130674   6.989   4.205   3.980
 9925SOL    HW230675   6.977   4.042   3.990
 9926SOL     OW30676   2.612   3.913   0.169
 9926SOL    HW130677   2.663   3.998   0.185
 9926SOL    HW230678   2.600   3.900   0.071
 9927SOL     OW30679   5.787   0.008   2.188
 9927SOL    HW130680   5.744   0.043   2.105
 9927SOL    HW230681   5.719   6.975   2.242
 9928SOL     OW30682   4.786   5.109   1.742
 9928SOL    HW130683   4.749   5.140   1.654
 9928SOL    HW230684   4.859   5.042   1.726
 9929SOL     OW30685   1.958   5.692   5.182
 9929SOL    HW130686   2.051   5.712   5.212
 9929SOL    HW230687   1.899   5.681   5.263
 9930SOL     OW30688   6.286   0.579   4.826
 9930SOL    HW130689   6.369   0.538   4.789
 9930SOL    HW230690   6.301   0.677   4.839
 9931SOL     OW30691   0.705   4.611   5.250
 9931SOL    HW130692   0.711   4.571   5.341
 9931SOL    HW230693   0.797   4.630   5.215
 9932SOL     OW30694   1.904   6.031   6.540
 9932SOL    HW130695   1.982   6.081   6.502
 9932SOL    HW230696   1.855   5.984   6.466
 9933SOL     OW30697   1.727   4.593   2.475
 9933SOL    HW130698   1.659   4.526   2.445
 9933SOL    HW230699   1.751   4.575   2.571
 9934SOL     OW30700   6.215   1.965   5.784
 9934SOL    HW130701   6.277   1.928   5.852
 9934SOL    HW230702   6.234   1.924   5.695
 9935SOL     OW30703   2.947   0.826   0.456
 9935SOL    HW130704   3.016   0.849   0.524
 9935SOL    HW230705   2.992   0.800   0.370
 9936SOL     OW30706   6.856   4.851   4.817
 9936SOL    HW130707   6.824   4.788   4.887
 9936SOL    HW230708   6.888   4.800   4.737
 9937SOL     OW30709   6.430   2.561   5.403
 9937SOL    HW130710   6.477   2.560   5.492
 9937SOL    HW230711   6.456   2.643   5.352
 9938SOL     OW30712   6.571   5.713   3.374
 9938SOL    HW130713   6.661   5.668   3.375
 9938SOL    HW230714   6.549   5.744   3.466
 9939SOL     OW30715   3.331   2.604   0.599
 9939SOL    HW130716   3.234   2.598   0.624
 9939SOL    HW230717   3.377   2.666   0.662
 9940SOL     OW30718   0.472   0.903   1.309
 9940SOL    HW130719   0.415   0.834   1.353
 9940SOL    HW230720   0.568   0.879   1.322
 9941SOL     OW30721   3.136   4.165   5.257
 9941SOL    HW130722   3.052   4.136   5.302
 9941SOL    HW230723   3.122   4.171   5.159
 9942SOL     OW30724   2.255   6.110   2.602
 9942SOL    HW130725   2.165   6.143   2.630
 9942SOL    HW230726   2.253   6.011   2.589
 9943SOL     OW30727   0.141   5.923   6.036
 9943SOL    HW130728   0.238   5.897   6.033
 9943SOL    HW230729   0.101   5.910   5.945
 9944SOL     OW30730   2.008   4.186   6.601
 9944SOL    HW130731   2.061   4.270   6.608
 9944SOL    HW230732   1.932   4.198   6.538
 9945SOL     OW30733   6.453   5.184   0.126
 9945SOL    HW130734   6.370   5.150   0.170
 9945SOL    HW230735   6.513   5.225   0.195
 9946SOL     OW30736   5.196   1.487   5.193
 9946SOL    HW130737   5.174   1.542   5.112
 9946SOL    HW230738   5.277   1.431   5.175
 9947SOL     OW30739   0.148   4.235   6.233
 9947SOL    HW130740   0.241   4.200   6.224
 9947SOL    HW230741   0.134   4.310   6.168
 9948SOL     OW30742   4.943   4.885   4.522
 9948SOL    HW130743   4.847   4.859   4.536
 9948SOL    HW230744   5.001   4.825   4.577
 9949SOL     OW30745   5.544   5.032   3.952
 9949SOL    HW130746   5.449   5.045   3.925
 9949SOL    HW230747   5.585   4.960   3.896
 9950SOL     OW30748   5.971   6.316   5.454
 9950SOL    HW130749   5.934   6.234   5.411
 9950SOL    HW230750   5.971   6.305   5.554
 9951SOL     OW30751   6.675   1.876   3.837
 9951SOL    HW130752   6.594   1.878   3.896
 9951SOL    HW230753   6.676   1.957   3.779
 9952SOL     OW30754   6.418   3.768   0.966
 9952SOL    HW130755   6.405   3.865   0.948
 9952SOL    HW230756   6.509   3.740   0.934
 9953SOL     OW30757   6.222   2.522   4.487
 9953SOL    HW130758   6.202   2.460   4.411
 9953SOL    HW230759   6.169   2.607   4.475
 9954SOL     OW30760   5.718   6.086   6.042
 9954SOL    HW130761   5.740   5.989   6.032
 9954SOL    HW230762   5.713   6.129   5.952
 9955SOL     OW30763   6.596   4.465   4.464
 9955SOL    HW130764   6.665   4.463   4.537
 9955SOL    HW230765   6.639   4.489   4.378
 9956SOL     OW30766   2.255   0.170   1.628
 9956SOL    HW130767   2.306   0.084   1.624
 9956SOL    HW230768   2.277   0.225   1.548
 9957SOL     OW30769   5.958   5.583   2.893
 9957SOL    HW130770   5.877   5.641   2.897
 9957SOL    HW230771   5.930   5.487   2.885
 9958SOL     OW30772   3.767   5.418   0.018
 9958SOL    HW130773   3.862   5.423   0.047
 9958SOL    HW230774   3.718   5.352   0.076
 9959SOL     OW30775   4.112   3.682   5.718
 9959SOL    HW130776   4.167   3.618   5.665
 9959SOL    HW230777   4.132   3.776   5.689
 9960SOL     OW30778   6.555   0.263   2.355
 9960SOL    HW130779   6.508   0.231   2.273
 9960SOL    HW230780   6.562   0.187   2.420
 9961SOL     OW30781   2.003   6.030   4.044
 9961SOL    HW130782   1.947   6.025   4.127
 9961SOL    HW230783   2.016   5.938   4.007
 9962SOL     OW30784   5.955   6.742   3.510
 9962SOL    HW130785   5.935   6.753   3.608
 9962SOL    HW230786   5.911   6.817   3.460
 9963SOL     OW30787   3.064   2.586   0.621
 9963SOL    HW130788   3.018   2.499   0.599
 9963SOL    HW230789   3.033   2.656   0.557
 9964SOL     OW30790   4.927   5.603   4.529
 9964SOL    HW130791   4.911   5.532   4.597
 9964SOL    HW230792   5.001   5.663   4.560
 9965SOL     OW30793   4.474   6.695   0.045
 9965SOL    HW130794   4.467   6.751   6.980
 9965SOL    HW230795   4.561   6.715   0.091
 9966SOL     OW30796   1.264   5.101   1.846
 9966SOL    HW130797   1.310   5.053   1.772
 9966SOL    HW230798   1.327   5.114   1.923
 9967SOL     OW30799   0.570   5.480   2.153
 9967SOL    HW130800   0.576   5.576   2.183
 9967SOL    HW230801   0.628   5.424   2.212
 9968SOL     OW30802   3.639   4.046   2.414
 9968SOL    HW130803   3.556   4.039   2.470
 9968SOL    HW230804   3.615   4.086   2.326
 9969SOL     OW30805   1.456   3.824   2.658
 9969SOL    HW130806   1.418   3.789   2.573
 9969SOL    HW230807   1.532   3.766   2.687
 9970SOL     OW30808   4.916   4.116   1.587
 9970SOL    HW130809   4.983   4.151   1.652
 9970SOL    HW230810   4.915   4.174   1.505
 9971SOL     OW30811   1.408   4.937   1.222
 9971SOL    HW130812   1.351   4.940   1.140
 9971SOL    HW230813   1.384   4.856   1.276
 9972SOL     OW30814   5.968   3.930   1.930
 9972SOL    HW130815   5.961   3.948   2.028
 9972SOL    HW230816   5.920   3.846   1.908
 9973SOL     OW30817   5.292   1.830   3.541
 9973SOL    HW130818   5.254   1.755   3.486
 9973SOL    HW230819   5.392   1.822   3.543
 9974SOL     OW30820   0.990   1.291   2.946
 9974SOL    HW130821   0.916   1.358   2.947
 9974SOL    HW230822   1.009   1.261   3.039
 9975SOL     OW30823   6.673   2.749   0.784
 9975SOL    HW130824   6.714   2.686   0.719
 9975SOL    HW230825   6.579   2.769   0.756
 9976SOL     OW30826   0.787   6.590   5.517
 9976SOL    HW130827   0.833   6.502   5.521
 9976SOL    HW230828   0.854   6.664   5.526
 9977SOL     OW30829   5.814   5.207   5.412
 9977SOL    HW130830   5.846   5.113   5.427
 9977SOL    HW230831   5.765   5.211   5.325
 9978SOL     OW30832   0.565   2.225   5.053
 9978SOL    HW130833   0.469   2.202   5.064
 9978SOL    HW230834   0.597   2.276   5.133
 9979SOL     OW30835   6.058   4.530   4.720
 9979SOL    HW130836   6.157   4.520   4.725
 9979SOL    HW230837   6.036   4.605   4.658
 9980SOL     OW30838   3.087   0.256   6.875
 9980SOL    HW130839   3.044   0.231   6.961
 9980SOL    HW230840   3.181   0.285   6.891
 9981SOL     OW30841   3.386   1.718   3.099
 9981SOL    HW130842   3.291   1.731   3.127
 9981SOL    HW230843   3.394   1.632   3.048
 9982SOL     OW30844   6.667   5.893   3.664
 9982SOL    HW130845   6.613   5.954   3.605
 9982SOL    HW230846   6.617   5.807   3.676
 9983SOL     OW30847   6.869   1.667   2.753
 9983SOL    HW130848   6.958   1.626   2.733
 9983SOL    HW230849   6.863   1.757   2.708
 9984SOL     OW30850   2.437   2.065   6.654
 9984SOL    HW130851   2.371   2.039   6.724
 9984SOL    HW230852   2.388   2.106   6.576
 9985SOL     OW30853   2.164   0.837   1.699
 9985SOL    HW130854   2.150   0.933   1.675
 9985SOL    HW230855   2.131   0.820   1.792
 9986SOL     OW30856   5.761   4.144   5.160
 9986SOL    HW130857   5.665   4.171   5.168
 9986SOL    HW230858   5.779   4.068   5.223
 9987SOL     OW30859   5.531   3.335   6.002
 9987SOL    HW130860   5.474   3.351   6.083
 9987SOL    HW230861   5.577   3.419   5.975
 9988SOL     OW30862   6.623   6.729   5.114
 9988SOL    HW130863   6.672   6.645   5.139
 9988SOL    HW230864   6.525   6.717   5.130
 9989SOL     OW30865   0.079   3.127   4.380
 9989SOL    HW130866   0.031   3.213   4.398
 9989SOL    HW230867   0.162   3.146   4.328
 9990SOL     OW30868   1.449   5.092   3.368
 9990SOL    HW130869   1.351   5.093   3.388
 9990SOL    HW230870   1.473   5.174   3.316
 9991SOL     OW30871   2.983   2.003   4.427
 9991SOL    HW130872   2.955   2.051   4.510
 9991SOL    HW230873   3.083   2.007   4.418
 9992SOL     OW30874   5.856   4.880   6.400
 9992SOL    HW130875   5.812   4.840   6.481
 9992SOL    HW230876   5.789   4.887   6.326
 9993SOL     OW30877   2.075   1.846   1.276
 9993SOL    HW130878   2.122   1.765   1.311
 9993SOL    HW230879   2.055   1.834   1.179
 9994SOL     OW30880   5.879   4.883   3.398
 9994SOL    HW130881   5.839   4.954   3.456
 9994SOL    HW230882   5.939   4.926   3.330
 9995SOL     OW30883   4.934   1.923   4.065
 9995SOL    HW130884   4.927   1.911   3.966
 9995SOL    HW230885   4.930   1.834   4.110
 9996SOL     OW30886   3.032   4.184   6.795
 9996SOL    HW130887   2.943   4.157   6.758
 9996SOL    HW230888   3.085   4.229   6.724
 9997SOL     OW30889   2.873   1.656   5.711
 9997SOL    HW130890   2.897   1.665   5.614
 9997SOL    HW230891   2.887   1.561   5.740
 9998SOL     OW30892   6.157   5.130   5.229
 9998SOL    HW130893   6.118   5.078   5.305
 9998SOL    HW230894   6.104   5.113   5.146
 9999SOL     OW30895   6.108   2.770   5.545
 9999SOL    HW130896   6.108   2.845   5.480
 9999SOL    HW230897   6.147   2.801   5.632
10000SOL     OW30898   0.073   2.421   0.238
10000SOL    HW130899   0.102   2.387   0.327
10000SOL    HW230900   0.023   2.507   0.249
10001SOL     OW30901   4.705   0.991   2.118
10001SOL    HW130902   4.645   0.994   2.198
10001SOL    HW230903   4.649   0.998   2.035
10002SOL     OW30904   1.141   6.674   1.869
10002SOL    HW130905   1.087   6.712   1.794
10002SOL    HW230906   1.221   6.731   1.886
10003SOL     OW30907   3.711   2.126   3.515
10003SOL    HW130908   3.694   2.217   3.475
10003SOL    HW230909   3.805   2.123   3.551
10004SOL     OW30910   0.115   2.177   3.457
10004SOL    HW130911   0.142   2.272   3.477
10004SOL    HW230912   0.125   2.122   3.540
10005SOL     OW30913   5.240   0.546   2.851
10005SOL    HW130914   5.304   0.594   2.791
10005SOL    HW230915   5.291   0.491   2.916
10006SOL     OW30916   4.001   0.034   4.791
10006SOL    HW130917   4.031   7.014   4.878
10006SOL    HW230918   3.913   0.080   4.803
10007SOL     OW30919   0.539   3.061   4.640
10007SOL    HW130920   0.491   2.992   4.695
10007SOL    HW230921   0.477   3.139   4.625
10008SOL     OW30922   3.312   0.568   4.711
10008SOL    HW130923   3.353   0.481   4.682
10008SOL    HW230924   3.333   0.639   4.644
10009SOL     OW30925   2.255   4.017   1.962
10009SOL    HW130926   2.345   4.061   1.961
10009SOL    HW230927   2.254   3.944   1.893
10010SOL     OW30928   2.011   1.211   0.008
10010SOL    HW130929   2.081   1.139   0.009
10010SOL    HW230930   2.052   1.299   0.031
10011SOL     OW30931   6.461   6.499   5.401
10011SOL    HW130932   6.378   6.453   5.433
10011SOL    HW230933   6.447   6.598   5.404
10012SOL     OW30934   5.762   1.399   3.853
10012SOL    HW130935   5.662   1.393   3.851
10012SOL    HW230936   5.791   1.487   3.816
10013SOL     OW30937   0.015   0.439   2.657
10013SOL    HW130938   6.985   0.508   2.711
10013SOL    HW230939   0.092   0.482   2.610
10014SOL     OW30940   0.675   4.056   6.373
10014SOL    HW130941   0.695   3.985   6.306
10014SOL    HW230942   0.687   4.146   6.331
10015SOL     OW30943   2.445   4.819   0.063
10015SOL    HW130944   2.418   4.737   0.112
10015SOL    HW230945   2.509   4.872   0.119
10016SOL     OW30946   2.331   1.195   6.456
10016SOL    HW130947   2.233   1.213   6.445
10016SOL    HW230948   2.360   1.125   6.391
10017SOL     OW30949   2.604   2.008   4.590
10017SOL    HW130950   2.617   1.912   4.612
10017SOL    HW230951   2.690   2.047   4.558
10018SOL     OW30952   5.047   0.451   5.515
10018SOL    HW130953   5.069   0.540   5.556
10018SOL    HW230954   5.118   0.385   5.538
10019SOL     OW30955   1.465   0.664   2.967
10019SOL    HW130956   1.458   0.600   3.043
10019SOL    HW230957   1.445   0.757   2.999
10020SOL     OW30958   1.177   2.796   1.493
10020SOL    HW130959   1.138   2.739   1.565
10020SOL    HW230960   1.114   2.869   1.469
10021SOL     OW30961   0.224   3.625   0.971
10021SOL    HW130962   0.146   3.684   0.995
10021SOL    HW230963   0.190   3.536   0.941
10022SOL     OW30964   1.549   1.999   6.545
10022SOL    HW130965   1.603   1.925   6.505
10022SOL    HW230966   1.544   2.075   6.480
10023SOL     OW30967   6.258   3.645   0.745
10023SOL    HW130968   6.324   3.599   0.685
10023SOL    HW230969   6.301   3.665   0.833
10024SOL     OW30970   1.585   4.556   3.963
10024SOL    HW130971   1.506   4.596   3.917
10024SOL    HW230972   1.577   4.456   3.963
10025SOL     OW30973   2.025   1.049   1.525
10025SOL    HW130974   2.075   1.039   1.439
10025SOL    HW230975   2.060   1.127   1.576
10026SOL     OW30976   6.030   0.682   3.008
10026SOL    HW130977   6.012   0.589   3.039
10026SOL    HW230978   6.127   0.703   3.021
10027SOL     OW30979   5.993   3.591   5.027
10027SOL    HW130980   5.958   3.559   5.115
10027SOL    HW230981   5.920   3.588   4.959
10028SOL     OW30982   1.950   1.358   0.505
10028SOL    HW130983   1.891   1.397   0.435
10028SOL    HW230984   2.024   1.421   0.526
10029SOL     OW30985   5.554   1.777   3.529
10029SOL    HW130986   5.590   1.791   3.436
10029SOL    HW230987   5.558   1.680   3.552
10030SOL     OW30988   1.627   0.389   3.966
10030SOL    HW130989   1.710   0.430   4.003
10030SOL    HW230990   1.564   0.461   3.937
10031SOL     OW30991   6.149   4.459   3.665
10031SOL    HW130992   6.246   4.479   3.677
10031SOL    HW230993   6.099   4.543   3.647
10032SOL     OW30994   2.680   1.517   5.090
10032SOL    HW130995   2.750   1.573   5.135
10032SOL    HW230996   2.622   1.576   5.033
10033SOL     OW30997   5.752   3.426   4.548
10033SOL    HW130998   5.768   3.329   4.563
10033SOL    HW230999   5.658   3.439   4.515
10034SOL     OW31000   4.732   0.034   5.420
10034SOL    HW131001   4.801   0.106   5.412
10034SOL    HW231002   4.756   6.975   5.361
10035SOL     OW31003   0.011   5.099   1.190
10035SOL    HW131004   6.982   5.050   1.264
10035SOL    HW231005   6.968   5.170   1.155
10036SOL     OW31006   6.716   1.736   0.154
10036SOL    HW131007   6.698   1.830   0.125
10036SOL    HW231008   6.808   1.709   0.125
10037SOL     OW31009   0.506   0.425   6.845
10037SOL    HW131010   0.517   0.466   6.754
10037SOL    HW231011   0.416   0.448   6.881
10038SOL     OW31012   6.671   6.932   1.107
10038SOL    HW131013   6.636   6.868   1.176
10038SOL    HW231014   6.640   0.006   1.128
10039SOL     OW31015   3.756   0.424   4.110
10039SOL    HW131016   3.854   0.410   4.098
10039SOL    HW231017   3.723   0.489   4.042
10040SOL     OW31018   0.073   3.345   1.075
10040SOL    HW131019   0.040   3.401   1.151
10040SOL    HW231020   0.065   3.248   1.099
10041SOL     OW31021   2.408   6.657   0.173
10041SOL    HW131022   2.415   6.678   0.270
10041SOL    HW231023   2.485   6.698   0.124
10042SOL     OW31024   6.629   2.254   2.568
10042SOL    HW131025   6.647   2.176   2.508
10042SOL    HW231026   6.565   2.227   2.640
10043SOL     OW31027   0.043   1.674   5.911
10043SOL    HW131028   0.008   1.589   5.952
10043SOL    HW231029   0.122   1.653   5.854
10044SOL     OW31030   3.077   2.121   5.676
10044SOL    HW131031   3.123   2.179   5.610
10044SOL    HW231032   2.995   2.167   5.711
10045SOL     OW31033   3.631   1.236   0.782
10045SOL    HW131034   3.685   1.178   0.720
10045SOL    HW231035   3.594   1.313   0.730
10046SOL     OW31036   1.747   5.348   1.597
10046SOL    HW131037   1.764   5.445   1.615
10046SOL    HW231038   1.662   5.320   1.642
10047SOL     OW31039   0.471   3.190   0.004
10047SOL    HW131040   0.481   3.280   0.046
10047SOL    HW231041   0.490   3.197   6.924
10048SOL     OW31042   5.842   6.270   2.975
10048SOL    HW131043   5.774   6.201   2.999
10048SOL    HW231044   5.929   6.247   3.018
10049SOL     OW31045   0.107   1.277   5.493
10049SOL    HW131046   0.114   1.233   5.404
10049SOL    HW231047   0.015   1.262   5.530
10050SOL     OW31048   6.154   3.254   6.173
10050SOL    HW131049   6.204   3.281   6.255
10050SOL    HW231050   6.058   3.241   6.195
10051SOL     OW31051   1.464   3.288   4.008
10051SOL    HW131052   1.388   3.223   4.006
10051SOL    HW231053   1.485   3.313   4.102
10052SOL     OW31054   1.392   0.198   2.785
10052SOL    HW131055   1.404   0.213   2.686
10052SOL    HW231056   1.297   0.221   2.810
10053SOL     OW31057   5.574   5.403   4.744
10053SOL    HW131058   5.616   5.361   4.824
10053SOL    HW231059   5.575   5.339   4.667
10054SOL     OW31060   6.103   4.087   4.779
10054SOL    HW131061   6.064   4.135   4.701
10054SOL    HW231062   6.045   4.103   4.860
10055SOL     OW31063   0.431   1.926   6.226
10055SOL    HW131064   0.332   1.930   6.213
10055SOL    HW231065   0.461   2.001   6.285
10056SOL     OW31066   6.267   2.591   3.966
10056SOL    HW131067   6.297   2.675   3.920
10056SOL    HW231068   6.295   2.594   4.062
10057SOL     OW31069   5.712   4.850   5.686
10057SOL    HW131070   5.729   4.906   5.767
10057SOL    HW231071   5.738   4.755   5.705
10058SOL     OW31072   6.871   3.733   5.182
10058SOL    HW131073   6.820   3.754   5.266
10058SOL    HW231074   6.823   3.772   5.104
10059SOL     OW31075   6.925   0.475   6.684
10059SOL    HW131076   6.873   0.442   6.604
10059SOL    HW231077   6.925   0.405   6.755
10060SOL     OW31078   2.486   2.271   2.400
10060SOL    HW131079   2.512   2.330   2.476
10060SOL    HW231080   2.541   2.292   2.320
10061SOL     OW31081   4.066   0.286   2.301
10061SOL    HW131082   4.055   0.255   2.395
10061SOL    HW231083   4.146   0.347   2.295
10062SOL     OW31084   5.829   0.730   4.326
10062SOL    HW131085   5.876   0.815   4.299
10062SOL    HW231086   5.766   0.749   4.401
10063SOL     OW31087   1.558   2.988   5.351
10063SOL    HW131088   1.498   2.947   5.420
10063SOL    HW231089   1.633   3.037   5.396
10064SOL     OW31090   2.800   6.597   0.308
10064SOL    HW131091   2.851   6.516   0.336
10064SOL    HW231092   2.754   6.578   0.221
10065SOL     OW31093   1.132   1.866   2.103
10065SOL    HW131094   1.227   1.838   2.115
10065SOL    HW231095   1.091   1.814   2.028
10066SOL     OW31096   6.275   3.494   3.492
10066SOL    HW131097   6.219   3.432   3.547
10066SOL    HW231098   6.218   3.540   3.424
10067SOL     OW31099   6.583   2.760   5.281
10067SOL    HW131100   6.671   2.722   5.309
10067SOL    HW231101   6.599   2.830   5.211
10068SOL     OW31102   1.929   2.688   2.871
10068SOL    HW131103   1.939   2.590   2.886
10068SOL    HW231104   1.877   2.728   2.947
10069SOL     OW31105   2.978   5.256   0.711
10069SOL    HW131106   2.957   5.196   0.789
10069SOL    HW231107   2.893   5.283   0.666
10070SOL     OW31108   3.810   6.580   6.025
10070SOL    HW131109   3.897   6.542   6.055
10070SOL    HW231110   3.738   6.553   6.090
10071SOL     OW31111   6.414   0.146   3.922
10071SOL    HW131112   6.411   0.243   3.946
10071SOL    HW231113   6.436   0.137   3.825
10072SOL     OW31114   6.401   3.282   1.770
10072SOL    HW131115   6.457   3.364   1.783
10072SOL    HW231116   6.445   3.203   1.812
10073SOL     OW31117   0.004   4.498   4.083
10073SOL    HW131118   6.941   4.529   4.034
10073SOL    HW231119   6.996   4.463   4.173
10074SOL     OW31120   1.415   5.006   0.188
10074SOL    HW131121   1.387   5.092   0.231
10074SOL    HW231122   1.349   4.934   0.211
10075SOL     OW31123   1.931   3.613   1.740
10075SOL    HW131124   1.954   3.521   1.770
10075SOL    HW231125   1.837   3.614   1.705
10076SOL     OW31126   4.620   5.805   4.384
10076SOL    HW131127   4.660   5.714   4.390
10076SOL    HW231128   4.522   5.800   4.402
10077SOL     OW31129   5.091   3.319   6.370
10077SOL    HW131130   5.184   3.331   6.405
10077SOL    HW231131   5.094   3.265   6.286
10078SOL     OW31132   6.647   5.998   5.127
10078SOL    HW131133   6.686   6.042   5.208
10078SOL    HW231134   6.602   5.913   5.154
10079SOL     OW31135   4.750   2.793   3.623
10079SOL    HW131136   4.796   2.859   3.564
10079SOL    HW231137   4.683   2.741   3.570
10080SOL     OW31138   4.525   0.967   5.885
10080SOL    HW131139   4.615   0.972   5.843
10080SOL    HW231140   4.477   0.885   5.853
10081SOL     OW31141   2.010   3.887   0.933
10081SOL    HW131142   1.951   3.939   0.871
10081SOL    HW231143   2.010   3.791   0.907
10082SOL     OW31144   1.641   4.621   0.785
10082SOL    HW131145   1.567   4.573   0.832
10082SOL    HW231146   1.655   4.581   0.695
10083SOL     OW31147   3.446   4.946   3.230
10083SOL    HW131148   3.536   4.912   3.256
10083SOL    HW231149   3.431   4.930   3.132
10084SOL     OW31150   1.224   1.240   4.626
10084SOL    HW131151   1.129   1.270   4.618
10084SOL    HW231152   1.234   1.148   4.588
10085SOL     OW31153   5.055   0.050   0.570
10085SOL    HW131154   5.108   6.986   0.544
10085SOL    HW231155   5.020   0.038   0.663
10086SOL     OW31156   6.850   6.339   3.629
10086SOL    HW131157   6.899   6.412   3.677
10086SOL    HW231158   6.915   6.268   3.603
10087SOL     OW31159   1.148   6.877   5.979
10087SOL    HW131160   1.234   6.919   5.950
10087SOL    HW231161   1.143   6.784   5.945
10088SOL     OW31162   0.474   2.785   0.303
10088SOL    HW131163   0.527   2.856   0.255
10088SOL    HW231164   0.496   2.788   0.400
10089SOL     OW31165   3.463   1.750   1.614
10089SOL    HW131166   3.497   1.770   1.705
10089SOL    HW231167   3.392   1.679   1.619
10090SOL     OW31168   2.769   5.896   2.905
10090SOL    HW131169   2.786   5.945   2.991
10090SOL    HW231170   2.671   5.891   2.888
10091SOL     OW31171   6.798   4.449   5.318
10091SOL    HW131172   6.782   4.375   5.252
10091SOL    HW231173   6.883   4.432   5.368
10092SOL     OW31174   0.676   1.695   3.467
10092SOL    HW131175   0.771   1.702   3.497
10092SOL    HW231176   0.633   1.785   3.474
10093SOL     OW31177   4.647   4.538   5.719
10093SOL    HW131178   4.555   4.505   5.699
10093SOL    HW231179   4.665   4.619   5.663
10094SOL     OW31180   3.329   1.725   0.796
10094SOL    HW131181   3.235   1.708   0.765
10094SOL    HW231182   3.389   1.731   0.716
10095SOL     OW31183   4.834   3.083   5.042
10095SOL    HW131184   4.854   3.147   4.968
10095SOL    HW231185   4.825   3.132   5.128
10096SOL     OW31186   5.733   2.511   2.180
10096SOL    HW131187   5.639   2.545   2.182
10096SOL    HW231188   5.745   2.451   2.101
10097SOL     OW31189   0.771   1.357   6.648
10097SOL    HW131190   0.779   1.313   6.558
10097SOL    HW231191   0.675   1.364   6.673
10098SOL     OW31192   2.874   5.287   3.797
10098SOL    HW131193   2.822   5.243   3.870
10098SOL    HW231194   2.814   5.348   3.745
10099SOL     OW31195   0.604   4.933   1.278
10099SOL    HW131196   0.607   4.887   1.189
10099SOL    HW231197   0.510   4.959   1.300
10100SOL     OW31198   4.845   5.512   4.295
10100SOL    HW131199   4.837   5.605   4.259
10100SOL    HW231200   4.903   5.513   4.376
10101SOL     OW31201   0.385   2.653   1.620
10101SOL    HW131202   0.484   2.668   1.617
10101SOL    HW231203   0.360   2.606   1.704
10102SOL     OW31204   6.856   5.636   3.318
10102SOL    HW131205   6.829   5.635   3.221
10102SOL    HW231206   6.948   5.673   3.326
10103SOL     OW31207   6.638   6.190   6.460
10103SOL    HW131208   6.548   6.181   6.419
10103SOL    HW231209   6.707   6.196   6.388
10104SOL     OW31210   1.980   0.495   4.390
10104SOL    HW131211   2.071   0.497   4.348
10104SOL    HW231212   1.989   0.481   4.488
10105SOL     OW31213   3.160   1.167   5.953
10105SOL    HW131214   3.209   1.213   6.028
10105SOL    HW231215   3.216   1.169   5.871
10106SOL     OW31216   5.458   5.055   1.553
10106SOL    HW131217   5.471   4.957   1.564
10106SOL    HW231218   5.437   5.076   1.457
10107SOL     OW31219   5.236   4.254   7.007
10107SOL    HW131220   5.303   4.262   6.934
10107SOL    HW231221   5.175   4.334   7.006
10108SOL     OW31222   1.936   2.432   0.595
10108SOL    HW131223   1.912   2.500   0.527
10108SOL    HW231224   1.869   2.357   0.592
10109SOL     OW31225   1.375   2.142   1.708
10109SOL    HW131226   1.377   2.097   1.619
10109SOL    HW231227   1.297   2.108   1.761
10110SOL     OW31228   5.165   5.995   2.804
10110SOL    HW131229   5.189   6.090   2.780
10110SOL    HW231230   5.067   5.988   2.820
10111SOL     OW31231   0.939   2.864   2.119
10111SOL    HW131232   0.864   2.844   2.056
10111SOL    HW231233   1.000   2.932   2.080
10112SOL     OW31234   6.761   2.462   2.660
10112SOL    HW131235   6.708   2.392   2.613
10112SOL    HW231236   6.850   2.473   2.615
10113SOL     OW31237   0.187   0.608   5.777
10113SOL    HW131238   0.192   0.681   5.844
10113SOL    HW231239   0.129   0.534   5.812
10114SOL     OW31240   5.328   1.322   1.579
10114SOL    HW131241   5.349   1.417   1.558
10114SOL    HW231242   5.316   1.271   1.494
10115SOL     OW31243   3.362   2.700   6.077
10115SOL    HW131244   3.430   2.700   6.003
10115SOL    HW231245   3.384   2.627   6.142
10116SOL     OW31246   6.901   0.417   4.972
10116SOL    HW131247   6.822   0.456   4.924
10116SOL    HW231248   6.984   0.433   4.918
10117SOL     OW31249   6.267   4.837   3.206
10117SOL    HW131250   6.321   4.911   3.247
10117SOL    HW231251   6.255   4.855   3.108
10118SOL     OW31252   4.646   5.933   3.690
10118SOL    HW131253   4.549   5.924   3.664
10118SOL    HW231254   4.687   6.009   3.640
10119SOL     OW31255   0.307   5.318   5.115
10119SOL    HW131256   0.382   5.334   5.050
10119SOL    HW231257   0.344   5.294   5.204
10120SOL     OW31258   2.066   3.203   2.849
10120SOL    HW131259   2.115   3.136   2.794
10120SOL    HW231260   2.023   3.158   2.927
10121SOL     OW31261   6.167   4.670   1.394
10121SOL    HW131262   6.092   4.688   1.330
10121SOL    HW231263   6.243   4.733   1.375
10122SOL     OW31264   1.500   0.602   3.770
10122SOL    HW131265   1.573   0.566   3.712
10122SOL    HW231266   1.451   0.675   3.720
10123SOL     OW31267   6.318   5.295   6.538
10123SOL    HW131268   6.249   5.328   6.602
10123SOL    HW231269   6.370   5.220   6.580
10124SOL     OW31270   2.006   5.169   2.518
10124SOL    HW131271   1.982   5.212   2.605
10124SOL    HW231272   1.923   5.159   2.463
10125SOL     OW31273   2.059   0.981   4.834
10125SOL    HW131274   2.154   0.969   4.863
10125SOL    HW231275   2.001   0.916   4.883
10126SOL     OW31276   6.537   6.565   6.502
10126SOL    HW131277   6.474   6.543   6.428
10126SOL    HW231278   6.579   6.654   6.484
10127SOL     OW31279   2.672   6.988   5.784
10127SOL    HW131280   2.662   0.012   5.874
10127SOL    HW231281   2.592   6.930   5.766
10128SOL     OW31282   2.895   2.730   6.762
10128SOL    HW131283   2.822   2.672   6.726
10128SOL    HW231284   2.971   2.672   6.792
10129SOL     OW31285   6.047   2.100   4.825
10129SOL    HW131286   5.956   2.107   4.784
10129SOL    HW231287   6.067   2.005   4.846
10130SOL     OW31288   1.183   0.943   3.012
10130SOL    HW131289   1.254   0.921   2.945
10130SOL    HW231290   1.168   0.865   3.072
10131SOL     OW31291   1.809   6.181   3.523
10131SOL    HW131292   1.884   6.211   3.581
10131SOL    HW231293   1.737   6.141   3.580
10132SOL     OW31294   6.856   0.330   1.627
10132SOL    HW131295   6.906   0.274   1.561
10132SOL    HW231296   6.764   0.349   1.592
10133SOL     OW31297   5.504   6.193   0.188
10133SOL    HW131298   5.443   6.113   0.185
10133SOL    HW231299   5.598   6.161   0.198
10134SOL     OW31300   6.803   6.434   2.378
10134SOL    HW131301   6.731   6.439   2.309
10134SOL    HW231302   6.764   6.403   2.465
10135SOL     OW31303   6.146   0.109   2.441
10135SOL    HW131304   6.082   0.054   2.495
10135SOL    HW231305   6.232   0.119   2.491
10136SOL     OW31306   4.786   1.877   3.176
10136SOL    HW131307   4.785   1.778   3.192
10136SOL    HW231308   4.847   1.898   3.100
10137SOL     OW31309   5.975   5.211   5.746
10137SOL    HW131310   5.897   5.148   5.749
10137SOL    HW231311   6.058   5.162   5.772
10138SOL     OW31312   0.510   2.298   0.964
10138SOL    HW131313   0.466   2.238   1.032
10138SOL    HW231314   0.516   2.391   1.000
10139SOL     OW31315   3.022   2.989   6.712
10139SOL    HW131316   2.959   2.925   6.755
10139SOL    HW231317   2.998   3.001   6.616
10140SOL     OW31318   0.621   6.257   5.694
10140SOL    HW131319   0.626   6.268   5.595
10140SOL    HW231320   0.692   6.312   5.738
10141SOL     OW31321   2.013   2.754   4.445
10141SOL    HW131322   2.014   2.655   4.459
10141SOL    HW231323   1.953   2.777   4.369
10142SOL     OW31324   3.976   6.521   3.474
10142SOL    HW131325   3.898   6.539   3.414
10142SOL    HW231326   4.003   6.425   3.466
10143SOL     OW31327   5.071   2.587   6.598
10143SOL    HW131328   5.117   2.498   6.601
10143SOL    HW231329   5.123   2.653   6.652
10144SOL     OW31330   3.973   6.657   6.954
10144SOL    HW131331   4.059   6.681   6.910
10144SOL    HW231332   3.986   6.652   0.035
10145SOL     OW31333   5.549   6.852   6.001
10145SOL    HW131334   5.460   6.824   5.966
10145SOL    HW231335   5.616   6.779   5.983
10146SOL     OW31336   0.127   2.946   5.005
10146SOL    HW131337   0.169   2.856   5.015
10146SOL    HW231338   0.038   2.947   5.052
10147SOL     OW31339   3.970   5.739   5.820
10147SOL    HW131340   3.960   5.821   5.764
10147SOL    HW231341   4.041   5.754   5.889
10148SOL     OW31342   0.402   4.184   0.696
10148SOL    HW131343   0.387   4.182   0.597
10148SOL    HW231344   0.421   4.091   0.728
10149SOL     OW31345   3.691   3.994   1.015
10149SOL    HW131346   3.687   4.060   1.090
10149SOL    HW231347   3.612   3.933   1.021
10150SOL     OW31348   4.279   4.467   0.526
10150SOL    HW131349   4.339   4.468   0.606
10150SOL    HW231350   4.279   4.376   0.485
10151SOL     OW31351   5.867   6.892   6.040
10151SOL    HW131352   5.963   6.917   6.027
10151SOL    HW231353   5.817   6.971   6.075
10152SOL     OW31354   4.114   0.013   2.138
10152SOL    HW131355   4.096   0.050   2.047
10152SOL    HW231356   4.044   0.046   2.202
10153SOL     OW31357   4.545   4.566   2.610
10153SOL    HW131358   4.459   4.593   2.567
10153SOL    HW231359   4.621   4.615   2.567
10154SOL     OW31360   4.667   5.741   5.769
10154SOL    HW131361   4.572   5.771   5.757
10154SOL    HW231362   4.669   5.659   5.826
10155SOL     OW31363   4.741   1.734   4.739
10155SOL    HW131364   4.702   1.742   4.831
10155SOL    HW231365   4.691   1.664   4.688
10156SOL     OW31366   4.702   2.103   0.471
10156SOL    HW131367   4.695   2.189   0.422
10156SOL    HW231368   4.613   2.058   0.474
10157SOL     OW31369   0.591   3.841   1.439
10157SOL    HW131370   0.643   3.869   1.358
10157SOL    HW231371   0.494   3.854   1.423
10158SOL     OW31372   6.335   4.780   0.230
10158SOL    HW131373   6.239   4.802   0.248
10158SOL    HW231374   6.341   4.693   0.181
10159SOL     OW31375   3.288   3.000   2.195
10159SOL    HW131376   3.336   2.970   2.277
10159SOL    HW231377   3.265   3.097   2.203
10160SOL     OW31378   0.468   4.964   2.692
10160SOL    HW131379   0.557   4.950   2.735
10160SOL    HW231380   0.417   4.878   2.692
10161SOL     OW31381   5.584   3.438   5.109
10161SOL    HW131382   5.638   3.522   5.098
10161SOL    HW231383   5.496   3.461   5.151
10162SOL     OW31384   1.518   2.903   2.295
10162SOL    HW131385   1.501   2.977   2.359
10162SOL    HW231386   1.441   2.894   2.232
10163SOL     OW31387   2.521   6.226   5.090
10163SOL    HW131388   2.535   6.135   5.051
10163SOL    HW231389   2.479   6.218   5.180
10164SOL     OW31390   0.859   1.453   3.577
10164SOL    HW131391   0.924   1.422   3.646
10164SOL    HW231392   0.872   1.551   3.560
10165SOL     OW31393   0.269   3.629   4.131
10165SOL    HW131394   0.187   3.676   4.164
10165SOL    HW231395   0.320   3.592   4.210
10166SOL     OW31396   2.301   0.323   1.402
10166SOL    HW131397   2.381   0.353   1.454
10166SOL    HW231398   2.299   0.370   1.314
10167SOL     OW31399   2.404   1.409   6.648
10167SOL    HW131400   2.374   1.359   6.567
10167SOL    HW231401   2.504   1.404   6.655
10168SOL     OW31402   6.736   0.341   6.427
10168SOL    HW131403   6.657   0.280   6.419
10168SOL    HW231404   6.713   0.431   6.390
10169SOL     OW31405   4.743   4.226   3.888
10169SOL    HW131406   4.653   4.265   3.869
10169SOL    HW231407   4.777   4.178   3.807
10170SOL     OW31408   5.460   5.269   6.886
10170SOL    HW131409   5.540   5.248   6.830
10170SOL    HW231410   5.391   5.315   6.830
10171SOL     OW31411   1.629   4.450   5.620
10171SOL    HW131412   1.684   4.370   5.643
10171SOL    HW231413   1.688   4.531   5.612
10172SOL     OW31414   6.053   0.690   2.681
10172SOL    HW131415   6.110   0.721   2.757
10172SOL    HW231416   6.021   0.597   2.700
10173SOL     OW31417   3.569   4.071   4.847
10173SOL    HW131418   3.543   4.121   4.764
10173SOL    HW231419   3.490   4.019   4.880
10174SOL     OW31420   4.741   5.302   2.127
10174SOL    HW131421   4.820   5.256   2.168
10174SOL    HW231422   4.722   5.385   2.178
10175SOL     OW31423   0.355   0.157   4.007
10175SOL    HW131424   0.394   0.116   3.925
10175SOL    HW231425   0.302   0.088   4.057
10176SOL     OW31426   6.847   1.483   5.525
10176SOL    HW131427   6.923   1.548   5.528
10176SOL    HW231428   6.869   1.404   5.582
10177SOL     OW31429   2.792   0.934   3.654
10177SOL    HW131430   2.754   0.892   3.572
10177SOL    HW231431   2.791   0.868   3.729
10178SOL     OW31432   1.007   1.678   1.077
10178SOL    HW131433   0.995   1.755   1.016
10178SOL    HW231434   1.001   1.709   1.172
10179SOL     OW31435   0.707   3.855   0.557
10179SOL    HW131436   0.617   3.881   0.523
10179SOL    HW231437   0.698   3.787   0.630
10180SOL     OW31438   4.519   6.627   5.925
10180SOL    HW131439   4.461   6.573   5.986
10180SOL    HW231440   4.564   6.699   5.978
10181SOL     OW31441   5.985   3.428   2.529
10181SOL    HW131442   6.018   3.404   2.438
10181SOL    HW231443   6.060   3.467   2.583
10182SOL     OW31444   4.889   1.436   1.346
10182SOL    HW131445   4.934   1.483   1.269
10182SOL    HW231446   4.889   1.497   1.426
10183SOL     OW31447   6.241   1.092   6.137
10183SOL    HW131448   6.239   1.073   6.039
10183SOL    HW231449   6.148   1.089   6.174
10184SOL     OW31450   5.716   1.612   5.715
10184SOL    HW131451   5.789   1.665   5.671
10184SOL    HW231452   5.637   1.607   5.654
10185SOL     OW31453   4.109   5.485   2.067
10185SOL    HW131454   4.173   5.518   2.137
10185SOL    HW231455   4.158   5.429   2.001
10186SOL     OW31456   3.749   3.257   5.930
10186SOL    HW131457   3.741   3.161   5.901
10186SOL    HW231458   3.693   3.272   6.012
10187SOL     OW31459   2.029   4.515   5.827
10187SOL    HW131460   1.947   4.475   5.866
10187SOL    HW231461   2.090   4.544   5.901
10188SOL     OW31462   3.197   0.253   6.109
10188SOL    HW131463   3.211   0.212   6.199
10188SOL    HW231464   3.100   0.255   6.088
10189SOL     OW31465   1.303   1.667   5.965
10189SOL    HW131466   1.400   1.673   5.938
10189SOL    HW231467   1.259   1.756   5.949
10190SOL     OW31468   4.272   5.314   1.038
10190SOL    HW131469   4.223   5.253   0.975
10190SOL    HW231470   4.359   5.342   0.998
10191SOL     OW31471   5.404   6.809   6.457
10191SOL    HW131472   5.370   6.725   6.415
10191SOL    HW231473   5.499   6.797   6.485
10192SOL     OW31474   1.655   1.569   3.689
10192SOL    HW131475   1.708   1.488   3.712
10192SOL    HW231476   1.585   1.585   3.759
10193SOL     OW31477   3.677   3.214   3.766
10193SOL    HW131478   3.747   3.276   3.800
10193SOL    HW231479   3.711   3.120   3.768
10194SOL     OW31480   3.013   0.343   3.255
10194SOL    HW131481   3.052   0.433   3.237
10194SOL    HW231482   3.049   0.276   3.190
10195SOL     OW31483   4.396   6.329   2.687
10195SOL    HW131484   4.342   6.342   2.603
10195SOL    HW231485   4.392   6.413   2.742
10196SOL     OW31486   6.118   2.325   4.354
10196SOL    HW131487   6.149   2.230   4.356
10196SOL    HW231488   6.117   2.359   4.260
10197SOL     OW31489   5.155   0.502   2.045
10197SOL    HW131490   5.106   0.495   2.132
10197SOL    HW231491   5.158   0.413   2.000
10198SOL     OW31492   2.445   6.891   0.609
10198SOL    HW131493   2.372   6.839   0.654
10198SOL    HW231494   2.416   6.920   0.518
10199SOL     OW31495   1.148   1.439   0.979
10199SOL    HW131496   1.096   1.514   1.018
10199SOL    HW231497   1.211   1.402   1.047
10200SOL     OW31498   5.971   4.387   5.393
10200SOL    HW131499   5.936   4.297   5.421
10200SOL    HW231500   6.057   4.375   5.344
10201SOL     OW31501   1.621   5.351   2.761
10201SOL    HW131502   1.558   5.274   2.757
10201SOL    HW231503   1.638   5.386   2.669
10202SOL     OW31504   0.194   2.868   2.444
10202SOL    HW131505   0.169   2.923   2.364
10202SOL    HW231506   0.269   2.913   2.492
10203SOL     OW31507   1.167   3.451   2.058
10203SOL    HW131508   1.192   3.547   2.062
10203SOL    HW231509   1.236   3.397   2.107
10204SOL     OW31510   3.016   4.925   4.655
10204SOL    HW131511   2.928   4.935   4.609
10204SOL    HW231512   3.089   4.931   4.588
10205SOL     OW31513   4.767   1.107   2.937
10205SOL    HW131514   4.695   1.048   2.974
10205SOL    HW231515   4.848   1.101   2.994
10206SOL     OW31516   5.150   6.959   6.395
10206SOL    HW131517   5.202   6.989   6.475
10206SOL    HW231518   5.187   6.872   6.363
10207SOL     OW31519   4.857   0.785   2.804
10207SOL    HW131520   4.845   0.737   2.718
10207SOL    HW231521   4.787   0.856   2.813
10208SOL     OW31522   5.907   4.137   5.518
10208SOL    HW131523   5.824   4.193   5.522
10208SOL    HW231524   5.897   4.068   5.446
10209SOL     OW31525   5.443   0.009   6.208
10209SOL    HW131526   5.497   6.991   6.132
10209SOL    HW231527   5.425   6.954   6.273
10210SOL     OW31528   4.891   5.580   1.740
10210SOL    HW131529   4.984   5.562   1.774
10210SOL    HW231530   4.829   5.512   1.779
10211SOL     OW31531   4.043   5.557   4.940
10211SOL    HW131532   4.030   5.462   4.970
10211SOL    HW231533   4.101   5.558   4.858
10212SOL     OW31534   6.305   6.962   5.156
10212SOL    HW131535   6.394   6.984   5.116
10212SOL    HW231536   6.272   6.875   5.118
10213SOL     OW31537   6.000   0.657   3.405
10213SOL    HW131538   6.069   0.585   3.410
10213SOL    HW231539   5.924   0.626   3.349
10214SOL     OW31540   6.837   0.330   2.108
10214SOL    HW131541   6.751   0.355   2.063
10214SOL    HW231542   6.831   0.348   2.206
10215SOL     OW31543   3.731   3.320   0.374
10215SOL    HW131544   3.771   3.237   0.337
10215SOL    HW231545   3.802   3.374   0.420
10216SOL     OW31546   4.727   0.085   1.594
10216SOL    HW131547   4.780   0.094   1.510
10216SOL    HW231548   4.641   0.037   1.574
10217SOL     OW31549   2.931   1.650   5.172
10217SOL    HW131550   2.950   1.739   5.130
10217SOL    HW231551   3.009   1.589   5.160
10218SOL     OW31552   2.234   2.336   0.734
10218SOL    HW131553   2.307   2.398   0.706
10218SOL    HW231554   2.155   2.389   0.766
10219SOL     OW31555   0.821   3.582   0.034
10219SOL    HW131556   0.727   3.570   0.003
10219SOL    HW231557   0.853   3.497   0.076
10220SOL     OW31558   4.206   2.387   0.776
10220SOL    HW131559   4.233   2.334   0.856
10220SOL    HW231560   4.285   2.399   0.716
10221SOL     OW31561   2.897   0.734   5.363
10221SOL    HW131562   2.858   0.727   5.271
10221SOL    HW231563   2.843   0.679   5.426
10222SOL     OW31564   1.596   5.462   5.671
10222SOL    HW131565   1.571   5.412   5.754
10222SOL    HW231566   1.696   5.463   5.662
10223SOL     OW31567   0.041   4.455   0.250
10223SOL    HW131568   6.990   4.527   0.246
10223SOL    HW231569   0.132   4.495   0.250
10224SOL     OW31570   1.765   0.150   4.321
10224SOL    HW131571   1.719   0.062   4.318
10224SOL    HW231572   1.809   0.163   4.410
10225SOL     OW31573   6.229   6.132   4.191
10225SOL    HW131574   6.293   6.089   4.127
10225SOL    HW231575   6.158   6.181   4.141
10226SOL     OW31576   1.308   1.824   0.924
10226SOL    HW131577   1.218   1.840   0.884
10226SOL    HW231578   1.332   1.900   0.984
10227SOL     OW31579   5.417   4.993   6.378
10227SOL    HW131580   5.371   5.000   6.466
10227SOL    HW231581   5.351   5.006   6.304
10228SOL     OW31582   0.930   4.767   3.047
10228SOL    HW131583   0.972   4.820   2.973
10228SOL    HW231584   0.838   4.802   3.065
10229SOL     OW31585   1.864   0.444   2.164
10229SOL    HW131586   1.805   0.469   2.241
10229SOL    HW231587   1.948   0.401   2.197
10230SOL     OW31588   6.530   6.925   3.958
10230SOL    HW131589   6.506   0.004   3.949
10230SOL    HW231590   6.552   6.905   4.053
10231SOL     OW31591   5.039   0.101   3.998
10231SOL    HW131592   5.085   0.184   4.029
10231SOL    HW231593   5.105   0.027   3.991
10232SOL     OW31594   3.540   2.100   4.851
10232SOL    HW131595   3.630   2.072   4.818
10232SOL    HW231596   3.548   2.134   4.945
10233SOL     OW31597   4.530   1.110   6.134
10233SOL    HW131598   4.508   1.043   6.064
10233SOL    HW231599   4.446   1.134   6.185
10234SOL     OW31600   5.716   6.206   1.656
10234SOL    HW131601   5.761   6.266   1.722
10234SOL    HW231602   5.737   6.237   1.563
10235SOL     OW31603   5.147   1.062   6.349
10235SOL    HW131604   5.212   1.103   6.284
10235SOL    HW231605   5.175   0.968   6.369
10236SOL     OW31606   2.483   5.643   2.585
10236SOL    HW131607   2.402   5.607   2.539
10236SOL    HW231608   2.478   5.620   2.683
10237SOL     OW31609   6.620   2.830   2.462
10237SOL    HW131610   6.719   2.831   2.451
10237SOL    HW231611   6.577   2.872   2.382
10238SOL     OW31612   5.113   4.832   3.939
10238SOL    HW131613   5.073   4.747   3.905
10238SOL    HW231614   5.067   4.859   4.023
10239SOL     OW31615   0.178   4.356   3.509
10239SOL    HW131616   0.252   4.291   3.528
10239SOL    HW231617   0.107   4.346   3.579
10240SOL     OW31618   6.799   4.236   3.426
10240SOL    HW131619   6.805   4.225   3.327
10240SOL    HW231620   6.866   4.178   3.471
10241SOL     OW31621   2.479   1.013   2.666
10241SOL    HW131622   2.566   0.986   2.624
10241SOL    HW231623   2.496   1.082   2.736
10242SOL     OW31624   0.189   6.566   6.185
10242SOL    HW131625   0.218   6.611   6.269
10242SOL    HW231626   0.140   6.631   6.127
10243SOL     OW31627   1.482   5.706   2.217
10243SOL    HW131628   1.410   5.768   2.248
10243SOL    HW231629   1.564   5.758   2.195
10244SOL     OW31630   2.368   6.621   6.676
10244SOL    HW131631   2.425   6.539   6.681
10244SOL    HW231632   2.277   6.600   6.713
10245SOL     OW31633   2.469   2.164   6.999
10245SOL    HW131634   2.419   2.097   6.944
10245SOL    HW231635   2.493   2.123   0.070
10246SOL     OW31636   4.034   3.889   4.391
10246SOL    HW131637   4.024   3.790   4.387
10246SOL    HW231638   4.101   3.913   4.462
10247SOL     OW31639   1.042   5.355   5.364
10247SOL    HW131640   1.058   5.425   5.433
10247SOL    HW231641   1.130   5.314   5.338
10248SOL     OW31642   4.244   0.273   1.753
10248SOL    HW131643   4.275   0.347   1.812
10248SOL    HW231644   4.201   0.202   1.809
10249SOL     OW31645   4.043   1.311   0.015
10249SOL    HW131646   4.073   1.274   6.945
10249SOL    HW231647   3.953   1.273   0.038
10250SOL     OW31648   6.467   1.064   6.893
10250SOL    HW131649   6.420   0.977   6.909
10250SOL    HW231650   6.536   1.052   6.822
10251SOL     OW31651   2.991   4.182   0.032
10251SOL    HW131652   3.027   4.185   6.957
10251SOL    HW231653   2.972   4.088   0.058
10252SOL     OW31654   6.755   5.352   1.925
10252SOL    HW131655   6.745   5.452   1.927
10252SOL    HW231656   6.791   5.324   1.836
10253SOL     OW31657   3.400   5.273   6.334
10253SOL    HW131658   3.455   5.325   6.269
10253SOL    HW231659   3.333   5.333   6.376
10254SOL     OW31660   2.749   2.006   4.890
10254SOL    HW131661   2.746   2.106   4.886
10254SOL    HW231662   2.679   1.968   4.829
10255SOL     OW31663   3.323   5.667   2.475
10255SOL    HW131664   3.261   5.628   2.406
10255SOL    HW231665   3.317   5.767   2.471
10256SOL     OW31666   5.987   6.503   6.702
10256SOL    HW131667   5.988   6.599   6.730
10256SOL    HW231668   6.079   6.476   6.673
10257SOL     OW31669   1.462   6.094   5.971
10257SOL    HW131670   1.395   6.042   6.024
10257SOL    HW231671   1.420   6.178   5.936
10258SOL     OW31672   4.053   0.946   3.051
10258SOL    HW131673   4.138   0.993   3.026
10258SOL    HW231674   4.071   0.879   3.123
10259SOL     OW31675   0.363   4.111   2.772
10259SOL    HW131676   0.326   4.199   2.803
10259SOL    HW231677   0.456   4.100   2.807
10260SOL     OW31678   0.738   0.014   1.661
10260SOL    HW131679   0.671   6.983   1.717
10260SOL    HW231680   0.805   0.058   1.721
10261SOL     OW31681   1.294   6.056   1.970
10261SOL    HW131682   1.262   6.108   1.891
10261SOL    HW231683   1.260   5.962   1.964
10262SOL     OW31684   1.525   5.371   4.774
10262SOL    HW131685   1.475   5.290   4.806
10262SOL    HW231686   1.472   5.417   4.703
10263SOL     OW31687   6.191   2.260   6.443
10263SOL    HW131688   6.268   2.271   6.380
10263SOL    HW231689   6.143   2.175   6.423
10264SOL     OW31690   0.277   0.053   6.290
10264SOL    HW131691   0.241   0.094   6.374
10264SOL    HW231692   0.367   0.093   6.270
10265SOL     OW31693   4.396   1.880   1.949
10265SOL    HW131694   4.329   1.810   1.972
10265SOL    HW231695   4.430   1.865   1.856
10266SOL     OW31696   3.225   4.145   6.581
10266SOL    HW131697   3.255   4.217   6.518
10266SOL    HW231698   3.231   4.056   6.536
10267SOL     OW31699   6.769   1.702   6.260
10267SOL    HW131700   6.672   1.714   6.279
10267SOL    HW231701   6.791   1.604   6.259
10268SOL     OW31702   6.403   5.088   1.530
10268SOL    HW131703   6.460   5.104   1.611
10268SOL    HW231704   6.362   4.996   1.535
10269SOL     OW31705   2.787   2.951   5.815
10269SOL    HW131706   2.837   2.870   5.783
10269SOL    HW231707   2.848   3.008   5.869
10270SOL     OW31708   2.365   5.945   0.666
10270SOL    HW131709   2.341   5.963   0.570
10270SOL    HW231710   2.310   6.004   0.725
10271SOL     OW31711   4.351   4.863   0.606
10271SOL    HW131712   4.410   4.851   0.526
10271SOL    HW231713   4.272   4.802   0.599
10272SOL     OW31714   0.757   0.668   5.701
10272SOL    HW131715   0.857   0.674   5.692
10272SOL    HW231716   0.725   0.740   5.764
10273SOL     OW31717   4.734   6.344   4.097
10273SOL    HW131718   4.656   6.404   4.082
10273SOL    HW231719   4.818   6.392   4.075
10274SOL     OW31720   1.493   5.701   5.734
10274SOL    HW131721   1.512   5.621   5.677
10274SOL    HW231722   1.487   5.673   5.830
10275SOL     OW31723   1.229   6.137   2.215
10275SOL    HW131724   1.244   6.104   2.122
10275SOL    HW231725   1.134   6.170   2.224
10276SOL     OW31726   6.033   5.220   6.274
10276SOL    HW131727   6.009   5.225   6.371
10276SOL    HW231728   6.133   5.214   6.264
10277SOL     OW31729   2.254   5.792   4.114
10277SOL    HW131730   2.338   5.822   4.069
10277SOL    HW231731   2.189   5.760   4.045
10278SOL     OW31732   5.976   0.379   5.544
10278SOL    HW131733   5.897   0.343   5.495
10278SOL    HW231734   6.005   0.465   5.502
10279SOL     OW31735   3.487   6.882   3.892
10279SOL    HW131736   3.557   6.922   3.834
10279SOL    HW231737   3.501   6.784   3.899
10280SOL     OW31738   2.344   3.388   6.349
10280SOL    HW131739   2.397   3.360   6.428
10280SOL    HW231740   2.246   3.383   6.371
10281SOL     OW31741   4.242   0.511   3.992
10281SOL    HW131742   4.262   0.582   3.925
10281SOL    HW231743   4.183   0.548   4.064
10282SOL     OW31744   0.787   1.727   4.534
10282SOL    HW131745   0.859   1.719   4.466
10282SOL    HW231746   0.781   1.642   4.587
10283SOL     OW31747   0.827   3.797   6.794
10283SOL    HW131748   0.860   3.707   6.766
10283SOL    HW231749   0.778   3.839   6.717
10284SOL     OW31750   5.345   2.835   5.609
10284SOL    HW131751   5.427   2.891   5.598
10284SOL    HW231752   5.347   2.759   5.544
10285SOL     OW31753   6.218   6.938   1.074
10285SOL    HW131754   6.255   6.867   1.135
10285SOL    HW231755   6.275   6.943   0.992
10286SOL     OW31756   4.309   0.943   3.638
10286SOL    HW131757   4.371   0.998   3.583
10286SOL    HW231758   4.215   0.954   3.604
10287SOL     OW31759   3.007   5.805   1.449
10287SOL    HW131760   3.104   5.784   1.435
10287SOL    HW231761   2.989   5.814   1.547
10288SOL     OW31762   5.422   6.598   4.131
10288SOL    HW131763   5.372   6.521   4.170
10288SOL    HW231764   5.443   6.665   4.203
10289SOL     OW31765   3.015   0.654   1.951
10289SOL    HW131766   3.092   0.646   1.888
10289SOL    HW231767   2.941   0.704   1.906
10290SOL     OW31768   3.394   3.786   1.918
10290SOL    HW131769   3.352   3.877   1.921
10290SOL    HW231770   3.353   3.732   1.845
10291SOL     OW31771   3.596   0.023   5.556
10291SOL    HW131772   3.555   0.107   5.521
10291SOL    HW231773   3.682   0.044   5.603
10292SOL     OW31774   0.424   1.162   4.908
10292SOL    HW131775   0.362   1.182   4.984
10292SOL    HW231776   0.499   1.228   4.907
10293SOL     OW31777   2.221   6.327   3.443
10293SOL    HW131778   2.167   6.408   3.463
10293SOL    HW231779   2.231   6.271   3.525
10294SOL     OW31780   5.820   1.849   3.211
10294SOL    HW131781   5.889   1.852   3.283
10294SOL    HW231782   5.866   1.852   3.122
10295SOL     OW31783   0.892   5.369   6.103
10295SOL    HW131784   0.951   5.314   6.045
10295SOL    HW231785   0.851   5.311   6.174
10296SOL     OW31786   6.259   2.126   0.424
10296SOL    HW131787   6.269   2.169   0.513
10296SOL    HW231788   6.328   2.162   0.361
10297SOL     OW31789   2.216   5.387   4.903
10297SOL    HW131790   2.199   5.442   4.821
10297SOL    HW231791   2.172   5.298   4.894
10298SOL     OW31792   5.014   3.555   3.820
10298SOL    HW131793   4.996   3.499   3.739
10298SOL    HW231794   4.954   3.635   3.818
10299SOL     OW31795   5.172   4.807   2.969
10299SOL    HW131796   5.240   4.774   3.034
10299SOL    HW231797   5.119   4.729   2.934
10300SOL     OW31798   1.349   4.522   2.689
10300SOL    HW131799   1.254   4.519   2.719
10300SOL    HW231800   1.409   4.493   2.763
10301SOL     OW31801   5.493   1.116   1.469
10301SOL    HW131802   5.487   1.177   1.390
10301SOL    HW231803   5.562   1.046   1.452
10302SOL     OW31804   1.867   5.557   3.303
10302SOL    HW131805   1.930   5.507   3.244
10302SOL    HW231806   1.906   5.645   3.328
10303SOL     OW31807   3.217   3.027   1.032
10303SOL    HW131808   3.263   3.023   1.121
10303SOL    HW231809   3.270   2.976   0.965
10304SOL     OW31810   6.132   6.481   3.544
10304SOL    HW131811   6.045   6.521   3.571
10304SOL    HW231812   6.197   6.554   3.521
10305SOL     OW31813   1.956   5.772   0.981
10305SOL    HW131814   1.978   5.802   0.889
10305SOL    HW231815   1.980   5.844   1.047
10306SOL     OW31816   4.578   5.648   0.149
10306SOL    HW131817   4.553   5.720   0.215
10306SOL    HW231818   4.555   5.559   0.188
10307SOL     OW31819   2.063   1.301   5.584
10307SOL    HW131820   2.102   1.251   5.507
10307SOL    HW231821   1.963   1.305   5.575
10308SOL     OW31822   3.547   5.753   3.930
10308SOL    HW131823   3.628   5.746   3.871
10308SOL    HW231824   3.465   5.736   3.875
10309SOL     OW31825   0.073   6.546   3.483
10309SOL    HW131826   7.000   6.585   3.471
10309SOL    HW231827   0.090   6.532   3.581
10310SOL     OW31828   4.033   3.845   3.675
10310SOL    HW131829   4.017   3.789   3.756
10310SOL    HW231830   4.126   3.880   3.676
10311SOL     OW31831   0.496   5.568   0.506
10311SOL    HW131832   0.504   5.666   0.524
10311SOL    HW231833   0.581   5.522   0.535
10312SOL     OW31834   2.264   4.477   1.169
10312SOL    HW131835   2.190   4.527   1.125
10312SOL    HW231836   2.290   4.399   1.112
10313SOL     OW31837   5.369   6.641   3.178
10313SOL    HW131838   5.274   6.620   3.156
10313SOL    HW231839   5.401   6.715   3.118
10314SOL     OW31840   6.582   5.820   0.145
10314SOL    HW131841   6.553   5.809   0.050
10314SOL    HW231842   6.508   5.858   0.199
10315SOL     OW31843   6.025   5.752   4.498
10315SOL    HW131844   5.936   5.749   4.452
10315SOL    HW231845   6.013   5.780   4.593
10316SOL     OW31846   0.045   4.461   2.785
10316SOL    HW131847   6.980   4.405   2.785
10316SOL    HW231848   0.019   4.558   2.786
10317SOL     OW31849   3.641   4.768   0.634
10317SOL    HW131850   3.692   4.710   0.570
10317SOL    HW231851   3.615   4.714   0.715
10318SOL     OW31852   6.543   5.842   2.042
10318SOL    HW131853   6.487   5.768   2.080
10318SOL    HW231854   6.572   5.902   2.117
10319SOL     OW31855   5.838   6.422   3.468
10319SOL    HW131856   5.790   6.386   3.388
10319SOL    HW231857   5.838   6.521   3.465
10320SOL     OW31858   5.522   6.650   1.394
10320SOL    HW131859   5.515   6.561   1.440
10320SOL    HW231860   5.540   6.636   1.297
10321SOL     OW31861   3.921   5.735   4.657
10321SOL    HW131862   3.914   5.830   4.628
10321SOL    HW231863   3.974   5.683   4.590
10322SOL     OW31864   6.269   2.743   0.255
10322SOL    HW131865   6.315   2.654   0.257
10322SOL    HW231866   6.284   2.786   0.166
10323SOL     OW31867   5.862   3.103   4.948
10323SOL    HW131868   5.907   3.060   5.026
10323SOL    HW231869   5.827   3.033   4.886
10324SOL     OW31870   2.955   3.593   3.936
10324SOL    HW131871   2.970   3.686   3.904
10324SOL    HW231872   2.944   3.592   4.035
10325SOL     OW31873   0.683   3.805   2.603
10325SOL    HW131874   0.625   3.803   2.685
10325SOL    HW231875   0.661   3.885   2.548
10326SOL     OW31876   5.524   1.920   0.896
10326SOL    HW131877   5.455   1.951   0.962
10326SOL    HW231878   5.505   1.824   0.872
10327SOL     OW31879   0.230   0.919   4.171
10327SOL    HW131880   0.276   1.001   4.137
10327SOL    HW231881   0.253   0.906   4.268
10328SOL     OW31882   6.101   2.876   1.638
10328SOL    HW131883   6.033   2.809   1.608
10328SOL    HW231884   6.080   2.965   1.599
10329SOL     OW31885   3.961   6.711   2.420
10329SOL    HW131886   4.056   6.723   2.394
10329SOL    HW231887   3.902   6.742   2.345
10330SOL     OW31888   4.070   5.200   1.394
10330SOL    HW131889   4.160   5.155   1.394
10330SOL    HW231890   4.015   5.164   1.470
10331SOL     OW31891   5.914   0.707   3.658
10331SOL    HW131892   5.943   0.676   3.568
10331SOL    HW231893   5.990   0.698   3.722
10332SOL     OW31894   0.272   2.533   6.249
10332SOL    HW131895   0.368   2.520   6.227
10332SOL    HW231896   0.262   2.612   6.309
10333SOL     OW31897   4.626   4.495   4.810
10333SOL    HW131898   4.602   4.420   4.872
10333SOL    HW231899   4.549   4.558   4.803
10334SOL     OW31900   1.233   4.363   5.464
10334SOL    HW131901   1.147   4.343   5.417
10334SOL    HW231902   1.307   4.315   5.419
10335SOL     OW31903   2.080   5.205   1.863
10335SOL    HW131904   2.179   5.192   1.857
10335SOL    HW231905   2.044   5.152   1.940
10336SOL     OW31906   4.347   0.089   2.664
10336SOL    HW131907   4.370   0.157   2.594
10336SOL    HW231908   4.429   0.037   2.689
10337SOL     OW31909   6.951   5.366   4.969
10337SOL    HW131910   6.918   5.301   5.037
10337SOL    HW231911   0.024   5.398   4.995
10338SOL     OW31912   3.685   5.498   3.564
10338SOL    HW131913   3.770   5.463   3.525
10338SOL    HW231914   3.608   5.475   3.504
10339SOL     OW31915   3.323   5.516   0.575
10339SOL    HW131916   3.273   5.444   0.623
10339SOL    HW231917   3.407   5.538   0.625
10340SOL     OW31918   2.220   6.865   0.153
10340SOL    HW131919   2.157   6.862   0.075
10340SOL    HW231920   2.286   6.790   0.145
10341SOL     OW31921   1.999   1.399   2.695
10341SOL    HW131922   1.925   1.457   2.730
10341SOL    HW231923   2.087   1.442   2.717
10342SOL     OW31924   2.296   6.398   4.480
10342SOL    HW131925   2.336   6.343   4.407
10342SOL    HW231926   2.292   6.344   4.564
10343SOL     OW31927   2.127   3.211   5.079
10343SOL    HW131928   2.090   3.209   5.172
10343SOL    HW231929   2.201   3.145   5.071
10344SOL     OW31930   3.934   4.477   5.768
10344SOL    HW131931   3.941   4.393   5.822
10344SOL    HW231932   3.865   4.537   5.808
10345SOL     OW31933   1.859   1.919   6.661
10345SOL    HW131934   1.872   1.830   6.704
10345SOL    HW231935   1.805   1.978   6.720
10346SOL     OW31936   4.925   5.377   0.026
10346SOL    HW131937   4.956   5.351   0.117
10346SOL    HW231938   5.000   5.419   6.993
10347SOL     OW31939   5.213   2.328   1.940
10347SOL    HW131940   5.158   2.247   1.959
10347SOL    HW231941   5.300   2.320   1.988
10348SOL     OW31942   6.973   5.415   5.847
10348SOL    HW131943   6.881   5.453   5.851
10348SOL    HW231944   0.021   5.485   5.872
10349SOL     OW31945   0.354   1.803   0.548
10349SOL    HW131946   0.350   1.888   0.601
10349SOL    HW231947   0.285   1.739   0.582
10350SOL     OW31948   2.278   4.178   4.347
10350SOL    HW131949   2.203   4.114   4.361
10350SOL    HW231950   2.319   4.163   4.257
10351SOL     OW31951   4.586   4.493   5.113
10351SOL    HW131952   4.497   4.505   5.071
10351SOL    HW231953   4.626   4.583   5.131
10352SOL     OW31954   5.534   1.484   6.832
10352SOL    HW131955   5.448   1.524   6.800
10352SOL    HW231956   5.578   1.436   6.757
10353SOL     OW31957   6.637   2.154   3.930
10353SOL    HW131958   6.604   2.212   3.854
10353SOL    HW231959   6.735   2.137   3.918
10354SOL     OW31960   0.090   3.088   1.210
10354SOL    HW131961   0.098   3.080   1.309
10354SOL    HW231962   0.010   3.037   1.179
10355SOL     OW31963   0.358   1.793   1.074
10355SOL    HW131964   0.425   1.863   1.051
10355SOL    HW231965   0.267   1.835   1.081
10356SOL     OW31966   6.403   3.527   5.798
10356SOL    HW131967   6.343   3.497   5.724
10356SOL    HW231968   6.417   3.452   5.863
10357SOL     OW31969   0.699   2.646   5.635
10357SOL    HW131970   0.743   2.674   5.720
10357SOL    HW231971   0.753   2.574   5.591
10358SOL     OW31972   0.949   2.120   3.083
10358SOL    HW131973   0.981   2.203   3.038
10358SOL    HW231974   0.940   2.137   3.181
10359SOL     OW31975   6.204   2.268   2.160
10359SOL    HW131976   6.136   2.328   2.201
10359SOL    HW231977   6.292   2.278   2.207
10360SOL     OW31978   6.148   4.415   1.788
10360SOL    HW131979   6.149   4.367   1.875
10360SOL    HW231980   6.054   4.444   1.767
10361SOL     OW31981   0.409   1.524   1.866
10361SOL    HW131982   0.361   1.437   1.857
10361SOL    HW231983   0.450   1.530   1.957
10362SOL     OW31984   1.190   5.471   1.605
10362SOL    HW131985   1.198   5.496   1.509
10362SOL    HW231986   1.282   5.459   1.644
10363SOL     OW31987   5.532   4.032   6.698
10363SOL    HW131988   5.562   3.939   6.680
10363SOL    HW231989   5.449   4.051   6.646
10364SOL     OW31990   6.008   4.549   2.165
10364SOL    HW131991   6.020   4.497   2.250
10364SOL    HW231992   6.051   4.499   2.089
10365SOL     OW31993   5.578   5.656   0.137
10365SOL    HW131994   5.661   5.664   0.082
10365SOL    HW231995   5.558   5.560   0.153
10366SOL     OW31996   2.805   6.100   3.454
10366SOL    HW131997   2.775   6.194   3.438
10366SOL    HW231998   2.898   6.088   3.420
10367SOL     OW31999   5.967   0.895   1.690
10367SOL    HW132000   5.904   0.960   1.733
10367SOL    HW232001   5.999   0.830   1.759
10368SOL     OW32002   2.621   6.358   2.565
10368SOL    HW132003   2.695   6.347   2.499
10368SOL    HW232004   2.543   6.402   2.520
10369SOL     OW32005   2.804   0.347   6.338
10369SOL    HW132006   2.879   0.395   6.384
10369SOL    HW232007   2.718   0.392   6.359
10370SOL     OW32008   1.076   0.712   6.166
10370SOL    HW132009   0.987   0.754   6.149
10370SOL    HW232010   1.131   0.717   6.083
10371SOL     OW32011   3.799   5.712   3.266
10371SOL    HW132012   3.797   5.801   3.311
10371SOL    HW232013   3.877   5.709   3.203
10372SOL     OW32014   2.661   6.645   1.827
10372SOL    HW132015   2.714   6.672   1.908
10372SOL    HW232016   2.719   6.654   1.745
10373SOL     OW32017   0.548   1.305   5.451
10373SOL    HW132018   0.491   1.311   5.533
10373SOL    HW232019   0.595   1.217   5.449
10374SOL     OW32020   3.866   5.468   3.887
10374SOL    HW132021   3.806   5.462   3.967
10374SOL    HW232022   3.883   5.377   3.851
10375SOL     OW32023   2.237   4.030   0.155
10375SOL    HW132024   2.272   3.939   0.132
10375SOL    HW232025   2.181   4.064   0.080
10376SOL     OW32026   1.805   4.511   3.341
10376SOL    HW132027   1.788   4.413   3.353
10376SOL    HW232028   1.778   4.560   3.424
10377SOL     OW32029   1.604   0.492   2.510
10377SOL    HW132030   1.542   0.415   2.493
10377SOL    HW232031   1.695   0.456   2.532
10378SOL     OW32032   0.156   4.688   3.952
10378SOL    HW132033   0.184   4.641   3.869
10378SOL    HW232034   0.113   4.623   4.014
10379SOL     OW32035   1.650   6.760   4.225
10379SOL    HW132036   1.732   6.770   4.168
10379SOL    HW232037   1.675   6.762   4.321
10380SOL     OW32038   2.207   2.535   4.793
10380SOL    HW132039   2.250   2.583   4.870
10380SOL    HW232040   2.264   2.547   4.712
10381SOL     OW32041   4.607   4.775   2.300
10381SOL    HW132042   4.679   4.713   2.330
10381SOL    HW232043   4.524   4.758   2.352
10382SOL     OW32044   3.957   5.473   2.297
10382SOL    HW132045   4.007   5.432   2.220
10382SOL    HW232046   3.872   5.423   2.311
10383SOL     OW32047   1.813   3.847   0.189
10383SOL    HW132048   1.729   3.876   0.235
10383SOL    HW232049   1.892   3.883   0.239
10384SOL     OW32050   6.076   6.457   1.510
10384SOL    HW132051   5.996   6.452   1.570
10384SOL    HW232052   6.058   6.521   1.436
10385SOL     OW32053   4.348   4.664   6.805
10385SOL    HW132054   4.374   4.760   6.811
10385SOL    HW232055   4.364   4.631   6.712
10386SOL     OW32056   6.985   1.111   0.219
10386SOL    HW132057   6.960   1.208   0.226
10386SOL    HW232058   6.910   1.061   0.176
10387SOL     OW32059   5.139   3.079   1.896
10387SOL    HW132060   5.056   3.023   1.899
10387SOL    HW232061   5.114   3.175   1.881
10388SOL     OW32062   2.832   0.778   5.845
10388SOL    HW132063   2.921   0.732   5.848
10388SOL    HW232064   2.781   0.747   5.765
10389SOL     OW32065   0.855   3.645   0.397
10389SOL    HW132066   0.762   3.631   0.360
10389SOL    HW232067   0.853   3.634   0.496
10390SOL     OW32068   1.994   2.457   1.817
10390SOL    HW132069   2.072   2.414   1.862
10390SOL    HW232070   2.004   2.557   1.822
10391SOL     OW32071   5.437   6.701   4.422
10391SOL    HW132072   5.368   6.755   4.374
10391SOL    HW232073   5.396   6.616   4.454
10392SOL     OW32074   6.819   4.883   3.861
10392SOL    HW132075   6.907   4.929   3.875
10392SOL    HW232076   6.748   4.952   3.847
10393SOL     OW32077   1.553   4.070   3.499
10393SOL    HW132078   1.594   3.980   3.515
10393SOL    HW232079   1.519   4.107   3.586
10394SOL     OW32080   2.797   5.967   4.241
10394SOL    HW132081   2.729   5.893   4.236
10394SOL    HW232082   2.861   5.958   4.165
10395SOL     OW32083   0.254   0.352   0.715
10395SOL    HW132084   0.323   0.380   0.780
10395SOL    HW232085   0.176   0.414   0.720
10396SOL     OW32086   3.190   1.786   4.704
10396SOL    HW132087   3.236   1.813   4.789
10396SOL    HW232088   3.093   1.805   4.711
10397SOL     OW32089   3.291   1.992   2.381
10397SOL    HW132090   3.361   2.042   2.330
10397SOL    HW232091   3.200   2.020   2.347
10398SOL     OW32092   6.937   2.698   1.537
10398SOL    HW132093   6.853   2.742   1.570
10398SOL    HW232094   7.007   2.768   1.523
10399SOL     OW32095   6.699   3.662   1.954
10399SOL    HW132096   6.651   3.597   2.013
10399SOL    HW232097   6.641   3.741   1.935
10400SOL     OW32098   3.998   0.030   0.871
10400SOL    HW132099   4.049   0.060   0.952
10400SOL    HW232100   3.911   7.008   0.900
10401SOL     OW32101   0.101   0.437   4.758
10401SOL    HW132102   0.194   0.471   4.773
10401SOL    HW232103   0.101   0.373   4.681
10402SOL     OW32104   6.506   2.919   4.424
10402SOL    HW132105   6.454   2.876   4.497
10402SOL    HW232106   6.603   2.895   4.434
10403SOL     OW32107   2.995   0.714   3.360
10403SOL    HW132108   3.028   0.800   3.397
10403SOL    HW232109   2.952   0.729   3.271
10404SOL     OW32110   0.279   6.309   6.115
10404SOL    HW132111   0.204   6.254   6.151
10404SOL    HW232112   0.265   6.405   6.140
10405SOL     OW32113   6.967   1.454   6.018
10405SOL    HW132114   0.003   1.369   6.019
10405SOL    HW232115   6.883   1.441   6.071
10406SOL     OW32116   3.383   4.881   1.564
10406SOL    HW132117   3.355   4.853   1.472
10406SOL    HW232118   3.362   4.807   1.628
10407SOL     OW32119   3.359   6.780   0.269
10407SOL    HW132120   3.278   6.800   0.324
10407SOL    HW232121   3.349   6.690   0.226
10408SOL     OW32122   4.219   0.378   0.323
10408SOL    HW132123   4.119   0.374   0.316
10408SOL    HW232124   4.253   0.291   0.359
10409SOL     OW32125   6.242   4.834   0.567
10409SOL    HW132126   6.256   4.752   0.511
10409SOL    HW232127   6.180   4.896   0.521
10410SOL     OW32128   5.944   1.150   0.329
10410SOL    HW132129   5.965   1.146   0.232
10410SOL    HW232130   6.010   1.209   0.375
10411SOL     OW32131   2.540   5.260   3.453
10411SOL    HW132132   2.616   5.295   3.507
10411SOL    HW232133   2.526   5.318   3.372
10412SOL     OW32134   5.703   1.080   0.774
10412SOL    HW132135   5.696   1.031   0.861
10412SOL    HW232136   5.793   1.064   0.733
10413SOL     OW32137   6.234   1.874   1.318
10413SOL    HW132138   6.212   1.959   1.366
10413SOL    HW232139   6.152   1.840   1.273
10414SOL     OW32140   5.145   2.953   5.239
10414SOL    HW132141   5.233   2.990   5.211
10414SOL    HW232142   5.154   2.856   5.261
10415SOL     OW32143   0.526   5.878   6.216
10415SOL    HW132144   0.467   5.827   6.278
10415SOL    HW232145   0.615   5.832   6.208
10416SOL     OW32146   6.026   2.763   4.460
10416SOL    HW132147   6.009   2.780   4.363
10416SOL    HW232148   5.950   2.709   4.498
10417SOL     OW32149   2.612   4.574   3.943
10417SOL    HW132150   2.547   4.512   3.899
10417SOL    HW232151   2.622   4.550   4.040
10418SOL     OW32152   0.616   4.280   5.077
10418SOL    HW132153   0.577   4.196   5.114
10418SOL    HW232154   0.547   4.352   5.079
10419SOL     OW32155   0.868   0.886   0.751
10419SOL    HW132156   0.936   0.867   0.680
10419SOL    HW232157   0.815   0.967   0.725
10420SOL     OW32158   6.965   3.348   2.720
10420SOL    HW132159   0.023   3.318   2.777
10420SOL    HW232160   6.932   3.437   2.754
10421SOL     OW32161   1.387   0.759   3.591
10421SOL    HW132162   1.356   0.839   3.539
10421SOL    HW232163   1.433   0.695   3.529
10422SOL     OW32164   6.680   2.409   5.429
10422SOL    HW132165   6.638   2.486   5.478
10422SOL    HW232166   6.725   2.349   5.495
10423SOL     OW32167   4.962   4.695   4.158
10423SOL    HW132168   4.876   4.742   4.178
10423SOL    HW232169   4.962   4.664   4.063
10424SOL     OW32170   5.279   1.541   6.795
10424SOL    HW132171   5.229   1.468   6.842
10424SOL    HW232172   5.268   1.531   6.697
10425SOL     OW32173   1.303   5.520   2.637
10425SOL    HW132174   1.349   5.608   2.640
10425SOL    HW232175   1.227   5.520   2.702
10426SOL     OW32176   6.075   4.055   0.599
10426SOL    HW132177   6.098   3.963   0.566
10426SOL    HW232178   6.076   4.055   0.699
10427SOL     OW32179   5.071   2.438   0.798
10427SOL    HW132180   5.015   2.482   0.869
10427SOL    HW232181   5.037   2.346   0.781
10428SOL     OW32182   3.935   0.815   4.896
10428SOL    HW132183   3.866   0.852   4.834
10428SOL    HW232184   4.008   0.883   4.907
10429SOL     OW32185   6.730   5.921   1.478
10429SOL    HW132186   6.631   5.936   1.478
10429SOL    HW232187   6.770   5.959   1.394
10430SOL     OW32188   4.209   6.493   3.241
10430SOL    HW132189   4.270   6.414   3.240
10430SOL    HW232190   4.206   6.531   3.333
10431SOL     OW32191   2.740   0.132   5.150
10431SOL    HW132192   2.746   0.230   5.172
10431SOL    HW232193   2.645   0.109   5.128
10432SOL     OW32194   6.065   0.588   3.889
10432SOL    HW132195   6.108   0.593   3.979
10432SOL    HW232196   6.005   0.508   3.886
10433SOL     OW32197   2.409   6.513   1.363
10433SOL    HW132198   2.395   6.602   1.320
10433SOL    HW232199   2.338   6.497   1.431
10434SOL     OW32200   3.171   0.132   3.638
10434SOL    HW132201   3.127   0.058   3.587
10434SOL    HW232202   3.210   0.198   3.573
10435SOL     OW32203   5.899   6.484   5.952
10435SOL    HW132204   5.991   6.516   5.974
10435SOL    HW232205   5.872   6.412   6.016
10436SOL     OW32206   0.622   5.411   4.163
10436SOL    HW132207   0.639   5.329   4.217
10436SOL    HW232208   0.536   5.453   4.191
10437SOL     OW32209   6.146   5.032   5.821
10437SOL    HW132210   6.168   4.942   5.783
10437SOL    HW232211   6.156   5.029   5.921
10438SOL     OW32212   5.478   6.378   0.394
10438SOL    HW132213   5.414   6.449   0.365
10438SOL    HW232214   5.484   6.308   0.324
10439SOL     OW32215   3.828   0.105   5.722
10439SOL    HW132216   3.764   0.137   5.792
10439SOL    HW232217   3.922   0.116   5.755
10440SOL     OW32218   0.886   6.513   1.076
10440SOL    HW132219   0.867   6.578   1.149
10440SOL    HW232220   0.985   6.506   1.063
10441SOL     OW32221   5.295   1.503   6.541
10441SOL    HW132222   5.228   1.438   6.504
10441SOL    HW232223   5.372   1.511   6.477
10442SOL     OW32224   3.504   5.321   5.435
10442SOL    HW132225   3.447   5.321   5.518
10442SOL    HW232226   3.445   5.307   5.355
10443SOL     OW32227   5.933   3.807   4.541
10443SOL    HW132228   5.959   3.863   4.463
10443SOL    HW232229   5.968   3.714   4.529
10444SOL     OW32230   3.738   5.315   4.866
10444SOL    HW132231   3.768   5.260   4.787
10444SOL    HW232232   3.737   5.411   4.841
10445SOL     OW32233   6.500   5.285   4.512
10445SOL    HW132234   6.508   5.212   4.580
10445SOL    HW232235   6.506   5.245   4.420
10446SOL     OW32236   0.676   4.673   6.490
10446SOL    HW132237   0.699   4.603   6.558
10446SOL    HW232238   0.718   4.649   6.402
10447SOL     OW32239   6.837   2.046   1.380
10447SOL    HW132240   6.802   2.046   1.473
10447SOL    HW232241   6.903   1.972   1.369
10448SOL     OW32242   3.785   4.033   1.792
10448SOL    HW132243   3.813   4.102   1.726
10448SOL    HW232244   3.738   3.958   1.744
10449SOL     OW32245   2.623   5.433   4.580
10449SOL    HW132246   2.549   5.482   4.533
10449SOL    HW232247   2.584   5.368   4.645
10450SOL     OW32248   0.002   2.039   0.294
10450SOL    HW132249   0.102   2.042   0.282
10450SOL    HW232250   6.976   2.062   0.207
10451SOL     OW32251   2.456   4.517   2.824
10451SOL    HW132252   2.381   4.458   2.854
10451SOL    HW232253   2.519   4.531   2.900
10452SOL     OW32254   0.625   3.127   3.832
10452SOL    HW132255   0.564   3.052   3.858
10452SOL    HW232256   0.643   3.123   3.734
10453SOL     OW32257   5.378   5.434   1.304
10453SOL    HW132258   5.329   5.500   1.247
10453SOL    HW232259   5.420   5.365   1.245
10454SOL     OW32260   5.102   3.016   2.191
10454SOL    HW132261   5.026   3.062   2.236
10454SOL    HW232262   5.110   3.050   2.097
10455SOL     OW32263   0.668   4.940   4.336
10455SOL    HW132264   0.666   4.894   4.247
10455SOL    HW232265   0.715   4.882   4.402
10456SOL     OW32266   3.576   5.959   1.193
10456SOL    HW132267   3.675   5.971   1.177
10456SOL    HW232268   3.558   5.865   1.219
10457SOL     OW32269   4.115   3.475   3.321
10457SOL    HW132270   4.114   3.474   3.221
10457SOL    HW232271   4.114   3.570   3.353
10458SOL     OW32272   1.222   6.477   0.795
10458SOL    HW132273   1.196   6.435   0.881
10458SOL    HW232274   1.201   6.415   0.720
10459SOL     OW32275   6.257   5.434   2.247
10459SOL    HW132276   6.183   5.462   2.308
10459SOL    HW232277   6.219   5.382   2.171
10460SOL     OW32278   2.711   4.994   2.186
10460SOL    HW132279   2.723   4.895   2.192
10460SOL    HW232280   2.698   5.032   2.277
10461SOL     OW32281   2.990   0.021   6.719
10461SOL    HW132282   2.961   0.111   6.750
10461SOL    HW232283   2.910   6.980   6.708
10462SOL     OW32284   6.409   0.599   1.155
10462SOL    HW132285   6.470   0.533   1.198
10462SOL    HW232286   6.394   0.677   1.216
10463SOL     OW32287   2.940   4.585   0.449
10463SOL    HW132288   2.938   4.661   0.514
10463SOL    HW232289   2.875   4.514   0.478
10464SOL     OW32290   4.970   0.415   0.553
10464SOL    HW132291   4.955   0.411   0.454
10464SOL    HW232292   4.943   0.328   0.594
10465SOL     OW32293   6.992   5.318   6.372
10465SOL    HW132294   0.020   5.367   6.298
10465SOL    HW232295   0.034   5.314   6.452
10466SOL     OW32296   4.550   5.822   5.056
10466SOL    HW132297   4.489   5.901   5.054
10466SOL    HW232298   4.614   5.830   5.132
10467SOL     OW32299   2.508   1.783   5.190
10467SOL    HW132300   2.470   1.701   5.234
10467SOL    HW232301   2.438   1.825   5.133
10468SOL     OW32302   3.172   6.516   4.462
10468SOL    HW132303   3.132   6.596   4.418
10468SOL    HW232304   3.143   6.434   4.414
10469SOL     OW32305   1.704   4.280   0.788
10469SOL    HW132306   1.727   4.331   0.871
10469SOL    HW232307   1.784   4.276   0.728
10470SOL     OW32308   2.914   1.677   4.027
10470SOL    HW132309   2.869   1.616   4.092
10470SOL    HW232310   2.927   1.628   3.940
10471SOL     OW32311   2.886   3.530   1.417
10471SOL    HW132312   2.983   3.506   1.415
10471SOL    HW232313   2.864   3.585   1.337
10472SOL     OW32314   3.263   0.680   1.865
10472SOL    HW132315   3.304   0.702   1.776
10472SOL    HW232316   3.288   0.586   1.890
10473SOL     OW32317   5.266   6.017   0.160
10473SOL    HW132318   5.206   6.008   0.081
10473SOL    HW232319   5.265   5.932   0.212
10474SOL     OW32320   3.892   0.722   4.371
10474SOL    HW132321   3.931   0.674   4.450
10474SOL    HW232322   3.947   0.804   4.352
10475SOL     OW32323   3.679   0.055   1.397
10475SOL    HW132324   3.624   0.117   1.340
10475SOL    HW232325   3.776   0.075   1.383
10476SOL     OW32326   6.878   5.474   6.706
10476SOL    HW132327   6.910   5.382   6.728
10476SOL    HW232328   6.850   5.521   6.790
10477SOL     OW32329   6.018   4.238   4.993
10477SOL    HW132330   5.928   4.216   5.033
10477SOL    HW232331   6.090   4.211   5.057
10478SOL     OW32332   0.036   6.174   1.144
10478SOL    HW132333   6.979   6.190   1.080
10478SOL    HW232334   0.112   6.236   1.123
10479SOL     OW32335   2.004   3.725   2.922
10479SOL    HW132336   2.012   3.626   2.913
10479SOL    HW232337   1.935   3.759   2.858
10480SOL     OW32338   5.486   6.591   1.991
10480SOL    HW132339   5.576   6.606   2.032
10480SOL    HW232340   5.425   6.551   2.059
10481SOL     OW32341   1.701   0.646   5.022
10481SOL    HW132342   1.672   0.551   5.013
10481SOL    HW232343   1.639   0.705   4.970
10482SOL     OW32344   0.984   6.023   4.841
10482SOL    HW132345   0.925   6.029   4.761
10482SOL    HW232346   0.976   6.107   4.895
10483SOL     OW32347   0.123   5.551   6.966
10483SOL    HW132348   0.062   5.619   6.925
10483SOL    HW232349   0.164   5.590   0.031
10484SOL     OW32350   0.257   1.158   2.221
10484SOL    HW132351   0.261   1.075   2.166
10484SOL    HW232352   0.162   1.189   2.228
10485SOL     OW32353   3.325   3.749   3.435
10485SOL    HW132354   3.412   3.702   3.419
10485SOL    HW232355   3.292   3.727   3.527
10486SOL     OW32356   6.176   6.273   5.129
10486SOL    HW132357   6.238   6.206   5.088
10486SOL    HW232358   6.105   6.297   5.063
10487SOL     OW32359   4.120   2.020   1.836
10487SOL    HW132360   4.031   2.027   1.881
10487SOL    HW232361   4.179   1.959   1.889
10488SOL     OW32362   6.884   2.179   5.175
10488SOL    HW132363   6.917   2.123   5.250
10488SOL    HW232364   6.795   2.144   5.144
10489SOL     OW32365   5.531   4.192   4.021
10489SOL    HW132366   5.589   4.273   4.027
10489SOL    HW232367   5.469   4.190   4.099
10490SOL     OW32368   5.920   6.345   6.434
10490SOL    HW132369   5.944   6.250   6.415
10490SOL    HW232370   5.922   6.362   6.532
10491SOL     OW32371   1.211   3.173   6.183
10491SOL    HW132372   1.303   3.162   6.221
10491SOL    HW232373   1.159   3.236   6.241
10492SOL     OW32374   4.145   0.576   0.781
10492SOL    HW132375   4.085   0.589   0.860
10492SOL    HW232376   4.238   0.555   0.812
10493SOL     OW32377   4.194   5.612   0.721
10493SOL    HW132378   4.189   5.690   0.782
10493SOL    HW232379   4.258   5.632   0.646
10494SOL     OW32380   0.435   4.368   5.636
10494SOL    HW132381   0.408   4.336   5.727
10494SOL    HW232382   0.428   4.467   5.632
10495SOL     OW32383   0.585   6.472   6.588
10495SOL    HW132384   0.495   6.441   6.557
10495SOL    HW232385   0.588   6.572   6.587
10496SOL     OW32386   0.363   3.815   5.429
10496SOL    HW132387   0.418   3.851   5.353
10496SOL    HW232388   0.337   3.890   5.489
10497SOL     OW32389   2.565   6.335   1.173
10497SOL    HW132390   2.495   6.373   1.234
10497SOL    HW232391   2.618   6.266   1.222
10498SOL     OW32392   4.502   5.433   0.547
10498SOL    HW132393   4.406   5.404   0.543
10498SOL    HW232394   4.553   5.372   0.608
10499SOL     OW32395   5.862   4.993   1.909
10499SOL    HW132396   5.831   4.990   1.813
10499SOL    HW232397   5.962   5.005   1.911
10500SOL     OW32398   6.648   3.810   5.351
10500SOL    HW132399   6.566   3.753   5.347
10500SOL    HW232400   6.637   3.880   5.421
10501SOL     OW32401   2.834   5.338   2.882
10501SOL    HW132402   2.755   5.343   2.821
10501SOL    HW232403   2.863   5.431   2.907
10502SOL     OW32404   3.405   4.092   2.608
10502SOL    HW132405   3.456   4.076   2.692
10502SOL    HW232406   3.347   4.173   2.619
10503SOL     OW32407   5.730   2.582   6.576
10503SOL    HW132408   5.706   2.549   6.667
10503SOL    HW232409   5.827   2.564   6.558
10504SOL     OW32410   1.402   2.921   6.324
10504SOL    HW132411   1.399   2.947   6.227
10504SOL    HW232412   1.472   2.850   6.337
10505SOL     OW32413   5.623   6.731   1.113
10505SOL    HW132414   5.707   6.782   1.097
10505SOL    HW232415   5.583   6.705   1.025
10506SOL     OW32416   1.003   2.439   0.811
10506SOL    HW132417   0.919   2.478   0.850
10506SOL    HW232418   1.047   2.507   0.753
10507SOL     OW32419   1.264   4.932   5.897
10507SOL    HW132420   1.210   4.850   5.915
10507SOL    HW232421   1.342   4.909   5.839
10508SOL     OW32422   1.272   5.369   5.054
10508SOL    HW132423   1.267   5.328   5.146
10508SOL    HW232424   1.362   5.413   5.042
10509SOL     OW32425   4.932   2.382   3.513
10509SOL    HW132426   4.995   2.455   3.541
10509SOL    HW232427   4.907   2.327   3.592
10510SOL     OW32428   5.428   5.483   3.871
10510SOL    HW132429   5.374   5.561   3.903
10510SOL    HW232430   5.366   5.407   3.848
10511SOL     OW32431   3.907   2.151   2.353
10511SOL    HW132432   3.992   2.144   2.300
10511SOL    HW232433   3.833   2.180   2.292
10512SOL     OW32434   4.344   1.245   4.904
10512SOL    HW132435   4.418   1.180   4.918
10512SOL    HW232436   4.341   1.272   4.808
10513SOL     OW32437   5.248   3.215   1.503
10513SOL    HW132438   5.296   3.299   1.530
10513SOL    HW232439   5.266   3.144   1.571
10514SOL     OW32440   0.521   3.258   1.868
10514SOL    HW132441   0.578   3.340   1.875
10514SOL    HW232442   0.437   3.272   1.920
10515SOL     OW32443   1.911   2.946   5.253
10515SOL    HW132444   1.867   3.001   5.182
10515SOL    HW232445   2.004   2.923   5.225
10516SOL     OW32446   3.764   2.430   1.189
10516SOL    HW132447   3.684   2.427   1.129
10516SOL    HW232448   3.793   2.525   1.201
10517SOL     OW32449   1.024   2.562   3.623
10517SOL    HW132450   1.002   2.648   3.668
10517SOL    HW232451   0.949   2.497   3.635
10518SOL     OW32452   0.838   5.161   2.758
10518SOL    HW132453   0.922   5.187   2.806
10518SOL    HW232454   0.778   5.240   2.750
10519SOL     OW32455   3.222   6.315   0.810
10519SOL    HW132456   3.146   6.359   0.859
10519SOL    HW232457   3.213   6.216   0.817
10520SOL     OW32458   0.052   2.132   4.961
10520SOL    HW132459   0.051   2.218   4.911
10520SOL    HW232460   7.015   2.140   5.044
10521SOL     OW32461   6.498   3.023   1.344
10521SOL    HW132462   6.443   2.959   1.396
10521SOL    HW232463   6.464   3.116   1.359
10522SOL     OW32464   5.292   2.470   4.025
10522SOL    HW132465   5.334   2.381   4.006
10522SOL    HW232466   5.198   2.457   4.056
10523SOL     OW32467   6.827   4.794   2.987
10523SOL    HW132468   6.869   4.840   2.909
10523SOL    HW232469   6.768   4.857   3.036
10524SOL     OW32470   6.363   6.675   5.104
10524SOL    HW132471   6.339   6.646   5.012
10524SOL    HW232472   6.302   6.632   5.170
10525SOL     OW32473   5.013   1.794   4.717
10525SOL    HW132474   4.922   1.765   4.684
10525SOL    HW232475   5.083   1.758   4.655
10526SOL     OW32476   1.587   4.932   0.637
10526SOL    HW132477   1.536   4.861   0.685
10526SOL    HW232478   1.650   4.890   0.572
10527SOL     OW32479   0.692   0.200   4.746
10527SOL    HW132480   0.734   0.133   4.685
10527SOL    HW232481   0.653   0.274   4.691
10528SOL     OW32482   0.798   3.818   5.718
10528SOL    HW132483   0.790   3.812   5.618
10528SOL    HW232484   0.742   3.893   5.751
10529SOL     OW32485   1.141   5.962   0.316
10529SOL    HW132486   1.087   5.927   0.240
10529SOL    HW232487   1.176   5.886   0.370
10530SOL     OW32488   0.040   6.231   0.561
10530SOL    HW132489   0.082   6.277   0.640
10530SOL    HW232490   0.105   6.166   0.522
10531SOL     OW32491   2.638   3.024   5.392
10531SOL    HW132492   2.604   3.077   5.469
10531SOL    HW232493   2.568   3.019   5.321
10532SOL     OW32494   5.554   6.163   6.467
10532SOL    HW132495   5.510   6.146   6.379
10532SOL    HW232496   5.609   6.247   6.462
10533SOL     OW32497   2.536   5.701   3.306
10533SOL    HW132498   2.472   5.679   3.379
10533SOL    HW232499   2.512   5.790   3.266
10534SOL     OW32500   1.711   6.194   3.287
10534SOL    HW132501   1.761   6.172   3.371
10534SOL    HW232502   1.614   6.203   3.307
10535SOL     OW32503   3.455   2.081   2.848
10535SOL    HW132504   3.528   2.053   2.910
10535SOL    HW232505   3.490   2.088   2.755
10536SOL     OW32506   5.447   1.369   4.038
10536SOL    HW132507   5.472   1.441   3.973
10536SOL    HW232508   5.388   1.302   3.993
10537SOL     OW32509   4.228   0.139   3.708
10537SOL    HW132510   4.183   0.050   3.705
10537SOL    HW232511   4.254   0.160   3.803
10538SOL     OW32512   6.318   3.071   2.834
10538SOL    HW132513   6.367   2.995   2.878
10538SOL    HW232514   6.359   3.090   2.745
10539SOL     OW32515   6.568   0.348   3.146
10539SOL    HW132516   6.641   0.370   3.210
10539SOL    HW232517   6.560   0.422   3.079
10540SOL     OW32518   2.357   3.643   6.239
10540SOL    HW132519   2.429   3.636   6.170
10540SOL    HW232520   2.373   3.576   6.312
10541SOL     OW32521   3.079   3.044   5.260
10541SOL    HW132522   3.179   3.039   5.262
10541SOL    HW232523   3.051   3.108   5.188
10542SOL     OW32524   4.694   6.840   4.202
10542SOL    HW132525   4.758   6.804   4.134
10542SOL    HW232526   4.653   6.765   4.252
10543SOL     OW32527   0.554   3.452   5.122
10543SOL    HW132528   0.465   3.432   5.082
10543SOL    HW232529   0.568   3.395   5.203
10544SOL     OW32530   1.664   1.249   3.040
10544SOL    HW132531   1.747   1.214   2.998
10544SOL    HW232532   1.656   1.347   3.022
10545SOL     OW32533   2.093   1.840   3.016
10545SOL    HW132534   2.116   1.805   2.925
10545SOL    HW232535   2.160   1.908   3.043
10546SOL     OW32536   3.026   6.808   0.331
10546SOL    HW132537   3.033   6.825   0.233
10546SOL    HW232538   2.944   6.754   0.350
10547SOL     OW32539   4.262   0.240   5.106
10547SOL    HW132540   4.352   0.245   5.062
10547SOL    HW232541   4.239   0.144   5.122
10548SOL     OW32542   0.436   4.843   4.576
10548SOL    HW132543   0.358   4.781   4.563
10548SOL    HW232544   0.500   4.830   4.500
10549SOL     OW32545   6.969   0.949   0.834
10549SOL    HW132546   6.913   0.897   0.898
10549SOL    HW232547   0.038   0.972   0.877
10550SOL     OW32548   4.210   6.246   3.829
10550SOL    HW132549   4.141   6.178   3.805
10550SOL    HW232550   4.286   6.201   3.876
10551SOL     OW32551   2.994   1.841   5.901
10551SOL    HW132552   2.985   1.743   5.883
10551SOL    HW232553   2.922   1.891   5.852
10552SOL     OW32554   3.042   0.959   4.369
10552SOL    HW132555   3.018   1.050   4.333
10552SOL    HW232556   3.065   0.967   4.466
10553SOL     OW32557   0.354   4.737   0.669
10553SOL    HW132558   0.288   4.772   0.735
10553SOL    HW232559   0.415   4.671   0.713
10554SOL     OW32560   6.559   5.662   2.324
10554SOL    HW132561   6.640   5.693   2.374
10554SOL    HW232562   6.488   5.635   2.390
10555SOL     OW32563   3.814   2.908   0.532
10555SOL    HW132564   3.817   2.944   0.625
10555SOL    HW232565   3.804   2.983   0.467
10556SOL     OW32566   2.602   1.644   3.177
10556SOL    HW132567   2.572   1.678   3.088
10556SOL    HW232568   2.699   1.622   3.174
10557SOL     OW32569   2.049   4.076   4.018
10557SOL    HW132570   1.996   4.143   4.070
10557SOL    HW232571   2.146   4.102   4.019
10558SOL     OW32572   2.464   5.396   5.042
10558SOL    HW132573   2.466   5.334   5.121
10558SOL    HW232574   2.377   5.386   4.994
10559SOL     OW32575   4.249   6.872   6.464
10559SOL    HW132576   4.165   6.836   6.423
10559SOL    HW232577   4.328   6.846   6.407
10560SOL     OW32578   5.576   6.787   1.784
10560SOL    HW132579   5.520   6.713   1.746
10560SOL    HW232580   5.647   6.749   1.842
10561SOL     OW32581   5.762   4.305   0.259
10561SOL    HW132582   5.702   4.282   0.182
10561SOL    HW232583   5.716   4.370   0.319
10562SOL     OW32584   4.101   6.090   2.546
10562SOL    HW132585   4.041   6.016   2.517
10562SOL    HW232586   4.187   6.053   2.582
10563SOL     OW32587   0.608   0.304   1.231
10563SOL    HW132588   0.535   0.303   1.299
10563SOL    HW232589   0.690   0.259   1.268
10564SOL     OW32590   5.738   5.575   4.109
10564SOL    HW132591   5.659   5.543   4.162
10564SOL    HW232592   5.747   5.520   4.027
10565SOL     OW32593   0.563   6.445   5.447
10565SOL    HW132594   0.490   6.512   5.457
10565SOL    HW232595   0.650   6.486   5.473
10566SOL     OW32596   2.374   3.285   0.231
10566SOL    HW132597   2.375   3.372   0.280
10566SOL    HW232598   2.441   3.288   0.157
10567SOL     OW32599   0.830   2.459   6.485
10567SOL    HW132600   0.794   2.507   6.565
10567SOL    HW232601   0.917   2.417   6.508
10568SOL     OW32602   5.044   2.347   5.660
10568SOL    HW132603   4.949   2.379   5.661
10568SOL    HW232604   5.102   2.413   5.706
10569SOL     OW32605   5.584   6.857   0.777
10569SOL    HW132606   5.578   6.884   0.681
10569SOL    HW232607   5.541   6.927   0.834
10570SOL     OW32608   1.153   4.692   3.676
10570SOL    HW132609   1.055   4.682   3.661
10570SOL    HW232610   1.175   4.788   3.691
10571SOL     OW32611   6.952   4.473   5.617
10571SOL    HW132612   6.983   4.378   5.619
10571SOL    HW232613   0.007   4.530   5.579
10572SOL     OW32614   6.099   4.502   0.779
10572SOL    HW132615   6.192   4.517   0.814
10572SOL    HW232616   6.042   4.464   0.852
10573SOL     OW32617   5.428   1.012   3.522
10573SOL    HW132618   5.476   0.961   3.451
10573SOL    HW232619   5.494   1.051   3.586
10574SOL     OW32620   6.561   2.286   3.703
10574SOL    HW132621   6.500   2.357   3.736
10574SOL    HW232622   6.626   2.325   3.639
10575SOL     OW32623   6.573   0.163   1.235
10575SOL    HW132624   6.600   0.207   1.321
10575SOL    HW232625   6.491   0.107   1.251
10576SOL     OW32626   1.973   4.599   4.113
10576SOL    HW132627   2.052   4.656   4.096
10576SOL    HW232628   1.927   4.578   4.026
10577SOL     OW32629   3.939   5.820   0.634
10577SOL    HW132630   3.929   5.912   0.596
10577SOL    HW232631   4.032   5.788   0.620
10578SOL     OW32632   6.834   3.592   4.188
10578SOL    HW132633   6.742   3.602   4.226
10578SOL    HW232634   6.828   3.562   4.093
10579SOL     OW32635   1.621   3.412   0.206
10579SOL    HW132636   1.626   3.312   0.208
10579SOL    HW232637   1.713   3.450   0.194
10580SOL     OW32638   6.751   6.569   6.792
10580SOL    HW132639   6.708   6.573   6.702
10580SOL    HW232640   6.712   6.641   6.851
10581SOL     OW32641   5.477   6.737   2.735
10581SOL    HW132642   5.422   6.769   2.658
10581SOL    HW232643   5.567   6.708   2.703
10582SOL     OW32644   5.523   4.439   6.413
10582SOL    HW132645   5.480   4.521   6.452
10582SOL    HW232646   5.535   4.452   6.315
10583SOL     OW32647   3.058   1.195   5.452
10583SOL    HW132648   3.117   1.274   5.439
10583SOL    HW232649   3.079   1.126   5.383
10584SOL     OW32650   0.853   0.259   5.089
10584SOL    HW132651   0.889   0.273   4.996
10584SOL    HW232652   0.926   0.224   5.147
10585SOL     OW32653   0.601   6.770   4.870
10585SOL    HW132654   0.574   6.676   4.891
10585SOL    HW232655   0.521   6.821   4.838
10586SOL     OW32656   3.986   4.316   5.316
10586SOL    HW132657   3.925   4.268   5.251
10586SOL    HW232658   4.066   4.349   5.267
10587SOL     OW32659   2.196   6.190   5.181
10587SOL    HW132660   2.219   6.099   5.148
10587SOL    HW232661   2.126   6.230   5.121
10588SOL     OW32662   0.837   3.814   4.465
10588SOL    HW132663   0.742   3.815   4.434
10588SOL    HW232664   0.888   3.743   4.417
10589SOL     OW32665   5.216   5.653   3.963
10589SOL    HW132666   5.134   5.598   3.949
10589SOL    HW232667   5.192   5.750   3.965
10590SOL     OW32668   0.697   5.625   2.852
10590SOL    HW132669   0.784   5.602   2.895
10590SOL    HW232670   0.673   5.720   2.873
10591SOL     OW32671   0.284   2.508   1.852
10591SOL    HW132672   0.350   2.467   1.914
10591SOL    HW232673   0.193   2.505   1.892
10592SOL     OW32674   6.131   2.534   5.053
10592SOL    HW132675   6.161   2.551   4.959
10592SOL    HW232676   6.200   2.478   5.100
10593SOL     OW32677   3.539   5.591   2.930
10593SOL    HW132678   3.557   5.640   2.844
10593SOL    HW232679   3.517   5.496   2.911
10594SOL     OW32680   2.820   0.045   3.846
10594SOL    HW132681   2.740   0.036   3.787
10594SOL    HW232682   2.869   6.976   3.850
10595SOL     OW32683   6.212   6.596   0.366
10595SOL    HW132684   6.115   6.616   0.381
10595SOL    HW232685   6.251   6.559   0.450
10596SOL     OW32686   5.128   2.759   6.940
10596SOL    HW132687   5.113   2.661   6.938
10596SOL    HW232688   5.167   2.788   6.852
10597SOL     OW32689   2.174   0.938   5.954
10597SOL    HW132690   2.127   0.850   5.951
10597SOL    HW232691   2.163   0.985   5.866
10598SOL     OW32692   2.342   2.135   6.406
10598SOL    HW132693   2.285   2.071   6.353
10598SOL    HW232694   2.310   2.228   6.390
10599SOL     OW32695   6.491   2.644   6.400
10599SOL    HW132696   6.427   2.682   6.467
10599SOL    HW232697   6.581   2.686   6.412
10600SOL     OW32698   2.763   1.749   0.848
10600SOL    HW132699   2.709   1.766   0.765
10600SOL    HW232700   2.799   1.836   0.882
10601SOL     OW32701   0.844   6.397   5.826
10601SOL    HW132702   0.868   6.487   5.791
10601SOL    HW232703   0.811   6.406   5.920
10602SOL     OW32704   0.058   0.562   0.985
10602SOL    HW132705   0.067   0.571   0.886
10602SOL    HW232706   0.141   0.594   1.030
10603SOL     OW32707   4.947   6.793   2.356
10603SOL    HW132708   4.996   6.793   2.443
10603SOL    HW232709   4.851   6.816   2.372
10604SOL     OW32710   5.965   6.892   4.469
10604SOL    HW132711   6.038   6.898   4.402
10604SOL    HW232712   5.879   6.921   4.428
10605SOL     OW32713   2.316   2.342   1.390
10605SOL    HW132714   2.300   2.282   1.469
10605SOL    HW232715   2.304   2.437   1.419
10606SOL     OW32716   6.330   0.279   0.932
10606SOL    HW132717   6.397   0.334   0.883
10606SOL    HW232718   6.267   0.339   0.982
10607SOL     OW32719   3.518   4.264   6.702
10607SOL    HW132720   3.443   4.247   6.765
10607SOL    HW232721   3.554   4.176   6.670
10608SOL     OW32722   5.641   3.431   3.252
10608SOL    HW132723   5.694   3.389   3.178
10608SOL    HW232724   5.566   3.485   3.213
10609SOL     OW32725   4.215   1.715   6.742
10609SOL    HW132726   4.224   1.646   6.814
10609SOL    HW232727   4.165   1.794   6.777
10610SOL     OW32728   0.621   0.529   3.903
10610SOL    HW132729   0.570   0.615   3.899
10610SOL    HW232730   0.648   0.511   3.998
10611SOL     OW32731   3.509   5.316   4.608
10611SOL    HW132732   3.511   5.411   4.641
10611SOL    HW232733   3.587   5.266   4.645
10612SOL     OW32734   5.514   1.509   3.509
10612SOL    HW132735   5.608   1.476   3.500
10612SOL    HW232736   5.474   1.520   3.418
10613SOL     OW32737   5.551   0.301   4.374
10613SOL    HW132738   5.625   0.366   4.390
10613SOL    HW232739   5.519   0.264   4.461
10614SOL     OW32740   4.404   0.731   6.194
10614SOL    HW132741   4.371   0.655   6.250
10614SOL    HW232742   4.494   0.708   6.156
10615SOL     OW32743   1.335   1.678   6.284
10615SOL    HW132744   1.334   1.646   6.190
10615SOL    HW232745   1.312   1.775   6.286
10616SOL     OW32746   2.898   6.736   6.885
10616SOL    HW132747   2.830   6.747   6.813
10616SOL    HW232748   2.965   6.667   6.857
10617SOL     OW32749   2.534   3.367   1.711
10617SOL    HW132750   2.462   3.379   1.779
10617SOL    HW232751   2.566   3.272   1.712
10618SOL     OW32752   0.763   4.897   4.972
10618SOL    HW132753   0.747   4.937   4.882
10618SOL    HW232754   0.762   4.797   4.964
10619SOL     OW32755   1.285   2.276   3.159
10619SOL    HW132756   1.214   2.327   3.110
10619SOL    HW232757   1.307   2.193   3.108
10620SOL     OW32758   2.725   1.071   6.580
10620SOL    HW132759   2.804   1.057   6.640
10620SOL    HW232760   2.734   1.013   6.500
10621SOL     OW32761   0.596   3.452   3.313
10621SOL    HW132762   0.514   3.400   3.292
10621SOL    HW232763   0.677   3.394   3.299
10622SOL     OW32764   4.676   2.916   0.240
10622SOL    HW132765   4.707   2.999   0.194
10622SOL    HW232766   4.619   2.862   0.178
10623SOL     OW32767   5.321   5.940   6.100
10623SOL    HW132768   5.352   5.885   6.023
10623SOL    HW232769   5.287   5.880   6.172
10624SOL     OW32770   0.257   2.681   5.472
10624SOL    HW132771   0.264   2.762   5.413
10624SOL    HW232772   0.162   2.651   5.477
10625SOL     OW32773   6.187   4.613   6.719
10625SOL    HW132774   6.217   4.708   6.726
10625SOL    HW232775   6.094   4.609   6.682
10626SOL     OW32776   4.798   3.338   1.314
10626SOL    HW132777   4.873   3.278   1.343
10626SOL    HW232778   4.740   3.358   1.393
10627SOL     OW32779   5.924   5.865   5.715
10627SOL    HW132780   5.825   5.876   5.701
10627SOL    HW232781   5.941   5.797   5.785
10628SOL     OW32782   4.196   6.810   1.453
10628SOL    HW132783   4.269   6.805   1.522
10628SOL    HW232784   4.230   6.856   1.372
10629SOL     OW32785   2.459   5.500   4.015
10629SOL    HW132786   2.433   5.413   3.974
10629SOL    HW232787   2.539   5.486   4.073
10630SOL     OW32788   3.866   0.573   2.300
10630SOL    HW132789   3.800   0.522   2.356
10630SOL    HW232790   3.841   0.669   2.297
10631SOL     OW32791   4.323   6.173   6.632
10631SOL    HW132792   4.391   6.101   6.615
10631SOL    HW232793   4.257   6.142   6.700
10632SOL     OW32794   3.935   5.936   3.400
10632SOL    HW132795   4.004   5.959   3.331
10632SOL    HW232796   3.911   6.017   3.453
10633SOL     OW32797   1.834   2.948   1.711
10633SOL    HW132798   1.859   2.857   1.679
10633SOL    HW232799   1.736   2.962   1.698
10634SOL     OW32800   0.034   3.888   6.691
10634SOL    HW132801   6.990   3.828   6.742
10634SOL    HW232802   0.043   3.856   6.597
10635SOL     OW32803   2.250   4.165   6.084
10635SOL    HW132804   2.317   4.237   6.067
10635SOL    HW232805   2.291   4.076   6.063
10636SOL     OW32806   6.749   2.244   6.108
10636SOL    HW132807   6.706   2.250   6.199
10636SOL    HW232808   6.848   2.254   6.117
10637SOL     OW32809   2.946   0.777   0.093
10637SOL    HW132810   2.908   0.687   0.073
10637SOL    HW232811   2.872   0.839   0.119
10638SOL     OW32812   0.116   5.498   1.650
10638SOL    HW132813   0.119   5.595   1.623
10638SOL    HW232814   0.096   5.491   1.748
10639SOL     OW32815   2.077   4.611   1.011
10639SOL    HW132816   2.124   4.694   1.041
10639SOL    HW232817   1.983   4.632   0.988
10640SOL     OW32818   3.951   6.802   3.613
10640SOL    HW132819   3.970   6.728   3.547
10640SOL    HW232820   3.872   6.855   3.581
10641SOL     OW32821   1.697   0.866   3.285
10641SOL    HW132822   1.686   0.939   3.353
10641SOL    HW232823   1.620   0.802   3.292
10642SOL     OW32824   5.626   2.227   6.617
10642SOL    HW132825   5.683   2.209   6.537
10642SOL    HW232826   5.655   2.312   6.660
10643SOL     OW32827   1.742   5.006   5.640
10643SOL    HW132828   1.827   5.007   5.586
10643SOL    HW232829   1.678   5.073   5.603
10644SOL     OW32830   0.142   2.518   3.138
10644SOL    HW132831   0.195   2.438   3.167
10644SOL    HW232832   0.050   2.489   3.113
10645SOL     OW32833   2.568   2.546   3.694
10645SOL    HW132834   2.612   2.540   3.784
10645SOL    HW232835   2.482   2.494   3.695
10646SOL     OW32836   5.161   0.815   4.302
10646SOL    HW132837   5.196   0.860   4.384
10646SOL    HW232838   5.141   0.719   4.323
10647SOL     OW32839   4.032   5.024   4.699
10647SOL    HW132840   4.054   4.927   4.707
10647SOL    HW232841   4.081   5.064   4.622
10648SOL     OW32842   5.156   5.666   5.223
10648SOL    HW132843   5.159   5.639   5.319
10648SOL    HW232844   5.068   5.640   5.184
10649SOL     OW32845   6.854   3.592   2.800
10649SOL    HW132846   6.868   3.624   2.894
10649SOL    HW232847   6.793   3.655   2.752
10650SOL     OW32848   0.411   0.516   4.397
10650SOL    HW132849   0.367   0.479   4.315
10650SOL    HW232850   0.359   0.595   4.430
10651SOL     OW32851   3.448   6.158   5.798
10651SOL    HW132852   3.456   6.064   5.765
10651SOL    HW232853   3.351   6.183   5.803
10652SOL     OW32854   2.005   6.858   6.978
10652SOL    HW132855   2.057   6.941   6.961
10652SOL    HW232856   1.910   6.882   6.997
10653SOL     OW32857   4.303   6.393   4.714
10653SOL    HW132858   4.260   6.397   4.624
10653SOL    HW232859   4.402   6.381   4.703
10654SOL     OW32860   5.962   1.952   4.499
10654SOL    HW132861   5.919   2.026   4.447
10654SOL    HW232862   5.892   1.904   4.553
10655SOL     OW32863   0.823   4.456   1.259
10655SOL    HW132864   0.792   4.516   1.333
10655SOL    HW232865   0.775   4.480   1.175
10656SOL     OW32866   6.130   0.965   2.013
10656SOL    HW132867   6.075   0.896   2.060
10656SOL    HW232868   6.224   0.932   2.003
10657SOL     OW32869   6.048   0.344   3.424
10657SOL    HW132870   6.134   0.331   3.473
10657SOL    HW232871   5.973   0.307   3.480
10658SOL     OW32872   0.068   3.222   5.318
10658SOL    HW132873   0.157   3.232   5.363
10658SOL    HW232874   0.059   3.289   5.245
10659SOL     OW32875   1.237   5.044   0.800
10659SOL    HW132876   1.151   5.073   0.757
10659SOL    HW232877   1.241   5.080   0.893
10660SOL     OW32878   6.591   3.673   5.681
10660SOL    HW132879   6.560   3.648   5.772
10660SOL    HW232880   6.530   3.743   5.643
10661SOL     OW32881   2.011   3.942   6.301
10661SOL    HW132882   1.937   4.001   6.332
10661SOL    HW232883   2.073   3.923   6.377
10662SOL     OW32884   2.987   1.395   3.065
10662SOL    HW132885   2.891   1.425   3.058
10662SOL    HW232886   3.044   1.454   3.008
10663SOL     OW32887   1.860   1.794   4.280
10663SOL    HW132888   1.886   1.860   4.349
10663SOL    HW232889   1.860   1.838   4.190
10664SOL     OW32890   1.295   5.468   4.630
10664SOL    HW132891   1.268   5.547   4.685
10664SOL    HW232892   1.271   5.484   4.534
10665SOL     OW32893   2.286   2.579   6.206
10665SOL    HW132894   2.300   2.488   6.244
10665SOL    HW232895   2.291   2.575   6.106
10666SOL     OW32896   3.775   3.726   2.163
10666SOL    HW132897   3.695   3.763   2.116
10666SOL    HW232898   3.825   3.800   2.208
10667SOL     OW32899   5.651   2.372   3.185
10667SOL    HW132900   5.560   2.355   3.147
10667SOL    HW232901   5.657   2.332   3.277
10668SOL     OW32902   3.471   2.250   5.328
10668SOL    HW132903   3.469   2.196   5.412
10668SOL    HW232904   3.389   2.307   5.323
10669SOL     OW32905   5.424   1.510   1.139
10669SOL    HW132906   5.440   1.491   1.043
10669SOL    HW232907   5.508   1.544   1.181
10670SOL     OW32908   5.152   3.693   4.453
10670SOL    HW132909   5.208   3.615   4.427
10670SOL    HW232910   5.185   3.730   4.540
10671SOL     OW32911   1.372   1.880   4.420
10671SOL    HW132912   1.425   1.963   4.436
10671SOL    HW232913   1.422   1.801   4.456
10672SOL     OW32914   5.351   3.760   1.634
10672SOL    HW132915   5.255   3.780   1.617
10672SOL    HW232916   5.407   3.839   1.610
10673SOL     OW32917   2.039   1.225   1.111
10673SOL    HW132918   2.093   1.172   1.045
10673SOL    HW232919   1.942   1.221   1.086
10674SOL     OW32920   3.384   3.721   4.848
10674SOL    HW132921   3.385   3.744   4.750
10674SOL    HW232922   3.387   3.806   4.902
10675SOL     OW32923   3.552   6.805   5.704
10675SOL    HW132924   3.542   6.897   5.666
10675SOL    HW232925   3.625   6.805   5.772
10676SOL     OW32926   1.427   6.167   5.294
10676SOL    HW132927   1.468   6.189   5.205
10676SOL    HW232928   1.500   6.152   5.361
10677SOL     OW32929   1.013   1.884   0.866
10677SOL    HW132930   0.981   1.960   0.923
10677SOL    HW232931   0.953   1.873   0.787
10678SOL     OW32932   4.195   5.508   3.890
10678SOL    HW132933   4.253   5.587   3.911
10678SOL    HW232934   4.184   5.500   3.791
10679SOL     OW32935   3.895   4.082   6.773
10679SOL    HW132936   3.955   4.063   6.851
10679SOL    HW232937   3.937   4.046   6.690
10680SOL     OW32938   3.905   1.630   4.184
10680SOL    HW132939   3.903   1.582   4.272
10680SOL    HW232940   3.812   1.660   4.161
10681SOL     OW32941   6.736   2.799   6.694
10681SOL    HW132942   6.815   2.857   6.718
10681SOL    HW232943   6.738   2.779   6.597
10682SOL     OW32944   6.053   3.320   5.840
10682SOL    HW132945   6.037   3.238   5.784
10682SOL    HW232946   6.041   3.297   5.936
10683SOL     OW32947   3.984   0.610   3.754
10683SOL    HW132948   3.941   0.521   3.744
10683SOL    HW232949   3.918   0.682   3.732
10684SOL     OW32950   4.603   4.630   1.233
10684SOL    HW132951   4.561   4.715   1.265
10684SOL    HW232952   4.582   4.556   1.297
10685SOL     OW32953   0.975   5.637   1.729
10685SOL    HW132954   0.928   5.582   1.798
10685SOL    HW232955   1.053   5.585   1.693
10686SOL     OW32956   2.010   3.920   0.395
10686SOL    HW132957   1.970   3.942   0.484
10686SOL    HW232958   2.109   3.907   0.406
10687SOL     OW32959   6.917   4.953   2.799
10687SOL    HW132960   6.916   5.012   2.879
10687SOL    HW232961   7.004   4.964   2.750
10688SOL     OW32962   5.459   1.504   2.451
10688SOL    HW132963   5.373   1.549   2.476
10688SOL    HW232964   5.449   1.463   2.360
10689SOL     OW32965   6.802   7.002   2.439
10689SOL    HW132966   6.853   7.011   2.525
10689SOL    HW232967   6.861   0.013   2.363
10690SOL     OW32968   6.535   6.082   3.511
10690SOL    HW132969   6.447   6.061   3.468
10690SOL    HW232970   6.585   6.148   3.455
10691SOL     OW32971   3.287   1.722   2.413
10691SOL    HW132972   3.187   1.711   2.412
10691SOL    HW232973   3.310   1.818   2.396
10692SOL     OW32974   2.629   0.984   5.209
10692SOL    HW132975   2.720   1.013   5.241
10692SOL    HW232976   2.590   0.919   5.274
10693SOL     OW32977   1.527   6.128   1.033
10693SOL    HW132978   1.540   6.190   0.956
10693SOL    HW232979   1.432   6.096   1.035
10694SOL     OW32980   4.768   6.079   5.929
10694SOL    HW132981   4.725   6.039   6.010
10694SOL    HW232982   4.829   6.011   5.887
10695SOL     OW32983   0.640   3.163   1.383
10695SOL    HW132984   0.563   3.127   1.435
10695SOL    HW232985   0.617   3.166   1.286
10696SOL     OW32986   6.355   4.504   4.644
10696SOL    HW132987   6.318   4.594   4.620
10696SOL    HW232988   6.445   4.494   4.601
10697SOL     OW32989   0.902   5.637   4.945
10697SOL    HW132990   0.918   5.591   5.032
10697SOL    HW232991   0.959   5.595   4.874
10698SOL     OW32992   4.737   4.410   6.823
10698SOL    HW132993   4.758   4.379   6.916
10698SOL    HW232994   4.651   4.369   6.793
10699SOL     OW32995   3.409   4.382   0.964
10699SOL    HW132996   3.407   4.370   1.063
10699SOL    HW232997   3.408   4.293   0.919
10700SOL     OW32998   5.555   6.743   0.509
10700SOL    HW132999   5.543   6.770   0.413
10700SOL    HW233000   5.639   6.690   0.519
10701SOL     OW33001   2.639   0.096   6.010
10701SOL    HW133002   2.701   0.143   6.073
10701SOL    HW233003   2.547   0.135   6.017
10702SOL     OW33004   4.936   3.424   2.852
10702SOL    HW133005   4.925   3.466   2.942
10702SOL    HW233006   4.925   3.325   2.860
10703SOL     OW33007   2.219   2.260   5.742
10703SOL    HW133008   2.185   2.354   5.737
10703SOL    HW233009   2.263   2.245   5.831
10704SOL     OW33010   0.334   5.597   2.576
10704SOL    HW133011   0.284   5.517   2.542
10704SOL    HW233012   0.304   5.617   2.669
10705SOL     OW33013   5.673   5.067   0.856
10705SOL    HW133014   5.639   5.001   0.923
10705SOL    HW233015   5.618   5.151   0.861
10706SOL     OW33016   4.697   0.179   2.277
10706SOL    HW133017   4.739   0.263   2.310
10706SOL    HW233018   4.767   0.109   2.265
10707SOL     OW33019   6.216   0.033   4.710
10707SOL    HW133020   6.261   6.969   4.675
10707SOL    HW233021   6.180   0.086   4.633
10708SOL     OW33022   4.787   2.045   2.823
10708SOL    HW133023   4.728   2.122   2.846
10708SOL    HW233024   4.731   1.965   2.801
10709SOL     OW33025   5.715   5.893   3.750
10709SOL    HW133026   5.686   5.818   3.690
10709SOL    HW233027   5.663   5.975   3.727
10710SOL     OW33028   5.343   0.677   3.196
10710SOL    HW133029   5.441   0.671   3.179
10710SOL    HW233030   5.299   0.724   3.120
10711SOL     OW33031   3.160   6.434   3.568
10711SOL    HW133032   3.163   6.334   3.570
10711SOL    HW233033   3.156   6.468   3.662
10712SOL     OW33034   4.193   0.664   2.494
10712SOL    HW133035   4.126   0.661   2.420
10712SOL    HW233036   4.228   0.757   2.504
10713SOL     OW33037   1.276   3.013   0.652
10713SOL    HW133038   1.263   2.941   0.584
10713SOL    HW233039   1.336   3.084   0.615
10714SOL     OW33040   4.190   3.252   5.197
10714SOL    HW133041   4.149   3.200   5.272
10714SOL    HW233042   4.142   3.340   5.187
10715SOL     OW33043   5.109   0.404   2.295
10715SOL    HW133044   5.200   0.391   2.335
10715SOL    HW233045   5.040   0.386   2.365
10716SOL     OW33046   6.364   2.483   3.733
10716SOL    HW133047   6.305   2.513   3.807
10716SOL    HW233048   6.384   2.560   3.673
10717SOL     OW33049   1.670   2.811   0.465
10717SOL    HW133050   1.674   2.864   0.550
10717SOL    HW233051   1.716   2.862   0.392
10718SOL     OW33052   0.980   4.476   6.525
10718SOL    HW133053   1.074   4.499   6.501
10718SOL    HW233054   0.973   4.463   6.624
10719SOL     OW33055   6.278   5.979   3.446
10719SOL    HW133056   6.216   5.900   3.450
10719SOL    HW233057   6.227   6.059   3.414
10720SOL     OW33058   5.712   5.244   4.296
10720SOL    HW133059   5.655   5.326   4.285
10720SOL    HW233060   5.687   5.198   4.381
10721SOL     OW33061   4.925   3.881   5.416
10721SOL    HW133062   4.849   3.826   5.380
10721SOL    HW233063   4.902   3.978   5.411
10722SOL     OW33064   6.073   3.502   6.857
10722SOL    HW133065   6.007   3.499   6.933
10722SOL    HW233066   6.036   3.559   6.784
10723SOL     OW33067   0.073   1.677   6.877
10723SOL    HW133068   0.147   1.610   6.882
10723SOL    HW233069   0.111   1.769   6.885
10724SOL     OW33070   0.503   6.850   6.655
10724SOL    HW133071   0.489   6.947   6.637
10724SOL    HW233072   0.584   6.818   6.606
10725SOL     OW33073   2.222   5.795   5.286
10725SOL    HW133074   2.229   5.828   5.192
10725SOL    HW233075   2.238   5.696   5.287
10726SOL     OW33076   4.739   0.731   4.036
10726SOL    HW133077   4.799   0.654   4.059
10726SOL    HW233078   4.712   0.779   4.120
10727SOL     OW33079   0.822   4.777   6.105
10727SOL    HW133080   0.916   4.810   6.105
10727SOL    HW233081   0.784   4.781   6.013
10728SOL     OW33082   0.338   5.187   0.131
10728SOL    HW133083   0.304   5.232   0.214
10728SOL    HW233084   0.434   5.162   0.143
10729SOL     OW33085   6.054   2.206   1.906
10729SOL    HW133086   6.036   2.148   1.827
10729SOL    HW233087   6.029   2.157   1.990
10730SOL     OW33088   3.442   0.036   1.079
10730SOL    HW133089   3.463   0.090   0.998
10730SOL    HW233090   3.436   6.957   1.054
10731SOL     OW33091   3.669   0.838   1.270
10731SOL    HW133092   3.705   0.802   1.356
10731SOL    HW233093   3.695   0.934   1.260
10732SOL     OW33094   0.396   4.478   5.314
10732SOL    HW133095   0.461   4.525   5.254
10732SOL    HW233096   0.384   4.531   5.398
10733SOL     OW33097   5.956   1.154   6.474
10733SOL    HW133098   5.954   1.251   6.448
10733SOL    HW233099   5.868   1.112   6.452
10734SOL     OW33100   1.332   1.842   1.625
10734SOL    HW133101   1.415   1.880   1.586
10734SOL    HW233102   1.252   1.877   1.574
10735SOL     OW33103   0.411   2.641   2.447
10735SOL    HW133104   0.347   2.718   2.441
10735SOL    HW233105   0.401   2.596   2.535
10736SOL     OW33106   1.919   0.497   3.506
10736SOL    HW133107   1.963   0.517   3.418
10736SOL    HW233108   1.918   0.398   3.520
10737SOL     OW33109   0.854   2.013   1.365
10737SOL    HW133110   0.901   1.925   1.370
10737SOL    HW233111   0.768   2.008   1.415
10738SOL     OW33112   3.422   5.769   3.086
10738SOL    HW133113   3.475   5.684   3.077
10738SOL    HW233114   3.458   5.823   3.162
10739SOL     OW33115   1.458   2.457   1.491
10739SOL    HW133116   1.514   2.441   1.572
10739SOL    HW233117   1.362   2.464   1.517
10740SOL     OW33118   6.529   4.554   5.697
10740SOL    HW133119   6.559   4.628   5.757
10740SOL    HW233120   6.471   4.491   5.747
10741SOL     OW33121   4.453   1.686   1.280
10741SOL    HW133122   4.398   1.663   1.360
10741SOL    HW233123   4.397   1.736   1.214
10742SOL     OW33124   6.302   6.289   1.187
10742SOL    HW133125   6.325   6.266   1.281
10742SOL    HW233126   6.366   6.359   1.153
10743SOL     OW33127   1.553   1.519   4.808
10743SOL    HW133128   1.517   1.453   4.742
10743SOL    HW233129   1.498   1.517   4.891
10744SOL     OW33130   3.528   1.738   0.603
10744SOL    HW133131   3.493   1.745   0.510
10744SOL    HW233132   3.602   1.803   0.616
10745SOL     OW33133   0.162   5.428   5.460
10745SOL    HW133134   0.130   5.371   5.536
10745SOL    HW233135   0.121   5.396   5.375
10746SOL     OW33136   0.963   3.566   6.809
10746SOL    HW133137   0.903   3.593   6.884
10746SOL    HW233138   1.008   3.479   6.831
10747SOL     OW33139   2.848   0.960   4.877
10747SOL    HW133140   2.865   1.039   4.935
10747SOL    HW233141   2.755   0.964   4.841
10748SOL     OW33142   5.307   1.090   2.274
10748SOL    HW133143   5.297   1.056   2.180
10748SOL    HW233144   5.217   1.116   2.310
10749SOL     OW33145   1.052   6.107   5.337
10749SOL    HW133146   1.014   6.021   5.370
10749SOL    HW233147   1.128   6.090   5.275
10750SOL     OW33148   4.264   6.927   5.099
10750SOL    HW133149   4.272   6.828   5.088
10750SOL    HW233150   4.336   6.960   5.160
10751SOL     OW33151   2.015   4.603   4.609
10751SOL    HW133152   2.078   4.613   4.686
10751SOL    HW233153   2.060   4.550   4.536
10752SOL     OW33154   6.243   4.521   5.551
10752SOL    HW133155   6.321   4.518   5.489
10752SOL    HW233156   6.205   4.429   5.561
10753SOL     OW33157   0.203   4.246   3.908
10753SOL    HW133158   0.232   4.168   3.853
10753SOL    HW233159   0.221   4.227   4.004
10754SOL     OW33160   1.641   0.246   2.903
10754SOL    HW133161   1.648   0.346   2.900
10754SOL    HW233162   1.558   0.216   2.857
10755SOL     OW33163   6.870   6.977   1.559
10755SOL    HW133164   6.910   6.888   1.535
10755SOL    HW233165   6.909   0.030   1.502
10756SOL     OW33166   6.512   5.233   5.505
10756SOL    HW133167   6.434   5.294   5.517
10756SOL    HW233168   6.481   5.138   5.509
10757SOL     OW33169   2.575   2.582   6.463
10757SOL    HW133170   2.670   2.573   6.493
10757SOL    HW233171   2.571   2.636   6.380
10758SOL     OW33172   0.866   6.101   3.493
10758SOL    HW133173   0.811   6.051   3.560
10758SOL    HW233174   0.963   6.086   3.513
10759SOL     OW33175   1.465   3.196   0.562
10759SOL    HW133176   1.453   3.216   0.465
10759SOL    HW233177   1.530   3.261   0.601
10760SOL     OW33178   5.845   0.914   2.979
10760SOL    HW133179   5.916   0.846   2.966
10760SOL    HW233180   5.886   1.002   3.004
10761SOL     OW33181   1.466   5.511   5.322
10761SOL    HW133182   1.482   5.422   5.365
10761SOL    HW233183   1.479   5.503   5.223
10762SOL     OW33184   3.026   0.430   4.537
10762SOL    HW133185   3.100   0.382   4.489
10762SOL    HW233186   3.004   0.380   4.621
10763SOL     OW33187   4.347   0.192   2.953
10763SOL    HW133188   4.422   0.131   2.925
10763SOL    HW233189   4.330   0.181   3.051
10764SOL     OW33190   4.945   1.912   4.951
10764SOL    HW133191   4.962   1.882   4.858
10764SOL    HW233192   4.997   1.996   4.970
10765SOL     OW33193   5.358   2.735   0.970
10765SOL    HW133194   5.419   2.805   0.934
10765SOL    HW233195   5.275   2.777   1.005
10766SOL     OW33196   3.980   4.785   0.431
10766SOL    HW133197   4.020   4.801   0.341
10766SOL    HW233198   4.053   4.765   0.497
10767SOL     OW33199   2.696   0.564   0.950
10767SOL    HW133200   2.621   0.629   0.946
10767SOL    HW233201   2.663   0.477   0.989
10768SOL     OW33202   5.960   5.116   1.508
10768SOL    HW133203   6.020   5.041   1.538
10768SOL    HW233204   6.015   5.192   1.476
10769SOL     OW33205   1.910   3.492   5.802
10769SOL    HW133206   1.979   3.433   5.760
10769SOL    HW233207   1.833   3.504   5.739
10770SOL     OW33208   5.023   5.960   3.368
10770SOL    HW133209   5.093   6.019   3.327
10770SOL    HW233210   5.009   5.985   3.464
10771SOL     OW33211   4.238   0.224   3.964
10771SOL    HW133212   4.246   0.188   4.057
10771SOL    HW233213   4.251   0.323   3.965
10772SOL     OW33214   6.064   6.278   4.055
10772SOL    HW133215   6.026   6.351   4.112
10772SOL    HW233216   6.116   6.319   3.980
10773SOL     OW33217   5.748   4.543   5.941
10773SOL    HW133218   5.801   4.625   5.964
10773SOL    HW233219   5.751   4.526   5.843
10774SOL     OW33220   1.807   1.329   4.548
10774SOL    HW133221   1.734   1.274   4.589
10774SOL    HW233222   1.867   1.270   4.494
10775SOL     OW33223   0.043   4.312   1.735
10775SOL    HW133224   0.124   4.368   1.754
10775SOL    HW233225   0.010   4.332   1.643
10776SOL     OW33226   0.769   0.690   6.295
10776SOL    HW133227   0.787   0.739   6.381
10776SOL    HW233228   0.821   0.605   6.294
10777SOL     OW33229   3.922   5.223   1.005
10777SOL    HW133230   3.852   5.287   0.972
10777SOL    HW233231   3.989   5.206   0.933
10778SOL     OW33232   4.993   0.262   3.478
10778SOL    HW133233   5.007   0.361   3.477
10778SOL    HW233234   5.068   0.218   3.528
10779SOL     OW33235   5.702   2.744   2.795
10779SOL    HW133236   5.733   2.740   2.890
10779SOL    HW233237   5.682   2.839   2.771
10780SOL     OW33238   0.828   1.018   3.877
10780SOL    HW133239   0.758   1.004   3.947
10780SOL    HW233240   0.883   0.934   3.868
10781SOL     OW33241   4.001   1.087   3.668
10781SOL    HW133242   3.984   1.138   3.584
10781SOL    HW233243   3.947   1.127   3.742
10782SOL     OW33244   6.900   6.913   3.693
10782SOL    HW133245   6.997   6.888   3.695
10782SOL    HW233246   6.868   6.918   3.599
10783SOL     OW33247   6.978   3.110   2.589
10783SOL    HW133248   6.996   3.126   2.492
10783SOL    HW233249   6.962   3.197   2.635
10784SOL     OW33250   3.421   0.831   3.982
10784SOL    HW133251   3.364   0.833   4.064
10784SOL    HW233252   3.367   0.798   3.905
10785SOL     OW33253   1.256   3.817   0.447
10785SOL    HW133254   1.303   3.732   0.427
10785SOL    HW233255   1.177   3.827   0.386
10786SOL     OW33256   6.058   5.840   2.845
10786SOL    HW133257   5.987   5.903   2.877
10786SOL    HW233258   6.047   5.751   2.889
10787SOL     OW33259   0.593   0.329   5.053
10787SOL    HW133260   0.682   0.287   5.036
10787SOL    HW233261   0.606   0.424   5.082
10788SOL     OW33262   0.894   3.448   0.645
10788SOL    HW133263   0.988   3.441   0.613
10788SOL    HW233264   0.890   3.511   0.723
10789SOL     OW33265   6.158   3.062   0.036
10789SOL    HW133266   6.208   3.084   0.120
10789SOL    HW233267   6.200   2.982   7.010
10790SOL     OW33268   0.578   6.405   1.639
10790SOL    HW133269   0.522   6.479   1.602
10790SOL    HW233270   0.645   6.442   1.703
10791SOL     OW33271   6.701   6.229   2.115
10791SOL    HW133272   6.778   6.234   2.052
10791SOL    HW233273   6.656   6.319   2.120
10792SOL     OW33274   3.528   3.236   5.204
10792SOL    HW133275   3.466   3.160   5.225
10792SOL    HW233276   3.622   3.204   5.206
10793SOL     OW33277   6.092   3.522   5.651
10793SOL    HW133278   6.168   3.491   5.595
10793SOL    HW233279   6.076   3.457   5.726
10794SOL     OW33280   3.801   3.735   4.505
10794SOL    HW133281   3.849   3.784   4.578
10794SOL    HW233282   3.865   3.674   4.458
10795SOL     OW33283   0.461   5.174   3.148
10795SOL    HW133284   0.460   5.219   3.059
10795SOL    HW233285   0.550   5.129   3.161
10796SOL     OW33286   6.496   6.399   5.688
10796SOL    HW133287   6.558   6.330   5.726
10796SOL    HW233288   6.537   6.439   5.606
10797SOL     OW33289   3.752   3.005   0.801
10797SOL    HW133290   3.719   3.089   0.844
10797SOL    HW233291   3.698   2.927   0.833
10798SOL     OW33292   2.058   1.812   0.308
10798SOL    HW133293   2.154   1.808   0.337
10798SOL    HW233294   2.011   1.885   0.357
10799SOL     OW33295   4.288   0.366   2.749
10799SOL    HW133296   4.313   0.314   2.831
10799SOL    HW233297   4.202   0.415   2.766
10800SOL     OW33298   1.037   6.093   0.037
10800SOL    HW133299   1.004   6.154   6.984
10800SOL    HW233300   1.071   6.146   0.115
10801SOL     OW33301   1.597   7.009   0.740
10801SOL    HW133302   1.510   6.975   0.706
10801SOL    HW233303   1.592   0.090   0.751
10802SOL     OW33304   0.256   6.414   2.627
10802SOL    HW133305   0.291   6.435   2.718
10802SOL    HW233306   0.193   6.486   2.598
10803SOL     OW33307   1.691   5.936   6.039
10803SOL    HW133308   1.656   5.849   6.004
10803SOL    HW233309   1.621   6.006   6.027
10804SOL     OW33310   0.141   2.836   3.242
10804SOL    HW133311   0.239   2.828   3.223
10804SOL    HW233312   0.126   2.835   3.341
10805SOL     OW33313   5.929   1.346   4.880
10805SOL    HW133314   5.889   1.372   4.793
10805SOL    HW233315   5.985   1.264   4.868
10806SOL     OW33316   3.097   5.275   6.662
10806SOL    HW133317   3.031   5.207   6.631
10806SOL    HW233318   3.050   5.344   6.717
10807SOL     OW33319   1.535   5.664   4.159
10807SOL    HW133320   1.446   5.708   4.173
10807SOL    HW233321   1.608   5.732   4.167
10808SOL     OW33322   0.250   2.915   5.985
10808SOL    HW133323   0.277   2.862   5.905
10808SOL    HW233324   0.185   2.861   6.040
10809SOL     OW33325   1.774   4.057   4.202
10809SOL    HW133326   1.840   4.131   4.197
10809SOL    HW233327   1.799   3.995   4.276
10810SOL     OW33328   6.494   0.131   3.644
10810SOL    HW133329   6.466   0.046   3.600
10810SOL    HW233330   6.550   0.185   3.581
10811SOL     OW33331   4.867   5.145   4.472
10811SOL    HW133332   4.861   5.206   4.551
10811SOL    HW233333   4.898   5.055   4.502
10812SOL     OW33334   6.765   3.254   6.780
10812SOL    HW133335   6.699   3.210   6.719
10812SOL    HW233336   6.807   3.331   6.732
10813SOL     OW33337   0.277   3.568   6.389
10813SOL    HW133338   0.244   3.587   6.296
10813SOL    HW233339   0.326   3.481   6.389
10814SOL     OW33340   2.551   0.145   0.880
10814SOL    HW133341   2.524   0.183   0.792
10814SOL    HW233342   2.492   0.068   0.903
10815SOL     OW33343   5.303   1.683   3.234
10815SOL    HW133344   5.378   1.617   3.222
10815SOL    HW233345   5.217   1.642   3.204
10816SOL     OW33346   3.355   2.862   3.095
10816SOL    HW133347   3.362   2.879   3.194
10816SOL    HW233348   3.431   2.804   3.066
10817SOL     OW33349   3.424   0.468   3.389
10817SOL    HW133350   3.458   0.500   3.478
10817SOL    HW233351   3.495   0.414   3.344
10818SOL     OW33352   4.252   5.335   5.756
10818SOL    HW133353   4.194   5.385   5.820
10818SOL    HW233354   4.204   5.323   5.669
10819SOL     OW33355   6.368   5.363   6.120
10819SOL    HW133356   6.348   5.283   6.176
10819SOL    HW233357   6.466   5.385   6.126
10820SOL     OW33358   0.438   5.697   5.147
10820SOL    HW133359   0.497   5.638   5.201
10820SOL    HW233360   0.435   5.664   5.052
10821SOL     OW33361   4.515   5.091   2.956
10821SOL    HW133362   4.463   5.160   2.907
10821SOL    HW233363   4.583   5.135   3.014
10822SOL     OW33364   5.484   2.713   1.432
10822SOL    HW133365   5.445   2.755   1.349
10822SOL    HW233366   5.578   2.744   1.443
10823SOL     OW33367   0.511   0.146   2.983
10823SOL    HW133368   0.492   0.066   3.041
10823SOL    HW233369   0.441   0.216   2.998
10824SOL     OW33370   0.921   1.040   3.589
10824SOL    HW133371   0.985   1.117   3.595
10824SOL    HW233372   0.881   1.023   3.679
10825SOL     OW33373   1.308   2.268   1.013
10825SOL    HW133374   1.270   2.352   0.974
10825SOL    HW233375   1.353   2.288   1.100
10826SOL     OW33376   0.956   1.778   2.752
10826SOL    HW133377   0.869   1.729   2.760
10826SOL    HW233378   1.020   1.745   2.821
10827SOL     OW33379   6.366   3.694   5.140
10827SOL    HW133380   6.451   3.646   5.119
10827SOL    HW233381   6.342   3.680   5.236
10828SOL     OW33382   6.190   3.413   0.140
10828SOL    HW133383   6.258   3.362   0.193
10828SOL    HW233384   6.101   3.408   0.186
10829SOL     OW33385   4.283   3.554   6.684
10829SOL    HW133386   4.265   3.648   6.714
10829SOL    HW233387   4.211   3.525   6.620
10830SOL     OW33388   4.525   1.704   4.011
10830SOL    HW133389   4.453   1.636   4.025
10830SOL    HW233390   4.554   1.741   4.100
10831SOL     OW33391   3.765   0.821   1.943
10831SOL    HW133392   3.680   0.813   1.995
10831SOL    HW233393   3.786   0.918   1.928
10832SOL     OW33394   6.929   2.993   6.725
10832SOL    HW133395   0.009   2.992   6.742
10832SOL    HW233396   6.888   3.073   6.769
10833SOL     OW33397   0.138   2.181   1.260
10833SOL    HW133398   0.128   2.083   1.243
10833SOL    HW233399   0.057   2.229   1.226
10834SOL     OW33400   6.628   0.516   0.549
10834SOL    HW133401   6.635   0.611   0.579
10834SOL    HW233402   6.671   0.506   0.460
10835SOL     OW33403   5.450   3.004   0.283
10835SOL    HW133404   5.524   3.065   0.254
10835SOL    HW233405   5.379   3.002   0.213
10836SOL     OW33406   1.051   0.736   2.602
10836SOL    HW133407   1.043   0.637   2.599
10836SOL    HW233408   1.041   0.774   2.510
10837SOL     OW33409   6.182   4.774   1.983
10837SOL    HW133410   6.228   4.746   1.899
10837SOL    HW233411   6.084   4.754   1.975
10838SOL     OW33412   5.189   6.123   3.256
10838SOL    HW133413   5.172   6.174   3.171
10838SOL    HW233414   5.247   6.178   3.316
10839SOL     OW33415   4.565   3.500   0.047
10839SOL    HW133416   4.497   3.569   0.074
10839SOL    HW233417   4.535   3.457   6.980
10840SOL     OW33418   3.046   0.464   2.156
10840SOL    HW133419   3.033   0.541   2.094
10840SOL    HW233420   2.994   0.480   2.240
10841SOL     OW33421   0.152   5.245   4.589
10841SOL    HW133422   0.214   5.309   4.544
10841SOL    HW233423   0.132   5.169   4.526
10842SOL     OW33424   4.069   3.362   1.812
10842SOL    HW133425   4.117   3.281   1.845
10842SOL    HW233426   4.062   3.358   1.712
10843SOL     OW33427   2.274   1.804   1.031
10843SOL    HW133428   2.228   1.721   1.063
10843SOL    HW233429   2.347   1.829   1.094
10844SOL     OW33430   1.073   5.751   4.571
10844SOL    HW133431   1.008   5.826   4.561
10844SOL    HW233432   1.032   5.666   4.539
10845SOL     OW33433   4.682   6.192   4.891
10845SOL    HW133434   4.617   6.255   4.848
10845SOL    HW233435   4.714   6.126   4.823
10846SOL     OW33436   5.766   6.478   0.078
10846SOL    HW133437   5.841   6.416   0.055
10846SOL    HW233438   5.701   6.430   0.136
10847SOL     OW33439   1.949   1.707   6.854
10847SOL    HW133440   1.861   1.665   6.876
10847SOL    HW233441   2.003   1.645   6.798
10848SOL     OW33442   1.161   3.585   1.132
10848SOL    HW133443   1.132   3.586   1.227
10848SOL    HW233444   1.234   3.518   1.120
10849SOL     OW33445   2.469   4.412   4.185
10849SOL    HW133446   2.428   4.503   4.181
10849SOL    HW233447   2.498   4.393   4.279
10850SOL     OW33448   4.836   6.408   0.181
10850SOL    HW133449   4.818   6.449   0.270
10850SOL    HW233450   4.762   6.431   0.117
10851SOL     OW33451   3.069   4.191   1.767
10851SOL    HW133452   3.035   4.282   1.788
10851SOL    HW233453   2.992   4.132   1.738
10852SOL     OW33454   1.747   1.382   0.284
10852SOL    HW133455   1.737   1.333   0.197
10852SOL    HW233456   1.808   1.460   0.271
10853SOL     OW33457   2.200   2.828   6.301
10853SOL    HW133458   2.226   2.735   6.278
10853SOL    HW233459   2.182   2.880   6.217
10854SOL     OW33460   4.251   5.960   4.938
10854SOL    HW133461   4.165   5.910   4.924
10854SOL    HW233462   4.231   6.056   4.957
10855SOL     OW33463   3.542   1.456   0.623
10855SOL    HW133464   3.561   1.455   0.525
10855SOL    HW233465   3.565   1.545   0.662
10856SOL     OW33466   7.009   0.602   6.432
10856SOL    HW133467   0.064   0.533   6.435
10856SOL    HW233468   6.987   0.630   6.526
10857SOL     OW33469   0.001   1.702   2.456
10857SOL    HW133470   0.077   1.753   2.416
10857SOL    HW233471   0.036   1.632   2.518
10858SOL     OW33472   2.535   6.073   1.739
10858SOL    HW133473   2.585   6.088   1.824
10858SOL    HW233474   2.545   6.154   1.681
10859SOL     OW33475   0.197   4.687   4.468
10859SOL    HW133476   0.198   4.738   4.382
10859SOL    HW233477   0.103   4.675   4.499
10860SOL     OW33478   6.850   3.651   3.079
10860SOL    HW133479   6.849   3.637   3.178
10860SOL    HW233480   6.871   3.747   3.059
10861SOL     OW33481   3.011   3.224   3.638
10861SOL    HW133482   3.021   3.154   3.567
10861SOL    HW233483   3.101   3.254   3.668
10862SOL     OW33484   2.302   0.839   5.411
10862SOL    HW133485   2.266   0.931   5.397
10862SOL    HW233486   2.230   0.772   5.389
10863SOL     OW33487   2.379   6.705   4.504
10863SOL    HW133488   2.383   6.638   4.430
10863SOL    HW233489   2.284   6.718   4.532
10864SOL     OW33490   3.566   6.705   2.020
10864SOL    HW133491   3.607   6.780   1.968
10864SOL    HW233492   3.488   6.740   2.072
10865SOL     OW33493   6.173   0.996   6.432
10865SOL    HW133494   6.256   1.045   6.458
10865SOL    HW233495   6.092   1.050   6.457
10866SOL     OW33496   5.074   4.473   7.005
10866SOL    HW133497   5.023   4.485   6.920
10866SOL    HW233498   5.010   4.464   0.064
10867SOL     OW33499   3.273   4.682   0.758
10867SOL    HW133500   3.247   4.719   0.847
10867SOL    HW233501   3.193   4.677   0.699
10868SOL     OW33502   4.627   1.783   3.567
10868SOL    HW133503   4.546   1.752   3.517
10868SOL    HW233504   4.705   1.725   3.544
10869NA      NA33505   6.047   2.131   5.764
10870NA      NA33506   4.253   4.675   5.201
10871NA      NA33507   2.052   3.668   1.537
10872NA      NA33508   4.987   3.516   5.491
10873NA      NA33509   4.282   2.232   5.077
10874NA      NA33510   3.732   4.814   1.730
10875NA      NA33511   6.605   5.277   5.226
10876NA      NA33512   3.499   3.524   4.853
10877NA      NA33513   5.071   6.279   6.458
10878NA      NA33514   3.300   6.605   5.368
10879NA      NA33515   6.805   5.293   2.167
10880NA      NA33516   2.266   0.580   3.798
10881NA      NA33517   3.909   5.172   1.235
10882NA      NA33518   3.416   3.545   2.379
   7.01794   7.01794   7.01794
