Generated by trjconv : CNT in water t= 527.00000
33518
    1C        C    1   2.840   2.767   4.749
    1C        C    2   2.897   2.718   4.869
    1C        C    3   2.839   2.768   4.986
    1C        C    4   2.851   2.776   4.260
    1C        C    5   2.903   2.729   4.382
    1C        C    6   2.849   2.774   4.505
    1C        C    7   3.015   2.647   4.628
    1C        C    8   2.896   2.721   4.627
    1C        C    9   3.074   2.600   4.748
    1C        C   10   3.009   2.633   4.869
    1C        C   11   3.186   2.497   4.981
    1C        C   12   3.063   2.564   4.978
    1C        C   13   2.854   2.773   3.775
    1C        C   14   2.905   2.723   3.897
    1C        C   15   2.852   2.777   4.017
    1C        C   16   3.018   2.645   4.139
    1C        C   17   2.904   2.728   4.138
    1C        C   18   3.082   2.618   4.261
    1C        C   19   3.019   2.649   4.384
    1C        C   20   3.208   2.555   4.507
    1C        C   21   3.077   2.610   4.506
    1C        C   22   3.278   2.537   4.628
    1C        C   23   3.207   2.549   4.749
    1C        C   24   3.415   2.487   4.867
    1C        C   25   3.273   2.506   4.868
    1C        C   26   3.491   2.482   4.985
    1C        C   27   2.852   2.772   3.284
    1C        C   28   2.908   2.726   3.406
    1C        C   29   2.858   2.773   3.529
    1C        C   30   3.018   2.638   3.652
    1C        C   31   2.907   2.726   3.653
    1C        C   32   3.079   2.603   3.774
    1C        C   33   3.018   2.639   3.896
    1C        C   34   3.211   2.551   4.018
    1C        C   35   3.080   2.603   4.019
    1C        C   36   3.278   2.533   4.141
    1C        C   37   3.210   2.558   4.263
    1C        C   38   3.414   2.504   4.383
    1C        C   39   3.276   2.534   4.386
    1C        C   40   3.486   2.506   4.504
    1C        C   41   3.417   2.512   4.627
    1C        C   42   3.632   2.484   4.745
    1C        C   43   3.489   2.490   4.746
    1C        C   44   3.707   2.490   4.864
    1C        C   45   3.630   2.483   4.981
    1C        C   46   2.843   2.758   2.796
    1C        C   47   2.896   2.713   2.919
    1C        C   48   2.847   2.766   3.041
    1C        C   49   3.017   2.638   3.165
    1C        C   50   2.902   2.720   3.163
    1C        C   51   3.082   2.604   3.286
    1C        C   52   3.023   2.645   3.407
    1C        C   53   3.208   2.544   3.529
    1C        C   54   3.080   2.603   3.530
    1C        C   55   3.277   2.526   3.650
    1C        C   56   3.210   2.550   3.772
    1C        C   57   3.418   2.512   3.896
    1C        C   58   3.278   2.534   3.895
    1C        C   59   3.486   2.503   4.019
    1C        C   60   3.417   2.508   4.142
    1C        C   61   3.631   2.501   4.261
    1C        C   62   3.489   2.498   4.264
    1C        C   63   3.701   2.513   4.383
    1C        C   64   3.628   2.505   4.503
    1C        C   65   3.838   2.541   4.623
    1C        C   66   3.702   2.502   4.623
    1C        C   67   3.907   2.567   4.744
    1C        C   68   3.841   2.533   4.864
    1C        C   69   4.050   2.589   4.979
    1C        C   70   3.924   2.528   4.977
    1C        C   71   2.825   2.733   2.313
    1C        C   72   2.887   2.695   2.433
    1C        C   73   2.832   2.743   2.554
    1C        C   74   3.009   2.624   2.678
    1C        C   75   2.891   2.701   2.676
    1C        C   76   3.074   2.593   2.800
    1C        C   77   3.011   2.632   2.920
    1C        C   78   3.204   2.544   3.038
    1C        C   79   3.074   2.599   3.042
    1C        C   80   3.275   2.522   3.159
    1C        C   81   3.210   2.544   3.283
    1C        C   82   3.415   2.502   3.405
    1C        C   83   3.275   2.520   3.406
    1C        C   84   3.485   2.495   3.527
    1C        C   85   3.417   2.505   3.650
    1C        C   86   3.628   2.503   3.773
    1C        C   87   3.487   2.502   3.773
    1C        C   88   3.698   2.513   3.896
    1C        C   89   3.627   2.505   4.018
    1C        C   90   3.836   2.550   4.138
    1C        C   91   3.700   2.511   4.139
    1C        C   92   3.903   2.574   4.260
    1C        C   93   3.838   2.546   4.383
    1C        C   94   4.033   2.633   4.498
    1C        C   95   3.907   2.569   4.504
    1C        C   96   4.093   2.672   4.620
    1C        C   97   4.034   2.631   4.741
    1C        C   98   4.195   2.766   4.865
    1C        C   99   4.100   2.658   4.864
    1C        C  100   4.211   2.848   4.977
    1C        C  101   2.822   2.729   2.076
    1C        C  102   2.986   2.584   2.197
    1C        C  103   2.874   2.673   2.194
    1C        C  104   3.063   2.573   2.316
    1C        C  105   3.003   2.614   2.437
    1C        C  106   3.201   2.531   2.551
    1C        C  107   3.071   2.585   2.557
    1C        C  108   3.270   2.516   2.674
    1C        C  109   3.203   2.535   2.797
    1C        C  110   3.413   2.493   2.917
    1C        C  111   3.273   2.516   2.918
    1C        C  112   3.485   2.492   3.039
    1C        C  113   3.414   2.498   3.161
    1C        C  114   3.626   2.495   3.281
    1C        C  115   3.485   2.495   3.283
    1C        C  116   3.696   2.510   3.403
    1C        C  117   3.626   2.502   3.525
    1C        C  118   3.829   2.550   3.649
    1C        C  119   3.695   2.507   3.649
    1C        C  120   3.897   2.580   3.769
    1C        C  121   3.833   2.554   3.892
    1C        C  122   4.024   2.644   4.013
    1C        C  123   3.900   2.577   4.015
    1C        C  124   4.087   2.680   4.135
    1C        C  125   4.028   2.641   4.257
    1C        C  126   4.200   2.768   4.379
    1C        C  127   4.090   2.680   4.378
    1C        C  128   4.247   2.822   4.501
    1C        C  129   4.194   2.771   4.622
    1C        C  130   4.325   2.939   4.742
    1C        C  131   4.241   2.824   4.744
    1C        C  132   4.353   3.009   4.861
    1C        C  133   4.287   2.965   4.976
    1C        C  134   3.170   2.467   2.085
    1C        C  135   3.035   2.505   2.088
    1C        C  136   3.261   2.484   2.190
    1C        C  137   3.195   2.519   2.310
    1C        C  138   3.407   2.482   2.428
    1C        C  139   3.267   2.502   2.430
    1C        C  140   3.480   2.484   2.549
    1C        C  141   3.410   2.494   2.671
    1C        C  142   3.621   2.493   2.794
    1C        C  143   3.480   2.485   2.793
    1C        C  144   3.695   2.503   2.913
    1C        C  145   3.626   2.496   3.036
    1C        C  146   3.833   2.538   3.158
    1C        C  147   3.696   2.503   3.158
    1C        C  148   3.899   2.569   3.279
    1C        C  149   3.832   2.549   3.402
    1C        C  150   4.023   2.635   3.524
    1C        C  151   3.894   2.577   3.526
    1C        C  152   4.083   2.674   3.645
    1C        C  153   4.024   2.640   3.769
    1C        C  154   4.195   2.768   3.888
    1C        C  155   4.082   2.684   3.891
    1C        C  156   4.246   2.817   4.011
    1C        C  157   4.196   2.769   4.134
    1C        C  158   4.343   2.923   4.254
    1C        C  159   4.252   2.814   4.256
    1C        C  160   4.380   2.983   4.376
    1C        C  161   4.337   2.931   4.500
    1C        C  162   4.442   3.117   4.616
    1C        C  163   4.376   2.993   4.621
    1C        C  164   4.469   3.186   4.737
    1C        C  165   4.437   3.123   4.859
    1C        C  166   4.523   3.320   4.973
    1C        C  167   4.483   3.186   4.975
    1C        C  168   3.474   2.439   2.072
    1C        C  169   3.401   2.462   2.189
    1C        C  170   3.620   2.466   2.309
    1C        C  171   3.478   2.465   2.307
    1C        C  172   3.695   2.482   2.428
    1C        C  173   3.621   2.490   2.548
    1C        C  174   3.826   2.541   2.669
    1C        C  175   3.690   2.503   2.671
    1C        C  176   3.897   2.561   2.790
    1C        C  177   3.831   2.542   2.913
    1C        C  178   4.023   2.629   3.033
    1C        C  179   3.898   2.563   3.036
    1C        C  180   4.084   2.667   3.155
    1C        C  181   4.022   2.639   3.279
    1C        C  182   4.198   2.754   3.399
    1C        C  183   4.083   2.672   3.402
    1C        C  184   4.248   2.806   3.520
    1C        C  185   4.198   2.757   3.643
    1C        C  186   4.341   2.915   3.763
    1C        C  187   4.250   2.807   3.764
    1C        C  188   4.379   2.976   3.885
    1C        C  189   4.340   2.922   4.010
    1C        C  190   4.444   3.108   4.129
    1C        C  191   4.379   2.983   4.131
    1C        C  192   4.474   3.174   4.250
    1C        C  193   4.448   3.107   4.372
    1C        C  194   4.508   3.314   4.493
    1C        C  195   4.469   3.178   4.492
    1C        C  196   4.527   3.387   4.612
    1C        C  197   4.515   3.320   4.735
    1C        C  198   4.558   3.536   4.851
    1C        C  199   4.537   3.394   4.855
    1C        C  200   4.584   3.621   4.963
    1C        C  201   3.614   2.430   2.073
    1C        C  202   3.826   2.517   2.184
    1C        C  203   3.692   2.468   2.187
    1C        C  204   3.897   2.541   2.305
    1C        C  205   3.832   2.516   2.428
    1C        C  206   4.022   2.620   2.546
    1C        C  207   3.897   2.554   2.548
    1C        C  208   4.083   2.659   2.667
    1C        C  209   4.022   2.627   2.791
    1C        C  210   4.196   2.754   2.911
    1C        C  211   4.083   2.669   2.911
    1C        C  212   4.249   2.803   3.033
    1C        C  213   4.199   2.749   3.154
    1C        C  214   4.339   2.909   3.274
    1C        C  215   4.251   2.798   3.276
    1C        C  216   4.375   2.973   3.394
    1C        C  217   4.335   2.918   3.518
    1C        C  218   4.439   3.101   3.642
    1C        C  219   4.380   2.972   3.640
    1C        C  220   4.464   3.170   3.762
    1C        C  221   4.440   3.103   3.884
    1C        C  222   4.509   3.306   4.005
    1C        C  223   4.471   3.170   4.005
    1C        C  224   4.523   3.379   4.125
    1C        C  225   4.508   3.311   4.247
    1C        C  226   4.522   3.523   4.367
    1C        C  227   4.520   3.382   4.369
    1C        C  228   4.524   3.598   4.487
    1C        C  229   4.537   3.528   4.609
    1C        C  230   4.508   3.743   4.727
    1C        C  231   4.538   3.604   4.728
    1C        C  232   4.502   3.821   4.845
    1C        C  233   4.551   3.757   4.960
    1C        C  234   4.022   2.607   2.066
    1C        C  235   3.899   2.542   2.067
    1C        C  236   4.086   2.646   2.185
    1C        C  237   4.017   2.616   2.305
    1C        C  238   4.199   2.737   2.427
    1C        C  239   4.083   2.654   2.424
    1C        C  240   4.255   2.786   2.547
    1C        C  241   4.198   2.741   2.668
    1C        C  242   4.337   2.907   2.786
    1C        C  243   4.250   2.796   2.787
    1C        C  244   4.377   2.966   2.908
    1C        C  245   4.337   2.912   3.033
    1C        C  246   4.444   3.097   3.151
    1C        C  247   4.379   2.972   3.154
    1C        C  248   4.468   3.162   3.274
    1C        C  249   4.439   3.099   3.397
    1C        C  250   4.503   3.301   3.516
    1C        C  251   4.465   3.165   3.519
    1C        C  252   4.515   3.374   3.637
    1C        C  253   4.497   3.308   3.760
    1C        C  254   4.528   3.517   3.877
    1C        C  255   4.518   3.376   3.882
    1C        C  256   4.522   3.588   3.999
    1C        C  257   4.534   3.520   4.123
    1C        C  258   4.500   3.731   4.243
    1C        C  259   4.527   3.592   4.244
    1C        C  260   4.478   3.804   4.362
    1C        C  261   4.491   3.735   4.485
    1C        C  262   4.425   3.938   4.602
    1C        C  263   4.476   3.807   4.605
    1C        C  264   4.401   4.008   4.723
    1C        C  265   4.438   3.946   4.844
    1C        C  266   4.320   4.132   4.959
    1C        C  267   4.396   4.015   4.959
    1C        C  268   4.264   2.770   2.069
    1C        C  269   4.200   2.729   2.186
    1C        C  270   4.345   2.892   2.301
    1C        C  271   4.254   2.783   2.305
    1C        C  272   4.381   2.955   2.422
    1C        C  273   4.345   2.894   2.545
    1C        C  274   4.443   3.089   2.661
    1C        C  275   4.384   2.960   2.664
    1C        C  276   4.474   3.155   2.782
    1C        C  277   4.447   3.089   2.903
    1C        C  278   4.508   3.292   3.029
    1C        C  279   4.470   3.156   3.025
    1C        C  280   4.521   3.366   3.149
    1C        C  281   4.508   3.298   3.272
    1C        C  282   4.525   3.511   3.390
    1C        C  283   4.515   3.370   3.393
    1C        C  284   4.523   3.584   3.511
    1C        C  285   4.524   3.515   3.635
    1C        C  286   4.499   3.727   3.755
    1C        C  287   4.528   3.588   3.756
    1C        C  288   4.477   3.793   3.877
    1C        C  289   4.497   3.727   4.000
    1C        C  290   4.425   3.928   4.119
    1C        C  291   4.480   3.798   4.121
    1C        C  292   4.392   3.996   4.239
    1C        C  293   4.427   3.936   4.362
    1C        C  294   4.325   4.127   4.480
    1C        C  295   4.398   4.006   4.481
    1C        C  296   4.286   4.188   4.601
    1C        C  297   4.326   4.129   4.723
    1C        C  298   4.202   4.313   4.839
    1C        C  299   4.285   4.197   4.841
    1C        C  300   4.175   4.407   4.943
    1C        C  301   4.347   2.882   2.067
    1C        C  302   4.475   3.067   2.179
    1C        C  303   4.394   2.949   2.180
    1C        C  304   4.488   3.142   2.298
    1C        C  305   4.450   3.078   2.418
    1C        C  306   4.511   3.286   2.538
    1C        C  307   4.474   3.149   2.538
    1C        C  308   4.523   3.358   2.659
    1C        C  309   4.514   3.291   2.782
    1C        C  310   4.527   3.501   2.902
    1C        C  311   4.517   3.360   2.906
    1C        C  312   4.529   3.576   3.021
    1C        C  313   4.529   3.507   3.144
    1C        C  314   4.495   3.717   3.267
    1C        C  315   4.522   3.578   3.266
    1C        C  316   4.476   3.789   3.386
    1C        C  317   4.496   3.722   3.509
    1C        C  318   4.427   3.923   3.629
    1C        C  319   4.478   3.792   3.631
    1C        C  320   4.393   3.985   3.752
    1C        C  321   4.421   3.923   3.876
    1C        C  322   4.317   4.111   3.992
    1C        C  323   4.390   3.990   3.996
    1C        C  324   4.278   4.171   4.113
    1C        C  325   4.322   4.118   4.237
    1C        C  326   4.186   4.285   4.356
    1C        C  327   4.282   4.181   4.357
    1C        C  328   4.135   4.338   4.476
    1C        C  329   4.192   4.293   4.598
    1C        C  330   4.026   4.436   4.716
    1C        C  331   4.139   4.349   4.716
    1C        C  332   3.972   4.494   4.832
    1C        C  333   4.057   4.484   4.943
    1C        C  334   4.555   3.265   2.063
    1C        C  335   4.537   3.126   2.064
    1C        C  336   4.543   3.349   2.175
    1C        C  337   4.520   3.281   2.296
    1C        C  338   4.534   3.497   2.412
    1C        C  339   4.526   3.356   2.416
    1C        C  340   4.525   3.569   2.533
    1C        C  341   4.528   3.499   2.656
    1C        C  342   4.491   3.708   2.777
    1C        C  343   4.518   3.569   2.778
    1C        C  344   4.474   3.780   2.897
    1C        C  345   4.495   3.713   3.020
    1C        C  346   4.428   3.914   3.141
    1C        C  347   4.475   3.781   3.142
    1C        C  348   4.391   3.982   3.260
    1C        C  349   4.423   3.921   3.383
    1C        C  350   4.313   4.100   3.505
    1C        C  351   4.394   3.984   3.506
    1C        C  352   4.270   4.159   3.626
    1C        C  353   4.317   4.104   3.747
    1C        C  354   4.171   4.261   3.869
    1C        C  355   4.271   4.161   3.868
    1C        C  356   4.119   4.310   3.991
    1C        C  357   4.177   4.270   4.113
    1C        C  358   4.008   4.401   4.231
    1C        C  359   4.125   4.322   4.233
    1C        C  360   3.948   4.442   4.352
    1C        C  361   4.016   4.414   4.473
    1C        C  362   3.829   4.516   4.594
    1C        C  363   3.959   4.459   4.594
    1C        C  364   3.763   4.549   4.715
    1C        C  365   3.839   4.539   4.834
    1C        C  366   3.629   4.591   4.952
    1C        C  367   3.767   4.575   4.949
    1C        C  368   4.515   3.570   2.058
    1C        C  369   4.531   3.490   2.172
    1C        C  370   4.505   3.706   2.291
    1C        C  371   4.529   3.567   2.290
    1C        C  372   4.485   3.777   2.411
    1C        C  373   4.503   3.709   2.533
    1C        C  374   4.429   3.909   2.650
    1C        C  375   4.480   3.777   2.655
    1C        C  376   4.396   3.975   2.770
    1C        C  377   4.428   3.914   2.894
    1C        C  378   4.313   4.089   3.013
    1C        C  379   4.394   3.973   3.017
    1C        C  380   4.266   4.148   3.132
    1C        C  381   4.309   4.097   3.257
    1C        C  382   4.175   4.257   3.380
    1C        C  383   4.269   4.151   3.381
    1C        C  384   4.117   4.304   3.500
    1C        C  385   4.168   4.257   3.623
    1C        C  386   4.001   4.384   3.744
    1C        C  387   4.116   4.302   3.746
    1C        C  388   3.944   4.429   3.865
    1C        C  389   4.006   4.395   3.988
    1C        C  390   3.817   4.495   4.108
    1C        C  391   3.947   4.438   4.109
    1C        C  392   3.750   4.515   4.230
    1C        C  393   3.820   4.501   4.352
    1C        C  394   3.619   4.564   4.475
    1C        C  395   3.756   4.531   4.475
    1C        C  396   3.548   4.574   4.597
    1C        C  397   3.625   4.575   4.715
    1C        C  398   3.412   4.560   4.841
    1C        C  399   3.551   4.581   4.836
    1C        C  400   3.344   4.524   4.958
    1C        C  401   4.508   3.709   2.055
    1C        C  402   4.459   3.919   2.166
    1C        C  403   4.498   3.783   2.173
    1C        C  404   4.417   3.980   2.287
    1C        C  405   4.439   3.911   2.408
    1C        C  406   4.327   4.095   2.526
    1C        C  407   4.404   3.976   2.528
    1C        C  408   4.276   4.149   2.646
    1C        C  409   4.316   4.091   2.769
    1C        C  410   4.169   4.246   2.889
    1C        C  411   4.268   4.144   2.891
    1C        C  412   4.117   4.295   3.011
    1C        C  413   4.166   4.248   3.135
    1C        C  414   4.000   4.377   3.257
    1C        C  415   4.118   4.300   3.257
    1C        C  416   3.938   4.411   3.379
    1C        C  417   3.999   4.382   3.503
    1C        C  418   3.811   4.484   3.621
    1C        C  419   3.938   4.421   3.624
    1C        C  420   3.747   4.511   3.744
    1C        C  421   3.817   4.492   3.865
    1C        C  422   3.610   4.543   3.988
    1C        C  423   3.749   4.519   3.986
    1C        C  424   3.542   4.543   4.112
    1C        C  425   3.611   4.543   4.235
    1C        C  426   3.401   4.562   4.358
    1C        C  427   3.543   4.563   4.356
    1C        C  428   3.332   4.551   4.481
    1C        C  429   3.407   4.562   4.600
    1C        C  430   3.196   4.526   4.724
    1C        C  431   3.336   4.553   4.722
    1C        C  432   3.126   4.501   4.846
    1C        C  433   3.208   4.496   4.960
    1C        C  434   4.384   4.121   2.054
    1C        C  435   4.445   3.995   2.050
    1C        C  436   4.300   4.161   2.163
    1C        C  437   4.332   4.094   2.284
    1C        C  438   4.179   4.246   2.402
    1C        C  439   4.284   4.151   2.404
    1C        C  440   4.120   4.291   2.522
    1C        C  441   4.174   4.246   2.645
    1C        C  442   4.003   4.374   2.768
    1C        C  443   4.119   4.294   2.766
    1C        C  444   3.944   4.417   2.889
    1C        C  445   4.003   4.379   3.012
    1C        C  446   3.813   4.474   3.132
    1C        C  447   3.940   4.412   3.134
    1C        C  448   3.745   4.496   3.254
    1C        C  449   3.811   4.473   3.377
    1C        C  450   3.606   4.530   3.498
    1C        C  451   3.745   4.504   3.498
    1C        C  452   3.539   4.544   3.622
    1C        C  453   3.608   4.539   3.745
    1C        C  454   3.398   4.552   3.868
    1C        C  455   3.539   4.555   3.867
    1C        C  456   3.330   4.541   3.991
    1C        C  457   3.400   4.545   4.114
    1C        C  458   3.193   4.514   4.235
    1C        C  459   3.330   4.548   4.237
    1C        C  460   3.127   4.494   4.359
    1C        C  461   3.195   4.519   4.481
    1C        C  462   3.000   4.440   4.605
    1C        C  463   3.127   4.501   4.604
    1C        C  464   2.936   4.402   4.724
    1C        C  465   2.994   4.447   4.846
    1C        C  466   2.805   4.342   4.959
    1C        C  467   2.915   4.429   4.965
    1C        C  468   4.121   4.287   2.045
    1C        C  469   4.187   4.249   2.162
    1C        C  470   4.007   4.373   2.280
    1C        C  471   4.128   4.299   2.282
    1C        C  472   3.944   4.408   2.402
    1C        C  473   4.008   4.377   2.524
    1C        C  474   3.813   4.467   2.648
    1C        C  475   3.941   4.408   2.645
    1C        C  476   3.745   4.498   2.768
    1C        C  477   3.815   4.473   2.888
    1C        C  478   3.609   4.529   3.007
    1C        C  479   3.747   4.499   3.009
    1C        C  480   3.539   4.534   3.130
    1C        C  481   3.607   4.524   3.254
    1C        C  482   3.396   4.540   3.377
    1C        C  483   3.537   4.541   3.375
    1C        C  484   3.329   4.536   3.501
    1C        C  485   3.397   4.551   3.623
    1C        C  486   3.190   4.510   3.746
    1C        C  487   3.327   4.548   3.746
    1C        C  488   3.128   4.480   3.869
    1C        C  489   3.193   4.506   3.991
    1C        C  490   3.001   4.424   4.117
    1C        C  491   3.124   4.494   4.114
    1C        C  492   2.945   4.386   4.241
    1C        C  493   3.002   4.429   4.363
    1C        C  494   2.833   4.302   4.486
    1C        C  495   2.941   4.393   4.485
    1C        C  496   2.778   4.254   4.607
    1C        C  497   2.823   4.315   4.726
    1C        C  498   2.671   4.166   4.844
    1C        C  499   2.756   4.279   4.845
    1C        C  500   2.601   4.117   4.956
    1C        C  501   4.003   4.361   2.042
    1C        C  502   3.813   4.466   2.158
    1C        C  503   3.940   4.404   2.160
    1C        C  504   3.747   4.490   2.281
    1C        C  505   3.814   4.462   2.402
    1C        C  506   3.608   4.513   2.523
    1C        C  507   3.746   4.484   2.524
    1C        C  508   3.534   4.522   2.643
    1C        C  509   3.606   4.524   2.765
    1C        C  510   3.395   4.533   2.887
    1C        C  511   3.536   4.537   2.887
    1C        C  512   3.326   4.527   3.011
    1C        C  513   3.398   4.531   3.132
    1C        C  514   3.189   4.494   3.257
    1C        C  515   3.326   4.529   3.254
    1C        C  516   3.125   4.475   3.381
    1C        C  517   3.191   4.505   3.502
    1C        C  518   2.998   4.420   3.627
    1C        C  519   3.123   4.487   3.625
    1C        C  520   2.942   4.376   3.749
    1C        C  521   3.005   4.410   3.871
    1C        C  522   2.842   4.283   3.999
    1C        C  523   2.945   4.380   3.995
    1C        C  524   2.797   4.232   4.122
    1C        C  525   2.842   4.290   4.243
    1C        C  526   2.700   4.133   4.364
    1C        C  527   2.787   4.245   4.365
    1C        C  528   2.653   4.079   4.486
    1C        C  529   2.688   4.145   4.606
    1C        C  530   2.593   3.957   4.734
    1C        C  531   2.649   4.088   4.729
    1C        C  532   2.544   3.901   4.855
    1C        C  533   2.534   3.994   4.963
    1C        C  534   3.618   4.555   2.041
    1C        C  535   3.753   4.516   2.042
    1C        C  536   3.538   4.537   2.159
    1C        C  537   3.607   4.515   2.281
    1C        C  538   3.394   4.522   2.399
    1C        C  539   3.535   4.522   2.402
    1C        C  540   3.324   4.513   2.522
    1C        C  541   3.393   4.521   2.644
    1C        C  542   3.185   4.484   2.767
    1C        C  543   3.323   4.516   2.767
    1C        C  544   3.123   4.462   2.892
    1C        C  545   3.190   4.489   3.013
    1C        C  546   2.997   4.404   3.137
    1C        C  547   3.122   4.471   3.135
    1C        C  548   2.944   4.365   3.262
    1C        C  549   3.001   4.406   3.384
    1C        C  550   2.837   4.277   3.505
    1C        C  551   2.941   4.372   3.507
    1C        C  552   2.787   4.232   3.629
    1C        C  553   2.833   4.286   3.751
    1C        C  554   2.710   4.119   3.874
    1C        C  555   2.792   4.234   3.876
    1C        C  556   2.671   4.060   3.996
    1C        C  557   2.710   4.120   4.118
    1C        C  558   2.602   3.943   4.247
    1C        C  559   2.670   4.067   4.243
    1C        C  560   2.566   3.883   4.369
    1C        C  561   2.594   3.951   4.490
    1C        C  562   2.531   3.751   4.615
    1C        C  563   2.568   3.888   4.613
    1C        C  564   2.515   3.684   4.738
    1C        C  565   2.524   3.759   4.858
    1C        C  566   2.528   3.545   4.981
    1C        C  567   2.521   3.684   4.976
    1C        C  568   3.331   4.476   2.042
    1C        C  569   3.398   4.515   2.158
    1C        C  570   3.183   4.480   2.281
    1C        C  571   3.322   4.513   2.278
    1C        C  572   3.114   4.461   2.403
    1C        C  573   3.187   4.478   2.523
    1C        C  574   2.988   4.404   2.648
    1C        C  575   3.117   4.462   2.645
    1C        C  576   2.936   4.360   2.772
    1C        C  577   2.996   4.400   2.893
    1C        C  578   2.829   4.271   3.017
    1C        C  579   2.936   4.364   3.016
    1C        C  580   2.782   4.221   3.140
    1C        C  581   2.838   4.271   3.260
    1C        C  582   2.701   4.112   3.385
    1C        C  583   2.790   4.223   3.383
    1C        C  584   2.667   4.055   3.509
    1C        C  585   2.703   4.118   3.630
    1C        C  586   2.602   3.934   3.756
    1C        C  587   2.667   4.059   3.753
    1C        C  588   2.577   3.870   3.879
    1C        C  589   2.606   3.935   4.001
    1C        C  590   2.539   3.739   4.128
    1C        C  591   2.576   3.875   4.126
    1C        C  592   2.526   3.673   4.252
    1C        C  593   2.533   3.746   4.373
    1C        C  594   2.513   3.535   4.501
    1C        C  595   2.521   3.676   4.496
    1C        C  596   2.519   3.465   4.623
    1C        C  597   2.515   3.542   4.742
    1C        C  598   2.538   3.329   4.864
    1C        C  599   2.528   3.470   4.863
    1C        C  600   2.538   3.250   4.980
    1C        C  601   3.197   4.443   2.045
    1C        C  602   2.983   4.394   2.158
    1C        C  603   3.118   4.442   2.161
    1C        C  604   2.925   4.358   2.283
    1C        C  605   2.986   4.402   2.403
    1C        C  606   2.825   4.270   2.530
    1C        C  607   2.927   4.367   2.526
    1C        C  608   2.778   4.218   2.653
    1C        C  609   2.828   4.269   2.775
    1C        C  610   2.689   4.108   2.894
    1C        C  611   2.780   4.217   2.897
    1C        C  612   2.656   4.049   3.019
    1C        C  613   2.696   4.109   3.141
    1C        C  614   2.596   3.926   3.265
    1C        C  615   2.654   4.055   3.264
    1C        C  616   2.569   3.865   3.389
    1C        C  617   2.600   3.930   3.511
    1C        C  618   2.534   3.731   3.638
    1C        C  619   2.576   3.866   3.635
    1C        C  620   2.515   3.665   3.761
    1C        C  621   2.533   3.736   3.883
    1C        C  622   2.510   3.528   4.012
    1C        C  623   2.522   3.669   4.006
    1C        C  624   2.517   3.460   4.136
    1C        C  625   2.515   3.532   4.257
    1C        C  626   2.538   3.322   4.380
    1C        C  627   2.517   3.462   4.380
    1C        C  628   2.561   3.255   4.502
    1C        C  629   2.539   3.325   4.623
    1C        C  630   2.598   3.120   4.744
    1C        C  631   2.557   3.256   4.745
    1C        C  632   2.621   3.053   4.868
    1C        C  633   2.563   3.112   4.984
    1C        C  634   2.780   4.304   2.051
    1C        C  635   2.892   4.389   2.048
    1C        C  636   2.750   4.232   2.167
    1C        C  637   2.809   4.276   2.287
    1C        C  638   2.683   4.108   2.411
    1C        C  639   2.766   4.222   2.410
    1C        C  640   2.645   4.047   2.532
    1C        C  641   2.693   4.105   2.652
    1C        C  642   2.583   3.923   2.778
    1C        C  643   2.648   4.048   2.773
    1C        C  644   2.564   3.854   2.900
    1C        C  645   2.593   3.923   3.020
    1C        C  646   2.529   3.724   3.148
    1C        C  647   2.568   3.860   3.144
    1C        C  648   2.516   3.656   3.271
    1C        C  649   2.530   3.729   3.391
    1C        C  650   2.506   3.522   3.520
    1C        C  651   2.520   3.663   3.515
    1C        C  652   2.508   3.452   3.643
    1C        C  653   2.504   3.524   3.764
    1C        C  654   2.532   3.320   3.891
    1C        C  655   2.507   3.459   3.889
    1C        C  656   2.554   3.253   4.013
    1C        C  657   2.538   3.321   4.136
    1C        C  658   2.606   3.121   4.260
    1C        C  659   2.552   3.251   4.259
    1C        C  660   2.632   3.054   4.381
    1C        C  661   2.603   3.120   4.502
    1C        C  662   2.713   2.940   4.626
    1C        C  663   2.630   3.054   4.624
    1C        C  664   2.752   2.879   4.748
    1C        C  665   2.703   2.936   4.868
    1C        C  666   2.744   2.869   4.985
    1C        C  667   2.685   4.023   2.053
    1C        C  668   2.691   4.104   2.168
    1C        C  669   2.594   3.914   2.292
    1C        C  670   2.650   4.045   2.289
    1C        C  671   2.560   3.850   2.413
    1C        C  672   2.583   3.920   2.534
    1C        C  673   2.516   3.721   2.660
    1C        C  674   2.556   3.856   2.657
    1C        C  675   2.504   3.650   2.782
    1C        C  676   2.523   3.719   2.903
    1C        C  677   2.499   3.512   3.030
    1C        C  678   2.512   3.652   3.027
    1C        C  679   2.499   3.444   3.154
    1C        C  680   2.499   3.515   3.276
    1C        C  681   2.531   3.310   3.403
    1C        C  682   2.503   3.448   3.400
    1C        C  683   2.556   3.243   3.525
    1C        C  684   2.536   3.314   3.646
    1C        C  685   2.609   3.119   3.773
    1C        C  686   2.551   3.248   3.770
    1C        C  687   2.640   3.057   3.896
    1C        C  688   2.605   3.121   4.016
    1C        C  689   2.716   2.940   4.139
    1C        C  690   2.639   3.058   4.138
    1C        C  691   2.760   2.884   4.262
    1C        C  692   2.712   2.937   4.384
    1C        C  693   2.759   2.883   4.505
    1C        C  694   2.631   3.894   2.057
    1C        C  695   2.536   3.704   2.178
    1C        C  696   2.582   3.837   2.175
    1C        C  697   2.509   3.637   2.300
    1C        C  698   2.516   3.716   2.417
    1C        C  699   2.488   3.508   2.543
    1C        C  700   2.499   3.648   2.540
    1C        C  701   2.499   3.439   2.666
    1C        C  702   2.496   3.509   2.789
    1C        C  703   2.520   3.298   2.912
    1C        C  704   2.495   3.437   2.910
    1C        C  705   2.542   3.235   3.037
    1C        C  706   2.524   3.305   3.158
    1C        C  707   2.600   3.109   3.281
    1C        C  708   2.548   3.240   3.281
    1C        C  709   2.636   3.048   3.404
    1C        C  710   2.610   3.113   3.527
    1C        C  711   2.717   2.935   3.652
    1C        C  712   2.640   3.053   3.651
    1C        C  713   2.760   2.878   3.774
    1C        C  714   2.715   2.937   3.894
    1C        C  715   2.759   2.884   4.017
    1C        C  716   2.456   3.501   2.062
    1C        C  717   2.501   3.633   2.062
    1C        C  718   2.467   3.425   2.182
    1C        C  719   2.478   3.499   2.303
    1C        C  720   2.516   3.291   2.426
    1C        C  721   2.489   3.429   2.426
    1C        C  722   2.544   3.226   2.549
    1C        C  723   2.528   3.301   2.668
    1C        C  724   2.597   3.101   2.790
    1C        C  725   2.540   3.230   2.790
    1C        C  726   2.628   3.041   2.914
    1C        C  727   2.600   3.106   3.036
    1C        C  728   2.712   2.928   3.162
    1C        C  729   2.634   3.046   3.159
    1C        C  730   2.760   2.879   3.286
    1C        C  731   2.722   2.936   3.409
    1C        C  732   2.763   2.878   3.531
    1C        C  733   2.491   3.200   2.074
    1C        C  734   2.489   3.283   2.187
    1C        C  735   2.590   3.090   2.308
    1C        C  736   2.526   3.217   2.307
    1C        C  737   2.617   3.021   2.429
    1C        C  738   2.589   3.092   2.547
    1C        C  739   2.706   2.916   2.672
    1C        C  740   2.630   3.035   2.669
    1C        C  741   2.750   2.864   2.796
    1C        C  742   2.708   2.924   2.917
    1C        C  743   2.756   2.874   3.040
    1C        C  744   2.543   3.071   2.078
    1C        C  745   2.685   2.899   2.190
    1C        C  746   2.613   3.020   2.187
    1C        C  747   2.730   2.839   2.310
    1C        C  748   2.687   2.898   2.431
    1C        C  749   2.736   2.846   2.553
    1C        C  750   2.737   2.839   2.074
    1C        C  751   3.668   2.322   1.987
    1C        O  752   3.646   2.201   2.016
    1C        O  753   3.675   2.325   1.847
    1C        C  754   4.618   3.048   1.968
    1C        O  755   4.576   3.022   1.852
    1C        O  756   4.758   3.050   1.959
    1C        C  757   4.441   4.209   1.950
    1C        O  758   4.485   4.325   1.971
    1C        O  759   4.383   4.210   1.822
    1C        C  760   3.577   4.654   1.939
    1C        O  761   3.616   4.773   1.955
    1C        O  762   3.582   4.615   1.804
    1C        C  763   2.890   4.495   1.945
    1C        O  764   2.952   4.484   1.835
    1C        O  765   2.800   4.602   1.949
    1C        C  766   2.342   3.484   1.968
    1C        O  767   2.363   3.459   1.846
    1C        O  768   2.210   3.503   2.009
    1C        C  769   4.683   3.586   5.066
    1C        O  770   4.665   3.597   5.191
    1C        O  771   4.815   3.630   5.045
    1C        C  772   4.265   4.435   5.057
    1C        O  773   4.246   4.378   5.168
    1C        O  774   4.332   4.556   5.075
    1C        C  775   4.112   2.572   5.112
    1C        O  776   4.173   2.468   5.148
    1C        O  777   4.088   2.659   5.220
    1C        C  778   2.905   4.528   5.074
    1C        O  779   2.839   4.634   5.056
    1C        O  780   2.925   4.496   5.209
    1C        C  781   2.461   3.043   5.066
    1C        O  782   2.358   2.997   5.008
    1C        O  783   2.431   3.072   5.199
    1C        C  784   2.440   3.981   5.077
    1C        O  785   2.317   3.964   5.053
    1C        O  786   2.471   3.917   5.197
    1C        C  787   2.950   2.429   1.994
    1C        O  788   2.921   2.474   1.880
    1C        O  789   2.896   2.305   2.025
    1C        C  790   3.190   2.367   5.053
    1C        O  791   3.154   2.263   4.992
    1C        O  792   3.251   2.352   5.178
    1C        H  793   4.342   2.978   5.067
    1C        H  794   4.118   2.859   5.028
    1C        H  795   4.505   3.122   5.058
    1C        H  796   4.559   3.365   5.063
    1C        H  797   4.599   3.819   5.034
    1C        H  798   4.398   3.965   5.054
    1C        H  799   4.285   4.170   5.053
    1C        H  800   4.030   4.529   5.037
    1C        H  801   3.826   4.629   5.020
    1C        H  802   3.579   4.631   5.038
    1C        H  803   3.398   4.506   5.049
    1C        H  804   3.178   4.424   5.033
    1C        H  805   3.912   2.448   5.047
    1C        H  806   3.682   2.464   5.072
    1C        H  807   3.012   2.571   5.072
    1C        H  808   3.447   2.446   5.075
    1C        H  809   2.839   2.707   5.074
    1C        H  810   2.727   2.911   5.082
    1C        H  811   2.501   3.291   5.072
    1C        H  812   2.572   3.501   5.068
    1C        H  813   2.558   3.731   5.064
    1C        H  814   2.619   4.164   5.050
    1C        H  815   2.749   4.328   5.049
    1C        H  816   2.712   2.880   1.978
    1C        H  817   2.851   2.682   1.985
    1C        H  818   3.211   2.432   1.992
    1C        H  819   3.424   2.458   1.979
    1C        H  820   3.894   2.465   1.993
    1C        H  821   4.063   2.629   1.970
    1C        H  822   4.283   2.696   1.993
    1C        H  823   4.369   2.917   1.968
    1C        H  824   4.557   3.308   1.965
    1C        H  825   4.484   3.523   1.966
    1C        H  826   4.551   3.756   1.969
    1C        H  827   3.815   4.547   1.960
    1C        H  828   3.960   4.378   1.946
    1C        H  829   4.168   4.261   1.952
    1C        H  830   4.436   3.944   1.956
    1C        H  831   2.640   3.835   1.968
    1C        H  832   2.699   4.066   1.956
    1C        H  833   2.734   4.282   1.957
    1C        H  834   3.346   4.542   1.959
    1C        H  835   3.172   4.369   1.972
    1C        H  836   2.492   2.998   2.018
    1C        H  837   2.435   3.227   1.987
    1C        H  838   2.486   3.688   1.971
    2V3OU   H29  839   2.804   3.552   5.851
    2V3OU   C27  840   2.781   3.500   5.948
    2V3OU   H27  841   2.725   3.573   6.011
    2V3OU   H28  842   2.732   3.401   5.930
    2V3OU   O11  843   2.906   3.480   6.014
    2V3OU   C15  844   2.922   3.399   6.124
    2V3OU   C13  845   3.052   3.379   6.175
    2V3OU   C14  846   3.075   3.274   6.264
    2V3OU   C16  847   2.971   3.190   6.300
    2V3OU    H6  848   2.995   3.101   6.361
    2V3OU   C12  849   3.214   3.235   6.299
    2V3OU    O2  850   3.242   3.129   6.359
    2V3OU   C10  851   3.326   3.312   6.244
    2V3OU    C8  852   3.458   3.269   6.254
    2V3OU   O10  853   3.493   3.144   6.294
    2V3OU   H26  854   3.408   3.116   6.330
    2V3OU    C6  855   3.564   3.348   6.198
    2V3OU    C5  856   3.541   3.467   6.130
    2V3OU    C4  857   3.704   3.298   6.212
    2V3OU    H4  858   3.725   3.231   6.301
    2V3OU    H5  859   3.709   3.226   6.126
    2V3OU    C2  860   3.817   3.400   6.200
    2V3OU    O6  861   3.807   3.468   6.325
    2V3OU   H21  862   3.775   3.552   6.287
    2V3OU    C3  863   3.785   3.499   6.088
    2V3OU    H2  864   3.869   3.572   6.077
    2V3OU    H3  865   3.787   3.443   5.991
    2V3OU   C25  866   3.952   3.330   6.184
    2V3OU    O7  867   4.004   3.299   6.077
    2V3OU   C26  868   4.029   3.294   6.310
    2V3OU   H22  869   4.058   3.392   6.357
    2V3OU   H23  870   4.119   3.233   6.283
    2V3OU    O8  871   3.954   3.213   6.398
    2V3OU   H24  872   3.916   3.275   6.463
    2V3OU    C1  873   3.650   3.567   6.108
    2V3OU    H1  874   3.625   3.617   6.010
    2V3OU    O3  875   3.663   3.658   6.218
    2V3OU   C19  876   3.615   3.792   6.197
    2V3OU    H9  877   3.522   3.813   6.137
    2V3OU    O4  878   3.712   3.851   6.114
    2V3OU   C20  879   3.844   3.874   6.164
    2V3OU   H10  880   3.888   3.771   6.167
    2V3OU   C24  881   3.611   3.858   6.335
    2V3OU   H16  882   3.544   3.799   6.402
    2V3OU   H17  883   3.562   3.955   6.309
    2V3OU   C23  884   3.749   3.876   6.399
    2V3OU   H15  885   3.791   3.773   6.427
    2V3OU    N1  886   3.741   3.957   6.519
    2V3OU   H19  887   3.811   3.924   6.582
    2V3OU   H20  888   3.652   3.928   6.554
    2V3OU   C21  889   3.846   3.946   6.299
    2V3OU   H11  890   3.951   3.922   6.331
    2V3OU    O5  891   3.832   4.087   6.293
    2V3OU   H18  892   3.788   4.114   6.375
    2V3OU   C22  893   3.913   3.953   6.053
    2V3OU   H12  894   3.859   4.048   6.033
    2V3OU   H13  895   3.912   3.889   5.961
    2V3OU   H14  896   4.023   3.962   6.077
    2V3OU   C11  897   3.163   3.467   6.135
    2V3OU    O1  898   3.135   3.580   6.089
    2V3OU    C9  899   3.303   3.426   6.162
    2V3OU    C7  900   3.405   3.504   6.108
    2V3OU    O9  901   3.391   3.624   6.042
    2V3OU   H25  902   3.294   3.630   6.048
    2V3OU   C17  903   2.817   3.316   6.169
    2V3OU    H7  904   2.714   3.347   6.150
    2V3OU   C18  905   2.840   3.213   6.259
    2V3OU    H8  906   2.755   3.148   6.284
    3SOL     OW  907   2.875   3.422   3.776
    3SOL    HW1  908   2.813   3.391   3.849
    3SOL    HW2  909   2.895   3.519   3.788
    4SOL     OW  910   6.570   6.419   1.489
    4SOL    HW1  911   6.621   6.476   1.555
    4SOL    HW2  912   6.610   6.431   1.398
    5SOL     OW  913   4.346   2.659   0.412
    5SOL    HW1  914   4.334   2.693   0.505
    5SOL    HW2  915   4.355   2.560   0.413
    6SOL     OW  916   4.414   1.868   2.039
    6SOL    HW1  917   4.510   1.878   2.066
    6SOL    HW2  918   4.355   1.907   2.110
    7SOL     OW  919   2.064   3.242   4.379
    7SOL    HW1  920   2.095   3.260   4.473
    7SOL    HW2  921   1.993   3.172   4.381
    8SOL     OW  922   1.079   2.499   5.359
    8SOL    HW1  923   1.073   2.538   5.268
    8SOL    HW2  924   0.987   2.485   5.396
    9SOL     OW  925   0.891   1.733   5.847
    9SOL    HW1  926   0.966   1.771   5.792
    9SOL    HW2  927   0.928   1.665   5.910
   10SOL     OW  928   5.228   4.998   1.515
   10SOL    HW1  929   5.298   4.947   1.465
   10SOL    HW2  930   5.252   4.998   1.613
   11SOL     OW  931   2.868   2.237   0.582
   11SOL    HW1  932   2.771   2.259   0.579
   11SOL    HW2  933   2.922   2.321   0.583
   12SOL     OW  934   4.965   5.086   2.157
   12SOL    HW1  935   4.893   5.136   2.109
   12SOL    HW2  936   4.925   5.008   2.205
   13SOL     OW  937   5.325   6.612   1.487
   13SOL    HW1  938   5.309   6.697   1.437
   13SOL    HW2  939   5.355   6.633   1.580
   14SOL     OW  940   4.597   6.411   0.100
   14SOL    HW1  941   4.606   6.366   0.011
   14SOL    HW2  942   4.503   6.442   0.112
   15SOL     OW  943   0.665   5.779   6.040
   15SOL    HW1  944   0.628   5.696   5.998
   15SOL    HW2  945   0.758   5.761   6.072
   16SOL     OW  946   2.182   5.789   4.604
   16SOL    HW1  947   2.205   5.882   4.632
   16SOL    HW2  948   2.100   5.758   4.653
   17SOL     OW  949   6.982   0.857   4.776
   17SOL    HW1  950   6.956   0.926   4.708
   17SOL    HW2  951   6.919   0.862   4.853
   18SOL     OW  952   2.628   0.893   5.441
   18SOL    HW1  953   2.633   0.939   5.529
   18SOL    HW2  954   2.708   0.916   5.386
   19SOL     OW  955   3.044   6.279   2.610
   19SOL    HW1  956   3.069   6.273   2.706
   19SOL    HW2  957   2.972   6.213   2.590
   20SOL     OW  958   0.239   1.470   6.030
   20SOL    HW1  959   0.267   1.566   6.027
   20SOL    HW2  960   0.295   1.417   5.966
   21SOL     OW  961   2.125   3.938   2.298
   21SOL    HW1  962   2.157   3.900   2.384
   21SOL    HW2  963   2.139   3.872   2.224
   22SOL     OW  964   0.816   1.263   0.514
   22SOL    HW1  965   0.723   1.290   0.541
   22SOL    HW2  966   0.814   1.222   0.423
   23SOL     OW  967   6.480   5.041   0.292
   23SOL    HW1  968   6.467   4.981   0.212
   23SOL    HW2  969   6.391   5.072   0.324
   24SOL     OW  970   5.142   1.697   0.316
   24SOL    HW1  971   5.090   1.783   0.315
   24SOL    HW2  972   5.166   1.673   0.410
   25SOL     OW  973   1.609   0.919   4.103
   25SOL    HW1  974   1.530   0.974   4.078
   25SOL    HW2  975   1.678   0.978   4.145
   26SOL     OW  976   1.464   1.361   6.631
   26SOL    HW1  977   1.558   1.341   6.603
   26SOL    HW2  978   1.409   1.278   6.624
   27SOL     OW  979   0.310   0.344   3.212
   27SOL    HW1  980   0.232   0.316   3.267
   27SOL    HW2  981   0.285   0.344   3.115
   28SOL     OW  982   1.293   0.740   5.958
   28SOL    HW1  983   1.345   0.741   6.043
   28SOL    HW2  984   1.292   0.647   5.921
   29SOL     OW  985   5.429   0.193   1.459
   29SOL    HW1  986   5.363   0.155   1.394
   29SOL    HW2  987   5.427   0.140   1.544
   30SOL     OW  988   4.882   0.411   5.088
   30SOL    HW1  989   4.854   0.353   5.165
   30SOL    HW2  990   4.974   0.384   5.058
   31SOL     OW  991   6.705   4.684   4.052
   31SOL    HW1  992   6.746   4.660   4.140
   31SOL    HW2  993   6.757   4.757   4.009
   32SOL     OW  994   2.859   1.041   0.818
   32SOL    HW1  995   2.857   1.141   0.813
   32SOL    HW2  996   2.803   1.010   0.894
   33SOL     OW  997   2.254   5.217   5.579
   33SOL    HW1  998   2.293   5.284   5.515
   33SOL    HW2  999   2.306   5.132   5.575
   34SOL     OW 1000   2.434   5.908   5.506
   34SOL    HW1 1001   2.437   5.877   5.411
   34SOL    HW2 1002   2.343   5.945   5.526
   35SOL     OW 1003   1.393   3.648   5.757
   35SOL    HW1 1004   1.344   3.646   5.669
   35SOL    HW2 1005   1.421   3.555   5.781
   36SOL     OW 1006   6.462   1.056   3.553
   36SOL    HW1 1007   6.401   1.015   3.485
   36SOL    HW2 1008   6.411   1.124   3.607
   37SOL     OW 1009   2.563   6.214   4.519
   37SOL    HW1 1010   2.551   6.124   4.478
   37SOL    HW2 1011   2.498   6.278   4.479
   38SOL     OW 1012   1.127   4.059   2.479
   38SOL    HW1 1013   1.186   4.061   2.559
   38SOL    HW2 1014   1.146   3.977   2.425
   39SOL     OW 1015   6.699   4.927   0.959
   39SOL    HW1 1016   6.607   4.954   0.931
   39SOL    HW2 1017   6.766   4.961   0.892
   40SOL     OW 1018   3.371   0.829   6.909
   40SOL    HW1 1019   3.441   0.864   6.846
   40SOL    HW2 1020   3.414   0.765   6.973
   41SOL     OW 1021   5.091   3.513   1.463
   41SOL    HW1 1022   5.050   3.449   1.528
   41SOL    HW2 1023   5.080   3.606   1.497
   42SOL     OW 1024   3.058   4.194   6.769
   42SOL    HW1 1025   2.960   4.201   6.751
   42SOL    HW2 1026   3.109   4.215   6.686
   43SOL     OW 1027   5.538   0.050   4.836
   43SOL    HW1 1028   5.465   0.031   4.771
   43SOL    HW2 1029   5.540   7.004   4.906
   44SOL     OW 1030   6.871   1.342   6.255
   44SOL    HW1 1031   6.919   1.298   6.179
   44SOL    HW2 1032   6.792   1.393   6.220
   45SOL     OW 1033   2.747   4.536   6.447
   45SOL    HW1 1034   2.774   4.527   6.351
   45SOL    HW2 1035   2.824   4.509   6.505
   46SOL     OW 1036   0.920   4.478   5.162
   46SOL    HW1 1037   0.853   4.498   5.234
   46SOL    HW2 1038   0.879   4.418   5.094
   47SOL     OW 1039   6.007   3.881   0.261
   47SOL    HW1 1040   5.977   3.790   0.289
   47SOL    HW2 1041   6.107   3.886   0.264
   48SOL     OW 1042   6.694   4.042   0.755
   48SOL    HW1 1043   6.608   4.049   0.706
   48SOL    HW2 1044   6.735   4.133   0.763
   49SOL     OW 1045   3.306   2.506   6.269
   49SOL    HW1 1046   3.333   2.558   6.188
   49SOL    HW2 1047   3.354   2.542   6.349
   50SOL     OW 1048   5.332   2.131   0.310
   50SOL    HW1 1049   5.246   2.088   0.282
   50SOL    HW2 1050   5.393   2.139   0.231
   51SOL     OW 1051   0.961   6.306   1.720
   51SOL    HW1 1052   0.892   6.269   1.782
   51SOL    HW2 1053   0.924   6.312   1.628
   52SOL     OW 1054   5.647   1.732   2.178
   52SOL    HW1 1055   5.560   1.779   2.196
   52SOL    HW2 1056   5.629   1.648   2.126
   53SOL     OW 1057   4.247   0.895   0.746
   53SOL    HW1 1058   4.157   0.867   0.780
   53SOL    HW2 1059   4.273   0.981   0.790
   54SOL     OW 1060   6.449   0.617   6.327
   54SOL    HW1 1061   6.456   0.536   6.269
   54SOL    HW2 1062   6.434   0.697   6.269
   55SOL     OW 1063   1.717   3.824   6.261
   55SOL    HW1 1064   1.770   3.770   6.326
   55SOL    HW2 1065   1.665   3.762   6.202
   56SOL     OW 1066   0.605   2.322   6.717
   56SOL    HW1 1067   0.692   2.278   6.737
   56SOL    HW2 1068   0.531   2.256   6.729
   57SOL     OW 1069   4.037   6.081   1.132
   57SOL    HW1 1070   4.047   6.016   1.056
   57SOL    HW2 1071   3.952   6.133   1.120
   58SOL     OW 1072   1.160   0.841   6.918
   58SOL    HW1 1073   1.189   0.935   6.933
   58SOL    HW2 1074   1.092   0.838   6.844
   59SOL     OW 1075   4.033   2.734   6.227
   59SOL    HW1 1076   4.022   2.646   6.273
   59SOL    HW2 1077   3.987   2.805   6.281
   60SOL     OW 1078   6.274   3.307   2.974
   60SOL    HW1 1079   6.363   3.264   2.985
   60SOL    HW2 1080   6.202   3.240   2.992
   61SOL     OW 1081   1.153   5.750   3.093
   61SOL    HW1 1082   1.227   5.692   3.126
   61SOL    HW2 1083   1.112   5.710   3.011
   62SOL     OW 1084   6.033   2.369   3.420
   62SOL    HW1 1085   6.078   2.420   3.493
   62SOL    HW2 1086   6.001   2.432   3.349
   63SOL     OW 1087   4.036   6.713   5.825
   63SOL    HW1 1088   4.005   6.721   5.920
   63SOL    HW2 1089   3.959   6.687   5.767
   64SOL     OW 1090   1.275   2.052   5.955
   64SOL    HW1 1091   1.285   2.109   5.873
   64SOL    HW2 1092   1.178   2.042   5.976
   65SOL     OW 1093   1.017   5.326   5.065
   65SOL    HW1 1094   1.079   5.399   5.036
   65SOL    HW2 1095   0.926   5.364   5.080
   66SOL     OW 1096   4.525   1.699   1.420
   66SOL    HW1 1097   4.576   1.749   1.490
   66SOL    HW2 1098   4.478   1.621   1.462
   67SOL     OW 1099   0.012   3.842   1.313
   67SOL    HW1 1100   0.082   3.818   1.380
   67SOL    HW2 1101   6.987   3.921   1.346
   68SOL     OW 1102   0.307   0.886   6.506
   68SOL    HW1 1103   0.332   0.937   6.588
   68SOL    HW2 1104   0.336   0.936   6.425
   69SOL     OW 1105   1.938   6.197   6.994
   69SOL    HW1 1106   1.964   6.190   0.064
   69SOL    HW2 1107   1.958   6.111   6.948
   70SOL     OW 1108   4.650   4.984   3.247
   70SOL    HW1 1109   4.749   4.978   3.252
   70SOL    HW2 1110   4.617   5.047   3.318
   71SOL     OW 1111   5.058   1.155   5.170
   71SOL    HW1 1112   5.149   1.118   5.150
   71SOL    HW2 1113   5.028   1.215   5.096
   72SOL     OW 1114   0.136   0.712   2.150
   72SOL    HW1 1115   0.199   0.719   2.228
   72SOL    HW2 1116   0.086   0.798   2.140
   73SOL     OW 1117   2.330   1.361   0.802
   73SOL    HW1 1118   2.376   1.449   0.794
   73SOL    HW2 1119   2.375   1.305   0.871
   74SOL     OW 1120   2.494   1.593   0.121
   74SOL    HW1 1121   2.477   1.616   0.026
   74SOL    HW2 1122   2.527   1.673   0.170
   75SOL     OW 1123   1.995   2.394   0.609
   75SOL    HW1 1124   1.914   2.358   0.564
   75SOL    HW2 1125   2.003   2.492   0.591
   76SOL     OW 1126   3.989   4.835   5.951
   76SOL    HW1 1127   3.949   4.816   5.861
   76SOL    HW2 1128   4.032   4.752   5.985
   77SOL     OW 1129   0.719   5.294   4.360
   77SOL    HW1 1130   0.763   5.346   4.432
   77SOL    HW2 1131   0.637   5.342   4.329
   78SOL     OW 1132   5.755   1.739   1.428
   78SOL    HW1 1133   5.788   1.695   1.345
   78SOL    HW2 1134   5.655   1.739   1.429
   79SOL     OW 1135   1.394   3.978   3.977
   79SOL    HW1 1136   1.431   3.918   4.049
   79SOL    HW2 1137   1.303   4.009   4.003
   80SOL     OW 1138   3.556   1.988   5.137
   80SOL    HW1 1139   3.487   2.010   5.067
   80SOL    HW2 1140   3.647   2.012   5.103
   81SOL     OW 1141   3.469   5.294   2.330
   81SOL    HW1 1142   3.479   5.378   2.278
   81SOL    HW2 1143   3.550   5.237   2.317
   82SOL     OW 1144   3.164   0.298   2.236
   82SOL    HW1 1145   3.065   0.291   2.236
   82SOL    HW2 1146   3.197   0.315   2.329
   83SOL     OW 1147   5.508   0.990   4.536
   83SOL    HW1 1148   5.410   0.979   4.523
   83SOL    HW2 1149   5.553   0.999   4.447
   84SOL     OW 1150   5.895   2.891   3.262
   84SOL    HW1 1151   5.969   2.830   3.291
   84SOL    HW2 1152   5.930   2.984   3.253
   85SOL     OW 1153   2.366   5.980   3.268
   85SOL    HW1 1154   2.435   5.953   3.201
   85SOL    HW2 1155   2.345   5.903   3.327
   86SOL     OW 1156   4.787   0.546   0.779
   86SOL    HW1 1157   4.813   0.641   0.796
   86SOL    HW2 1158   4.844   0.485   0.836
   87SOL     OW 1159   2.823   2.938   6.597
   87SOL    HW1 1160   2.773   2.905   6.677
   87SOL    HW2 1161   2.792   2.888   6.516
   88SOL     OW 1162   2.080   2.788   1.710
   88SOL    HW1 1163   2.140   2.753   1.638
   88SOL    HW2 1164   1.985   2.774   1.683
   89SOL     OW 1165   3.321   3.717   5.430
   89SOL    HW1 1166   3.289   3.626   5.456
   89SOL    HW2 1167   3.407   3.708   5.379
   90SOL     OW 1168   6.540   4.080   2.100
   90SOL    HW1 1169   6.455   4.099   2.149
   90SOL    HW2 1170   6.581   3.996   2.136
   91SOL     OW 1171   4.357   6.053   0.731
   91SOL    HW1 1172   4.261   6.065   0.706
   91SOL    HW2 1173   4.370   6.079   0.826
   92SOL     OW 1174   5.942   5.139   7.004
   92SOL    HW1 1175   5.898   5.136   6.914
   92SOL    HW2 1176   6.031   5.094   6.999
   93SOL     OW 1177   3.014   3.885   1.437
   93SOL    HW1 1178   3.053   3.836   1.359
   93SOL    HW2 1179   3.072   3.870   1.517
   94SOL     OW 1180   3.021   1.911   4.134
   94SOL    HW1 1181   2.999   1.911   4.037
   94SOL    HW2 1182   3.015   1.817   4.169
   95SOL     OW 1183   0.679   0.297   3.789
   95SOL    HW1 1184   0.670   0.198   3.775
   95SOL    HW2 1185   0.725   0.338   3.710
   96SOL     OW 1186   0.257   5.232   6.655
   96SOL    HW1 1187   0.323   5.229   6.580
   96SOL    HW2 1188   0.190   5.304   6.638
   97SOL     OW 1189   3.270   4.321   5.600
   97SOL    HW1 1190   3.209   4.385   5.553
   97SOL    HW2 1191   3.355   4.313   5.549
   98SOL     OW 1192   0.459   2.440   4.879
   98SOL    HW1 1193   0.555   2.418   4.896
   98SOL    HW2 1194   0.402   2.362   4.905
   99SOL     OW 1195   4.093   4.597   5.356
   99SOL    HW1 1196   4.035   4.658   5.302
   99SOL    HW2 1197   4.039   4.555   5.429
  100SOL     OW 1198   1.398   0.867   5.265
  100SOL    HW1 1199   1.331   0.863   5.339
  100SOL    HW2 1200   1.468   0.935   5.286
  101SOL     OW 1201   5.182   3.380   2.711
  101SOL    HW1 1202   5.110   3.386   2.781
  101SOL    HW2 1203   5.213   3.472   2.688
  102SOL     OW 1204   3.643   0.253   6.753
  102SOL    HW1 1205   3.632   0.319   6.827
  102SOL    HW2 1206   3.740   0.241   6.734
  103SOL     OW 1207   1.036   1.403   1.851
  103SOL    HW1 1208   1.114   1.395   1.789
  103SOL    HW2 1209   1.065   1.384   1.945
  104SOL     OW 1210   6.396   4.482   2.232
  104SOL    HW1 1211   6.488   4.446   2.248
  104SOL    HW2 1212   6.329   4.417   2.268
  105SOL     OW 1213   0.093   0.447   4.925
  105SOL    HW1 1214   0.182   0.445   4.881
  105SOL    HW2 1215   0.076   0.361   4.972
  106SOL     OW 1216   4.294   2.823   1.577
  106SOL    HW1 1217   4.325   2.899   1.635
  106SOL    HW2 1218   4.341   2.829   1.489
  107SOL     OW 1219   4.673   0.168   1.409
  107SOL    HW1 1220   4.740   0.165   1.335
  107SOL    HW2 1221   4.714   0.209   1.490
  108SOL     OW 1222   3.661   1.773   4.679
  108SOL    HW1 1223   3.588   1.726   4.630
  108SOL    HW2 1224   3.741   1.782   4.619
  109SOL     OW 1225   1.868   0.939   5.481
  109SOL    HW1 1226   1.876   1.020   5.540
  109SOL    HW2 1227   1.957   0.919   5.441
  110SOL     OW 1228   4.050   4.466   5.611
  110SOL    HW1 1229   4.150   4.460   5.618
  110SOL    HW2 1230   4.008   4.394   5.667
  111SOL     OW 1231   5.897   3.435   1.441
  111SOL    HW1 1232   5.860   3.354   1.396
  111SOL    HW2 1233   5.980   3.411   1.490
  112SOL     OW 1234   4.544   6.793   5.057
  112SOL    HW1 1235   4.609   6.786   4.981
  112SOL    HW2 1236   4.475   6.721   5.048
  113SOL     OW 1237   0.741   4.999   2.768
  113SOL    HW1 1238   0.816   4.952   2.814
  113SOL    HW2 1239   0.732   5.091   2.805
  114SOL     OW 1240   0.090   1.824   1.705
  114SOL    HW1 1241   0.090   1.742   1.647
  114SOL    HW2 1242   0.171   1.879   1.684
  115SOL     OW 1243   4.153   0.793   2.521
  115SOL    HW1 1244   4.059   0.829   2.524
  115SOL    HW2 1245   4.198   0.813   2.608
  116SOL     OW 1246   6.754   5.676   1.313
  116SOL    HW1 1247   6.732   5.581   1.333
  116SOL    HW2 1248   6.756   5.690   1.214
  117SOL     OW 1249   2.704   1.802   0.310
  117SOL    HW1 1250   2.666   1.863   0.240
  117SOL    HW2 1251   2.788   1.760   0.276
  118SOL     OW 1252   0.292   2.345   2.027
  118SOL    HW1 1253   0.232   2.307   2.098
  118SOL    HW2 1254   0.236   2.379   1.951
  119SOL     OW 1255   6.391   6.315   4.849
  119SOL    HW1 1256   6.350   6.245   4.908
  119SOL    HW2 1257   6.352   6.404   4.873
  120SOL     OW 1258   4.203   1.668   4.576
  120SOL    HW1 1259   4.224   1.764   4.592
  120SOL    HW2 1260   4.184   1.653   4.479
  121SOL     OW 1261   0.270   5.859   6.445
  121SOL    HW1 1262   0.318   5.796   6.384
  121SOL    HW2 1263   0.240   5.940   6.393
  122SOL     OW 1264   6.590   4.900   6.126
  122SOL    HW1 1265   6.518   4.940   6.070
  122SOL    HW2 1266   6.563   4.808   6.154
  123SOL     OW 1267   0.544   2.810   1.171
  123SOL    HW1 1268   0.643   2.826   1.177
  123SOL    HW2 1269   0.511   2.844   1.083
  124SOL     OW 1270   1.435   3.485   0.310
  124SOL    HW1 1271   1.464   3.519   0.220
  124SOL    HW2 1272   1.440   3.558   0.377
  125SOL     OW 1273   4.432   2.406   0.403
  125SOL    HW1 1274   4.478   2.386   0.489
  125SOL    HW2 1275   4.386   2.324   0.370
  126SOL     OW 1276   3.277   3.050   4.723
  126SOL    HW1 1277   3.293   3.029   4.819
  126SOL    HW2 1278   3.343   3.119   4.692
  127SOL     OW 1279   0.240   4.922   5.949
  127SOL    HW1 1280   0.253   5.000   6.010
  127SOL    HW2 1281   0.193   4.952   5.866
  128SOL     OW 1282   4.296   3.858   6.025
  128SOL    HW1 1283   4.258   3.892   6.110
  128SOL    HW2 1284   4.396   3.849   6.034
  129SOL     OW 1285   0.566   5.108   1.795
  129SOL    HW1 1286   0.553   5.021   1.842
  129SOL    HW2 1287   0.573   5.093   1.697
  130SOL     OW 1288   6.228   3.400   4.728
  130SOL    HW1 1289   6.145   3.385   4.782
  130SOL    HW2 1290   6.308   3.375   4.784
  131SOL     OW 1291   0.815   3.167   3.399
  131SOL    HW1 1292   0.729   3.219   3.395
  131SOL    HW2 1293   0.854   3.175   3.491
  132SOL     OW 1294   4.421   2.720   1.325
  132SOL    HW1 1295   4.505   2.773   1.311
  132SOL    HW2 1296   4.393   2.679   1.238
  133SOL     OW 1297   4.715   4.892   6.147
  133SOL    HW1 1298   4.632   4.924   6.194
  133SOL    HW2 1299   4.738   4.955   6.073
  134SOL     OW 1300   6.071   1.593   0.904
  134SOL    HW1 1301   6.068   1.542   0.819
  134SOL    HW2 1302   6.009   1.672   0.898
  135SOL     OW 1303   4.346   4.624   3.852
  135SOL    HW1 1304   4.387   4.651   3.765
  135SOL    HW2 1305   4.252   4.658   3.856
  136SOL     OW 1306   3.945   0.074   5.926
  136SOL    HW1 1307   3.884   0.027   5.989
  136SOL    HW2 1308   3.918   0.052   5.832
  137SOL     OW 1309   2.243   4.163   6.614
  137SOL    HW1 1310   2.162   4.106   6.605
  137SOL    HW2 1311   2.256   4.218   6.531
  138SOL     OW 1312   1.278   5.209   6.670
  138SOL    HW1 1313   1.265   5.174   6.762
  138SOL    HW2 1314   1.276   5.309   6.671
  139SOL     OW 1315   0.220   0.218   1.289
  139SOL    HW1 1316   0.129   0.193   1.324
  139SOL    HW2 1317   0.287   0.206   1.362
  140SOL     OW 1318   3.741   0.754   1.658
  140SOL    HW1 1319   3.742   0.654   1.659
  140SOL    HW2 1320   3.780   0.788   1.573
  141SOL     OW 1321   0.451   1.663   7.011
  141SOL    HW1 1322   0.398   1.712   0.053
  141SOL    HW2 1323   0.511   1.728   6.964
  142SOL     OW 1324   2.057   4.033   0.558
  142SOL    HW1 1325   2.031   4.038   0.654
  142SOL    HW2 1326   2.001   4.097   0.505
  143SOL     OW 1327   4.942   5.776   1.714
  143SOL    HW1 1328   4.980   5.684   1.708
  143SOL    HW2 1329   5.011   5.839   1.751
  144SOL     OW 1330   3.536   5.392   2.728
  144SOL    HW1 1331   3.443   5.364   2.708
  144SOL    HW2 1332   3.592   5.311   2.747
  145SOL     OW 1333   0.125   5.368   3.505
  145SOL    HW1 1334   0.105   5.363   3.602
  145SOL    HW2 1335   0.214   5.411   3.491
  146SOL     OW 1336   6.607   0.755   5.976
  146SOL    HW1 1337   6.652   0.765   5.887
  146SOL    HW2 1338   6.659   0.806   6.044
  147SOL     OW 1339   6.154   1.044   5.323
  147SOL    HW1 1340   6.211   1.083   5.395
  147SOL    HW2 1341   6.163   1.100   5.240
  148SOL     OW 1342   1.873   6.443   1.705
  148SOL    HW1 1343   1.934   6.522   1.696
  148SOL    HW2 1344   1.876   6.410   1.800
  149SOL     OW 1345   1.328   3.310   4.675
  149SOL    HW1 1346   1.399   3.295   4.744
  149SOL    HW2 1347   1.370   3.313   4.585
  150SOL     OW 1348   4.418   2.085   5.374
  150SOL    HW1 1349   4.339   2.027   5.393
  150SOL    HW2 1350   4.436   2.144   5.453
  151SOL     OW 1351   6.540   2.844   1.491
  151SOL    HW1 1352   6.583   2.836   1.401
  151SOL    HW2 1353   6.503   2.755   1.518
  152SOL     OW 1354   6.936   2.840   1.280
  152SOL    HW1 1355   7.018   2.863   1.228
  152SOL    HW2 1356   6.896   2.924   1.318
  153SOL     OW 1357   1.807   1.771   3.263
  153SOL    HW1 1358   1.727   1.825   3.289
  153SOL    HW2 1359   1.813   1.690   3.320
  154SOL     OW 1360   0.128   1.465   3.321
  154SOL    HW1 1361   0.043   1.475   3.373
  154SOL    HW2 1362   0.176   1.553   3.318
  155SOL     OW 1363   5.412   4.662   3.898
  155SOL    HW1 1364   5.511   4.655   3.916
  155SOL    HW2 1365   5.383   4.586   3.841
  156SOL     OW 1366   4.774   1.248   1.030
  156SOL    HW1 1367   4.829   1.295   1.099
  156SOL    HW2 1368   4.680   1.242   1.061
  157SOL     OW 1369   4.870   0.537   1.268
  157SOL    HW1 1370   4.890   0.593   1.187
  157SOL    HW2 1371   4.774   0.510   1.267
  158SOL     OW 1372   0.705   3.028   4.474
  158SOL    HW1 1373   0.711   3.087   4.393
  158SOL    HW2 1374   0.655   3.076   4.546
  159SOL     OW 1375   6.270   5.317   0.226
  159SOL    HW1 1376   6.266   5.413   0.255
  159SOL    HW2 1377   6.282   5.258   0.306
  160SOL     OW 1378   4.162   1.091   1.027
  160SOL    HW1 1379   4.084   1.136   0.983
  160SOL    HW2 1380   4.241   1.096   0.966
  161SOL     OW 1381   6.946   6.698   0.535
  161SOL    HW1 1382   6.875   6.651   0.483
  161SOL    HW2 1383   6.911   6.785   0.570
  162SOL     OW 1384   4.211   0.174   5.544
  162SOL    HW1 1385   4.118   0.160   5.577
  162SOL    HW2 1386   4.263   0.089   5.552
  163SOL     OW 1387   0.759   3.642   2.983
  163SOL    HW1 1388   0.773   3.736   2.955
  163SOL    HW2 1389   0.818   3.621   3.061
  164SOL     OW 1390   1.968   2.158   2.629
  164SOL    HW1 1391   2.002   2.102   2.553
  164SOL    HW2 1392   2.012   2.248   2.626
  165SOL     OW 1393   0.321   7.014   3.812
  165SOL    HW1 1394   0.329   6.935   3.872
  165SOL    HW2 1395   0.382   7.002   3.733
  166SOL     OW 1396   0.109   4.575   3.981
  166SOL    HW1 1397   0.132   4.628   4.063
  166SOL    HW2 1398   0.075   4.485   4.007
  167SOL     OW 1399   1.436   1.390   4.048
  167SOL    HW1 1400   1.515   1.418   4.103
  167SOL    HW2 1401   1.375   1.468   4.034
  168SOL     OW 1402   3.647   3.826   2.757
  168SOL    HW1 1403   3.624   3.808   2.853
  168SOL    HW2 1404   3.725   3.888   2.753
  169SOL     OW 1405   5.283   2.353   0.433
  169SOL    HW1 1406   5.317   2.276   0.381
  169SOL    HW2 1407   5.359   2.399   0.479
  170SOL     OW 1408   0.021   5.706   1.283
  170SOL    HW1 1409   6.951   5.703   1.306
  170SOL    HW2 1410   0.076   5.685   1.364
  171SOL     OW 1411   3.170   2.832   1.077
  171SOL    HW1 1412   3.118   2.833   0.992
  171SOL    HW2 1413   3.110   2.805   1.152
  172SOL     OW 1414   0.863   0.798   6.894
  172SOL    HW1 1415   0.905   0.770   6.808
  172SOL    HW2 1416   0.818   0.719   6.937
  173SOL     OW 1417   5.854   1.190   4.643
  173SOL    HW1 1418   5.822   1.236   4.560
  173SOL    HW2 1419   5.788   1.121   4.671
  174SOL     OW 1420   5.837   4.204   4.792
  174SOL    HW1 1421   5.748   4.249   4.783
  174SOL    HW2 1422   5.826   4.105   4.786
  175SOL     OW 1423   0.633   6.711   2.726
  175SOL    HW1 1424   0.642   6.759   2.639
  175SOL    HW2 1425   0.703   6.744   2.789
  176SOL     OW 1426   6.647   4.182   1.112
  176SOL    HW1 1427   6.563   4.144   1.150
  176SOL    HW2 1428   6.705   4.108   1.080
  177SOL     OW 1429   6.342   2.164   3.856
  177SOL    HW1 1430   6.363   2.123   3.945
  177SOL    HW2 1431   6.245   2.184   3.851
  178SOL     OW 1432   2.406   5.570   4.576
  178SOL    HW1 1433   2.336   5.630   4.616
  178SOL    HW2 1434   2.403   5.481   4.620
  179SOL     OW 1435   3.289   4.121   1.706
  179SOL    HW1 1436   3.362   4.189   1.717
  179SOL    HW2 1437   3.202   4.162   1.733
  180SOL     OW 1438   4.580   1.701   6.494
  180SOL    HW1 1439   4.484   1.707   6.522
  180SOL    HW2 1440   4.621   1.618   6.531
  181SOL     OW 1441   3.346   0.981   5.852
  181SOL    HW1 1442   3.299   0.911   5.906
  181SOL    HW2 1443   3.353   0.951   5.757
  182SOL     OW 1444   2.634   3.019   5.604
  182SOL    HW1 1445   2.710   3.032   5.541
  182SOL    HW2 1446   2.549   3.005   5.553
  183SOL     OW 1447   3.036   0.765   3.172
  183SOL    HW1 1448   3.069   0.859   3.185
  183SOL    HW2 1449   3.070   0.730   3.085
  184SOL     OW 1450   5.064   5.550   3.333
  184SOL    HW1 1451   4.975   5.592   3.348
  184SOL    HW2 1452   5.061   5.454   3.363
  185SOL     OW 1453   0.646   6.694   4.875
  185SOL    HW1 1454   0.660   6.608   4.826
  185SOL    HW2 1455   0.549   6.702   4.901
  186SOL     OW 1456   3.007   6.155   5.295
  186SOL    HW1 1457   2.938   6.209   5.343
  186SOL    HW2 1458   3.032   6.075   5.351
  187SOL     OW 1459   4.103   5.915   0.925
  187SOL    HW1 1460   4.087   5.956   0.835
  187SOL    HW2 1461   4.187   5.861   0.922
  188SOL     OW 1462   1.391   3.440   3.354
  188SOL    HW1 1463   1.320   3.436   3.284
  188SOL    HW2 1464   1.385   3.527   3.403
  189SOL     OW 1465   5.789   4.573   5.914
  189SOL    HW1 1466   5.776   4.668   5.885
  189SOL    HW2 1467   5.703   4.538   5.952
  190SOL     OW 1468   6.350   6.425   0.565
  190SOL    HW1 1469   6.390   6.509   0.600
  190SOL    HW2 1470   6.367   6.418   0.467
  191SOL     OW 1471   1.796   2.354   5.199
  191SOL    HW1 1472   1.779   2.293   5.121
  191SOL    HW2 1473   1.882   2.328   5.243
  192SOL     OW 1474   0.151   6.086   1.296
  192SOL    HW1 1475   0.204   6.167   1.271
  192SOL    HW2 1476   0.107   6.048   1.215
  193SOL     OW 1477   2.488   0.357   1.921
  193SOL    HW1 1478   2.567   0.301   1.948
  193SOL    HW2 1479   2.516   0.453   1.917
  194SOL     OW 1480   4.069   6.148   2.903
  194SOL    HW1 1481   3.982   6.112   2.868
  194SOL    HW2 1482   4.062   6.161   3.002
  195SOL     OW 1483   2.994   0.734   1.019
  195SOL    HW1 1484   3.048   0.774   0.945
  195SOL    HW2 1485   2.910   0.694   0.980
  196SOL     OW 1486   4.108   2.507   0.736
  196SOL    HW1 1487   4.170   2.470   0.668
  196SOL    HW2 1488   4.040   2.566   0.692
  197SOL     OW 1489   1.976   5.931   0.383
  197SOL    HW1 1490   1.973   5.851   0.442
  197SOL    HW2 1491   2.014   6.008   0.433
  198SOL     OW 1492   4.346   6.862   6.404
  198SOL    HW1 1493   4.364   6.825   6.312
  198SOL    HW2 1494   4.426   6.846   6.462
  199SOL     OW 1495   1.668   0.802   2.477
  199SOL    HW1 1496   1.672   0.899   2.499
  199SOL    HW2 1497   1.600   0.757   2.536
  200SOL     OW 1498   1.048   3.504   4.151
  200SOL    HW1 1499   1.111   3.575   4.120
  200SOL    HW2 1500   1.081   3.464   4.236
  201SOL     OW 1501   4.136   1.678   6.332
  201SOL    HW1 1502   4.041   1.668   6.303
  201SOL    HW2 1503   4.164   1.774   6.327
  202SOL     OW 1504   3.762   0.745   2.767
  202SOL    HW1 1505   3.835   0.788   2.820
  202SOL    HW2 1506   3.802   0.673   2.709
  203SOL     OW 1507   6.194   2.337   0.437
  203SOL    HW1 1508   6.116   2.275   0.426
  203SOL    HW2 1509   6.226   2.365   0.347
  204SOL     OW 1510   2.178   6.565   1.057
  204SOL    HW1 1511   2.197   6.523   1.145
  204SOL    HW2 1512   2.225   6.653   1.052
  205SOL     OW 1513   5.680   0.364   1.460
  205SOL    HW1 1514   5.693   0.414   1.375
  205SOL    HW2 1515   5.613   0.290   1.446
  206SOL     OW 1516   6.841   6.231   1.358
  206SOL    HW1 1517   6.806   6.220   1.451
  206SOL    HW2 1518   6.868   6.141   1.323
  207SOL     OW 1519   5.843   2.217   6.034
  207SOL    HW1 1520   5.924   2.168   5.999
  207SOL    HW2 1521   5.803   2.271   5.960
  208SOL     OW 1522   4.290   4.345   6.863
  208SOL    HW1 1523   4.345   4.326   6.781
  208SOL    HW2 1524   4.225   4.418   6.843
  209SOL     OW 1525   0.240   5.854   4.014
  209SOL    HW1 1526   0.285   5.920   4.075
  209SOL    HW2 1527   0.144   5.844   4.041
  210SOL     OW 1528   3.964   2.210   0.630
  210SOL    HW1 1529   3.890   2.209   0.562
  210SOL    HW2 1530   3.925   2.231   0.719
  211SOL     OW 1531   1.024   3.211   1.441
  211SOL    HW1 1532   1.072   3.297   1.456
  211SOL    HW2 1533   1.007   3.166   1.529
  212SOL     OW 1534   0.267   5.363   4.727
  212SOL    HW1 1535   0.289   5.306   4.649
  212SOL    HW2 1536   0.340   5.430   4.741
  213SOL     OW 1537   3.619   2.485   0.054
  213SOL    HW1 1538   3.566   2.570   0.059
  213SOL    HW2 1539   3.590   2.423   0.127
  214SOL     OW 1540   1.716   6.674   3.459
  214SOL    HW1 1541   1.769   6.734   3.399
  214SOL    HW2 1542   1.723   6.709   3.553
  215SOL     OW 1543   3.785   4.049   2.522
  215SOL    HW1 1544   3.826   4.052   2.614
  215SOL    HW2 1545   3.687   4.067   2.529
  216SOL     OW 1546   2.893   0.153   5.844
  216SOL    HW1 1547   2.925   0.064   5.874
  216SOL    HW2 1548   2.798   0.166   5.873
  217SOL     OW 1549   6.912   2.427   5.005
  217SOL    HW1 1550   6.891   2.337   5.045
  217SOL    HW2 1551   6.834   2.488   5.019
  218SOL     OW 1552   2.596   3.862   5.856
  218SOL    HW1 1553   2.574   3.774   5.900
  218SOL    HW2 1554   2.511   3.906   5.827
  219SOL     OW 1555   3.574   5.435   6.909
  219SOL    HW1 1556   3.549   5.371   6.837
  219SOL    HW2 1557   3.500   5.501   6.922
  220SOL     OW 1558   1.548   4.215   0.662
  220SOL    HW1 1559   1.471   4.193   0.721
  220SOL    HW2 1560   1.542   4.312   0.636
  221SOL     OW 1561   5.916   2.721   4.312
  221SOL    HW1 1562   5.900   2.677   4.224
  221SOL    HW2 1563   5.829   2.751   4.351
  222SOL     OW 1564   1.600   6.209   4.647
  222SOL    HW1 1565   1.639   6.145   4.580
  222SOL    HW2 1566   1.672   6.239   4.709
  223SOL     OW 1567   6.045   4.980   2.351
  223SOL    HW1 1568   5.977   5.024   2.291
  223SOL    HW2 1569   6.125   4.955   2.297
  224SOL     OW 1570   4.276   2.345   2.170
  224SOL    HW1 1571   4.231   2.320   2.084
  224SOL    HW2 1572   4.305   2.441   2.167
  225SOL     OW 1573   5.028   6.894   1.356
  225SOL    HW1 1574   4.963   6.841   1.411
  225SOL    HW2 1575   5.008   6.882   1.259
  226SOL     OW 1576   0.120   5.527   2.150
  226SOL    HW1 1577   0.121   5.598   2.080
  226SOL    HW2 1578   0.213   5.494   2.166
  227SOL     OW 1579   1.152   3.447   3.198
  227SOL    HW1 1580   1.193   3.433   3.108
  227SOL    HW2 1581   1.107   3.537   3.200
  228SOL     OW 1582   4.004   6.567   2.372
  228SOL    HW1 1583   4.062   6.490   2.398
  228SOL    HW2 1584   3.929   6.534   2.314
  229SOL     OW 1585   6.199   5.151   3.011
  229SOL    HW1 1586   6.243   5.070   2.972
  229SOL    HW2 1587   6.132   5.187   2.946
  230SOL     OW 1588   0.817   4.098   6.297
  230SOL    HW1 1589   0.758   4.058   6.227
  230SOL    HW2 1590   0.788   4.192   6.315
  231SOL     OW 1591   0.565   2.018   6.751
  231SOL    HW1 1592   0.550   2.086   6.822
  231SOL    HW2 1593   0.571   1.927   6.793
  232SOL     OW 1594   1.462   4.008   6.629
  232SOL    HW1 1595   1.464   4.103   6.601
  232SOL    HW2 1596   1.453   3.949   6.549
  233SOL     OW 1597   3.198   6.732   6.773
  233SOL    HW1 1598   3.272   6.733   6.840
  233SOL    HW2 1599   3.153   6.643   6.774
  234SOL     OW 1600   2.886   5.084   5.920
  234SOL    HW1 1601   2.861   5.163   5.976
  234SOL    HW2 1602   2.874   5.000   5.973
  235SOL     OW 1603   3.270   3.493   5.680
  235SOL    HW1 1604   3.201   3.545   5.730
  235SOL    HW2 1605   3.240   3.398   5.672
  236SOL     OW 1606   0.099   2.223   6.065
  236SOL    HW1 1607   0.137   2.223   5.972
  236SOL    HW2 1608   0.156   2.168   6.125
  237SOL     OW 1609   6.708   6.586   1.669
  237SOL    HW1 1610   6.678   6.524   1.742
  237SOL    HW2 1611   6.794   6.629   1.695
  238SOL     OW 1612   0.218   1.754   2.586
  238SOL    HW1 1613   0.269   1.738   2.502
  238SOL    HW2 1614   0.121   1.767   2.565
  239SOL     OW 1615   6.644   5.252   0.631
  239SOL    HW1 1616   6.558   5.294   0.656
  239SOL    HW2 1617   6.699   5.237   0.714
  240SOL     OW 1618   0.222   2.211   5.802
  240SOL    HW1 1619   0.301   2.270   5.785
  240SOL    HW2 1620   0.252   2.125   5.842
  241SOL     OW 1621   5.876   2.278   4.412
  241SOL    HW1 1622   5.959   2.300   4.360
  241SOL    HW2 1623   5.864   2.179   4.414
  242SOL     OW 1624   2.907   2.242   3.975
  242SOL    HW1 1625   2.870   2.312   3.914
  242SOL    HW2 1626   2.845   2.231   4.053
  243SOL     OW 1627   4.440   1.496   6.771
  243SOL    HW1 1628   4.442   1.577   6.829
  243SOL    HW2 1629   4.524   1.490   6.717
  244SOL     OW 1630   0.610   1.456   5.816
  244SOL    HW1 1631   0.657   1.512   5.748
  244SOL    HW2 1632   0.515   1.487   5.824
  245SOL     OW 1633   5.056   2.618   3.835
  245SOL    HW1 1634   4.978   2.556   3.832
  245SOL    HW2 1635   5.141   2.566   3.841
  246SOL     OW 1636   5.067   3.146   3.312
  246SOL    HW1 1637   5.010   3.215   3.356
  246SOL    HW2 1638   5.074   3.065   3.371
  247SOL     OW 1639   2.889   0.496   2.806
  247SOL    HW1 1640   2.936   0.514   2.892
  247SOL    HW2 1641   2.945   0.529   2.730
  248SOL     OW 1642   6.949   1.540   2.035
  248SOL    HW1 1643   6.858   1.580   2.050
  248SOL    HW2 1644   6.939   1.453   1.987
  249SOL     OW 1645   2.032   5.565   4.999
  249SOL    HW1 1646   1.978   5.608   5.072
  249SOL    HW2 1647   2.112   5.521   5.039
  250SOL     OW 1648   5.568   2.685   0.218
  250SOL    HW1 1649   5.483   2.676   0.166
  250SOL    HW2 1650   5.646   2.687   0.156
  251SOL     OW 1651   1.890   1.914   0.541
  251SOL    HW1 1652   1.828   1.871   0.607
  251SOL    HW2 1653   1.926   1.845   0.479
  252SOL     OW 1654   0.570   1.639   0.482
  252SOL    HW1 1655   0.587   1.643   0.384
  252SOL    HW2 1656   0.536   1.548   0.507
  253SOL     OW 1657   1.723   4.549   6.160
  253SOL    HW1 1658   1.694   4.643   6.139
  253SOL    HW2 1659   1.821   4.548   6.178
  254SOL     OW 1660   4.893   3.860   6.195
  254SOL    HW1 1661   4.898   3.767   6.160
  254SOL    HW2 1662   4.797   3.888   6.203
  255SOL     OW 1663   3.918   2.150   2.103
  255SOL    HW1 1664   3.988   2.196   2.049
  255SOL    HW2 1665   3.828   2.168   2.064
  256SOL     OW 1666   6.706   5.615   1.612
  256SOL    HW1 1667   6.741   5.624   1.519
  256SOL    HW2 1668   6.644   5.691   1.632
  257SOL     OW 1669   2.595   6.177   6.141
  257SOL    HW1 1670   2.625   6.136   6.055
  257SOL    HW2 1671   2.646   6.262   6.156
  258SOL     OW 1672   4.423   4.631   4.125
  258SOL    HW1 1673   4.349   4.679   4.174
  258SOL    HW2 1674   4.391   4.607   4.033
  259SOL     OW 1675   0.822   2.185   2.712
  259SOL    HW1 1676   0.791   2.141   2.796
  259SOL    HW2 1677   0.768   2.269   2.697
  260SOL     OW 1678   6.880   6.876   5.415
  260SOL    HW1 1679   6.844   6.871   5.322
  260SOL    HW2 1680   6.874   6.786   5.458
  261SOL     OW 1681   0.250   1.035   3.757
  261SOL    HW1 1682   0.176   1.094   3.788
  261SOL    HW2 1683   0.336   1.085   3.762
  262SOL     OW 1684   1.098   4.766   2.383
  262SOL    HW1 1685   1.086   4.687   2.324
  262SOL    HW2 1686   1.196   4.789   2.389
  263SOL     OW 1687   0.143   3.707   4.512
  263SOL    HW1 1688   0.157   3.609   4.528
  263SOL    HW2 1689   0.166   3.729   4.417
  264SOL     OW 1690   3.407   4.480   0.215
  264SOL    HW1 1691   3.439   4.386   0.224
  264SOL    HW2 1692   3.423   4.528   0.301
  265SOL     OW 1693   4.599   5.564   3.715
  265SOL    HW1 1694   4.506   5.558   3.677
  265SOL    HW2 1695   4.648   5.479   3.698
  266SOL     OW 1696   4.162   3.318   6.893
  266SOL    HW1 1697   4.153   3.360   6.983
  266SOL    HW2 1698   4.179   3.220   6.904
  267SOL     OW 1699   2.028   2.467   5.920
  267SOL    HW1 1700   2.064   2.472   5.827
  267SOL    HW2 1701   2.019   2.560   5.957
  268SOL     OW 1702   2.803   4.904   3.975
  268SOL    HW1 1703   2.804   4.896   3.875
  268SOL    HW2 1704   2.738   4.974   4.002
  269SOL     OW 1705   2.017   2.004   5.140
  269SOL    HW1 1706   1.949   1.931   5.129
  269SOL    HW2 1707   2.002   2.051   5.227
  270SOL     OW 1708   4.830   6.467   4.889
  270SOL    HW1 1709   4.857   6.372   4.878
  270SOL    HW2 1710   4.731   6.475   4.883
  271SOL     OW 1711   1.819   1.756   7.009
  271SOL    HW1 1712   1.836   1.819   0.058
  271SOL    HW2 1713   1.768   1.676   0.016
  272SOL     OW 1714   4.611   5.477   0.449
  272SOL    HW1 1715   4.692   5.529   0.422
  272SOL    HW2 1716   4.636   5.412   0.522
  273SOL     OW 1717   2.186   6.311   4.124
  273SOL    HW1 1718   2.267   6.371   4.129
  273SOL    HW2 1719   2.135   6.318   4.209
  274SOL     OW 1720   5.601   2.142   1.387
  274SOL    HW1 1721   5.661   2.168   1.312
  274SOL    HW2 1722   5.610   2.207   1.462
  275SOL     OW 1723   5.158   6.086   5.565
  275SOL    HW1 1724   5.066   6.052   5.584
  275SOL    HW2 1725   5.197   6.125   5.648
  276SOL     OW 1726   0.206   0.087   4.444
  276SOL    HW1 1727   0.203   0.034   4.359
  276SOL    HW2 1728   0.172   0.180   4.426
  277SOL     OW 1729   4.372   2.753   5.542
  277SOL    HW1 1730   4.414   2.811   5.612
  277SOL    HW2 1731   4.413   2.772   5.453
  278SOL     OW 1732   5.569   4.246   3.077
  278SOL    HW1 1733   5.502   4.270   3.148
  278SOL    HW2 1734   5.551   4.154   3.044
  279SOL     OW 1735   6.895   3.552   3.545
  279SOL    HW1 1736   6.826   3.494   3.589
  279SOL    HW2 1737   6.985   3.508   3.552
  280SOL     OW 1738   3.958   1.714   3.704
  280SOL    HW1 1739   3.906   1.629   3.699
  280SOL    HW2 1740   4.045   1.697   3.750
  281SOL     OW 1741   5.133   6.410   5.268
  281SOL    HW1 1742   5.082   6.482   5.315
  281SOL    HW2 1743   5.128   6.425   5.170
  282SOL     OW 1744   0.700   2.743   0.474
  282SOL    HW1 1745   0.655   2.832   0.469
  282SOL    HW2 1746   0.652   2.686   0.541
  283SOL     OW 1747   6.507   3.808   4.088
  283SOL    HW1 1748   6.493   3.840   3.994
  283SOL    HW2 1749   6.554   3.720   4.086
  284SOL     OW 1750   4.999   6.985   2.459
  284SOL    HW1 1751   4.970   7.020   2.370
  284SOL    HW2 1752   5.068   6.913   2.446
  285SOL     OW 1753   3.970   6.490   5.440
  285SOL    HW1 1754   3.897   6.462   5.376
  285SOL    HW2 1755   4.005   6.409   5.487
  286SOL     OW 1756   2.873   4.822   5.585
  286SOL    HW1 1757   2.913   4.908   5.616
  286SOL    HW2 1758   2.862   4.824   5.486
  287SOL     OW 1759   3.668   6.034   6.778
  287SOL    HW1 1760   3.761   5.998   6.782
  287SOL    HW2 1761   3.639   6.064   6.869
  288SOL     OW 1762   4.330   1.649   0.314
  288SOL    HW1 1763   4.317   1.634   0.216
  288SOL    HW2 1764   4.321   1.562   0.362
  289SOL     OW 1765   5.736   4.934   4.701
  289SOL    HW1 1766   5.751   4.886   4.615
  289SOL    HW2 1767   5.650   4.985   4.697
  290SOL     OW 1768   3.381   0.413   5.666
  290SOL    HW1 1769   3.478   0.394   5.653
  290SOL    HW2 1770   3.326   0.348   5.614
  291SOL     OW 1771   4.460   0.772   5.407
  291SOL    HW1 1772   4.475   0.870   5.422
  291SOL    HW2 1773   4.546   0.723   5.418
  292SOL     OW 1774   3.423   0.578   4.026
  292SOL    HW1 1775   3.336   0.593   3.980
  292SOL    HW2 1776   3.469   0.499   3.985
  293SOL     OW 1777   4.753   0.157   2.715
  293SOL    HW1 1778   4.759   0.189   2.810
  293SOL    HW2 1779   4.657   0.149   2.689
  294SOL     OW 1780   6.705   1.043   6.592
  294SOL    HW1 1781   6.757   0.966   6.629
  294SOL    HW2 1782   6.755   1.128   6.607
  295SOL     OW 1783   0.332   0.460   4.831
  295SOL    HW1 1784   0.351   0.523   4.755
  295SOL    HW2 1785   0.375   0.372   4.813
  296SOL     OW 1786   0.566   1.970   1.335
  296SOL    HW1 1787   0.543   1.985   1.238
  296SOL    HW2 1788   0.637   2.034   1.362
  297SOL     OW 1789   5.334   3.016   3.252
  297SOL    HW1 1790   5.392   2.953   3.201
  297SOL    HW2 1791   5.336   3.106   3.210
  298SOL     OW 1792   4.105   1.278   5.991
  298SOL    HW1 1793   4.179   1.310   6.049
  298SOL    HW2 1794   4.017   1.298   6.035
  299SOL     OW 1795   0.590   1.093   6.313
  299SOL    HW1 1796   0.502   1.135   6.290
  299SOL    HW2 1797   0.575   1.010   6.366
  300SOL     OW 1798   4.634   6.542   3.370
  300SOL    HW1 1799   4.638   6.568   3.274
  300SOL    HW2 1800   4.661   6.446   3.380
  301SOL     OW 1801   6.862   5.554   5.849
  301SOL    HW1 1802   6.954   5.590   5.864
  301SOL    HW2 1803   6.806   5.569   5.931
  302SOL     OW 1804   6.967   6.795   2.806
  302SOL    HW1 1805   6.997   6.890   2.818
  302SOL    HW2 1806   6.909   6.789   2.724
  303SOL     OW 1807   5.700   6.023   2.574
  303SOL    HW1 1808   5.694   6.004   2.476
  303SOL    HW2 1809   5.666   6.115   2.593
  304SOL     OW 1810   1.957   6.855   4.596
  304SOL    HW1 1811   1.920   6.933   4.646
  304SOL    HW2 1812   1.921   6.770   4.634
  305SOL     OW 1813   0.878   2.051   0.998
  305SOL    HW1 1814   0.876   2.072   1.096
  305SOL    HW2 1815   0.974   2.041   0.969
  306SOL     OW 1816   0.372   6.707   2.814
  306SOL    HW1 1817   0.370   6.733   2.911
  306SOL    HW2 1818   0.466   6.701   2.783
  307SOL     OW 1819   4.067   3.804   3.144
  307SOL    HW1 1820   3.969   3.797   3.162
  307SOL    HW2 1821   4.116   3.737   3.199
  308SOL     OW 1822   6.965   1.775   2.613
  308SOL    HW1 1823   6.951   1.806   2.519
  308SOL    HW2 1824   6.927   1.683   2.623
  309SOL     OW 1825   2.013   5.063   0.250
  309SOL    HW1 1826   2.000   5.160   0.271
  309SOL    HW2 1827   1.971   5.007   0.322
  310SOL     OW 1828   5.348   6.623   5.093
  310SOL    HW1 1829   5.262   6.577   5.070
  310SOL    HW2 1830   5.415   6.607   5.021
  311SOL     OW 1831   1.311   6.061   1.724
  311SOL    HW1 1832   1.366   5.978   1.708
  311SOL    HW2 1833   1.324   6.125   1.648
  312SOL     OW 1834   3.492   1.004   4.178
  312SOL    HW1 1835   3.418   1.047   4.125
  312SOL    HW2 1836   3.551   0.953   4.116
  313SOL     OW 1837   3.021   3.092   2.575
  313SOL    HW1 1838   2.935   3.137   2.597
  313SOL    HW2 1839   3.054   3.123   2.486
  314SOL     OW 1840   2.706   5.717   6.330
  314SOL    HW1 1841   2.607   5.735   6.326
  314SOL    HW2 1842   2.742   5.706   6.238
  315SOL     OW 1843   5.413   0.406   4.410
  315SOL    HW1 1844   5.400   0.307   4.411
  315SOL    HW2 1845   5.331   0.451   4.376
  316SOL     OW 1846   3.310   1.153   6.742
  316SOL    HW1 1847   3.361   1.074   6.707
  316SOL    HW2 1848   3.258   1.195   6.667
  317SOL     OW 1849   0.432   2.355   1.093
  317SOL    HW1 1850   0.520   2.330   1.134
  317SOL    HW2 1851   0.428   2.319   1.000
  318SOL     OW 1852   1.078   0.462   3.709
  318SOL    HW1 1853   1.135   0.545   3.708
  318SOL    HW2 1854   1.138   0.382   3.705
  319SOL     OW 1855   0.099   0.818   3.200
  319SOL    HW1 1856   0.175   0.771   3.245
  319SOL    HW2 1857   0.018   0.813   3.258
  320SOL     OW 1858   5.125   1.647   0.580
  320SOL    HW1 1859   5.045   1.691   0.537
  320SOL    HW2 1860   5.139   1.686   0.671
  321SOL     OW 1861   4.494   3.113   0.990
  321SOL    HW1 1862   4.552   3.067   0.922
  321SOL    HW2 1863   4.402   3.073   0.988
  322SOL     OW 1864   3.385   2.624   6.539
  322SOL    HW1 1865   3.362   2.721   6.542
  322SOL    HW2 1866   3.314   2.571   6.586
  323SOL     OW 1867   1.456   3.973   2.364
  323SOL    HW1 1868   1.524   3.913   2.406
  323SOL    HW2 1869   1.365   3.949   2.398
  324SOL     OW 1870   0.423   0.037   3.425
  324SOL    HW1 1871   0.505   0.013   3.477
  324SOL    HW2 1872   0.437   0.013   3.329
  325SOL     OW 1873   6.587   3.580   0.700
  325SOL    HW1 1874   6.528   3.603   0.776
  325SOL    HW2 1875   6.653   3.654   0.685
  326SOL     OW 1876   0.003   5.916   6.994
  326SOL    HW1 1877   0.021   5.975   6.915
  326SOL    HW2 1878   6.969   5.964   0.031
  327SOL     OW 1879   4.088   5.962   6.268
  327SOL    HW1 1880   4.031   5.881   6.256
  327SOL    HW2 1881   4.030   6.042   6.284
  328SOL     OW 1882   1.426   4.610   3.143
  328SOL    HW1 1883   1.478   4.560   3.074
  328SOL    HW2 1884   1.364   4.547   3.189
  329SOL     OW 1885   3.133   3.083   2.202
  329SOL    HW1 1886   3.223   3.115   2.173
  329SOL    HW2 1887   3.075   3.070   2.122
  330SOL     OW 1888   2.639   3.548   0.365
  330SOL    HW1 1889   2.555   3.497   0.386
  330SOL    HW2 1890   2.696   3.493   0.303
  331SOL     OW 1891   5.563   4.925   5.228
  331SOL    HW1 1892   5.635   4.993   5.218
  331SOL    HW2 1893   5.532   4.923   5.324
  332SOL     OW 1894   6.005   2.122   3.139
  332SOL    HW1 1895   6.090   2.162   3.104
  332SOL    HW2 1896   6.024   2.074   3.225
  333SOL     OW 1897   3.415   0.041   4.163
  333SOL    HW1 1898   3.352   7.016   4.222
  333SOL    HW2 1899   3.505   7.024   4.164
  334SOL     OW 1900   3.707   3.816   3.464
  334SOL    HW1 1901   3.680   3.791   3.557
  334SOL    HW2 1902   3.791   3.870   3.468
  335SOL     OW 1903   3.378   1.306   1.217
  335SOL    HW1 1904   3.422   1.230   1.265
  335SOL    HW2 1905   3.378   1.288   1.119
  336SOL     OW 1906   4.756   1.921   5.007
  336SOL    HW1 1907   4.676   1.878   5.049
  336SOL    HW2 1908   4.782   1.870   4.925
  337SOL     OW 1909   6.825   1.066   5.499
  337SOL    HW1 1910   6.817   0.967   5.483
  337SOL    HW2 1911   6.863   1.082   5.590
  338SOL     OW 1912   4.356   1.544   1.558
  338SOL    HW1 1913   4.277   1.516   1.503
  338SOL    HW2 1914   4.328   1.612   1.625
  339SOL     OW 1915   4.322   5.189   6.077
  339SOL    HW1 1916   4.298   5.244   6.157
  339SOL    HW2 1917   4.368   5.247   6.009
  340SOL     OW 1918   5.817   2.955   4.780
  340SOL    HW1 1919   5.865   2.875   4.816
  340SOL    HW2 1920   5.718   2.939   4.786
  341SOL     OW 1921   6.878   6.696   2.516
  341SOL    HW1 1922   6.977   6.711   2.514
  341SOL    HW2 1923   6.834   6.756   2.449
  342SOL     OW 1924   4.647   1.940   2.464
  342SOL    HW1 1925   4.632   1.933   2.366
  342SOL    HW2 1926   4.565   1.978   2.507
  343SOL     OW 1927   5.660   6.985   1.318
  343SOL    HW1 1928   5.694   7.004   1.410
  343SOL    HW2 1929   5.561   6.978   1.319
  344SOL     OW 1930   6.853   3.111   1.885
  344SOL    HW1 1931   6.944   3.083   1.852
  344SOL    HW2 1932   6.785   3.045   1.854
  345SOL     OW 1933   6.829   2.763   4.571
  345SOL    HW1 1934   6.818   2.741   4.667
  345SOL    HW2 1935   6.773   2.843   4.548
  346SOL     OW 1936   2.446   6.368   3.403
  346SOL    HW1 1937   2.485   6.428   3.333
  346SOL    HW2 1938   2.349   6.353   3.384
  347SOL     OW 1939   2.503   4.724   0.754
  347SOL    HW1 1940   2.433   4.753   0.819
  347SOL    HW2 1941   2.526   4.799   0.693
  348SOL     OW 1942   4.171   4.970   1.973
  348SOL    HW1 1943   4.164   5.034   2.049
  348SOL    HW2 1944   4.218   5.014   1.896
  349SOL     OW 1945   5.252   4.241   0.386
  349SOL    HW1 1946   5.312   4.203   0.316
  349SOL    HW2 1947   5.192   4.310   0.345
  350SOL     OW 1948   2.242   1.748   6.522
  350SOL    HW1 1949   2.284   1.665   6.484
  350SOL    HW2 1950   2.144   1.734   6.533
  351SOL     OW 1951   3.388   4.232   0.921
  351SOL    HW1 1952   3.342   4.157   0.873
  351SOL    HW2 1953   3.320   4.295   0.959
  352SOL     OW 1954   4.596   0.080   2.448
  352SOL    HW1 1955   4.661   0.156   2.449
  352SOL    HW2 1956   4.503   0.115   2.457
  353SOL     OW 1957   1.834   6.685   0.570
  353SOL    HW1 1958   1.911   6.741   0.539
  353SOL    HW2 1959   1.838   6.677   0.670
  354SOL     OW 1960   0.773   2.460   0.398
  354SOL    HW1 1961   0.759   2.541   0.455
  354SOL    HW2 1962   0.745   2.379   0.449
  355SOL     OW 1963   0.848   2.857   3.491
  355SOL    HW1 1964   0.853   2.903   3.402
  355SOL    HW2 1965   0.930   2.801   3.505
  356SOL     OW 1966   2.851   0.154   5.297
  356SOL    HW1 1967   2.763   0.140   5.251
  356SOL    HW2 1968   2.836   0.168   5.395
  357SOL     OW 1969   6.227   6.598   4.402
  357SOL    HW1 1970   6.173   6.561   4.477
  357SOL    HW2 1971   6.190   6.686   4.374
  358SOL     OW 1972   3.286   5.976   6.288
  358SOL    HW1 1973   3.221   6.018   6.225
  358SOL    HW2 1974   3.253   5.885   6.315
  359SOL     OW 1975   1.549   2.137   1.756
  359SOL    HW1 1976   1.551   2.214   1.691
  359SOL    HW2 1977   1.503   2.165   1.840
  360SOL     OW 1978   2.242   4.487   3.610
  360SOL    HW1 1979   2.296   4.446   3.537
  360SOL    HW2 1980   2.204   4.415   3.668
  361SOL     OW 1981   0.332   1.728   2.340
  361SOL    HW1 1982   0.245   1.747   2.293
  361SOL    HW2 1983   0.366   1.638   2.313
  362SOL     OW 1984   3.712   3.107   1.993
  362SOL    HW1 1985   3.631   3.058   2.026
  362SOL    HW2 1986   3.692   3.205   1.989
  363SOL     OW 1987   4.769   5.235   1.621
  363SOL    HW1 1988   4.792   5.327   1.655
  363SOL    HW2 1989   4.698   5.243   1.551
  364SOL     OW 1990   0.958   0.358   0.197
  364SOL    HW1 1991   1.008   0.283   0.154
  364SOL    HW2 1992   0.979   0.443   0.148
  365SOL     OW 1993   5.612   1.001   3.988
  365SOL    HW1 1994   5.701   0.956   3.986
  365SOL    HW2 1995   5.621   1.095   3.957
  366SOL     OW 1996   5.558   1.766   0.247
  366SOL    HW1 1997   5.492   1.722   0.187
  366SOL    HW2 1998   5.636   1.706   0.260
  367SOL     OW 1999   5.210   0.951   6.768
  367SOL    HW1 2000   5.263   1.035   6.760
  367SOL    HW2 2001   5.169   0.945   6.859
  368SOL     OW 2002   1.510   1.870   5.148
  368SOL    HW1 2003   1.450   1.902   5.075
  368SOL    HW2 2004   1.485   1.915   5.234
  369SOL     OW 2005   6.050   4.376   0.354
  369SOL    HW1 2006   6.084   4.471   0.356
  369SOL    HW2 2007   6.093   4.325   0.428
  370SOL     OW 2008   2.433   2.528   3.356
  370SOL    HW1 2009   2.492   2.488   3.287
  370SOL    HW2 2010   2.364   2.586   3.312
  371SOL     OW 2011   1.186   5.927   6.809
  371SOL    HW1 2012   1.177   5.960   6.715
  371SOL    HW2 2013   1.110   5.962   6.864
  372SOL     OW 2014   2.680   5.716   5.464
  372SOL    HW1 2015   2.709   5.623   5.440
  372SOL    HW2 2016   2.631   5.714   5.551
  373SOL     OW 2017   6.207   4.612   3.017
  373SOL    HW1 2018   6.273   4.639   3.087
  373SOL    HW2 2019   6.229   4.521   2.983
  374SOL     OW 2020   2.938   1.661   2.530
  374SOL    HW1 2021   3.011   1.719   2.494
  374SOL    HW2 2022   2.872   1.717   2.579
  375SOL     OW 2023   1.510   5.758   4.157
  375SOL    HW1 2024   1.436   5.692   4.171
  375SOL    HW2 2025   1.498   5.804   4.069
  376SOL     OW 2026   4.021   0.488   3.686
  376SOL    HW1 2027   4.120   0.502   3.685
  376SOL    HW2 2028   3.976   0.576   3.700
  377SOL     OW 2029   2.064   2.053   6.489
  377SOL    HW1 2030   2.036   2.007   6.573
  377SOL    HW2 2031   2.154   2.019   6.461
  378SOL     OW 2032   3.774   1.593   2.491
  378SOL    HW1 2033   3.843   1.665   2.494
  378SOL    HW2 2034   3.684   1.635   2.477
  379SOL     OW 2035   4.204   2.255   6.026
  379SOL    HW1 2036   4.119   2.288   6.068
  379SOL    HW2 2037   4.203   2.156   6.022
  380SOL     OW 2038   4.188   2.277   0.499
  380SOL    HW1 2039   4.264   2.267   0.564
  380SOL    HW2 2040   4.107   2.231   0.536
  381SOL     OW 2041   2.097   3.818   2.953
  381SOL    HW1 2042   1.997   3.811   2.958
  381SOL    HW2 2043   2.137   3.775   3.034
  382SOL     OW 2044   6.043   0.542   6.742
  382SOL    HW1 2045   6.141   0.546   6.725
  382SOL    HW2 2046   5.998   0.619   6.698
  383SOL     OW 2047   4.625   2.688   0.318
  383SOL    HW1 2048   4.538   2.659   0.357
  383SOL    HW2 2049   4.638   2.785   0.336
  384SOL     OW 2050   6.928   3.914   5.051
  384SOL    HW1 2051   7.005   3.948   5.105
  384SOL    HW2 2052   6.962   3.876   4.965
  385SOL     OW 2053   4.763   3.374   0.372
  385SOL    HW1 2054   4.706   3.295   0.396
  385SOL    HW2 2055   4.706   3.456   0.369
  386SOL     OW 2056   4.534   6.711   4.591
  386SOL    HW1 2057   4.516   6.614   4.605
  386SOL    HW2 2058   4.456   6.765   4.625
  387SOL     OW 2059   2.875   5.841   4.301
  387SOL    HW1 2060   2.784   5.812   4.330
  387SOL    HW2 2061   2.940   5.766   4.314
  388SOL     OW 2062   1.051   4.647   6.698
  388SOL    HW1 2063   1.120   4.577   6.682
  388SOL    HW2 2064   1.080   4.705   6.774
  389SOL     OW 2065   3.170   2.909   1.755
  389SOL    HW1 2066   3.088   2.853   1.740
  389SOL    HW2 2067   3.182   2.972   1.678
  390SOL     OW 2068   2.343   1.138   4.523
  390SOL    HW1 2069   2.256   1.096   4.552
  390SOL    HW2 2070   2.350   1.133   4.424
  391SOL     OW 2071   1.461   2.230   0.266
  391SOL    HW1 2072   1.479   2.192   0.175
  391SOL    HW2 2073   1.492   2.166   0.336
  392SOL     OW 2074   3.489   5.642   3.729
  392SOL    HW1 2075   3.537   5.582   3.664
  392SOL    HW2 2076   3.524   5.735   3.718
  393SOL     OW 2077   6.321   3.770   4.932
  393SOL    HW1 2078   6.227   3.803   4.918
  393SOL    HW2 2079   6.363   3.750   4.843
  394SOL     OW 2080   2.156   1.125   5.941
  394SOL    HW1 2081   2.206   1.074   6.011
  394SOL    HW2 2082   2.058   1.114   5.956
  395SOL     OW 2083   6.374   3.251   1.453
  395SOL    HW1 2084   6.299   3.317   1.458
  395SOL    HW2 2085   6.363   3.181   1.523
  396SOL     OW 2086   3.501   2.842   5.274
  396SOL    HW1 2087   3.542   2.821   5.362
  396SOL    HW2 2088   3.572   2.848   5.204
  397SOL     OW 2089   3.591   1.651   6.886
  397SOL    HW1 2090   3.507   1.597   6.887
  397SOL    HW2 2091   3.598   1.698   6.798
  398SOL     OW 2092   1.289   5.009   2.777
  398SOL    HW1 2093   1.228   5.089   2.771
  398SOL    HW2 2094   1.251   4.944   2.842
  399SOL     OW 2095   5.431   4.636   2.550
  399SOL    HW1 2096   5.489   4.598   2.623
  399SOL    HW2 2097   5.340   4.596   2.556
  400SOL     OW 2098   2.350   4.762   4.491
  400SOL    HW1 2099   2.375   4.781   4.586
  400SOL    HW2 2100   2.358   4.664   4.474
  401SOL     OW 2101   5.474   1.431   0.327
  401SOL    HW1 2102   5.462   1.334   0.348
  401SOL    HW2 2103   5.464   1.485   0.411
  402SOL     OW 2104   6.603   4.622   1.174
  402SOL    HW1 2105   6.607   4.720   1.191
  402SOL    HW2 2106   6.650   4.573   1.249
  403SOL     OW 2107   5.509   4.002   0.139
  403SOL    HW1 2108   5.534   3.993   0.043
  403SOL    HW2 2109   5.538   4.091   0.174
  404SOL     OW 2110   0.393   6.702   4.615
  404SOL    HW1 2111   0.462   6.742   4.555
  404SOL    HW2 2112   0.302   6.727   4.581
  405SOL     OW 2113   0.872   2.518   1.160
  405SOL    HW1 2114   0.967   2.487   1.160
  405SOL    HW2 2115   0.854   2.569   1.076
  406SOL     OW 2116   0.833   2.671   2.735
  406SOL    HW1 2117   0.878   2.688   2.822
  406SOL    HW2 2118   0.901   2.647   2.666
  407SOL     OW 2119   2.745   1.516   3.433
  407SOL    HW1 2120   2.803   1.499   3.354
  407SOL    HW2 2121   2.794   1.573   3.499
  408SOL     OW 2122   1.852   0.713   2.781
  408SOL    HW1 2123   1.895   0.692   2.694
  408SOL    HW2 2124   1.916   0.696   2.856
  409SOL     OW 2125   6.217   3.455   3.882
  409SOL    HW1 2126   6.305   3.410   3.868
  409SOL    HW2 2127   6.205   3.473   3.980
  410SOL     OW 2128   3.054   0.395   6.748
  410SOL    HW1 2129   3.060   0.415   6.846
  410SOL    HW2 2130   3.096   0.471   6.697
  411SOL     OW 2131   0.529   3.407   5.092
  411SOL    HW1 2132   0.528   3.345   5.013
  411SOL    HW2 2133   0.438   3.409   5.133
  412SOL     OW 2134   3.978   0.619   2.176
  412SOL    HW1 2135   3.962   0.636   2.079
  412SOL    HW2 2136   4.018   0.528   2.188
  413SOL     OW 2137   2.504   0.671   2.450
  413SOL    HW1 2138   2.422   0.689   2.503
  413SOL    HW2 2139   2.569   0.619   2.505
  414SOL     OW 2140   4.916   3.686   0.046
  414SOL    HW1 2141   4.892   3.607   0.102
  414SOL    HW2 2142   4.951   3.759   0.105
  415SOL     OW 2143   3.663   6.169   2.369
  415SOL    HW1 2144   3.759   6.141   2.380
  415SOL    HW2 2145   3.659   6.259   2.326
  416SOL     OW 2146   3.857   5.758   5.964
  416SOL    HW1 2147   3.922   5.833   5.956
  416SOL    HW2 2148   3.905   5.674   5.987
  417SOL     OW 2149   4.921   4.849   0.961
  417SOL    HW1 2150   4.900   4.756   0.991
  417SOL    HW2 2151   4.943   4.906   1.041
  418SOL     OW 2152   5.946   4.689   0.483
  418SOL    HW1 2153   5.930   4.787   0.498
  418SOL    HW2 2154   6.033   4.663   0.525
  419SOL     OW 2155   5.989   6.397   1.233
  419SOL    HW1 2156   5.892   6.371   1.223
  419SOL    HW2 2157   6.030   6.342   1.306
  420SOL     OW 2158   4.628   4.026   0.020
  420SOL    HW1 2159   4.710   4.073   0.053
  420SOL    HW2 2160   4.655   3.946   6.992
  421SOL     OW 2161   1.366   5.660   6.501
  421SOL    HW1 2162   1.294   5.667   6.432
  421SOL    HW2 2163   1.372   5.747   6.551
  422SOL     OW 2164   5.703   3.414   6.543
  422SOL    HW1 2165   5.684   3.475   6.466
  422SOL    HW2 2166   5.768   3.343   6.514
  423SOL     OW 2167   0.685   3.218   5.881
  423SOL    HW1 2168   0.769   3.213   5.934
  423SOL    HW2 2169   0.644   3.309   5.894
  424SOL     OW 2170   2.161   3.726   0.235
  424SOL    HW1 2171   2.195   3.785   0.309
  424SOL    HW2 2172   2.234   3.708   0.170
  425SOL     OW 2173   3.260   0.228   0.976
  425SOL    HW1 2174   3.326   0.163   1.012
  425SOL    HW2 2175   3.202   0.262   1.050
  426SOL     OW 2176   6.029   4.054   5.130
  426SOL    HW1 2177   6.072   4.141   5.108
  426SOL    HW2 2178   6.057   3.985   5.063
  427SOL     OW 2179   4.529   3.387   1.033
  427SOL    HW1 2180   4.528   3.289   1.014
  427SOL    HW2 2181   4.460   3.408   1.102
  428SOL     OW 2182   3.246   1.756   5.651
  428SOL    HW1 2183   3.229   1.701   5.569
  428SOL    HW2 2184   3.158   1.788   5.688
  429SOL     OW 2185   2.792   5.536   0.063
  429SOL    HW1 2186   2.864   5.528   7.020
  429SOL    HW2 2187   2.769   5.632   0.076
  430SOL     OW 2188   1.973   6.825   4.943
  430SOL    HW1 2189   1.977   6.727   4.922
  430SOL    HW2 2190   1.910   6.870   4.879
  431SOL     OW 2191   3.265   1.772   6.534
  431SOL    HW1 2192   3.253   1.769   6.435
  431SOL    HW2 2193   3.313   1.856   6.559
  432SOL     OW 2194   0.125   1.376   1.251
  432SOL    HW1 2195   0.129   1.476   1.255
  432SOL    HW2 2196   0.099   1.348   1.158
  433SOL     OW 2197   3.207   6.023   4.618
  433SOL    HW1 2198   3.153   6.036   4.701
  433SOL    HW2 2199   3.150   6.036   4.537
  434SOL     OW 2200   6.286   3.770   1.370
  434SOL    HW1 2201   6.317   3.777   1.465
  434SOL    HW2 2202   6.186   3.776   1.367
  435SOL     OW 2203   3.494   3.650   0.637
  435SOL    HW1 2204   3.499   3.749   0.624
  435SOL    HW2 2205   3.436   3.610   0.566
  436SOL     OW 2206   2.409   0.557   0.360
  436SOL    HW1 2207   2.482   0.544   0.428
  436SOL    HW2 2208   2.346   0.627   0.392
  437SOL     OW 2209   6.683   6.645   5.724
  437SOL    HW1 2210   6.765   6.652   5.666
  437SOL    HW2 2211   6.684   6.718   5.792
  438SOL     OW 2212   2.161   3.039   1.830
  438SOL    HW1 2213   2.121   2.978   1.762
  438SOL    HW2 2214   2.211   3.112   1.783
  439SOL     OW 2215   6.161   4.716   2.306
  439SOL    HW1 2216   6.183   4.621   2.283
  439SOL    HW2 2217   6.098   4.753   2.236
  440SOL     OW 2218   1.234   2.766   3.600
  440SOL    HW1 2219   1.220   2.855   3.644
  440SOL    HW2 2220   1.173   2.757   3.521
  441SOL     OW 2221   1.195   0.978   3.568
  441SOL    HW1 2222   1.166   0.946   3.478
  441SOL    HW2 2223   1.125   1.037   3.607
  442SOL     OW 2224   0.219   4.557   0.080
  442SOL    HW1 2225   0.205   4.516   0.171
  442SOL    HW2 2226   0.192   4.491   0.010
  443SOL     OW 2227   1.054   4.232   5.998
  443SOL    HW1 2228   1.048   4.154   6.060
  443SOL    HW2 2229   0.970   4.238   5.944
  444SOL     OW 2230   4.567   2.967   6.341
  444SOL    HW1 2231   4.506   2.991   6.266
  444SOL    HW2 2232   4.654   3.015   6.331
  445SOL     OW 2233   1.823   4.135   3.193
  445SOL    HW1 2234   1.799   4.142   3.290
  445SOL    HW2 2235   1.922   4.144   3.183
  446SOL     OW 2236   4.002   5.210   3.972
  446SOL    HW1 2237   3.911   5.232   3.935
  446SOL    HW2 2238   4.020   5.113   3.960
  447SOL     OW 2239   0.145   5.701   0.456
  447SOL    HW1 2240   0.063   5.649   0.431
  447SOL    HW2 2241   0.213   5.638   0.493
  448SOL     OW 2242   4.583   1.013   5.638
  448SOL    HW1 2243   4.580   0.915   5.658
  448SOL    HW2 2244   4.515   1.035   5.568
  449SOL     OW 2245   5.726   7.020   4.453
  449SOL    HW1 2246   5.759   6.972   4.371
  449SOL    HW2 2247   5.777   6.989   4.533
  450SOL     OW 2248   6.881   6.063   3.308
  450SOL    HW1 2249   6.869   6.035   3.213
  450SOL    HW2 2250   6.936   6.147   3.312
  451SOL     OW 2251   6.075   2.224   3.841
  451SOL    HW1 2252   6.016   2.304   3.852
  451SOL    HW2 2253   6.019   2.141   3.839
  452SOL     OW 2254   6.942   4.629   6.559
  452SOL    HW1 2255   6.987   4.669   6.480
  452SOL    HW2 2256   6.856   4.676   6.576
  453SOL     OW 2257   2.690   0.462   5.601
  453SOL    HW1 2258   2.599   0.505   5.602
  453SOL    HW2 2259   2.735   0.476   5.689
  454SOL     OW 2260   1.082   5.646   0.132
  454SOL    HW1 2261   1.094   5.567   0.192
  454SOL    HW2 2262   1.129   5.630   0.046
  455SOL     OW 2263   5.013   0.900   5.666
  455SOL    HW1 2264   4.978   0.932   5.578
  455SOL    HW2 2265   5.103   0.859   5.653
  456SOL     OW 2266   4.639   5.645   0.082
  456SOL    HW1 2267   4.703   5.673   0.011
  456SOL    HW2 2268   4.644   5.545   0.094
  457SOL     OW 2269   0.921   5.599   2.131
  457SOL    HW1 2270   0.914   5.509   2.174
  457SOL    HW2 2271   0.897   5.670   2.198
  458SOL     OW 2272   6.751   6.118   5.796
  458SOL    HW1 2273   6.763   6.216   5.812
  458SOL    HW2 2274   6.718   6.103   5.703
  459SOL     OW 2275   1.667   0.205   3.083
  459SOL    HW1 2276   1.766   0.217   3.077
  459SOL    HW2 2277   1.621   0.292   3.066
  460SOL     OW 2278   6.953   1.452   3.496
  460SOL    HW1 2279   6.886   1.402   3.552
  460SOL    HW2 2280   7.023   1.492   3.555
  461SOL     OW 2281   5.268   6.316   5.726
  461SOL    HW1 2282   5.276   6.405   5.680
  461SOL    HW2 2283   5.258   6.330   5.824
  462SOL     OW 2284   2.986   3.176   6.688
  462SOL    HW1 2285   2.938   3.112   6.628
  462SOL    HW2 2286   2.920   3.218   6.750
  463SOL     OW 2287   7.016   5.922   1.817
  463SOL    HW1 2288   0.045   5.949   1.738
  463SOL    HW2 2289   6.920   5.943   1.799
  464SOL     OW 2290   1.391   1.256   5.771
  464SOL    HW1 2291   1.441   1.301   5.845
  464SOL    HW2 2292   1.366   1.163   5.799
  465SOL     OW 2293   6.907   3.244   5.010
  465SOL    HW1 2294   6.807   3.234   5.015
  465SOL    HW2 2295   6.929   3.341   5.001
  466SOL     OW 2296   1.931   0.271   3.131
  466SOL    HW1 2297   1.950   0.367   3.153
  466SOL    HW2 2298   2.016   0.219   3.127
  467SOL     OW 2299   1.832   0.950   4.471
  467SOL    HW1 2300   1.781   0.998   4.400
  467SOL    HW2 2301   1.851   0.857   4.442
  468SOL     OW 2302   3.359   4.369   1.469
  468SOL    HW1 2303   3.278   4.316   1.496
  468SOL    HW2 2304   3.397   4.413   1.550
  469SOL     OW 2305   2.502   5.131   6.917
  469SOL    HW1 2306   2.416   5.083   6.901
  469SOL    HW2 2307   2.566   5.070   6.962
  470SOL     OW 2308   3.594   1.274   2.546
  470SOL    HW1 2309   3.555   1.365   2.554
  470SOL    HW2 2310   3.665   1.274   2.476
  471SOL     OW 2311   2.506   1.683   4.796
  471SOL    HW1 2312   2.422   1.645   4.758
  471SOL    HW2 2313   2.495   1.697   4.895
  472SOL     OW 2314   4.051   4.197   5.264
  472SOL    HW1 2315   4.080   4.153   5.349
  472SOL    HW2 2316   4.112   4.274   5.243
  473SOL     OW 2317   1.172   4.301   3.017
  473SOL    HW1 2318   1.186   4.310   2.919
  473SOL    HW2 2319   1.078   4.272   3.035
  474SOL     OW 2320   4.248   5.032   4.825
  474SOL    HW1 2321   4.271   4.981   4.908
  474SOL    HW2 2322   4.217   4.969   4.754
  475SOL     OW 2323   0.499   6.604   5.948
  475SOL    HW1 2324   0.434   6.676   5.971
  475SOL    HW2 2325   0.558   6.585   6.026
  476SOL     OW 2326   0.151   5.029   2.201
  476SOL    HW1 2327   0.093   5.083   2.141
  476SOL    HW2 2328   0.104   4.943   2.224
  477SOL     OW 2329   1.387   5.528   4.303
  477SOL    HW1 2330   1.471   5.539   4.356
  477SOL    HW2 2331   1.343   5.442   4.327
  478SOL     OW 2332   2.011   5.551   3.333
  478SOL    HW1 2333   2.017   5.566   3.432
  478SOL    HW2 2334   2.072   5.615   3.286
  479SOL     OW 2335   3.452   1.699   1.045
  479SOL    HW1 2336   3.463   1.756   0.964
  479SOL    HW2 2337   3.518   1.728   1.114
  480SOL     OW 2338   1.342   6.697   3.093
  480SOL    HW1 2339   1.366   6.768   3.027
  480SOL    HW2 2340   1.423   6.672   3.146
  481SOL     OW 2341   3.393   6.754   1.535
  481SOL    HW1 2342   3.348   6.676   1.578
  481SOL    HW2 2343   3.430   6.815   1.606
  482SOL     OW 2344   5.475   4.880   1.438
  482SOL    HW1 2345   5.491   4.895   1.340
  482SOL    HW2 2346   5.442   4.787   1.452
  483SOL     OW 2347   5.870   1.647   1.187
  483SOL    HW1 2348   5.828   1.624   1.099
  483SOL    HW2 2349   5.934   1.576   1.213
  484SOL     OW 2350   0.099   1.855   5.359
  484SOL    HW1 2351   0.147   1.930   5.314
  484SOL    HW2 2352   0.053   1.799   5.290
  485SOL     OW 2353   3.650   5.386   1.838
  485SOL    HW1 2354   3.636   5.315   1.907
  485SOL    HW2 2355   3.737   5.433   1.856
  486SOL     OW 2356   0.229   0.508   0.270
  486SOL    HW1 2357   0.284   0.540   0.193
  486SOL    HW2 2358   0.289   0.472   0.342
  487SOL     OW 2359   6.537   2.884   6.499
  487SOL    HW1 2360   6.498   2.802   6.540
  487SOL    HW2 2361   6.508   2.890   6.404
  488SOL     OW 2362   0.422   2.548   2.610
  488SOL    HW1 2363   0.349   2.570   2.675
  488SOL    HW2 2364   0.511   2.565   2.653
  489SOL     OW 2365   3.304   6.191   5.900
  489SOL    HW1 2366   3.287   6.178   5.802
  489SOL    HW2 2367   3.395   6.157   5.923
  490SOL     OW 2368   5.104   6.393   4.585
  490SOL    HW1 2369   5.204   6.390   4.577
  490SOL    HW2 2370   5.063   6.346   4.507
  491SOL     OW 2371   7.000   2.422   3.148
  491SOL    HW1 2372   6.966   2.459   3.234
  491SOL    HW2 2373   7.001   2.495   3.079
  492SOL     OW 2374   1.672   0.763   4.901
  492SOL    HW1 2375   1.705   0.828   4.831
  492SOL    HW2 2376   1.688   0.801   4.992
  493SOL     OW 2377   6.403   4.135   4.066
  493SOL    HW1 2378   6.391   4.234   4.070
  493SOL    HW2 2379   6.458   4.105   4.143
  494SOL     OW 2380   6.520   0.966   0.214
  494SOL    HW1 2381   6.594   0.942   0.152
  494SOL    HW2 2382   6.508   1.065   0.215
  495SOL     OW 2383   4.352   4.448   1.436
  495SOL    HW1 2384   4.343   4.434   1.534
  495SOL    HW2 2385   4.409   4.375   1.397
  496SOL     OW 2386   5.952   3.282   3.839
  496SOL    HW1 2387   6.017   3.258   3.911
  496SOL    HW2 2388   5.897   3.361   3.868
  497SOL     OW 2389   4.514   0.583   3.980
  497SOL    HW1 2390   4.551   0.675   3.995
  497SOL    HW2 2391   4.590   0.518   3.968
  498SOL     OW 2392   1.502   3.236   2.526
  498SOL    HW1 2393   1.546   3.149   2.503
  498SOL    HW2 2394   1.403   3.222   2.528
  499SOL     OW 2395   3.404   1.697   5.000
  499SOL    HW1 2396   3.404   1.599   5.018
  499SOL    HW2 2397   3.489   1.737   5.034
  500SOL     OW 2398   1.153   4.314   2.733
  500SOL    HW1 2399   1.055   4.292   2.729
  500SOL    HW2 2400   1.206   4.231   2.712
  501SOL     OW 2401   0.494   4.451   6.095
  501SOL    HW1 2402   0.433   4.375   6.074
  501SOL    HW2 2403   0.448   4.537   6.075
  502SOL     OW 2404   2.970   5.596   6.543
  502SOL    HW1 2405   2.874   5.569   6.548
  502SOL    HW2 2406   2.980   5.688   6.580
  503SOL     OW 2407   5.277   5.379   5.090
  503SOL    HW1 2408   5.275   5.320   5.009
  503SOL    HW2 2409   5.198   5.440   5.089
  504SOL     OW 2410   2.144   5.888   4.255
  504SOL    HW1 2411   2.120   5.917   4.348
  504SOL    HW2 2412   2.221   5.942   4.222
  505SOL     OW 2413   4.393   6.958   5.400
  505SOL    HW1 2414   4.443   6.873   5.381
  505SOL    HW2 2415   4.299   6.936   5.425
  506SOL     OW 2416   2.591   4.024   6.950
  506SOL    HW1 2417   2.687   3.994   6.954
  506SOL    HW2 2418   2.560   4.049   0.015
  507SOL     OW 2419   3.196   1.512   4.210
  507SOL    HW1 2420   3.280   1.458   4.208
  507SOL    HW2 2421   3.201   1.584   4.141
  508SOL     OW 2422   6.303   4.173   3.802
  508SOL    HW1 2423   6.317   4.154   3.899
  508SOL    HW2 2424   6.226   4.237   3.792
  509SOL     OW 2425   4.496   2.527   1.888
  509SOL    HW1 2426   4.486   2.616   1.843
  509SOL    HW2 2427   4.451   2.457   1.832
  510SOL     OW 2428   0.404   4.172   4.060
  510SOL    HW1 2429   0.457   4.218   3.989
  510SOL    HW2 2430   0.450   4.183   4.148
  511SOL     OW 2431   0.858   6.177   0.872
  511SOL    HW1 2432   0.824   6.166   0.778
  511SOL    HW2 2433   0.799   6.125   0.934
  512SOL     OW 2434   0.356   3.921   6.680
  512SOL    HW1 2435   0.405   3.937   6.595
  512SOL    HW2 2436   0.421   3.924   6.757
  513SOL     OW 2437   0.120   5.693   4.263
  513SOL    HW1 2438   0.097   5.627   4.191
  513SOL    HW2 2439   0.220   5.695   4.274
  514SOL     OW 2440   6.007   1.522   3.777
  514SOL    HW1 2441   5.940   1.503   3.705
  514SOL    HW2 2442   6.045   1.614   3.763
  515SOL     OW 2443   1.992   6.499   0.304
  515SOL    HW1 2444   2.084   6.461   0.304
  515SOL    HW2 2445   1.941   6.463   0.382
  516SOL     OW 2446   1.805   5.199   2.361
  516SOL    HW1 2447   1.852   5.258   2.427
  516SOL    HW2 2448   1.873   5.142   2.314
  517SOL     OW 2449   5.056   0.840   0.491
  517SOL    HW1 2450   4.983   0.884   0.543
  517SOL    HW2 2451   5.043   0.857   0.393
  518SOL     OW 2452   2.288   2.301   0.433
  518SOL    HW1 2453   2.216   2.311   0.501
  518SOL    HW2 2454   2.290   2.207   0.399
  519SOL     OW 2455   0.728   6.184   0.487
  519SOL    HW1 2456   0.682   6.130   0.416
  519SOL    HW2 2457   0.714   6.282   0.468
  520SOL     OW 2458   6.118   4.642   4.815
  520SOL    HW1 2459   6.162   4.557   4.843
  520SOL    HW2 2460   6.113   4.704   4.893
  521SOL     OW 2461   6.735   1.092   0.873
  521SOL    HW1 2462   6.813   1.084   0.935
  521SOL    HW2 2463   6.682   1.007   0.875
  522SOL     OW 2464   3.691   3.465   4.963
  522SOL    HW1 2465   3.635   3.470   5.046
  522SOL    HW2 2466   3.780   3.508   4.980
  523SOL     OW 2467   6.790   6.293   5.025
  523SOL    HW1 2468   6.785   6.376   4.969
  523SOL    HW2 2469   6.697   6.260   5.043
  524SOL     OW 2470   3.259   1.283   5.702
  524SOL    HW1 2471   3.317   1.222   5.649
  524SOL    HW2 2472   3.222   1.234   5.781
  525SOL     OW 2473   2.501   3.429   6.757
  525SOL    HW1 2474   2.553   3.413   6.673
  525SOL    HW2 2475   2.557   3.404   6.836
  526SOL     OW 2476   4.054   5.802   4.750
  526SOL    HW1 2477   4.140   5.800   4.800
  526SOL    HW2 2478   3.998   5.723   4.776
  527SOL     OW 2479   0.735   1.981   6.111
  527SOL    HW1 2480   0.691   2.057   6.158
  527SOL    HW2 2481   0.783   1.924   6.178
  528SOL     OW 2482   2.646   0.462   4.942
  528SOL    HW1 2483   2.689   0.496   5.026
  528SOL    HW2 2484   2.717   0.436   4.876
  529SOL     OW 2485   7.023   4.741   4.227
  529SOL    HW1 2486   6.962   4.664   4.243
  529SOL    HW2 2487   6.986   4.823   4.270
  530SOL     OW 2488   1.699   3.083   5.830
  530SOL    HW1 2489   1.708   2.989   5.863
  530SOL    HW2 2490   1.774   3.105   5.768
  531SOL     OW 2491   6.959   0.177   0.747
  531SOL    HW1 2492   6.973   0.170   0.845
  531SOL    HW2 2493   6.953   0.273   0.720
  532SOL     OW 2494   1.732   0.754   5.675
  532SOL    HW1 2495   1.794   0.803   5.613
  532SOL    HW2 2496   1.645   0.804   5.680
  533SOL     OW 2497   5.336   6.605   4.285
  533SOL    HW1 2498   5.386   6.677   4.237
  533SOL    HW2 2499   5.345   6.619   4.383
  534SOL     OW 2500   3.924   5.998   1.983
  534SOL    HW1 2501   3.853   6.020   1.917
  534SOL    HW2 2502   3.994   5.942   1.939
  535SOL     OW 2503   6.915   3.518   3.257
  535SOL    HW1 2504   6.880   3.579   3.328
  535SOL    HW2 2505   7.013   3.503   3.272
  536SOL     OW 2506   1.174   5.628   0.807
  536SOL    HW1 2507   1.088   5.649   0.762
  536SOL    HW2 2508   1.171   5.660   0.902
  537SOL     OW 2509   2.552   0.306   2.574
  537SOL    HW1 2510   2.498   0.387   2.554
  537SOL    HW2 2511   2.495   0.224   2.565
  538SOL     OW 2512   1.356   4.540   3.704
  538SOL    HW1 2513   1.387   4.503   3.792
  538SOL    HW2 2514   1.260   4.568   3.712
  539SOL     OW 2515   1.462   4.815   1.544
  539SOL    HW1 2516   1.500   4.723   1.536
  539SOL    HW2 2517   1.363   4.809   1.553
  540SOL     OW 2518   1.620   2.459   1.691
  540SOL    HW1 2519   1.552   2.529   1.712
  540SOL    HW2 2520   1.601   2.420   1.601
  541SOL     OW 2521   3.678   5.411   5.013
  541SOL    HW1 2522   3.699   5.368   4.925
  541SOL    HW2 2523   3.646   5.505   4.997
  542SOL     OW 2524   6.250   5.758   6.736
  542SOL    HW1 2525   6.349   5.753   6.747
  542SOL    HW2 2526   6.221   5.695   6.664
  543SOL     OW 2527   0.044   6.320   0.035
  543SOL    HW1 2528   7.006   6.395   0.048
  543SOL    HW2 2529   0.114   6.323   0.106
  544SOL     OW 2530   0.989   5.307   7.002
  544SOL    HW1 2531   0.932   5.322   0.056
  544SOL    HW2 2532   0.988   5.388   6.944
  545SOL     OW 2533   3.412   2.028   3.893
  545SOL    HW1 2534   3.426   1.945   3.948
  545SOL    HW2 2535   3.316   2.054   3.895
  546SOL     OW 2536   1.218   3.795   0.425
  546SOL    HW1 2537   1.228   3.800   0.326
  546SOL    HW2 2538   1.308   3.790   0.468
  547SOL     OW 2539   3.094   2.835   0.114
  547SOL    HW1 2540   3.094   2.801   0.020
  547SOL    HW2 2541   3.002   2.865   0.138
  548SOL     OW 2542   3.497   3.231   4.646
  548SOL    HW1 2543   3.434   3.307   4.630
  548SOL    HW2 2544   3.522   3.190   4.558
  549SOL     OW 2545   6.666   3.464   1.693
  549SOL    HW1 2546   6.643   3.492   1.786
  549SOL    HW2 2547   6.760   3.492   1.672
  550SOL     OW 2548   6.645   3.983   1.450
  550SOL    HW1 2549   6.556   3.942   1.430
  550SOL    HW2 2550   6.653   3.999   1.548
  551SOL     OW 2551   6.932   2.100   6.669
  551SOL    HW1 2552   6.933   2.178   6.732
  551SOL    HW2 2553   6.937   2.015   6.722
  552SOL     OW 2554   4.876   5.734   0.608
  552SOL    HW1 2555   4.872   5.830   0.580
  552SOL    HW2 2556   4.882   5.676   0.526
  553SOL     OW 2557   1.438   1.876   1.440
  553SOL    HW1 2558   1.528   1.915   1.424
  553SOL    HW2 2559   1.419   1.875   1.539
  554SOL     OW 2560   5.067   5.771   5.289
  554SOL    HW1 2561   5.036   5.683   5.324
  554SOL    HW2 2562   4.991   5.835   5.285
  555SOL     OW 2563   1.805   4.259   4.566
  555SOL    HW1 2564   1.721   4.302   4.598
  555SOL    HW2 2565   1.882   4.319   4.586
  556SOL     OW 2566   5.577   3.352   2.932
  556SOL    HW1 2567   5.483   3.319   2.940
  556SOL    HW2 2568   5.584   3.415   2.856
  557SOL     OW 2569   0.429   5.466   6.202
  557SOL    HW1 2570   0.376   5.409   6.265
  557SOL    HW2 2571   0.372   5.541   6.168
  558SOL     OW 2572   4.134   4.081   5.514
  558SOL    HW1 2573   4.076   4.083   5.595
  558SOL    HW2 2574   4.180   3.993   5.507
  559SOL     OW 2575   5.771   5.944   6.028
  559SOL    HW1 2576   5.855   5.967   5.978
  559SOL    HW2 2577   5.692   5.974   5.974
  560SOL     OW 2578   4.165   6.377   6.787
  560SOL    HW1 2579   4.223   6.443   6.740
  560SOL    HW2 2580   4.140   6.303   6.725
  561SOL     OW 2581   5.201   6.401   0.948
  561SOL    HW1 2582   5.177   6.443   0.860
  561SOL    HW2 2583   5.225   6.473   1.013
  562SOL     OW 2584   6.509   1.116   6.415
  562SOL    HW1 2585   6.572   1.070   6.477
  562SOL    HW2 2586   6.446   1.173   6.467
  563SOL     OW 2587   3.410   6.818   5.111
  563SOL    HW1 2588   3.311   6.808   5.116
  563SOL    HW2 2589   3.453   6.741   5.158
  564SOL     OW 2590   0.342   1.755   6.750
  564SOL    HW1 2591   0.295   1.812   6.817
  564SOL    HW2 2592   0.318   1.785   6.657
  565SOL     OW 2593   4.654   4.252   5.159
  565SOL    HW1 2594   4.639   4.155   5.177
  565SOL    HW2 2595   4.663   4.266   5.060
  566SOL     OW 2596   5.368   5.111   2.427
  566SOL    HW1 2597   5.405   5.167   2.353
  566SOL    HW2 2598   5.296   5.162   2.474
  567SOL     OW 2599   3.940   3.860   4.558
  567SOL    HW1 2600   3.963   3.903   4.471
  567SOL    HW2 2601   3.989   3.773   4.566
  568SOL     OW 2602   1.908   1.566   5.926
  568SOL    HW1 2603   1.897   1.485   5.983
  568SOL    HW2 2604   1.940   1.642   5.983
  569SOL     OW 2605   2.435   3.761   0.369
  569SOL    HW1 2606   2.428   3.797   0.276
  569SOL    HW2 2607   2.530   3.735   0.387
  570SOL     OW 2608   0.628   6.000   1.239
  570SOL    HW1 2609   0.648   5.935   1.165
  570SOL    HW2 2610   0.537   5.981   1.276
  571SOL     OW 2611   4.449   5.425   2.772
  571SOL    HW1 2612   4.352   5.437   2.795
  571SOL    HW2 2613   4.469   5.327   2.765
  572SOL     OW 2614   1.894   4.049   5.117
  572SOL    HW1 2615   1.856   4.142   5.120
  572SOL    HW2 2616   1.841   3.994   5.053
  573SOL     OW 2617   3.990   2.572   5.953
  573SOL    HW1 2618   4.089   2.581   5.963
  573SOL    HW2 2619   3.946   2.659   5.975
  574SOL     OW 2620   2.622   1.340   4.219
  574SOL    HW1 2621   2.710   1.327   4.173
  574SOL    HW2 2622   2.611   1.436   4.243
  575SOL     OW 2623   5.021   2.390   6.676
  575SOL    HW1 2624   5.034   2.374   6.578
  575SOL    HW2 2625   5.036   2.486   6.696
  576SOL     OW 2626   0.839   2.226   2.443
  576SOL    HW1 2627   0.855   2.190   2.535
  576SOL    HW2 2628   0.798   2.317   2.450
  577SOL     OW 2629   3.173   2.154   4.202
  577SOL    HW1 2630   3.087   2.168   4.154
  577SOL    HW2 2631   3.159   2.094   4.281
  578SOL     OW 2632   0.419   3.184   4.687
  578SOL    HW1 2633   0.349   3.204   4.756
  578SOL    HW2 2634   0.469   3.267   4.665
  579SOL     OW 2635   3.660   3.240   0.537
  579SOL    HW1 2636   3.732   3.307   0.552
  579SOL    HW2 2637   3.700   3.154   0.506
  580SOL     OW 2638   0.274   6.264   6.932
  580SOL    HW1 2639   0.186   6.242   6.974
  580SOL    HW2 2640   0.294   6.361   6.946
  581SOL     OW 2641   3.962   3.821   2.484
  581SOL    HW1 2642   3.958   3.919   2.504
  581SOL    HW2 2643   3.923   3.769   2.560
  582SOL     OW 2644   6.235   3.758   2.434
  582SOL    HW1 2645   6.334   3.743   2.426
  582SOL    HW2 2646   6.209   3.755   2.531
  583SOL     OW 2647   2.443   5.610   6.637
  583SOL    HW1 2648   2.424   5.519   6.675
  583SOL    HW2 2649   2.469   5.672   6.710
  584SOL     OW 2650   0.947   4.832   5.007
  584SOL    HW1 2651   1.022   4.841   5.072
  584SOL    HW2 2652   0.984   4.825   4.914
  585SOL     OW 2653   6.649   1.616   5.815
  585SOL    HW1 2654   6.654   1.659   5.905
  585SOL    HW2 2655   6.739   1.618   5.771
  586SOL     OW 2656   2.423   6.115   0.745
  586SOL    HW1 2657   2.400   6.166   0.662
  586SOL    HW2 2658   2.339   6.095   0.796
  587SOL     OW 2659   1.073   3.821   6.007
  587SOL    HW1 2660   1.166   3.828   5.972
  587SOL    HW2 2661   1.012   3.791   5.933
  588SOL     OW 2662   2.410   0.093   1.462
  588SOL    HW1 2663   2.351   0.013   1.472
  588SOL    HW2 2664   2.383   0.163   1.528
  589SOL     OW 2665   4.776   5.300   2.085
  589SOL    HW1 2666   4.724   5.255   2.157
  589SOL    HW2 2667   4.722   5.374   2.045
  590SOL     OW 2668   6.522   1.934   1.877
  590SOL    HW1 2669   6.483   2.010   1.826
  590SOL    HW2 2670   6.451   1.891   1.933
  591SOL     OW 2671   3.212   6.845   3.130
  591SOL    HW1 2672   3.305   6.824   3.102
  591SOL    HW2 2673   3.149   6.777   3.092
  592SOL     OW 2674   5.419   0.871   6.990
  592SOL    HW1 2675   5.496   0.814   6.962
  592SOL    HW2 2676   5.450   0.939   0.030
  593SOL     OW 2677   6.203   1.355   4.158
  593SOL    HW1 2678   6.184   1.257   4.160
  593SOL    HW2 2679   6.166   1.398   4.241
  594SOL     OW 2680   5.037   3.065   1.437
  594SOL    HW1 2681   4.951   3.025   1.406
  594SOL    HW2 2682   5.060   3.028   1.527
  595SOL     OW 2683   3.685   0.032   4.183
  595SOL    HW1 2684   3.701   0.122   4.225
  595SOL    HW2 2685   3.683   0.042   4.084
  596SOL     OW 2686   0.860   4.023   2.433
  596SOL    HW1 2687   0.853   3.923   2.439
  596SOL    HW2 2688   0.956   4.050   2.433
  597SOL     OW 2689   4.010   2.015   5.717
  597SOL    HW1 2690   3.961   2.003   5.631
  597SOL    HW2 2691   4.072   2.093   5.709
  598SOL     OW 2692   2.985   4.237   1.293
  598SOL    HW1 2693   2.888   4.260   1.299
  598SOL    HW2 2694   2.996   4.155   1.236
  599SOL     OW 2695   6.827   6.642   3.124
  599SOL    HW1 2696   6.907   6.587   3.099
  599SOL    HW2 2697   6.762   6.642   3.049
  600SOL     OW 2698   2.334   1.102   0.668
  600SOL    HW1 2699   2.304   1.188   0.709
  600SOL    HW2 2700   2.432   1.092   0.681
  601SOL     OW 2701   3.071   4.993   3.742
  601SOL    HW1 2702   2.994   4.937   3.708
  601SOL    HW2 2703   3.155   4.965   3.696
  602SOL     OW 2704   0.156   0.493   1.543
  602SOL    HW1 2705   0.139   0.402   1.582
  602SOL    HW2 2706   0.240   0.491   1.489
  603SOL     OW 2707   4.216   2.208   2.894
  603SOL    HW1 2708   4.169   2.120   2.895
  603SOL    HW2 2709   4.216   2.245   2.801
  604SOL     OW 2710   0.610   4.308   5.550
  604SOL    HW1 2711   0.516   4.295   5.517
  604SOL    HW2 2712   0.674   4.272   5.482
  605SOL     OW 2713   5.882   6.914   4.669
  605SOL    HW1 2714   5.923   6.998   4.635
  605SOL    HW2 2715   5.938   6.877   4.743
  606SOL     OW 2716   3.579   7.012   2.971
  606SOL    HW1 2717   3.528   6.932   3.004
  606SOL    HW2 2718   3.677   6.995   2.981
  607SOL     OW 2719   4.387   1.062   3.629
  607SOL    HW1 2720   4.395   1.129   3.702
  607SOL    HW2 2721   4.322   1.095   3.560
  608SOL     OW 2722   4.858   2.016   1.655
  608SOL    HW1 2723   4.895   2.104   1.685
  608SOL    HW2 2724   4.919   1.976   1.586
  609SOL     OW 2725   3.107   3.501   4.056
  609SOL    HW1 2726   3.129   3.585   4.104
  609SOL    HW2 2727   3.043   3.447   4.111
  610SOL     OW 2728   5.796   1.615   4.402
  610SOL    HW1 2729   5.887   1.636   4.367
  610SOL    HW2 2730   5.727   1.667   4.352
  611SOL     OW 2731   6.434   0.064   0.636
  611SOL    HW1 2732   6.464   0.060   0.731
  611SOL    HW2 2733   6.383   0.149   0.621
  612SOL     OW 2734   3.272   5.356   5.940
  612SOL    HW1 2735   3.257   5.322   5.847
  612SOL    HW2 2736   3.184   5.385   5.979
  613SOL     OW 2737   3.430   1.932   6.833
  613SOL    HW1 2738   3.378   2.005   6.877
  613SOL    HW2 2739   3.407   1.844   6.875
  614SOL     OW 2740   5.316   3.706   0.838
  614SOL    HW1 2741   5.246   3.649   0.795
  614SOL    HW2 2742   5.390   3.724   0.774
  615SOL     OW 2743   5.365   6.878   1.330
  615SOL    HW1 2744   5.318   6.965   1.312
  615SOL    HW2 2745   5.411   6.848   1.247
  616SOL     OW 2746   5.560   0.689   4.799
  616SOL    HW1 2747   5.621   0.718   4.725
  616SOL    HW2 2748   5.484   0.636   4.761
  617SOL     OW 2749   0.306   5.726   5.509
  617SOL    HW1 2750   0.273   5.754   5.600
  617SOL    HW2 2751   0.316   5.626   5.507
  618SOL     OW 2752   5.863   4.660   6.988
  618SOL    HW1 2753   5.800   4.736   6.998
  618SOL    HW2 2754   5.956   4.695   6.972
  619SOL     OW 2755   2.755   6.919   5.940
  619SOL    HW1 2756   2.764   6.965   6.028
  619SOL    HW2 2757   2.720   6.826   5.954
  620SOL     OW 2758   5.329   1.702   2.557
  620SOL    HW1 2759   5.258   1.683   2.624
  620SOL    HW2 2760   5.368   1.616   2.523
  621SOL     OW 2761   2.792   0.374   6.640
  621SOL    HW1 2762   2.882   0.385   6.681
  621SOL    HW2 2763   2.725   0.427   6.692
  622SOL     OW 2764   0.414   2.983   5.701
  622SOL    HW1 2765   0.468   2.901   5.717
  622SOL    HW2 2766   0.428   3.014   5.607
  623SOL     OW 2767   6.015   0.196   3.435
  623SOL    HW1 2768   6.074   0.268   3.470
  623SOL    HW2 2769   5.920   0.215   3.462
  624SOL     OW 2770   6.840   0.543   6.133
  624SOL    HW1 2771   6.880   0.526   6.042
  624SOL    HW2 2772   6.839   0.642   6.150
  625SOL     OW 2773   3.366   1.246   0.949
  625SOL    HW1 2774   3.352   1.345   0.951
  625SOL    HW2 2775   3.416   1.221   0.866
  626SOL     OW 2776   6.824   6.054   3.842
  626SOL    HW1 2777   6.840   6.088   3.749
  626SOL    HW2 2778   6.729   6.023   3.850
  627SOL     OW 2779   6.366   6.464   0.196
  627SOL    HW1 2780   6.318   6.444   0.111
  627SOL    HW2 2781   6.339   6.555   0.229
  628SOL     OW 2782   4.340   4.718   6.229
  628SOL    HW1 2783   4.265   4.722   6.162
  628SOL    HW2 2784   4.361   4.810   6.261
  629SOL     OW 2785   1.457   6.883   0.113
  629SOL    HW1 2786   1.403   6.864   0.031
  629SOL    HW2 2787   1.426   6.826   0.188
  630SOL     OW 2788   6.284   1.131   1.432
  630SOL    HW1 2789   6.254   1.226   1.423
  630SOL    HW2 2790   6.278   1.085   1.344
  631SOL     OW 2791   1.615   2.707   3.786
  631SOL    HW1 2792   1.679   2.737   3.716
  631SOL    HW2 2793   1.626   2.609   3.801
  632SOL     OW 2794   3.113   4.211   0.694
  632SOL    HW1 2795   3.187   4.265   0.653
  632SOL    HW2 2796   3.071   4.263   0.768
  633SOL     OW 2797   1.470   5.226   0.613
  633SOL    HW1 2798   1.432   5.170   0.539
  633SOL    HW2 2799   1.462   5.177   0.700
  634SOL     OW 2800   2.960   3.304   4.490
  634SOL    HW1 2801   2.968   3.207   4.467
  634SOL    HW2 2802   2.988   3.318   4.585
  635SOL     OW 2803   5.869   7.000   6.672
  635SOL    HW1 2804   5.899   6.921   6.725
  635SOL    HW2 2805   5.948   0.027   6.644
  636SOL     OW 2806   2.868   0.555   5.394
  636SOL    HW1 2807   2.787   0.534   5.450
  636SOL    HW2 2808   2.840   0.566   5.299
  637SOL     OW 2809   0.296   1.173   2.894
  637SOL    HW1 2810   0.241   1.229   2.956
  637SOL    HW2 2811   0.275   1.076   2.909
  638SOL     OW 2812   6.480   2.978   4.954
  638SOL    HW1 2813   6.556   2.988   5.019
  638SOL    HW2 2814   6.412   2.915   4.992
  639SOL     OW 2815   5.981   4.436   2.171
  639SOL    HW1 2816   5.987   4.533   2.149
  639SOL    HW2 2817   5.935   4.388   2.096
  640SOL     OW 2818   0.064   2.838   2.510
  640SOL    HW1 2819   0.052   2.828   2.608
  640SOL    HW2 2820   0.110   2.758   2.472
  641SOL     OW 2821   2.486   5.068   4.275
  641SOL    HW1 2822   2.552   5.106   4.210
  641SOL    HW2 2823   2.517   4.978   4.306
  642SOL     OW 2824   0.578   4.998   4.761
  642SOL    HW1 2825   0.636   5.015   4.681
  642SOL    HW2 2826   0.559   5.084   4.808
  643SOL     OW 2827   4.006   5.238   0.673
  643SOL    HW1 2828   4.071   5.314   0.677
  643SOL    HW2 2829   4.045   5.158   0.717
  644SOL     OW 2830   0.016   6.682   5.239
  644SOL    HW1 2831   0.028   6.702   5.142
  644SOL    HW2 2832   0.093   6.721   5.291
  645SOL     OW 2833   4.165   5.418   2.510
  645SOL    HW1 2834   4.198   5.441   2.419
  645SOL    HW2 2835   4.172   5.498   2.570
  646SOL     OW 2836   3.546   2.134   4.616
  646SOL    HW1 2837   3.581   2.141   4.709
  646SOL    HW2 2838   3.450   2.162   4.614
  647SOL     OW 2839   3.851   2.821   5.994
  647SOL    HW1 2840   3.875   2.914   5.967
  647SOL    HW2 2841   3.852   2.813   6.093
  648SOL     OW 2842   6.082   1.417   3.395
  648SOL    HW1 2843   6.086   1.355   3.474
  648SOL    HW2 2844   6.169   1.412   3.345
  649SOL     OW 2845   2.723   5.330   0.239
  649SOL    HW1 2846   2.741   5.393   0.163
  649SOL    HW2 2847   2.717   5.382   0.324
  650SOL     OW 2848   0.083   3.395   1.111
  650SOL    HW1 2849   0.038   3.476   1.149
  650SOL    HW2 2850   0.046   3.313   1.155
  651SOL     OW 2851   0.921   0.630   3.888
  651SOL    HW1 2852   0.867   0.643   3.805
  651SOL    HW2 2853   1.014   0.604   3.863
  652SOL     OW 2854   4.120   5.507   1.007
  652SOL    HW1 2855   4.072   5.519   1.094
  652SOL    HW2 2856   4.065   5.544   0.932
  653SOL     OW 2857   1.649   6.614   2.423
  653SOL    HW1 2858   1.649   6.517   2.443
  653SOL    HW2 2859   1.742   6.650   2.426
  654SOL     OW 2860   0.703   0.156   5.700
  654SOL    HW1 2861   0.768   0.149   5.776
  654SOL    HW2 2862   0.746   0.122   5.616
  655SOL     OW 2863   0.528   4.020   1.474
  655SOL    HW1 2864   0.582   3.944   1.509
  655SOL    HW2 2865   0.550   4.035   1.377
  656SOL     OW 2866   2.789   6.234   6.832
  656SOL    HW1 2867   2.843   6.241   6.748
  656SOL    HW2 2868   2.707   6.290   6.824
  657SOL     OW 2869   4.084   3.704   3.562
  657SOL    HW1 2870   4.098   3.737   3.655
  657SOL    HW2 2871   4.065   3.782   3.501
  658SOL     OW 2872   0.985   1.567   4.140
  658SOL    HW1 2873   1.058   1.531   4.197
  658SOL    HW2 2874   0.951   1.653   4.179
  659SOL     OW 2875   1.890   5.669   6.760
  659SOL    HW1 2876   1.866   5.579   6.796
  659SOL    HW2 2877   1.915   5.662   6.664
  660SOL     OW 2878   5.069   4.845   2.881
  660SOL    HW1 2879   5.127   4.885   2.809
  660SOL    HW2 2880   5.096   4.882   2.970
  661SOL     OW 2881   4.253   5.317   3.795
  661SOL    HW1 2882   4.198   5.235   3.811
  661SOL    HW2 2883   4.347   5.290   3.771
  662SOL     OW 2884   4.847   3.252   7.002
  662SOL    HW1 2885   4.884   3.188   6.934
  662SOL    HW2 2886   4.918   3.318   0.000
  663SOL     OW 2887   6.775   4.096   0.415
  663SOL    HW1 2888   6.751   4.188   0.446
  663SOL    HW2 2889   6.803   4.099   0.319
  664SOL     OW 2890   1.499   0.239   6.468
  664SOL    HW1 2891   1.562   0.189   6.409
  664SOL    HW2 2892   1.504   0.337   6.447
  665SOL     OW 2893   3.299   4.934   2.742
  665SOL    HW1 2894   3.296   4.929   2.642
  665SOL    HW2 2895   3.223   4.882   2.780
  666SOL     OW 2896   3.105   1.031   6.887
  666SOL    HW1 2897   3.105   0.942   6.841
  666SOL    HW2 2898   3.195   1.074   6.877
  667SOL     OW 2899   1.328   3.430   2.284
  667SOL    HW1 2900   1.317   3.336   2.251
  667SOL    HW2 2901   1.417   3.440   2.328
  668SOL     OW 2902   5.295   0.167   0.307
  668SOL    HW1 2903   5.367   0.202   0.247
  668SOL    HW2 2904   5.243   0.096   0.260
  669SOL     OW 2905   0.923   5.737   2.440
  669SOL    HW1 2906   0.894   5.830   2.458
  669SOL    HW2 2907   1.011   5.720   2.485
  670SOL     OW 2908   3.263   3.509   3.168
  670SOL    HW1 2909   3.253   3.410   3.179
  670SOL    HW2 2910   3.336   3.542   3.228
  671SOL     OW 2911   1.864   0.362   6.662
  671SOL    HW1 2912   1.961   0.372   6.684
  671SOL    HW2 2913   1.844   0.267   6.640
  672SOL     OW 2914   1.318   2.384   2.970
  672SOL    HW1 2915   1.346   2.310   2.909
  672SOL    HW2 2916   1.305   2.468   2.918
  673SOL     OW 2917   4.697   0.350   0.293
  673SOL    HW1 2918   4.745   0.270   0.258
  673SOL    HW2 2919   4.704   0.351   0.393
  674SOL     OW 2920   0.128   2.017   4.747
  674SOL    HW1 2921   0.170   1.958   4.678
  674SOL    HW2 2922   0.058   2.074   4.705
  675SOL     OW 2923   6.134   6.962   3.942
  675SOL    HW1 2924   6.184   0.011   3.986
  675SOL    HW2 2925   6.039   6.990   3.928
  676SOL     OW 2926   2.352   4.960   3.910
  676SOL    HW1 2927   2.398   4.976   3.823
  676SOL    HW2 2928   2.272   5.019   3.918
  677SOL     OW 2929   4.861   0.112   0.717
  677SOL    HW1 2930   4.922   0.170   0.662
  677SOL    HW2 2931   4.903   0.022   0.730
  678SOL     OW 2932   2.472   0.970   5.702
  678SOL    HW1 2933   2.543   1.040   5.717
  678SOL    HW2 2934   2.492   0.890   5.757
  679SOL     OW 2935   6.405   0.768   2.175
  679SOL    HW1 2936   6.315   0.725   2.169
  679SOL    HW2 2937   6.443   0.780   2.084
  680SOL     OW 2938   5.906   4.439   4.612
  680SOL    HW1 2939   5.872   4.499   4.685
  680SOL    HW2 2940   5.959   4.364   4.653
  681SOL     OW 2941   1.257   6.958   2.575
  681SOL    HW1 2942   1.237   0.014   2.522
  681SOL    HW2 2943   1.229   6.878   2.522
  682SOL     OW 2944   0.194   6.957   6.258
  682SOL    HW1 2945   0.202   6.885   6.189
  682SOL    HW2 2946   0.172   0.017   6.213
  683SOL     OW 2947   5.380   2.064   0.557
  683SOL    HW1 2948   5.294   2.085   0.603
  683SOL    HW2 2949   5.373   2.088   0.460
  684SOL     OW 2950   0.490   5.736   6.255
  684SOL    HW1 2951   0.531   5.650   6.286
  684SOL    HW2 2952   0.553   5.782   6.193
  685SOL     OW 2953   6.306   1.248   6.626
  685SOL    HW1 2954   6.215   1.218   6.596
  685SOL    HW2 2955   6.348   1.175   6.680
  686SOL     OW 2956   5.600   4.726   3.211
  686SOL    HW1 2957   5.667   4.778   3.264
  686SOL    HW2 2958   5.636   4.635   3.192
  687SOL     OW 2959   6.195   2.091   5.389
  687SOL    HW1 2960   6.158   2.131   5.472
  687SOL    HW2 2961   6.142   2.010   5.365
  688SOL     OW 2962   0.132   2.936   4.613
  688SOL    HW1 2963   0.169   3.027   4.633
  688SOL    HW2 2964   0.173   2.869   4.675
  689SOL     OW 2965   6.093   4.227   4.807
  689SOL    HW1 2966   5.993   4.224   4.809
  689SOL    HW2 2967   6.127   4.162   4.738
  690SOL     OW 2968   0.634   3.190   4.236
  690SOL    HW1 2969   0.663   3.254   4.165
  690SOL    HW2 2970   0.536   3.173   4.227
  691SOL     OW 2971   6.909   2.727   6.969
  691SOL    HW1 2972   6.871   2.768   6.886
  691SOL    HW2 2973   6.837   2.678   7.019
  692SOL     OW 2974   2.672   6.707   2.916
  692SOL    HW1 2975   2.666   6.655   2.830
  692SOL    HW2 2976   2.720   6.652   2.984
  693SOL     OW 2977   6.613   1.617   2.412
  693SOL    HW1 2978   6.666   1.553   2.357
  693SOL    HW2 2979   6.642   1.612   2.508
  694SOL     OW 2980   1.720   0.259   2.339
  694SOL    HW1 2981   1.713   0.286   2.243
  694SOL    HW2 2982   1.657   0.313   2.394
  695SOL     OW 2983   4.132   5.643   6.525
  695SOL    HW1 2984   4.187   5.582   6.582
  695SOL    HW2 2985   4.036   5.614   6.529
  696SOL     OW 2986   5.217   6.416   2.452
  696SOL    HW1 2987   5.299   6.360   2.438
  696SOL    HW2 2988   5.187   6.408   2.547
  697SOL     OW 2989   1.192   3.863   3.723
  697SOL    HW1 2990   1.135   3.928   3.774
  697SOL    HW2 2991   1.246   3.809   3.788
  698SOL     OW 2992   4.817   5.890   4.362
  698SOL    HW1 2993   4.811   5.859   4.267
  698SOL    HW2 2994   4.908   5.871   4.398
  699SOL     OW 2995   1.120   4.107   0.038
  699SOL    HW1 2996   1.058   4.099   6.986
  699SOL    HW2 2997   1.211   4.130   0.005
  700SOL     OW 2998   2.032   1.384   4.248
  700SOL    HW1 2999   2.027   1.284   4.244
  700SOL    HW2 3000   2.118   1.411   4.292
  701SOL     OW 3001   1.046   4.537   6.258
  701SOL    HW1 3002   1.069   4.634   6.259
  701SOL    HW2 3003   1.033   4.506   6.164
  702SOL     OW 3004   5.164   5.946   5.051
  702SOL    HW1 3005   5.212   5.883   4.990
  702SOL    HW2 3006   5.192   5.927   5.146
  703SOL     OW 3007   4.284   3.866   6.979
  703SOL    HW1 3008   4.349   3.824   6.916
  703SOL    HW2 3009   4.217   3.798   7.007
  704SOL     OW 3010   2.593   0.733   1.513
  704SOL    HW1 3011   2.660   0.673   1.556
  704SOL    HW2 3012   2.513   0.680   1.485
  705SOL     OW 3013   6.686   1.876   3.983
  705SOL    HW1 3014   6.641   1.795   4.022
  705SOL    HW2 3015   6.637   1.958   4.012
  706SOL     OW 3016   4.906   2.370   4.050
  706SOL    HW1 3017   4.848   2.389   3.970
  706SOL    HW2 3018   4.979   2.307   4.024
  707SOL     OW 3019   4.918   2.176   2.287
  707SOL    HW1 3020   4.821   2.189   2.309
  707SOL    HW2 3021   4.959   2.265   2.266
  708SOL     OW 3022   4.071   0.372   2.167
  708SOL    HW1 3023   4.070   0.309   2.245
  708SOL    HW2 3024   4.108   0.325   2.087
  709SOL     OW 3025   0.627   5.222   6.945
  709SOL    HW1 3026   0.656   5.317   6.957
  709SOL    HW2 3027   0.528   5.220   6.931
  710SOL     OW 3028   3.193   3.529   2.522
  710SOL    HW1 3029   3.164   3.455   2.462
  710SOL    HW2 3030   3.283   3.563   2.492
  711SOL     OW 3031   1.434   1.025   4.427
  711SOL    HW1 3032   1.345   0.988   4.400
  711SOL    HW2 3033   1.487   0.954   4.474
  712SOL     OW 3034   1.256   4.032   1.717
  712SOL    HW1 3035   1.235   4.130   1.724
  712SOL    HW2 3036   1.355   4.019   1.717
  713SOL     OW 3037   3.925   3.967   3.485
  713SOL    HW1 3038   3.940   3.995   3.580
  713SOL    HW2 3039   3.963   4.036   3.423
  714SOL     OW 3040   5.063   4.700   5.722
  714SOL    HW1 3041   5.107   4.610   5.710
  714SOL    HW2 3042   5.124   4.759   5.775
  715SOL     OW 3043   4.434   1.266   6.504
  715SOL    HW1 3044   4.431   1.202   6.580
  715SOL    HW2 3045   4.512   1.327   6.514
  716SOL     OW 3046   6.878   5.141   1.803
  716SOL    HW1 3047   6.905   5.235   1.783
  716SOL    HW2 3048   6.794   5.140   1.857
  717SOL     OW 3049   5.996   2.941   6.661
  717SOL    HW1 3050   6.012   2.895   6.748
  717SOL    HW2 3051   6.072   2.922   6.599
  718SOL     OW 3052   2.636   3.428   6.987
  718SOL    HW1 3053   2.626   3.527   7.002
  718SOL    HW2 3054   2.707   3.412   6.919
  719SOL     OW 3055   5.319   5.177   0.287
  719SOL    HW1 3056   5.226   5.214   0.288
  719SOL    HW2 3057   5.315   5.077   0.286
  720SOL     OW 3058   2.570   0.805   6.221
  720SOL    HW1 3059   2.527   0.720   6.190
  720SOL    HW2 3060   2.591   0.798   6.318
  721SOL     OW 3061   1.552   6.238   5.791
  721SOL    HW1 3062   1.490   6.271   5.721
  721SOL    HW2 3063   1.501   6.184   5.858
  722SOL     OW 3064   4.558   6.767   5.861
  722SOL    HW1 3065   4.555   6.746   5.763
  722SOL    HW2 3066   4.470   6.802   5.891
  723SOL     OW 3067   1.793   3.307   1.940
  723SOL    HW1 3068   1.730   3.382   1.921
  723SOL    HW2 3069   1.860   3.336   2.008
  724SOL     OW 3070   6.561   0.521   4.489
  724SOL    HW1 3071   6.489   0.540   4.422
  724SOL    HW2 3072   6.647   0.562   4.458
  725SOL     OW 3073   2.973   4.768   1.030
  725SOL    HW1 3074   2.879   4.770   1.064
  725SOL    HW2 3075   2.975   4.725   0.940
  726SOL     OW 3076   4.480   6.755   6.185
  726SOL    HW1 3077   4.516   6.844   6.159
  726SOL    HW2 3078   4.497   6.689   6.113
  727SOL     OW 3079   2.534   4.625   4.036
  727SOL    HW1 3080   2.462   4.695   4.040
  727SOL    HW2 3081   2.515   4.562   3.961
  728SOL     OW 3082   0.056   2.685   5.164
  728SOL    HW1 3083   0.141   2.650   5.124
  728SOL    HW2 3084   7.026   2.726   5.093
  729SOL     OW 3085   3.251   0.611   0.830
  729SOL    HW1 3086   3.192   0.540   0.868
  729SOL    HW2 3087   3.195   0.683   0.790
  730SOL     OW 3088   5.671   0.820   5.024
  730SOL    HW1 3089   5.638   0.894   5.082
  730SOL    HW2 3090   5.594   0.770   4.986
  731SOL     OW 3091   6.581   3.197   3.846
  731SOL    HW1 3092   6.567   3.267   3.916
  731SOL    HW2 3093   6.616   3.114   3.889
  732SOL     OW 3094   6.642   2.990   2.519
  732SOL    HW1 3095   6.711   2.928   2.479
  732SOL    HW2 3096   6.686   3.076   2.545
  733SOL     OW 3097   4.239   4.812   4.275
  733SOL    HW1 3098   4.170   4.844   4.340
  733SOL    HW2 3099   4.312   4.881   4.268
  734SOL     OW 3100   0.174   4.440   0.314
  734SOL    HW1 3101   0.259   4.394   0.340
  734SOL    HW2 3102   0.100   4.406   0.371
  735SOL     OW 3103   2.633   5.025   6.669
  735SOL    HW1 3104   2.641   5.086   6.590
  735SOL    HW2 3105   2.548   5.045   6.719
  736SOL     OW 3106   5.912   0.894   3.114
  736SOL    HW1 3107   5.816   0.869   3.128
  736SOL    HW2 3108   5.961   0.817   3.072
  737SOL     OW 3109   5.744   3.911   0.299
  737SOL    HW1 3110   5.699   3.834   0.255
  737SOL    HW2 3111   5.842   3.909   0.279
  738SOL     OW 3112   0.703   4.684   3.206
  738SOL    HW1 3113   0.752   4.771   3.191
  738SOL    HW2 3114   0.617   4.702   3.252
  739SOL     OW 3115   4.603   6.250   6.904
  739SOL    HW1 3116   4.536   6.255   6.831
  739SOL    HW2 3117   4.677   6.188   6.877
  740SOL     OW 3118   5.634   0.088   1.056
  740SOL    HW1 3119   5.626   0.027   1.134
  740SOL    HW2 3120   5.550   0.142   1.047
  741SOL     OW 3121   2.648   0.507   3.808
  741SOL    HW1 3122   2.657   0.427   3.866
  741SOL    HW2 3123   2.626   0.588   3.863
  742SOL     OW 3124   1.783   0.009   2.445
  742SOL    HW1 3125   1.741   0.100   2.436
  742SOL    HW2 3126   1.815   7.005   2.355
  743SOL     OW 3127   2.169   3.709   4.189
  743SOL    HW1 3128   2.229   3.644   4.143
  743SOL    HW2 3129   2.160   3.683   4.286
  744SOL     OW 3130   0.392   5.943   1.315
  744SOL    HW1 3131   0.355   6.035   1.306
  744SOL    HW2 3132   0.336   5.879   1.262
  745SOL     OW 3133   1.687   5.850   3.198
  745SOL    HW1 3134   1.696   5.898   3.111
  745SOL    HW2 3135   1.735   5.900   3.270
  746SOL     OW 3136   2.758   0.547   4.313
  746SOL    HW1 3137   2.731   0.601   4.393
  746SOL    HW2 3138   2.849   0.574   4.283
  747SOL     OW 3139   6.156   4.852   1.790
  747SOL    HW1 3140   6.151   4.929   1.727
  747SOL    HW2 3141   6.065   4.835   1.829
  748SOL     OW 3142   3.757   2.990   2.301
  748SOL    HW1 3143   3.675   2.955   2.255
  748SOL    HW2 3144   3.819   3.028   2.232
  749SOL     OW 3145   0.000   1.478   5.279
  749SOL    HW1 3146   6.983   1.388   5.284
  749SOL    HW2 3147   6.970   1.540   5.225
  750SOL     OW 3148   2.647   4.145   1.282
  750SOL    HW1 3149   2.715   4.080   1.248
  750SOL    HW2 3150   2.576   4.158   1.212
  751SOL     OW 3151   4.585   1.535   0.549
  751SOL    HW1 3152   4.605   1.438   0.565
  751SOL    HW2 3153   4.641   1.569   0.473
  752SOL     OW 3154   4.639   1.111   1.532
  752SOL    HW1 3155   4.737   1.099   1.549
  752SOL    HW2 3156   4.598   1.163   1.607
  753SOL     OW 3157   2.821   1.436   2.410
  753SOL    HW1 3158   2.877   1.503   2.460
  753SOL    HW2 3159   2.724   1.462   2.416
  754SOL     OW 3160   4.819   5.727   6.932
  754SOL    HW1 3161   4.918   5.717   6.946
  754SOL    HW2 3162   4.802   5.766   6.842
  755SOL     OW 3163   0.022   6.448   3.074
  755SOL    HW1 3164   0.019   6.351   3.049
  755SOL    HW2 3165   0.056   6.502   2.997
  756SOL     OW 3166   3.807   0.007   3.564
  756SOL    HW1 3167   3.843   0.076   3.628
  756SOL    HW2 3168   3.876   7.013   3.495
  757SOL     OW 3169   6.606   0.892   4.837
  757SOL    HW1 3170   6.656   0.825   4.892
  757SOL    HW2 3171   6.623   0.876   4.740
  758SOL     OW 3172   4.369   2.164   1.792
  758SOL    HW1 3173   4.347   2.257   1.762
  758SOL    HW2 3174   4.454   2.165   1.844
  759SOL     OW 3175   1.753   1.151   0.545
  759SOL    HW1 3176   1.841   1.130   0.504
  759SOL    HW2 3177   1.718   1.071   0.593
  760SOL     OW 3178   4.448   1.825   5.845
  760SOL    HW1 3179   4.447   1.845   5.943
  760SOL    HW2 3180   4.495   1.898   5.796
  761SOL     OW 3181   5.783   2.233   6.936
  761SOL    HW1 3182   5.822   2.168   7.002
  761SOL    HW2 3183   5.786   2.193   6.845
  762SOL     OW 3184   1.963   5.196   4.097
  762SOL    HW1 3185   1.981   5.157   4.188
  762SOL    HW2 3186   1.952   5.295   4.106
  763SOL     OW 3187   5.765   5.192   6.780
  763SOL    HW1 3188   5.686   5.148   6.823
  763SOL    HW2 3189   5.752   5.291   6.780
  764SOL     OW 3190   4.161   1.225   2.746
  764SOL    HW1 3191   4.182   1.138   2.702
  764SOL    HW2 3192   4.065   1.248   2.730
  765SOL     OW 3193   6.949   6.586   3.818
  765SOL    HW1 3194   6.922   6.491   3.799
  765SOL    HW2 3195   6.999   6.589   3.904
  766SOL     OW 3196   0.221   6.323   0.248
  766SOL    HW1 3197   0.315   6.319   0.214
  766SOL    HW2 3198   0.192   6.418   0.257
  767SOL     OW 3199   6.313   0.063   1.815
  767SOL    HW1 3200   6.362   0.098   1.895
  767SOL    HW2 3201   6.218   0.046   1.841
  768SOL     OW 3202   3.324   6.249   3.499
  768SOL    HW1 3203   3.292   6.246   3.594
  768SOL    HW2 3204   3.370   6.336   3.482
  769SOL     OW 3205   3.166   0.612   6.607
  769SOL    HW1 3206   3.254   0.576   6.576
  769SOL    HW2 3207   3.111   0.640   6.528
  770SOL     OW 3208   3.510   4.921   3.752
  770SOL    HW1 3209   3.609   4.917   3.745
  770SOL    HW2 3210   3.481   4.890   3.843
  771SOL     OW 3211   0.396   5.625   4.045
  771SOL    HW1 3212   0.457   5.606   4.121
  771SOL    HW2 3213   0.375   5.723   4.042
  772SOL     OW 3214   6.620   4.457   4.734
  772SOL    HW1 3215   6.559   4.389   4.776
  772SOL    HW2 3216   6.705   4.462   4.786
  773SOL     OW 3217   0.206   3.754   1.477
  773SOL    HW1 3218   0.304   3.754   1.502
  773SOL    HW2 3219   0.167   3.664   1.497
  774SOL     OW 3220   1.577   1.267   1.122
  774SOL    HW1 3221   1.655   1.275   1.183
  774SOL    HW2 3222   1.572   1.173   1.086
  775SOL     OW 3223   1.326   2.301   3.975
  775SOL    HW1 3224   1.288   2.349   3.896
  775SOL    HW2 3225   1.251   2.271   4.034
  776SOL     OW 3226   2.390   0.313   5.743
  776SOL    HW1 3227   2.347   0.224   5.761
  776SOL    HW2 3228   2.375   0.339   5.647
  777SOL     OW 3229   4.362   0.300   0.501
  777SOL    HW1 3230   4.374   0.283   0.599
  777SOL    HW2 3231   4.408   0.386   0.477
  778SOL     OW 3232   3.996   6.384   3.712
  778SOL    HW1 3233   4.032   6.323   3.781
  778SOL    HW2 3234   4.024   6.478   3.732
  779SOL     OW 3235   1.164   1.115   2.173
  779SOL    HW1 3236   1.217   1.066   2.243
  779SOL    HW2 3237   1.106   1.050   2.125
  780SOL     OW 3238   5.213   3.389   5.158
  780SOL    HW1 3239   5.221   3.485   5.131
  780SOL    HW2 3240   5.149   3.342   5.097
  781SOL     OW 3241   0.892   1.790   6.327
  781SOL    HW1 3242   0.805   1.744   6.346
  781SOL    HW2 3243   0.966   1.723   6.325
  782SOL     OW 3244   0.371   4.200   0.613
  782SOL    HW1 3245   0.300   4.205   0.683
  782SOL    HW2 3246   0.458   4.173   0.655
  783SOL     OW 3247   2.670   3.999   0.688
  783SOL    HW1 3248   2.720   3.986   0.602
  783SOL    HW2 3249   2.647   3.910   0.727
  784SOL     OW 3250   5.404   6.812   3.686
  784SOL    HW1 3251   5.460   6.778   3.610
  784SOL    HW2 3252   5.381   6.737   3.747
  785SOL     OW 3253   6.213   2.500   3.931
  785SOL    HW1 3254   6.312   2.491   3.920
  785SOL    HW2 3255   6.187   2.467   4.021
  786SOL     OW 3256   6.390   7.012   0.021
  786SOL    HW1 3257   6.410   0.075   0.062
  786SOL    HW2 3258   6.327   6.961   0.080
  787SOL     OW 3259   4.041   1.408   6.721
  787SOL    HW1 3260   4.017   1.311   6.719
  787SOL    HW2 3261   4.077   1.432   6.811
  788SOL     OW 3262   1.015   4.377   4.109
  788SOL    HW1 3263   1.033   4.467   4.069
  788SOL    HW2 3264   0.923   4.346   4.084
  789SOL     OW 3265   6.093   3.623   0.976
  789SOL    HW1 3266   6.144   3.619   0.890
  789SOL    HW2 3267   6.001   3.658   0.958
  790SOL     OW 3268   3.332   0.951   4.372
  790SOL    HW1 3269   3.393   0.929   4.295
  790SOL    HW2 3270   3.329   1.051   4.384
  791SOL     OW 3271   3.805   2.085   4.485
  791SOL    HW1 3272   3.717   2.120   4.517
  791SOL    HW2 3273   3.806   1.985   4.493
  792SOL     OW 3274   5.661   0.355   3.251
  792SOL    HW1 3275   5.616   0.411   3.320
  792SOL    HW2 3276   5.595   0.330   3.180
  793SOL     OW 3277   6.621   6.906   5.812
  793SOL    HW1 3278   6.613   6.949   5.902
  793SOL    HW2 3279   6.718   6.899   5.787
  794SOL     OW 3280   3.443   5.290   5.116
  794SOL    HW1 3281   3.435   5.195   5.144
  794SOL    HW2 3282   3.539   5.311   5.096
  795SOL     OW 3283   5.327   4.446   6.436
  795SOL    HW1 3284   5.287   4.531   6.469
  795SOL    HW2 3285   5.404   4.421   6.495
  796SOL     OW 3286   0.977   2.065   5.981
  796SOL    HW1 3287   0.897   2.026   6.027
  796SOL    HW2 3288   0.957   2.076   5.884
  797SOL     OW 3289   6.421   2.187   4.628
  797SOL    HW1 3290   6.450   2.282   4.619
  797SOL    HW2 3291   6.373   2.175   4.716
  798SOL     OW 3292   6.022   0.591   5.415
  798SOL    HW1 3293   6.048   0.666   5.355
  798SOL    HW2 3294   6.018   0.622   5.509
  799SOL     OW 3295   6.749   3.305   3.197
  799SOL    HW1 3296   6.691   3.325   3.117
  799SOL    HW2 3297   6.796   3.389   3.225
  800SOL     OW 3298   0.206   1.471   2.022
  800SOL    HW1 3299   0.111   1.493   2.044
  800SOL    HW2 3300   0.209   1.417   1.938
  801SOL     OW 3301   0.387   2.052   3.969
  801SOL    HW1 3302   0.462   1.996   4.004
  801SOL    HW2 3303   0.308   2.045   4.030
  802SOL     OW 3304   5.641   1.143   1.058
  802SOL    HW1 3305   5.584   1.168   0.980
  802SOL    HW2 3306   5.629   1.210   1.132
  803SOL     OW 3307   1.561   6.924   4.752
  803SOL    HW1 3308   1.516   6.877   4.828
  803SOL    HW2 3309   1.493   6.975   4.700
  804SOL     OW 3310   6.084   6.832   0.857
  804SOL    HW1 3311   6.068   6.759   0.924
  804SOL    HW2 3312   6.182   6.847   0.847
  805SOL     OW 3313   1.496   3.342   6.208
  805SOL    HW1 3314   1.495   3.247   6.179
  805SOL    HW2 3315   1.447   3.351   6.295
  806SOL     OW 3316   5.344   1.048   0.736
  806SOL    HW1 3317   5.245   1.055   0.724
  806SOL    HW2 3318   5.366   1.056   0.833
  807SOL     OW 3319   1.327   0.375   2.876
  807SOL    HW1 3320   1.405   0.344   2.822
  807SOL    HW2 3321   1.360   0.430   2.954
  808SOL     OW 3322   6.226   3.207   5.043
  808SOL    HW1 3323   6.293   3.279   5.058
  808SOL    HW2 3324   6.158   3.237   4.976
  809SOL     OW 3325   0.744   5.018   6.346
  809SOL    HW1 3326   0.654   4.984   6.375
  809SOL    HW2 3327   0.815   4.959   6.385
  810SOL     OW 3328   6.689   4.778   6.535
  810SOL    HW1 3329   6.759   4.849   6.526
  810SOL    HW2 3330   6.618   4.793   6.467
  811SOL     OW 3331   4.741   5.324   3.601
  811SOL    HW1 3332   4.828   5.362   3.632
  811SOL    HW2 3333   4.749   5.295   3.506
  812SOL     OW 3334   0.851   0.220   2.572
  812SOL    HW1 3335   0.833   0.300   2.631
  812SOL    HW2 3336   0.767   0.195   2.524
  813SOL     OW 3337   5.896   5.542   2.260
  813SOL    HW1 3338   5.898   5.475   2.334
  813SOL    HW2 3339   5.974   5.605   2.269
  814SOL     OW 3340   5.712   5.630   1.627
  814SOL    HW1 3341   5.652   5.602   1.702
  814SOL    HW2 3342   5.670   5.704   1.576
  815SOL     OW 3343   0.447   2.553   0.325
  815SOL    HW1 3344   0.495   2.532   0.410
  815SOL    HW2 3345   0.473   2.644   0.293
  816SOL     OW 3346   6.279   0.604   1.402
  816SOL    HW1 3347   6.361   0.585   1.456
  816SOL    HW2 3348   6.306   0.641   1.313
  817SOL     OW 3349   1.255   2.067   2.035
  817SOL    HW1 3350   1.287   1.976   2.060
  817SOL    HW2 3351   1.158   2.063   2.014
  818SOL     OW 3352   6.860   1.460   1.758
  818SOL    HW1 3353   6.950   1.416   1.761
  818SOL    HW2 3354   6.807   1.420   1.683
  819SOL     OW 3355   0.276   4.554   3.336
  819SOL    HW1 3356   0.211   4.486   3.302
  819SOL    HW2 3357   0.300   4.532   3.431
  820SOL     OW 3358   1.337   3.310   5.024
  820SOL    HW1 3359   1.319   3.274   5.115
  820SOL    HW2 3360   1.272   3.270   4.959
  821SOL     OW 3361   1.073   3.586   0.990
  821SOL    HW1 3362   1.001   3.573   1.058
  821SOL    HW2 3363   1.158   3.613   1.036
  822SOL     OW 3364   1.609   3.686   5.079
  822SOL    HW1 3365   1.644   3.738   5.156
  822SOL    HW2 3366   1.622   3.588   5.095
  823SOL     OW 3367   3.184   3.317   0.755
  823SOL    HW1 3368   3.263   3.279   0.707
  823SOL    HW2 3369   3.108   3.252   0.750
  824SOL     OW 3370   6.064   2.389   5.779
  824SOL    HW1 3371   6.084   2.291   5.773
  824SOL    HW2 3372   6.108   2.436   5.703
  825SOL     OW 3373   1.236   4.305   1.757
  825SOL    HW1 3374   1.333   4.321   1.738
  825SOL    HW2 3375   1.213   4.340   1.848
  826SOL     OW 3376   0.705   4.291   6.035
  826SOL    HW1 3377   0.644   4.369   6.043
  826SOL    HW2 3378   0.735   4.262   6.126
  827SOL     OW 3379   3.807   6.069   0.381
  827SOL    HW1 3380   3.897   6.053   0.341
  827SOL    HW2 3381   3.817   6.125   0.463
  828SOL     OW 3382   6.022   6.844   6.240
  828SOL    HW1 3383   5.975   6.784   6.174
  828SOL    HW2 3384   5.970   6.846   6.326
  829SOL     OW 3385   3.891   3.034   4.595
  829SOL    HW1 3386   3.932   3.078   4.674
  829SOL    HW2 3387   3.916   3.085   4.512
  830SOL     OW 3388   5.204   3.765   5.685
  830SOL    HW1 3389   5.237   3.857   5.667
  830SOL    HW2 3390   5.253   3.700   5.628
  831SOL     OW 3391   6.463   6.925   5.088
  831SOL    HW1 3392   6.537   6.936   5.154
  831SOL    HW2 3393   6.414   7.011   5.078
  832SOL     OW 3394   2.207   1.071   5.679
  832SOL    HW1 3395   2.293   1.021   5.671
  832SOL    HW2 3396   2.188   1.090   5.775
  833SOL     OW 3397   1.058   6.994   5.539
  833SOL    HW1 3398   1.003   0.052   5.532
  833SOL    HW2 3399   1.039   6.949   5.626
  834SOL     OW 3400   3.486   4.570   5.542
  834SOL    HW1 3401   3.460   4.620   5.625
  834SOL    HW2 3402   3.582   4.542   5.550
  835SOL     OW 3403   4.225   0.731   3.288
  835SOL    HW1 3404   4.304   0.758   3.233
  835SOL    HW2 3405   4.239   0.761   3.382
  836SOL     OW 3406   2.057   0.620   0.284
  836SOL    HW1 3407   2.128   0.608   0.214
  836SOL    HW2 3408   2.092   0.589   0.373
  837SOL     OW 3409   3.862   0.627   5.364
  837SOL    HW1 3410   3.833   0.630   5.268
  837SOL    HW2 3411   3.849   0.717   5.405
  838SOL     OW 3412   1.459   4.554   2.472
  838SOL    HW1 3413   1.440   4.590   2.381
  838SOL    HW2 3414   1.408   4.605   2.540
  839SOL     OW 3415   3.315   0.781   1.755
  839SOL    HW1 3416   3.309   0.709   1.686
  839SOL    HW2 3417   3.255   0.856   1.731
  840SOL     OW 3418   0.706   1.617   6.462
  840SOL    HW1 3419   0.697   1.533   6.407
  840SOL    HW2 3420   0.641   1.614   6.538
  841SOL     OW 3421   0.240   3.421   0.874
  841SOL    HW1 3422   0.183   3.401   0.953
  841SOL    HW2 3423   0.227   3.516   0.847
  842SOL     OW 3424   3.460   5.174   3.693
  842SOL    HW1 3425   3.482   5.076   3.687
  842SOL    HW2 3426   3.545   5.227   3.689
  843SOL     OW 3427   6.500   3.736   2.451
  843SOL    HW1 3428   6.588   3.692   2.434
  843SOL    HW2 3429   6.514   3.817   2.508
  844SOL     OW 3430   5.294   5.731   0.673
  844SOL    HW1 3431   5.236   5.671   0.728
  844SOL    HW2 3432   5.389   5.702   0.680
  845SOL     OW 3433   1.631   5.336   4.618
  845SOL    HW1 3434   1.541   5.294   4.633
  845SOL    HW2 3435   1.683   5.334   4.704
  846SOL     OW 3436   5.342   2.717   0.047
  846SOL    HW1 3437   5.363   2.815   0.045
  846SOL    HW2 3438   5.243   2.704   0.045
  847SOL     OW 3439   5.374   3.626   2.222
  847SOL    HW1 3440   5.317   3.649   2.144
  847SOL    HW2 3441   5.468   3.610   2.191
  848SOL     OW 3442   6.483   0.321   5.500
  848SOL    HW1 3443   6.468   0.232   5.543
  848SOL    HW2 3444   6.429   0.391   5.547
  849SOL     OW 3445   1.094   5.093   4.337
  849SOL    HW1 3446   1.020   5.129   4.281
  849SOL    HW2 3447   1.136   5.015   4.291
  850SOL     OW 3448   3.801   0.665   3.272
  850SOL    HW1 3449   3.854   0.600   3.327
  850SOL    HW2 3450   3.864   0.728   3.225
  851SOL     OW 3451   0.593   0.416   5.111
  851SOL    HW1 3452   0.532   0.375   5.043
  851SOL    HW2 3453   0.558   0.506   5.138
  852SOL     OW 3454   2.754   4.468   6.158
  852SOL    HW1 3455   2.740   4.470   6.059
  852SOL    HW2 3456   2.695   4.398   6.198
  853SOL     OW 3457   1.583   3.621   1.168
  853SOL    HW1 3458   1.494   3.631   1.123
  853SOL    HW2 3459   1.628   3.538   1.135
  854SOL     OW 3460   6.083   5.414   2.032
  854SOL    HW1 3461   6.023   5.404   2.112
  854SOL    HW2 3462   6.178   5.420   2.063
  855SOL     OW 3463   5.290   0.116   1.220
  855SOL    HW1 3464   5.194   0.143   1.235
  855SOL    HW2 3465   5.329   0.172   1.147
  856SOL     OW 3466   1.530   0.794   4.589
  856SOL    HW1 3467   1.485   0.766   4.674
  856SOL    HW2 3468   1.624   0.759   4.588
  857SOL     OW 3469   6.400   3.856   1.628
  857SOL    HW1 3470   6.300   3.853   1.638
  857SOL    HW2 3471   6.436   3.931   1.684
  858SOL     OW 3472   3.258   3.822   1.276
  858SOL    HW1 3473   3.323   3.776   1.215
  858SOL    HW2 3474   3.289   3.812   1.371
  859SOL     OW 3475   0.226   4.818   0.759
  859SOL    HW1 3476   0.141   4.772   0.731
  859SOL    HW2 3477   0.250   4.790   0.852
  860SOL     OW 3478   2.072   4.937   0.793
  860SOL    HW1 3479   2.141   5.004   0.820
  860SOL    HW2 3480   1.982   4.980   0.795
  861SOL     OW 3481   4.139   4.785   6.515
  861SOL    HW1 3482   4.234   4.810   6.532
  861SOL    HW2 3483   4.132   4.685   6.507
  862SOL     OW 3484   4.727   4.233   3.946
  862SOL    HW1 3485   4.797   4.275   4.003
  862SOL    HW2 3486   4.660   4.303   3.918
  863SOL     OW 3487   5.628   1.220   0.721
  863SOL    HW1 3488   5.580   1.296   0.763
  863SOL    HW2 3489   5.590   1.202   0.630
  864SOL     OW 3490   6.335   4.092   2.309
  864SOL    HW1 3491   6.282   4.140   2.379
  864SOL    HW2 3492   6.374   4.009   2.349
  865SOL     OW 3493   1.784   0.511   3.823
  865SOL    HW1 3494   1.764   0.602   3.861
  865SOL    HW2 3495   1.734   0.442   3.874
  866SOL     OW 3496   3.517   1.155   0.740
  866SOL    HW1 3497   3.478   1.066   0.717
  866SOL    HW2 3498   3.615   1.156   0.720
  867SOL     OW 3499   1.679   1.837   6.108
  867SOL    HW1 3500   1.592   1.866   6.070
  867SOL    HW2 3501   1.664   1.789   6.194
  868SOL     OW 3502   6.131   2.744   3.349
  868SOL    HW1 3503   6.072   2.685   3.402
  868SOL    HW2 3504   6.218   2.697   3.330
  869SOL     OW 3505   6.804   4.078   1.743
  869SOL    HW1 3506   6.828   4.071   1.840
  869SOL    HW2 3507   6.850   4.158   1.703
  870SOL     OW 3508   6.737   2.534   0.691
  870SOL    HW1 3509   6.697   2.620   0.723
  870SOL    HW2 3510   6.771   2.546   0.597
  871SOL     OW 3511   5.623   4.197   0.689
  871SOL    HW1 3512   5.711   4.245   0.689
  871SOL    HW2 3513   5.549   4.262   0.670
  872SOL     OW 3514   5.982   2.060   2.484
  872SOL    HW1 3515   6.002   2.137   2.423
  872SOL    HW2 3516   5.963   2.095   2.576
  873SOL     OW 3517   4.569   6.733   5.342
  873SOL    HW1 3518   4.564   6.635   5.362
  873SOL    HW2 3519   4.569   6.747   5.243
  874SOL     OW 3520   0.307   3.741   6.310
  874SOL    HW1 3521   0.344   3.688   6.234
  874SOL    HW2 3522   0.356   3.828   6.316
  875SOL     OW 3523   6.061   4.767   6.447
  875SOL    HW1 3524   6.135   4.820   6.488
  875SOL    HW2 3525   5.973   4.794   6.488
  876SOL     OW 3526   1.148   1.979   0.931
  876SOL    HW1 3527   1.204   2.035   0.869
  876SOL    HW2 3528   1.114   1.899   0.882
  877SOL     OW 3529   6.032   6.208   0.210
  877SOL    HW1 3530   6.004   6.165   0.295
  877SOL    HW2 3531   5.998   6.155   0.132
  878SOL     OW 3532   3.440   2.324   0.236
  878SOL    HW1 3533   3.394   2.381   0.305
  878SOL    HW2 3534   3.408   2.350   0.145
  879SOL     OW 3535   4.074   2.216   2.348
  879SOL    HW1 3536   4.095   2.202   2.251
  879SOL    HW2 3537   3.979   2.189   2.365
  880SOL     OW 3538   4.514   5.496   1.474
  880SOL    HW1 3539   4.456   5.509   1.394
  880SOL    HW2 3540   4.525   5.584   1.521
  881SOL     OW 3541   4.310   5.564   4.067
  881SOL    HW1 3542   4.323   5.652   4.022
  881SOL    HW2 3543   4.235   5.515   4.023
  882SOL     OW 3544   0.845   2.217   4.093
  882SOL    HW1 3545   0.877   2.307   4.064
  882SOL    HW2 3546   0.788   2.177   4.022
  883SOL     OW 3547   3.739   4.163   0.188
  883SOL    HW1 3548   3.833   4.129   0.180
  883SOL    HW2 3549   3.679   4.090   0.221
  884SOL     OW 3550   4.189   3.767   1.810
  884SOL    HW1 3551   4.199   3.671   1.783
  884SOL    HW2 3552   4.159   3.771   1.905
  885SOL     OW 3553   4.513   6.235   6.648
  885SOL    HW1 3554   4.554   6.205   6.562
  885SOL    HW2 3555   4.449   6.310   6.630
  886SOL     OW 3556   3.819   1.888   6.427
  886SOL    HW1 3557   3.792   1.926   6.516
  886SOL    HW2 3558   3.738   1.855   6.379
  887SOL     OW 3559   5.439   0.025   6.138
  887SOL    HW1 3560   5.389   0.105   6.105
  887SOL    HW2 3561   5.439   0.024   6.238
  888SOL     OW 3562   6.761   6.078   3.568
  888SOL    HW1 3563   6.780   6.025   3.485
  888SOL    HW2 3564   6.751   6.175   3.545
  889SOL     OW 3565   1.363   7.025   4.606
  889SOL    HW1 3566   1.336   6.991   4.516
  889SOL    HW2 3567   1.326   0.091   4.618
  890SOL     OW 3568   1.815   4.434   2.172
  890SOL    HW1 3569   1.823   4.527   2.137
  890SOL    HW2 3570   1.722   4.401   2.158
  891SOL     OW 3571   5.675   3.532   6.283
  891SOL    HW1 3572   5.720   3.621   6.283
  891SOL    HW2 3573   5.744   3.460   6.276
  892SOL     OW 3574   2.212   5.370   1.626
  892SOL    HW1 3575   2.263   5.393   1.543
  892SOL    HW2 3576   2.244   5.425   1.702
  893SOL     OW 3577   1.720   6.498   1.265
  893SOL    HW1 3578   1.795   6.541   1.215
  893SOL    HW2 3579   1.634   6.511   1.216
  894SOL     OW 3580   1.123   5.091   3.693
  894SOL    HW1 3581   1.155   5.185   3.678
  894SOL    HW2 3582   1.118   5.044   3.605
  895SOL     OW 3583   2.176   0.802   4.703
  895SOL    HW1 3584   2.206   0.734   4.636
  895SOL    HW2 3585   2.159   0.889   4.657
  896SOL     OW 3586   5.393   0.053   3.325
  896SOL    HW1 3587   5.319   0.024   3.386
  896SOL    HW2 3588   5.480   0.021   3.361
  897SOL     OW 3589   4.995   1.913   5.939
  897SOL    HW1 3590   4.952   1.899   6.028
  897SOL    HW2 3591   5.095   1.913   5.950
  898SOL     OW 3592   5.592   5.521   3.810
  898SOL    HW1 3593   5.529   5.485   3.742
  898SOL    HW2 3594   5.553   5.507   3.902
  899SOL     OW 3595   1.274   4.329   0.312
  899SOL    HW1 3596   1.270   4.350   0.214
  899SOL    HW2 3597   1.356   4.370   0.351
  900SOL     OW 3598   0.620   5.523   3.545
  900SOL    HW1 3599   0.660   5.611   3.520
  900SOL    HW2 3600   0.565   5.534   3.628
  901SOL     OW 3601   5.838   1.861   3.414
  901SOL    HW1 3602   5.835   1.903   3.323
  901SOL    HW2 3603   5.903   1.785   3.413
  902SOL     OW 3604   0.831   5.784   0.127
  902SOL    HW1 3605   0.901   5.713   0.131
  902SOL    HW2 3606   0.845   5.849   0.201
  903SOL     OW 3607   0.536   4.914   6.483
  903SOL    HW1 3608   0.470   4.857   6.434
  903SOL    HW2 3609   0.501   4.933   6.575
  904SOL     OW 3610   1.766   1.085   3.543
  904SOL    HW1 3611   1.811   1.167   3.578
  904SOL    HW2 3612   1.715   1.041   3.617
  905SOL     OW 3613   6.330   1.672   5.505
  905SOL    HW1 3614   6.334   1.576   5.530
  905SOL    HW2 3615   6.421   1.705   5.481
  906SOL     OW 3616   6.780   3.933   5.275
  906SOL    HW1 3617   6.824   3.903   5.191
  906SOL    HW2 3618   6.738   3.854   5.321
  907SOL     OW 3619   0.275   3.251   1.693
  907SOL    HW1 3620   0.281   3.316   1.769
  907SOL    HW2 3621   0.365   3.210   1.676
  908SOL     OW 3622   2.347   0.740   3.069
  908SOL    HW1 3623   2.300   0.819   3.030
  908SOL    HW2 3624   2.331   0.737   3.168
  909SOL     OW 3625   4.368   0.218   1.342
  909SOL    HW1 3626   4.456   0.265   1.357
  909SOL    HW2 3627   4.385   0.126   1.307
  910SOL     OW 3628   1.959   1.604   1.796
  910SOL    HW1 3629   1.962   1.636   1.701
  910SOL    HW2 3630   1.864   1.604   1.828
  911SOL     OW 3631   0.258   3.723   0.883
  911SOL    HW1 3632   0.181   3.760   0.935
  911SOL    HW2 3633   0.253   3.757   0.789
  912SOL     OW 3634   0.887   0.353   6.037
  912SOL    HW1 3635   0.939   0.418   6.092
  912SOL    HW2 3636   0.819   0.307   6.094
  913SOL     OW 3637   2.032   1.030   1.824
  913SOL    HW1 3638   1.941   1.071   1.818
  913SOL    HW2 3639   2.052   1.007   1.919
  914SOL     OW 3640   2.628   5.958   2.791
  914SOL    HW1 3641   2.639   6.057   2.784
  914SOL    HW2 3642   2.702   5.920   2.847
  915SOL     OW 3643   1.255   2.403   0.589
  915SOL    HW1 3644   1.214   2.489   0.558
  915SOL    HW2 3645   1.243   2.334   0.519
  916SOL     OW 3646   1.679   3.044   2.283
  916SOL    HW1 3647   1.709   3.139   2.294
  916SOL    HW2 3648   1.637   3.032   2.193
  917SOL     OW 3649   3.442   2.015   6.566
  917SOL    HW1 3650   3.463   1.995   6.662
  917SOL    HW2 3651   3.400   2.106   6.560
  918SOL     OW 3652   0.532   0.939   5.385
  918SOL    HW1 3653   0.436   0.963   5.370
  918SOL    HW2 3654   0.554   0.945   5.482
  919SOL     OW 3655   1.897   6.672   0.842
  919SOL    HW1 3656   1.915   6.596   0.905
  919SOL    HW2 3657   1.805   6.709   0.859
  920SOL     OW 3658   2.074   1.157   3.517
  920SOL    HW1 3659   2.153   1.187   3.570
  920SOL    HW2 3660   2.082   1.059   3.499
  921SOL     OW 3661   4.575   4.176   0.462
  921SOL    HW1 3662   4.585   4.250   0.396
  921SOL    HW2 3663   4.613   4.091   0.424
  922SOL     OW 3664   2.140   4.925   6.151
  922SOL    HW1 3665   2.170   4.850   6.091
  922SOL    HW2 3666   2.179   4.912   6.242
  923SOL     OW 3667   3.662   1.504   6.564
  923SOL    HW1 3668   3.563   1.519   6.565
  923SOL    HW2 3669   3.697   1.520   6.471
  924SOL     OW 3670   6.871   4.489   2.526
  924SOL    HW1 3671   6.868   4.588   2.541
  924SOL    HW2 3672   6.812   4.465   2.449
  925SOL     OW 3673   6.828   1.767   3.101
  925SOL    HW1 3674   6.817   1.740   3.197
  925SOL    HW2 3675   6.922   1.750   3.072
  926SOL     OW 3676   5.340   6.423   0.424
  926SOL    HW1 3677   5.267   6.357   0.440
  926SOL    HW2 3678   5.424   6.375   0.397
  927SOL     OW 3679   4.942   5.418   4.706
  927SOL    HW1 3680   4.937   5.472   4.790
  927SOL    HW2 3681   4.868   5.350   4.707
  928SOL     OW 3682   0.549   1.348   1.148
  928SOL    HW1 3683   0.632   1.355   1.093
  928SOL    HW2 3684   0.567   1.381   1.240
  929SOL     OW 3685   0.249   2.624   2.422
  929SOL    HW1 3686   0.316   2.625   2.497
  929SOL    HW2 3687   0.297   2.634   2.335
  930SOL     OW 3688   5.610   5.506   2.544
  930SOL    HW1 3689   5.682   5.443   2.573
  930SOL    HW2 3690   5.573   5.553   2.624
  931SOL     OW 3691   1.867   3.043   1.866
  931SOL    HW1 3692   1.841   3.134   1.898
  931SOL    HW2 3693   1.966   3.032   1.874
  932SOL     OW 3694   4.566   6.387   1.135
  932SOL    HW1 3695   4.493   6.420   1.077
  932SOL    HW2 3696   4.539   6.395   1.231
  933SOL     OW 3697   1.337   6.110   4.348
  933SOL    HW1 3698   1.422   6.106   4.294
  933SOL    HW2 3699   1.259   6.112   4.286
  934SOL     OW 3700   2.892   0.840   5.748
  934SOL    HW1 3701   2.973   0.797   5.787
  934SOL    HW2 3702   2.890   0.824   5.649
  935SOL     OW 3703   1.767   3.623   5.914
  935SOL    HW1 3704   1.725   3.603   6.002
  935SOL    HW2 3705   1.830   3.700   5.924
  936SOL     OW 3706   0.354   1.965   1.687
  936SOL    HW1 3707   0.363   1.967   1.786
  936SOL    HW2 3708   0.444   1.970   1.645
  937SOL     OW 3709   5.116   2.517   3.441
  937SOL    HW1 3710   5.152   2.500   3.349
  937SOL    HW2 3711   5.017   2.499   3.442
  938SOL     OW 3712   6.746   1.187   6.865
  938SOL    HW1 3713   6.684   1.248   6.815
  938SOL    HW2 3714   6.840   1.222   6.858
  939SOL     OW 3715   6.460   0.806   5.286
  939SOL    HW1 3716   6.434   0.744   5.360
  939SOL    HW2 3717   6.477   0.897   5.323
  940SOL     OW 3718   0.495   0.629   4.046
  940SOL    HW1 3719   0.575   0.637   4.106
  940SOL    HW2 3720   0.465   0.721   4.019
  941SOL     OW 3721   5.801   2.538   5.496
  941SOL    HW1 3722   5.829   2.448   5.529
  941SOL    HW2 3723   5.705   2.553   5.517
  942SOL     OW 3724   4.676   0.581   5.579
  942SOL    HW1 3725   4.665   0.487   5.547
  942SOL    HW2 3726   4.726   0.634   5.510
  943SOL     OW 3727   5.498   1.952   6.901
  943SOL    HW1 3728   5.492   1.948   6.802
  943SOL    HW2 3729   5.529   1.863   6.936
  944SOL     OW 3730   5.373   4.088   4.837
  944SOL    HW1 3731   5.434   4.015   4.868
  944SOL    HW2 3732   5.425   4.154   4.782
  945SOL     OW 3733   5.586   3.438   5.734
  945SOL    HW1 3734   5.507   3.399   5.686
  945SOL    HW2 3735   5.555   3.512   5.795
  946SOL     OW 3736   5.400   3.420   6.211
  946SOL    HW1 3737   5.499   3.434   6.213
  946SOL    HW2 3738   5.377   3.351   6.141
  947SOL     OW 3739   1.086   2.625   5.097
  947SOL    HW1 3740   1.045   2.709   5.061
  947SOL    HW2 3741   1.134   2.578   5.023
  948SOL     OW 3742   4.014   1.876   0.520
  948SOL    HW1 3743   3.973   1.967   0.530
  948SOL    HW2 3744   4.054   1.848   0.607
  949SOL     OW 3745   5.767   6.041   6.465
  949SOL    HW1 3746   5.741   6.106   6.394
  949SOL    HW2 3747   5.856   6.001   6.443
  950SOL     OW 3748   3.817   5.420   0.686
  950SOL    HW1 3749   3.871   5.336   0.682
  950SOL    HW2 3750   3.872   5.493   0.725
  951SOL     OW 3751   0.439   2.544   4.022
  951SOL    HW1 3752   0.396   2.632   4.001
  951SOL    HW2 3753   0.368   2.475   4.039
  952SOL     OW 3754   4.882   1.410   1.225
  952SOL    HW1 3755   4.806   1.423   1.289
  952SOL    HW2 3756   4.917   1.499   1.196
  953SOL     OW 3757   3.704   6.722   6.129
  953SOL    HW1 3758   3.675   6.765   6.043
  953SOL    HW2 3759   3.789   6.764   6.160
  954SOL     OW 3760   0.093   6.917   1.459
  954SOL    HW1 3761   0.002   6.949   1.433
  954SOL    HW2 3762   0.155   6.923   1.381
  955SOL     OW 3763   0.459   0.040   2.217
  955SOL    HW1 3764   0.468   0.140   2.222
  955SOL    HW2 3765   0.372   0.013   2.258
  956SOL     OW 3766   1.128   2.618   0.511
  956SOL    HW1 3767   1.113   2.577   0.421
  956SOL    HW2 3768   1.075   2.702   0.518
  957SOL     OW 3769   2.152   6.497   5.049
  957SOL    HW1 3770   2.159   6.434   4.971
  957SOL    HW2 3771   2.239   6.498   5.099
  958SOL     OW 3772   4.783   2.383   0.540
  958SOL    HW1 3773   4.802   2.453   0.609
  958SOL    HW2 3774   4.861   2.376   0.477
  959SOL     OW 3775   1.707   3.599   1.704
  959SOL    HW1 3776   1.798   3.618   1.742
  959SOL    HW2 3777   1.654   3.545   1.770
  960SOL     OW 3778   1.460   5.757   5.609
  960SOL    HW1 3779   1.470   5.707   5.695
  960SOL    HW2 3780   1.376   5.727   5.564
  961SOL     OW 3781   3.850   6.957   0.390
  961SOL    HW1 3782   3.796   0.014   0.384
  961SOL    HW2 3783   3.808   6.886   0.334
  962SOL     OW 3784   1.349   6.262   4.051
  962SOL    HW1 3785   1.425   6.225   4.104
  962SOL    HW2 3786   1.263   6.227   4.088
  963SOL     OW 3787   6.220   0.011   2.156
  963SOL    HW1 3788   6.181   0.012   2.248
  963SOL    HW2 3789   6.313   7.001   2.159
  964SOL     OW 3790   5.283   3.171   1.033
  964SOL    HW1 3791   5.304   3.200   1.127
  964SOL    HW2 3792   5.317   3.240   0.969
  965SOL     OW 3793   1.325   1.813   0.265
  965SOL    HW1 3794   1.364   1.793   0.175
  965SOL    HW2 3795   1.294   1.727   0.308
  966SOL     OW 3796   6.832   2.526   1.849
  966SOL    HW1 3797   6.876   2.584   1.918
  966SOL    HW2 3798   6.814   2.436   1.888
  967SOL     OW 3799   0.743   6.301   2.435
  967SOL    HW1 3800   0.821   6.240   2.451
  967SOL    HW2 3801   0.760   6.357   2.354
  968SOL     OW 3802   6.892   4.275   1.237
  968SOL    HW1 3803   6.800   4.282   1.199
  968SOL    HW2 3804   6.893   4.210   1.313
  969SOL     OW 3805   4.085   6.135   6.680
  969SOL    HW1 3806   4.007   6.168   6.735
  969SOL    HW2 3807   4.142   6.075   6.736
  970SOL     OW 3808   4.681   2.633   5.394
  970SOL    HW1 3809   4.665   2.707   5.328
  970SOL    HW2 3810   4.631   2.552   5.364
  971SOL     OW 3811   0.035   2.947   0.357
  971SOL    HW1 3812   6.995   2.881   0.322
  971SOL    HW2 3813   0.010   2.971   0.451
  972SOL     OW 3814   5.758   6.395   0.825
  972SOL    HW1 3815   5.693   6.413   0.898
  972SOL    HW2 3816   5.850   6.423   0.853
  973SOL     OW 3817   5.664   3.621   5.238
  973SOL    HW1 3818   5.690   3.598   5.332
  973SOL    HW2 3819   5.595   3.693   5.239
  974SOL     OW 3820   2.925   1.333   4.811
  974SOL    HW1 3821   2.831   1.364   4.825
  974SOL    HW2 3822   2.982   1.366   4.887
  975SOL     OW 3823   3.176   6.550   5.551
  975SOL    HW1 3824   3.242   6.527   5.623
  975SOL    HW2 3825   3.115   6.622   5.582
  976SOL     OW 3826   6.947   5.840   3.446
  976SOL    HW1 3827   7.023   5.848   3.510
  976SOL    HW2 3828   6.940   5.923   3.391
  977SOL     OW 3829   1.451   2.663   1.719
  977SOL    HW1 3830   1.442   2.762   1.702
  977SOL    HW2 3831   1.360   2.622   1.723
  978SOL     OW 3832   5.778   3.395   4.862
  978SOL    HW1 3833   5.772   3.304   4.904
  978SOL    HW2 3834   5.756   3.387   4.765
  979SOL     OW 3835   6.046   1.705   3.337
  979SOL    HW1 3836   6.048   1.605   3.342
  979SOL    HW2 3837   6.139   1.739   3.320
  980SOL     OW 3838   6.631   0.264   4.559
  980SOL    HW1 3839   6.613   0.360   4.534
  980SOL    HW2 3840   6.727   0.242   4.541
  981SOL     OW 3841   6.890   3.361   5.799
  981SOL    HW1 3842   6.942   3.330   5.720
  981SOL    HW2 3843   6.951   3.371   5.878
  982SOL     OW 3844   1.781   3.233   1.554
  982SOL    HW1 3845   1.736   3.175   1.621
  982SOL    HW2 3846   1.713   3.289   1.507
  983SOL     OW 3847   5.784   1.907   2.788
  983SOL    HW1 3848   5.755   1.895   2.693
  983SOL    HW2 3849   5.782   2.004   2.811
  984SOL     OW 3850   4.819   2.053   5.282
  984SOL    HW1 3851   4.789   2.025   5.192
  984SOL    HW2 3852   4.819   1.975   5.344
  985SOL     OW 3853   2.694   4.970   0.895
  985SOL    HW1 3854   2.761   5.032   0.935
  985SOL    HW2 3855   2.623   4.949   0.963
  986SOL     OW 3856   3.944   4.798   0.132
  986SOL    HW1 3857   3.910   4.738   0.059
  986SOL    HW2 3858   3.934   4.751   0.220
  987SOL     OW 3859   3.757   6.755   2.407
  987SOL    HW1 3860   3.700   6.798   2.337
  987SOL    HW2 3861   3.746   6.656   2.403
  988SOL     OW 3862   3.233   3.109   1.580
  988SOL    HW1 3863   3.319   3.116   1.529
  988SOL    HW2 3864   3.208   3.199   1.615
  989SOL     OW 3865   0.505   0.062   4.483
  989SOL    HW1 3866   0.405   0.056   4.491
  989SOL    HW2 3867   0.528   0.102   4.394
  990SOL     OW 3868   4.972   6.003   2.619
  990SOL    HW1 3869   4.950   6.085   2.672
  990SOL    HW2 3870   5.071   5.998   2.605
  991SOL     OW 3871   6.178   1.237   5.128
  991SOL    HW1 3872   6.258   1.297   5.122
  991SOL    HW2 3873   6.134   1.232   5.038
  992SOL     OW 3874   6.982   3.223   1.573
  992SOL    HW1 3875   0.052   3.199   1.579
  992SOL    HW2 3876   6.926   3.149   1.611
  993SOL     OW 3877   3.756   5.696   4.325
  993SOL    HW1 3878   3.724   5.705   4.419
  993SOL    HW2 3879   3.688   5.644   4.272
  994SOL     OW 3880   3.029   3.795   1.861
  994SOL    HW1 3881   3.084   3.805   1.778
  994SOL    HW2 3882   2.977   3.710   1.857
  995SOL     OW 3883   0.574   1.289   5.003
  995SOL    HW1 3884   0.625   1.329   5.079
  995SOL    HW2 3885   0.487   1.252   5.036
  996SOL     OW 3886   0.868   3.549   1.227
  996SOL    HW1 3887   0.805   3.617   1.191
  996SOL    HW2 3888   0.816   3.469   1.257
  997SOL     OW 3889   0.333   0.934   1.071
  997SOL    HW1 3890   0.425   0.895   1.073
  997SOL    HW2 3891   0.312   0.966   0.978
  998SOL     OW 3892   4.607   6.956   3.705
  998SOL    HW1 3893   4.616   6.920   3.612
  998SOL    HW2 3894   4.664   0.011   3.714
  999SOL     OW 3895   0.066   5.648   1.769
  999SOL    HW1 3896   0.029   5.741   1.782
  999SOL    HW2 3897   0.153   5.640   1.818
 1000SOL     OW 3898   4.317   2.348   4.515
 1000SOL    HW1 3899   4.270   2.341   4.427
 1000SOL    HW2 3900   4.250   2.375   4.585
 1001SOL     OW 3901   3.842   0.904   5.746
 1001SOL    HW1 3902   3.890   0.946   5.823
 1001SOL    HW2 3903   3.751   0.944   5.738
 1002SOL     OW 3904   7.010   1.151   0.051
 1002SOL    HW1 3905   0.056   1.119   0.111
 1002SOL    HW2 3906   6.923   1.153   0.101
 1003SOL     OW 3907   4.793   4.572   2.765
 1003SOL    HW1 3908   4.716   4.522   2.724
 1003SOL    HW2 3909   4.760   4.657   2.806
 1004SOL     OW 3910   6.036   5.437   0.484
 1004SOL    HW1 3911   6.130   5.471   0.494
 1004SOL    HW2 3912   5.992   5.482   0.406
 1005SOL     OW 3913   6.758   5.625   3.665
 1005SOL    HW1 3914   6.796   5.718   3.658
 1005SOL    HW2 3915   6.659   5.630   3.676
 1006SOL     OW 3916   2.418   4.494   0.623
 1006SOL    HW1 3917   2.447   4.403   0.652
 1006SOL    HW2 3918   2.454   4.563   0.687
 1007SOL     OW 3919   1.381   0.594   3.344
 1007SOL    HW1 3920   1.465   0.625   3.390
 1007SOL    HW2 3921   1.313   0.667   3.347
 1008SOL     OW 3922   2.749   2.142   4.208
 1008SOL    HW1 3923   2.773   2.063   4.150
 1008SOL    HW2 3924   2.725   2.110   4.299
 1009SOL     OW 3925   2.611   5.927   5.092
 1009SOL    HW1 3926   2.680   5.911   5.163
 1009SOL    HW2 3927   2.615   5.853   5.024
 1010SOL     OW 3928   4.257   0.921   6.595
 1010SOL    HW1 3929   4.344   0.969   6.613
 1010SOL    HW2 3930   4.266   0.868   6.511
 1011SOL     OW 3931   3.620   5.697   4.009
 1011SOL    HW1 3932   3.576   5.675   4.097
 1011SOL    HW2 3933   3.577   5.644   3.936
 1012SOL     OW 3934   3.427   5.641   6.992
 1012SOL    HW1 3935   3.344   5.674   6.946
 1012SOL    HW2 3936   3.408   5.626   0.062
 1013SOL     OW 3937   6.997   0.993   0.592
 1013SOL    HW1 3938   6.989   0.925   0.519
 1013SOL    HW2 3939   6.988   0.948   0.681
 1014SOL     OW 3940   4.909   0.667   6.526
 1014SOL    HW1 3941   4.922   0.764   6.548
 1014SOL    HW2 3942   4.862   0.658   6.439
 1015SOL     OW 3943   3.637   6.929   4.664
 1015SOL    HW1 3944   3.687   7.007   4.628
 1015SOL    HW2 3945   3.635   6.934   4.764
 1016SOL     OW 3946   4.541   2.515   2.141
 1016SOL    HW1 3947   4.529   2.517   2.041
 1016SOL    HW2 3948   4.586   2.599   2.171
 1017SOL     OW 3949   4.936   1.760   0.014
 1017SOL    HW1 3950   4.962   1.856   0.017
 1017SOL    HW2 3951   4.956   1.722   6.950
 1018SOL     OW 3952   1.486   3.022   1.759
 1018SOL    HW1 3953   1.575   2.978   1.746
 1018SOL    HW2 3954   1.455   3.061   1.672
 1019SOL     OW 3955   5.729   0.988   0.406
 1019SOL    HW1 3956   5.814   1.032   0.432
 1019SOL    HW2 3957   5.740   0.942   0.318
 1020SOL     OW 3958   3.382   2.180   0.948
 1020SOL    HW1 3959   3.323   2.110   0.909
 1020SOL    HW2 3960   3.407   2.154   1.042
 1021SOL     OW 3961   6.548   1.181   1.091
 1021SOL    HW1 3962   6.620   1.219   1.148
 1021SOL    HW2 3963   6.584   1.161   1.000
 1022SOL     OW 3964   3.385   2.166   7.011
 1022SOL    HW1 3965   3.476   2.128   7.024
 1022SOL    HW2 3966   3.392   2.255   6.966
 1023SOL     OW 3967   5.766   0.916   4.239
 1023SOL    HW1 3968   5.810   0.897   4.327
 1023SOL    HW2 3969   5.697   0.846   4.220
 1024SOL     OW 3970   6.231   1.432   3.904
 1024SOL    HW1 3971   6.154   1.493   3.883
 1024SOL    HW2 3972   6.224   1.402   3.999
 1025SOL     OW 3973   3.297   4.592   1.312
 1025SOL    HW1 3974   3.206   4.577   1.273
 1025SOL    HW2 3975   3.332   4.505   1.350
 1026SOL     OW 3976   0.882   3.211   6.560
 1026SOL    HW1 3977   0.874   3.310   6.563
 1026SOL    HW2 3978   0.821   3.170   6.627
 1027SOL     OW 3979   2.497   4.930   2.199
 1027SOL    HW1 3980   2.445   4.984   2.132
 1027SOL    HW2 3981   2.547   4.857   2.151
 1028SOL     OW 3982   0.969   6.194   0.589
 1028SOL    HW1 3983   1.000   6.290   0.592
 1028SOL    HW2 3984   0.881   6.189   0.543
 1029SOL     OW 3985   3.631   0.693   5.194
 1029SOL    HW1 3986   3.628   0.779   5.143
 1029SOL    HW2 3987   3.641   0.712   5.291
 1030SOL     OW 3988   3.813   4.366   5.340
 1030SOL    HW1 3989   3.906   4.330   5.344
 1030SOL    HW2 3990   3.759   4.311   5.276
 1031SOL     OW 3991   2.020   5.304   1.023
 1031SOL    HW1 3992   2.005   5.403   1.022
 1031SOL    HW2 3993   2.050   5.276   1.114
 1032SOL     OW 3994   1.722   1.320   4.662
 1032SOL    HW1 3995   1.762   1.303   4.572
 1032SOL    HW2 3996   1.709   1.233   4.710
 1033SOL     OW 3997   2.580   6.149   3.505
 1033SOL    HW1 3998   2.510   6.210   3.468
 1033SOL    HW2 3999   2.587   6.162   3.604
 1034SOL     OW 4000   1.315   6.523   2.164
 1034SOL    HW1 4001   1.309   6.580   2.082
 1034SOL    HW2 4002   1.389   6.457   2.153
 1035SOL     OW 4003   3.154   0.584   3.959
 1035SOL    HW1 4004   3.149   0.519   3.883
 1035SOL    HW2 4005   3.072   0.641   3.960
 1036SOL     OW 4006   4.148   6.950   6.237
 1036SOL    HW1 4007   4.222   6.913   6.293
 1036SOL    HW2 4008   4.184   7.015   6.171
 1037SOL     OW 4009   2.774   1.684   6.617
 1037SOL    HW1 4010   2.828   1.640   6.545
 1037SOL    HW2 4011   2.751   1.617   6.687
 1038SOL     OW 4012   2.704   1.179   5.336
 1038SOL    HW1 4013   2.776   1.248   5.342
 1038SOL    HW2 4014   2.659   1.170   5.425
 1039SOL     OW 4015   4.308   2.028   3.328
 1039SOL    HW1 4016   4.290   2.121   3.360
 1039SOL    HW2 4017   4.392   2.027   3.274
 1040SOL     OW 4018   5.893   3.867   3.934
 1040SOL    HW1 4019   5.893   3.906   4.026
 1040SOL    HW2 4020   5.983   3.881   3.892
 1041SOL     OW 4021   1.642   6.774   4.351
 1041SOL    HW1 4022   1.677   6.747   4.441
 1041SOL    HW2 4023   1.690   6.857   4.320
 1042SOL     OW 4024   4.899   3.716   1.029
 1042SOL    HW1 4025   4.952   3.783   0.977
 1042SOL    HW2 4026   4.961   3.655   1.079
 1043SOL     OW 4027   3.336   0.084   6.867
 1043SOL    HW1 4028   3.381   0.024   6.932
 1043SOL    HW2 4029   3.314   0.171   6.911
 1044SOL     OW 4030   3.911   4.054   1.875
 1044SOL    HW1 4031   3.999   4.060   1.827
 1044SOL    HW2 4032   3.923   4.005   1.962
 1045SOL     OW 4033   3.851   1.450   3.673
 1045SOL    HW1 4034   3.936   1.451   3.619
 1045SOL    HW2 4035   3.798   1.368   3.651
 1046SOL     OW 4036   3.630   1.091   2.279
 1046SOL    HW1 4037   3.661   1.012   2.225
 1046SOL    HW2 4038   3.649   1.175   2.229
 1047SOL     OW 4039   0.721   5.531   1.965
 1047SOL    HW1 4040   0.700   5.606   1.902
 1047SOL    HW2 4041   0.751   5.568   2.053
 1048SOL     OW 4042   6.475   4.883   5.098
 1048SOL    HW1 4043   6.536   4.940   5.044
 1048SOL    HW2 4044   6.518   4.794   5.114
 1049SOL     OW 4045   0.785   3.431   4.940
 1049SOL    HW1 4046   0.803   3.355   4.877
 1049SOL    HW2 4047   0.751   3.395   5.026
 1050SOL     OW 4048   2.942   0.600   0.222
 1050SOL    HW1 4049   2.969   0.695   0.206
 1050SOL    HW2 4050   2.999   0.539   0.168
 1051SOL     OW 4051   4.720   4.660   2.377
 1051SOL    HW1 4052   4.659   4.605   2.320
 1051SOL    HW2 4053   4.768   4.601   2.441
 1052SOL     OW 4054   3.790   0.272   4.339
 1052SOL    HW1 4055   3.761   0.270   4.434
 1052SOL    HW2 4056   3.790   0.366   4.306
 1053SOL     OW 4057   3.927   5.099   3.370
 1053SOL    HW1 4058   3.942   5.008   3.331
 1053SOL    HW2 4059   3.833   5.128   3.351
 1054SOL     OW 4060   4.009   6.351   4.357
 1054SOL    HW1 4061   3.996   6.439   4.312
 1054SOL    HW2 4062   3.930   6.331   4.415
 1055SOL     OW 4063   4.345   5.528   3.631
 1055SOL    HW1 4064   4.292   5.471   3.693
 1055SOL    HW2 4065   4.283   5.574   3.568
 1056SOL     OW 4066   1.794   5.718   5.806
 1056SOL    HW1 4067   1.700   5.705   5.837
 1056SOL    HW2 4068   1.822   5.639   5.751
 1057SOL     OW 4069   3.707   4.005   1.233
 1057SOL    HW1 4070   3.694   3.992   1.331
 1057SOL    HW2 4071   3.744   3.921   1.193
 1058SOL     OW 4072   3.254   6.980   1.888
 1058SOL    HW1 4073   3.275   0.028   1.952
 1058SOL    HW2 4074   3.339   6.935   1.861
 1059SOL     OW 4075   3.460   0.863   0.428
 1059SOL    HW1 4076   3.423   0.780   0.387
 1059SOL    HW2 4077   3.469   0.934   0.358
 1060SOL     OW 4078   2.189   1.746   4.470
 1060SOL    HW1 4079   2.110   1.788   4.425
 1060SOL    HW2 4080   2.235   1.815   4.527
 1061SOL     OW 4081   3.209   5.882   1.318
 1061SOL    HW1 4082   3.276   5.917   1.384
 1061SOL    HW2 4083   3.135   5.948   1.307
 1062SOL     OW 4084   5.095   4.850   5.197
 1062SOL    HW1 4085   5.123   4.769   5.146
 1062SOL    HW2 4086   5.008   4.884   5.161
 1063SOL     OW 4087   2.308   3.295   5.865
 1063SOL    HW1 4088   2.330   3.198   5.877
 1063SOL    HW2 4089   2.242   3.305   5.790
 1064SOL     OW 4090   0.539   3.542   1.953
 1064SOL    HW1 4091   0.623   3.522   1.902
 1064SOL    HW2 4092   0.474   3.467   1.939
 1065SOL     OW 4093   4.516   4.928   5.513
 1065SOL    HW1 4094   4.610   4.907   5.486
 1065SOL    HW2 4095   4.452   4.867   5.466
 1066SOL     OW 4096   4.214   0.061   3.159
 1066SOL    HW1 4097   4.176   0.133   3.217
 1066SOL    HW2 4098   4.151   7.010   3.158
 1067SOL     OW 4099   2.679   3.350   0.701
 1067SOL    HW1 4100   2.732   3.327   0.619
 1067SOL    HW2 4101   2.741   3.384   0.772
 1068SOL     OW 4102   0.521   4.533   0.816
 1068SOL    HW1 4103   0.458   4.595   0.770
 1068SOL    HW2 4104   0.608   4.580   0.833
 1069SOL     OW 4105   3.696   3.370   1.990
 1069SOL    HW1 4106   3.657   3.452   1.950
 1069SOL    HW2 4107   3.723   3.389   2.085
 1070SOL     OW 4108   2.555   6.797   0.693
 1070SOL    HW1 4109   2.482   6.728   0.704
 1070SOL    HW2 4110   2.639   6.751   0.665
 1071SOL     OW 4111   4.650   5.955   3.799
 1071SOL    HW1 4112   4.694   5.882   3.851
 1071SOL    HW2 4113   4.574   5.918   3.746
 1072SOL     OW 4114   3.503   5.642   2.604
 1072SOL    HW1 4115   3.408   5.646   2.572
 1072SOL    HW2 4116   3.524   5.550   2.637
 1073SOL     OW 4117   2.684   5.435   3.009
 1073SOL    HW1 4118   2.734   5.387   3.082
 1073SOL    HW2 4119   2.666   5.371   2.935
 1074SOL     OW 4120   1.552   5.285   2.408
 1074SOL    HW1 4121   1.636   5.231   2.405
 1074SOL    HW2 4122   1.474   5.226   2.427
 1075SOL     OW 4123   0.700   4.024   2.669
 1075SOL    HW1 4124   0.764   4.000   2.596
 1075SOL    HW2 4125   0.748   4.025   2.757
 1076SOL     OW 4126   0.026   4.350   2.687
 1076SOL    HW1 4127   6.997   4.399   2.619
 1076SOL    HW2 4128   0.053   4.414   2.759
 1077SOL     OW 4129   5.307   0.960   1.342
 1077SOL    HW1 4130   5.247   1.037   1.365
 1077SOL    HW2 4131   5.298   0.889   1.411
 1078SOL     OW 4132   0.594   3.390   1.012
 1078SOL    HW1 4133   0.525   3.352   1.074
 1078SOL    HW2 4134   0.548   3.442   0.939
 1079SOL     OW 4135   2.429   5.399   3.215
 1079SOL    HW1 4136   2.528   5.395   3.226
 1079SOL    HW2 4137   2.386   5.373   3.302
 1080SOL     OW 4138   1.567   5.520   4.023
 1080SOL    HW1 4139   1.541   5.599   4.077
 1080SOL    HW2 4140   1.635   5.466   4.073
 1081SOL     OW 4141   1.614   1.521   0.305
 1081SOL    HW1 4142   1.523   1.486   0.330
 1081SOL    HW2 4143   1.681   1.489   0.372
 1082SOL     OW 4144   2.144   6.721   0.629
 1082SOL    HW1 4145   2.110   6.771   0.550
 1082SOL    HW2 4146   2.121   6.771   0.713
 1083SOL     OW 4147   3.681   2.228   1.581
 1083SOL    HW1 4148   3.678   2.129   1.593
 1083SOL    HW2 4149   3.682   2.273   1.671
 1084SOL     OW 4150   6.319   3.308   0.807
 1084SOL    HW1 4151   6.386   3.363   0.856
 1084SOL    HW2 4152   6.236   3.299   0.862
 1085SOL     OW 4153   0.974   4.599   2.990
 1085SOL    HW1 4154   0.908   4.643   3.051
 1085SOL    HW2 4155   0.965   4.500   2.996
 1086SOL     OW 4156   4.195   4.722   2.144
 1086SOL    HW1 4157   4.182   4.815   2.107
 1086SOL    HW2 4158   4.106   4.681   2.161
 1087SOL     OW 4159   3.903   3.581   5.170
 1087SOL    HW1 4160   3.917   3.673   5.206
 1087SOL    HW2 4161   3.872   3.521   5.243
 1088SOL     OW 4162   5.958   4.488   2.836
 1088SOL    HW1 4163   6.052   4.457   2.852
 1088SOL    HW2 4164   5.939   4.485   2.737
 1089SOL     OW 4165   6.147   6.967   3.293
 1089SOL    HW1 4166   6.062   7.009   3.325
 1089SOL    HW2 4167   6.144   6.868   3.310
 1090SOL     OW 4168   1.387   1.838   6.032
 1090SOL    HW1 4169   1.389   1.786   5.946
 1090SOL    HW2 4170   1.355   1.931   6.014
 1091SOL     OW 4171   1.142   2.871   5.224
 1091SOL    HW1 4172   1.237   2.899   5.233
 1091SOL    HW2 4173   1.138   2.772   5.207
 1092SOL     OW 4174   1.922   4.561   1.237
 1092SOL    HW1 4175   1.833   4.595   1.208
 1092SOL    HW2 4176   1.911   4.496   1.312
 1093SOL     OW 4177   0.473   2.542   2.062
 1093SOL    HW1 4178   0.418   2.463   2.036
 1093SOL    HW2 4179   0.448   2.621   2.005
 1094SOL     OW 4180   0.740   6.671   2.048
 1094SOL    HW1 4181   0.649   6.712   2.053
 1094SOL    HW2 4182   0.804   6.738   2.009
 1095SOL     OW 4183   6.229   3.287   5.742
 1095SOL    HW1 4184   6.151   3.239   5.781
 1095SOL    HW2 4185   6.221   3.385   5.761
 1096SOL     OW 4186   3.617   3.808   1.826
 1096SOL    HW1 4187   3.668   3.767   1.750
 1096SOL    HW2 4188   3.583   3.898   1.799
 1097SOL     OW 4189   2.131   4.220   5.408
 1097SOL    HW1 4190   2.219   4.207   5.362
 1097SOL    HW2 4191   2.094   4.310   5.384
 1098SOL     OW 4192   3.868   1.081   2.933
 1098SOL    HW1 4193   3.958   1.092   2.973
 1098SOL    HW2 4194   3.799   1.078   3.005
 1099SOL     OW 4195   3.903   1.189   2.674
 1099SOL    HW1 4196   3.910   1.099   2.631
 1099SOL    HW2 4197   3.883   1.178   2.772
 1100SOL     OW 4198   0.005   0.756   6.922
 1100SOL    HW1 4199   0.014   0.658   6.936
 1100SOL    HW2 4200   0.093   0.801   6.943
 1101SOL     OW 4201   5.878   2.805   1.040
 1101SOL    HW1 4202   5.973   2.778   1.027
 1101SOL    HW2 4203   5.830   2.802   0.953
 1102SOL     OW 4204   0.049   4.166   3.461
 1102SOL    HW1 4205   0.068   4.255   3.501
 1102SOL    HW2 4206   6.991   4.170   3.408
 1103SOL     OW 4207   0.586   3.497   0.554
 1103SOL    HW1 4208   0.567   3.562   0.480
 1103SOL    HW2 4209   0.564   3.404   0.523
 1104SOL     OW 4210   2.600   5.459   5.854
 1104SOL    HW1 4211   2.665   5.427   5.922
 1104SOL    HW2 4212   2.532   5.388   5.836
 1105SOL     OW 4213   4.187   5.443   0.730
 1105SOL    HW1 4214   4.182   5.542   0.718
 1105SOL    HW2 4215   4.185   5.421   0.827
 1106SOL     OW 4216   1.318   1.165   6.345
 1106SOL    HW1 4217   1.277   1.088   6.394
 1106SOL    HW2 4218   1.268   1.182   6.261
 1107SOL     OW 4219   0.174   7.008   1.129
 1107SOL    HW1 4220   0.209   0.062   1.177
 1107SOL    HW2 4221   0.251   6.954   1.096
 1108SOL     OW 4222   0.593   0.775   6.679
 1108SOL    HW1 4223   0.649   0.694   6.693
 1108SOL    HW2 4224   0.497   0.753   6.696
 1109SOL     OW 4225   5.045   1.013   3.716
 1109SOL    HW1 4226   5.088   0.923   3.714
 1109SOL    HW2 4227   5.090   1.069   3.786
 1110SOL     OW 4228   3.276   2.737   1.928
 1110SOL    HW1 4229   3.222   2.808   1.884
 1110SOL    HW2 4230   3.216   2.661   1.955
 1111SOL     OW 4231   4.757   0.238   6.678
 1111SOL    HW1 4232   4.805   0.161   6.718
 1111SOL    HW2 4233   4.664   0.243   6.713
 1112SOL     OW 4234   1.103   1.454   2.987
 1112SOL    HW1 4235   1.119   1.453   3.086
 1112SOL    HW2 4236   1.175   1.507   2.943
 1113SOL     OW 4237   5.837   4.269   1.988
 1113SOL    HW1 4238   5.869   4.259   1.894
 1113SOL    HW2 4239   5.843   4.181   2.035
 1114SOL     OW 4240   6.045   1.338   5.711
 1114SOL    HW1 4241   6.011   1.415   5.657
 1114SOL    HW2 4242   6.064   1.260   5.652
 1115SOL     OW 4243   3.545   4.379   0.765
 1115SOL    HW1 4244   3.637   4.403   0.798
 1115SOL    HW2 4245   3.499   4.322   0.833
 1116SOL     OW 4246   3.643   6.511   5.803
 1116SOL    HW1 4247   3.612   6.528   5.897
 1116SOL    HW2 4248   3.666   6.415   5.793
 1117SOL     OW 4249   2.377   2.739   0.739
 1117SOL    HW1 4250   2.328   2.809   0.687
 1117SOL    HW2 4251   2.375   2.652   0.688
 1118SOL     OW 4252   1.578   3.361   2.764
 1118SOL    HW1 4253   1.553   3.318   2.850
 1118SOL    HW2 4254   1.526   3.319   2.689
 1119SOL     OW 4255   3.013   3.659   2.660
 1119SOL    HW1 4256   2.952   3.700   2.592
 1119SOL    HW2 4257   3.062   3.582   2.618
 1120SOL     OW 4258   5.020   1.118   4.449
 1120SOL    HW1 4259   5.108   1.074   4.465
 1120SOL    HW2 4260   4.948   1.048   4.448
 1121SOL     OW 4261   5.174   3.194   2.524
 1121SOL    HW1 4262   5.199   3.246   2.442
 1121SOL    HW2 4263   5.184   3.251   2.605
 1122SOL     OW 4264   4.652   4.993   0.448
 1122SOL    HW1 4265   4.642   4.907   0.497
 1122SOL    HW2 4266   4.562   5.034   0.434
 1123SOL     OW 4267   3.680   0.829   2.190
 1123SOL    HW1 4268   3.637   0.781   2.114
 1123SOL    HW2 4269   3.708   0.763   2.260
 1124SOL     OW 4270   0.764   4.623   4.708
 1124SOL    HW1 4271   0.724   4.601   4.619
 1124SOL    HW2 4272   0.822   4.704   4.700
 1125SOL     OW 4273   3.355   3.485   4.645
 1125SOL    HW1 4274   3.326   3.538   4.725
 1125SOL    HW2 4275   3.275   3.444   4.601
 1126SOL     OW 4276   6.563   0.295   2.588
 1126SOL    HW1 4277   6.549   0.246   2.674
 1126SOL    HW2 4278   6.502   0.374   2.584
 1127SOL     OW 4279   1.883   5.116   6.492
 1127SOL    HW1 4280   1.894   5.143   6.587
 1127SOL    HW2 4281   1.795   5.071   6.479
 1128SOL     OW 4282   2.222   1.640   4.135
 1128SOL    HW1 4283   2.233   1.558   4.191
 1128SOL    HW2 4284   2.127   1.671   4.139
 1129SOL     OW 4285   4.646   6.953   6.410
 1129SOL    HW1 4286   4.618   6.955   6.314
 1129SOL    HW2 4287   4.648   0.020   6.446
 1130SOL     OW 4288   0.122   5.449   6.107
 1130SOL    HW1 4289   0.103   5.547   6.115
 1130SOL    HW2 4290   0.186   5.434   6.032
 1131SOL     OW 4291   0.611   5.165   5.206
 1131SOL    HW1 4292   0.641   5.128   5.294
 1131SOL    HW2 4293   0.664   5.123   5.132
 1132SOL     OW 4294   5.178   0.346   5.033
 1132SOL    HW1 4295   5.219   0.336   4.942
 1132SOL    HW2 4296   5.214   0.275   5.093
 1133SOL     OW 4297   6.778   2.682   0.445
 1133SOL    HW1 4298   6.696   2.635   0.411
 1133SOL    HW2 4299   6.817   2.738   0.372
 1134SOL     OW 4300   6.603   2.276   5.774
 1134SOL    HW1 4301   6.685   2.253   5.826
 1134SOL    HW2 4302   6.615   2.366   5.730
 1135SOL     OW 4303   6.040   1.616   4.235
 1135SOL    HW1 4304   5.977   1.603   4.158
 1135SOL    HW2 4305   6.113   1.679   4.208
 1136SOL     OW 4306   3.658   5.359   4.026
 1136SOL    HW1 4307   3.683   5.335   4.120
 1136SOL    HW2 4308   3.673   5.457   4.011
 1137SOL     OW 4309   1.166   0.896   6.233
 1137SOL    HW1 4310   1.251   0.843   6.224
 1137SOL    HW2 4311   1.090   0.833   6.251
 1138SOL     OW 4312   0.310   4.252   5.759
 1138SOL    HW1 4313   0.301   4.347   5.790
 1138SOL    HW2 4314   0.287   4.247   5.662
 1139SOL     OW 4315   0.975   6.268   1.138
 1139SOL    HW1 4316   0.950   6.255   1.042
 1139SOL    HW2 4317   0.892   6.276   1.194
 1140SOL     OW 4318   3.853   1.476   3.948
 1140SOL    HW1 4319   3.865   1.467   3.849
 1140SOL    HW2 4320   3.887   1.393   3.993
 1141SOL     OW 4321   6.892   5.921   5.375
 1141SOL    HW1 4322   6.860   5.833   5.410
 1141SOL    HW2 4323   6.990   5.930   5.393
 1142SOL     OW 4324   6.052   0.744   4.028
 1142SOL    HW1 4325   5.959   0.751   3.993
 1142SOL    HW2 4326   6.051   0.690   4.113
 1143SOL     OW 4327   4.642   1.936   2.195
 1143SOL    HW1 4328   4.609   2.029   2.179
 1143SOL    HW2 4329   4.741   1.933   2.185
 1144SOL     OW 4330   1.520   6.668   5.650
 1144SOL    HW1 4331   1.518   6.733   5.726
 1144SOL    HW2 4332   1.536   6.718   5.565
 1145SOL     OW 4333   1.737   5.014   5.047
 1145SOL    HW1 4334   1.704   4.924   5.075
 1145SOL    HW2 4335   1.659   5.071   5.020
 1146SOL     OW 4336   6.569   1.941   0.998
 1146SOL    HW1 4337   6.532   1.855   0.963
 1146SOL    HW2 4338   6.536   2.017   0.941
 1147SOL     OW 4339   6.725   3.233   2.171
 1147SOL    HW1 4340   6.718   3.136   2.149
 1147SOL    HW2 4341   6.684   3.250   2.261
 1148SOL     OW 4342   4.698   1.000   6.829
 1148SOL    HW1 4343   4.778   1.058   6.821
 1148SOL    HW2 4344   4.715   0.928   6.896
 1149SOL     OW 4345   6.597   2.424   3.373
 1149SOL    HW1 4346   6.519   2.383   3.421
 1149SOL    HW2 4347   6.660   2.462   3.441
 1150SOL     OW 4348   0.762   5.176   5.721
 1150SOL    HW1 4349   0.832   5.210   5.783
 1150SOL    HW2 4350   0.715   5.098   5.763
 1151SOL     OW 4351   3.882   5.574   0.041
 1151SOL    HW1 4352   3.796   5.587   0.090
 1151SOL    HW2 4353   3.902   5.476   0.034
 1152SOL     OW 4354   0.473   1.224   4.387
 1152SOL    HW1 4355   0.401   1.199   4.452
 1152SOL    HW2 4356   0.447   1.307   4.339
 1153SOL     OW 4357   2.376   4.636   2.576
 1153SOL    HW1 4358   2.464   4.641   2.528
 1153SOL    HW2 4359   2.342   4.728   2.594
 1154SOL     OW 4360   2.050   3.987   1.887
 1154SOL    HW1 4361   1.971   4.046   1.903
 1154SOL    HW2 4362   2.024   3.892   1.902
 1155SOL     OW 4363   3.711   6.450   2.327
 1155SOL    HW1 4364   3.742   6.424   2.418
 1155SOL    HW2 4365   3.612   6.467   2.329
 1156SOL     OW 4366   1.188   1.415   3.832
 1156SOL    HW1 4367   1.263   1.470   3.868
 1156SOL    HW2 4368   1.162   1.345   3.899
 1157SOL     OW 4369   0.945   3.595   4.788
 1157SOL    HW1 4370   0.909   3.542   4.865
 1157SOL    HW2 4371   1.032   3.555   4.758
 1158SOL     OW 4372   4.536   5.932   6.903
 1158SOL    HW1 4373   4.635   5.915   6.909
 1158SOL    HW2 4374   4.507   5.922   6.808
 1159SOL     OW 4375   5.313   4.852   2.730
 1159SOL    HW1 4376   5.396   4.908   2.725
 1159SOL    HW2 4377   5.336   4.757   2.706
 1160SOL     OW 4378   2.668   2.754   0.768
 1160SOL    HW1 4379   2.569   2.755   0.785
 1160SOL    HW2 4380   2.710   2.681   0.823
 1161SOL     OW 4381   4.350   0.895   4.418
 1161SOL    HW1 4382   4.387   0.880   4.510
 1161SOL    HW2 4383   4.258   0.934   4.425
 1162SOL     OW 4384   3.963   4.772   1.802
 1162SOL    HW1 4385   4.026   4.845   1.774
 1162SOL    HW2 4386   3.991   4.686   1.760
 1163SOL     OW 4387   4.908   1.500   2.260
 1163SOL    HW1 4388   4.849   1.421   2.244
 1163SOL    HW2 4389   4.882   1.545   2.346
 1164SOL     OW 4390   5.907   3.671   4.196
 1164SOL    HW1 4391   5.996   3.676   4.149
 1164SOL    HW2 4392   5.865   3.761   4.197
 1165SOL     OW 4393   1.538   4.374   2.108
 1165SOL    HW1 4394   1.478   4.309   2.154
 1165SOL    HW2 4395   1.561   4.340   2.017
 1166SOL     OW 4396   3.384   2.407   6.884
 1166SOL    HW1 4397   3.459   2.471   6.866
 1166SOL    HW2 4398   3.313   2.417   6.815
 1167SOL     OW 4399   4.269   1.984   5.135
 1167SOL    HW1 4400   4.197   2.053   5.124
 1167SOL    HW2 4401   4.332   2.013   5.207
 1168SOL     OW 4402   6.121   6.398   3.507
 1168SOL    HW1 4403   6.158   6.415   3.599
 1168SOL    HW2 4404   6.172   6.323   3.464
 1169SOL     OW 4405   0.979   4.113   1.213
 1169SOL    HW1 4406   0.887   4.149   1.228
 1169SOL    HW2 4407   0.983   4.068   1.124
 1170SOL     OW 4408   3.412   0.844   1.134
 1170SOL    HW1 4409   3.384   0.889   1.219
 1170SOL    HW2 4410   3.365   0.886   1.057
 1171SOL     OW 4411   2.855   0.299   0.448
 1171SOL    HW1 4412   2.862   0.398   0.450
 1171SOL    HW2 4413   2.878   0.265   0.356
 1172SOL     OW 4414   3.024   3.573   4.505
 1172SOL    HW1 4415   3.004   3.483   4.466
 1172SOL    HW2 4416   2.974   3.584   4.591
 1173SOL     OW 4417   4.767   1.028   6.390
 1173SOL    HW1 4418   4.836   1.006   6.459
 1173SOL    HW2 4419   4.811   1.071   6.312
 1174SOL     OW 4420   3.104   6.180   0.103
 1174SOL    HW1 4421   3.169   6.232   0.158
 1174SOL    HW2 4422   3.139   6.170   0.010
 1175SOL     OW 4423   6.983   5.405   4.445
 1175SOL    HW1 4424   7.013   5.494   4.480
 1175SOL    HW2 4425   0.003   5.387   4.358
 1176SOL     OW 4426   6.128   3.350   0.994
 1176SOL    HW1 4427   6.059   3.313   1.056
 1176SOL    HW2 4428   6.126   3.450   0.999
 1177SOL     OW 4429   6.025   3.073   6.950
 1177SOL    HW1 4430   6.094   3.142   6.971
 1177SOL    HW2 4431   5.936   3.104   6.985
 1178SOL     OW 4432   5.143   4.293   1.989
 1178SOL    HW1 4433   5.150   4.341   1.902
 1178SOL    HW2 4434   5.223   4.315   2.045
 1179SOL     OW 4435   2.174   5.932   6.016
 1179SOL    HW1 4436   2.080   5.899   6.028
 1179SOL    HW2 4437   2.205   5.911   5.924
 1180SOL     OW 4438   2.001   1.456   3.516
 1180SOL    HW1 4439   1.911   1.477   3.479
 1180SOL    HW2 4440   2.007   1.358   3.535
 1181SOL     OW 4441   1.775   4.106   2.926
 1181SOL    HW1 4442   1.786   4.098   3.026
 1181SOL    HW2 4443   1.778   4.203   2.900
 1182SOL     OW 4444   1.535   3.972   3.276
 1182SOL    HW1 4445   1.597   3.896   3.257
 1182SOL    HW2 4446   1.563   4.019   3.360
 1183SOL     OW 4447   4.354   5.869   0.474
 1183SOL    HW1 4448   4.415   5.902   0.546
 1183SOL    HW2 4449   4.407   5.820   0.406
 1184SOL     OW 4450   3.216   3.220   5.820
 1184SOL    HW1 4451   3.117   3.210   5.813
 1184SOL    HW2 4452   3.261   3.141   5.779
 1185SOL     OW 4453   2.426   1.577   6.889
 1185SOL    HW1 4454   2.373   1.498   6.919
 1185SOL    HW2 4455   2.374   1.628   6.820
 1186SOL     OW 4456   2.951   1.307   5.363
 1186SOL    HW1 4457   2.956   1.395   5.411
 1186SOL    HW2 4458   2.980   1.320   5.268
 1187SOL     OW 4459   0.455   1.408   5.397
 1187SOL    HW1 4460   0.463   1.327   5.456
 1187SOL    HW2 4461   0.471   1.381   5.302
 1188SOL     OW 4462   1.681   0.313   4.692
 1188SOL    HW1 4463   1.625   0.290   4.772
 1188SOL    HW2 4464   1.681   0.412   4.679
 1189SOL     OW 4465   6.864   0.498   0.613
 1189SOL    HW1 4466   6.948   0.505   0.666
 1189SOL    HW2 4467   6.791   0.458   0.670
 1190SOL     OW 4468   4.028   4.805   2.811
 1190SOL    HW1 4469   4.101   4.738   2.821
 1190SOL    HW2 4470   4.008   4.847   2.900
 1191SOL     OW 4471   2.830   4.871   0.470
 1191SOL    HW1 4472   2.928   4.874   0.450
 1191SOL    HW2 4473   2.780   4.864   0.384
 1192SOL     OW 4474   4.597   5.176   2.259
 1192SOL    HW1 4475   4.535   5.189   2.337
 1192SOL    HW2 4476   4.623   5.079   2.254
 1193SOL     OW 4477   4.140   7.000   3.782
 1193SOL    HW1 4478   4.154   6.908   3.747
 1193SOL    HW2 4479   4.209   0.035   3.744
 1194SOL     OW 4480   6.519   0.846   1.522
 1194SOL    HW1 4481   6.494   0.750   1.533
 1194SOL    HW2 4482   6.612   0.860   1.556
 1195SOL     OW 4483   3.418   6.654   6.966
 1195SOL    HW1 4484   3.509   6.651   6.925
 1195SOL    HW2 4485   3.378   6.562   6.967
 1196SOL     OW 4486   0.477   5.270   3.184
 1196SOL    HW1 4487   0.407   5.329   3.144
 1196SOL    HW2 4488   0.494   5.192   3.123
 1197SOL     OW 4489   3.154   5.025   6.479
 1197SOL    HW1 4490   3.251   5.044   6.467
 1197SOL    HW2 4491   3.139   4.983   6.569
 1198SOL     OW 4492   3.517   1.526   2.601
 1198SOL    HW1 4493   3.499   1.598   2.534
 1198SOL    HW2 4494   3.439   1.519   2.663
 1199SOL     OW 4495   3.073   3.734   3.607
 1199SOL    HW1 4496   3.009   3.771   3.540
 1199SOL    HW2 4497   3.034   3.742   3.699
 1200SOL     OW 4498   3.863   3.310   0.848
 1200SOL    HW1 4499   3.821   3.333   0.935
 1200SOL    HW2 4500   3.932   3.239   0.862
 1201SOL     OW 4501   0.955   1.139   4.507
 1201SOL    HW1 4502   1.016   1.118   4.583
 1201SOL    HW2 4503   0.868   1.091   4.520
 1202SOL     OW 4504   5.753   0.230   4.885
 1202SOL    HW1 4505   5.678   0.178   4.845
 1202SOL    HW2 4506   5.737   0.328   4.872
 1203SOL     OW 4507   6.152   6.426   1.716
 1203SOL    HW1 4508   6.151   6.495   1.788
 1203SOL    HW2 4509   6.209   6.458   1.640
 1204SOL     OW 4510   1.471   6.405   6.989
 1204SOL    HW1 4511   1.523   6.487   6.965
 1204SOL    HW2 4512   1.532   6.326   6.990
 1205SOL     OW 4513   0.974   2.853   4.998
 1205SOL    HW1 4514   0.918   2.773   4.975
 1205SOL    HW2 4515   0.919   2.919   5.048
 1206SOL     OW 4516   0.280   1.852   4.552
 1206SOL    HW1 4517   0.356   1.902   4.593
 1206SOL    HW2 4518   0.284   1.756   4.579
 1207SOL     OW 4519   6.002   5.954   6.358
 1207SOL    HW1 4520   6.030   5.877   6.301
 1207SOL    HW2 4521   6.073   6.025   6.355
 1208SOL     OW 4522   3.686   3.776   3.009
 1208SOL    HW1 4523   3.734   3.729   3.083
 1208SOL    HW2 4524   3.690   3.875   3.025
 1209SOL     OW 4525   6.879   4.201   4.751
 1209SOL    HW1 4526   6.790   4.202   4.705
 1209SOL    HW2 4527   6.952   4.205   4.683
 1210SOL     OW 4528   3.292   6.908   2.593
 1210SOL    HW1 4529   3.315   6.987   2.649
 1210SOL    HW2 4530   3.212   6.930   2.536
 1211SOL     OW 4531   1.431   2.927   3.295
 1211SOL    HW1 4532   1.440   2.982   3.213
 1211SOL    HW2 4533   1.491   2.964   3.367
 1212SOL     OW 4534   1.418   3.367   3.800
 1212SOL    HW1 4535   1.416   3.460   3.763
 1212SOL    HW2 4536   1.328   3.343   3.836
 1213SOL     OW 4537   5.797   2.616   5.077
 1213SOL    HW1 4538   5.811   2.663   5.164
 1213SOL    HW2 4539   5.719   2.658   5.029
 1214SOL     OW 4540   1.452   2.380   2.531
 1214SOL    HW1 4541   1.432   2.293   2.484
 1214SOL    HW2 4542   1.490   2.445   2.466
 1215SOL     OW 4543   7.026   5.263   2.102
 1215SOL    HW1 4544   0.068   5.331   2.124
 1215SOL    HW2 4545   6.986   5.282   2.013
 1216SOL     OW 4546   2.779   0.934   1.369
 1216SOL    HW1 4547   2.860   0.912   1.315
 1216SOL    HW2 4548   2.730   0.850   1.392
 1217SOL     OW 4549   1.916   1.621   2.349
 1217SOL    HW1 4550   1.889   1.638   2.443
 1217SOL    HW2 4551   1.968   1.699   2.314
 1218SOL     OW 4552   0.326   3.152   3.412
 1218SOL    HW1 4553   0.233   3.166   3.448
 1218SOL    HW2 4554   0.344   3.054   3.405
 1219SOL     OW 4555   2.692   6.104   3.779
 1219SOL    HW1 4556   2.606   6.073   3.820
 1219SOL    HW2 4557   2.725   6.034   3.716
 1220SOL     OW 4558   5.749   4.253   2.872
 1220SOL    HW1 4559   5.670   4.257   2.934
 1220SOL    HW2 4560   5.796   4.341   2.874
 1221SOL     OW 4561   4.773   3.672   5.858
 1221SOL    HW1 4562   4.808   3.647   5.948
 1221SOL    HW2 4563   4.823   3.752   5.824
 1222SOL     OW 4564   6.001   5.080   1.666
 1222SOL    HW1 4565   6.016   5.126   1.579
 1222SOL    HW2 4566   5.927   5.013   1.656
 1223SOL     OW 4567   6.341   5.244   5.153
 1223SOL    HW1 4568   6.243   5.222   5.152
 1223SOL    HW2 4569   6.386   5.199   5.076
 1224SOL     OW 4570   4.841   4.971   1.199
 1224SOL    HW1 4571   4.752   4.925   1.188
 1224SOL    HW2 4572   4.855   4.991   1.296
 1225SOL     OW 4573   3.760   1.952   6.839
 1225SOL    HW1 4574   3.781   1.925   6.933
 1225SOL    HW2 4575   3.663   1.939   6.821
 1226SOL     OW 4576   5.637   5.493   0.974
 1226SOL    HW1 4577   5.627   5.575   0.918
 1226SOL    HW2 4578   5.566   5.427   0.949
 1227SOL     OW 4579   4.907   4.540   6.544
 1227SOL    HW1 4580   4.922   4.460   6.602
 1227SOL    HW2 4581   4.810   4.545   6.519
 1228SOL     OW 4582   3.559   4.200   4.506
 1228SOL    HW1 4583   3.556   4.286   4.555
 1228SOL    HW2 4584   3.489   4.138   4.543
 1229SOL     OW 4585   2.515   5.890   3.086
 1229SOL    HW1 4586   2.597   5.946   3.094
 1229SOL    HW2 4587   2.539   5.802   3.044
 1230SOL     OW 4588   5.911   5.531   1.276
 1230SOL    HW1 4589   5.934   5.460   1.210
 1230SOL    HW2 4590   5.843   5.593   1.236
 1231SOL     OW 4591   2.003   1.479   6.377
 1231SOL    HW1 4592   2.003   1.525   6.466
 1231SOL    HW2 4593   2.078   1.515   6.321
 1232SOL     OW 4594   2.873   1.524   5.140
 1232SOL    HW1 4595   2.781   1.516   5.177
 1232SOL    HW2 4596   2.921   1.599   5.185
 1233SOL     OW 4597   6.894   5.523   4.893
 1233SOL    HW1 4598   6.851   5.559   4.809
 1233SOL    HW2 4599   6.915   5.599   4.954
 1234SOL     OW 4600   6.124   4.590   6.803
 1234SOL    HW1 4601   6.128   4.536   6.720
 1234SOL    HW2 4602   6.091   4.534   6.879
 1235SOL     OW 4603   6.358   4.805   0.918
 1235SOL    HW1 4604   6.312   4.761   0.995
 1235SOL    HW2 4605   6.423   4.742   0.877
 1236SOL     OW 4606   1.392   1.226   2.034
 1236SOL    HW1 4607   1.323   1.185   2.094
 1236SOL    HW2 4608   1.381   1.191   1.941
 1237SOL     OW 4609   0.840   0.065   4.430
 1237SOL    HW1 4610   0.899   7.014   4.451
 1237SOL    HW2 4611   0.872   0.145   4.480
 1238SOL     OW 4612   0.724   0.624   4.774
 1238SOL    HW1 4613   0.787   0.694   4.741
 1238SOL    HW2 4614   0.656   0.666   4.835
 1239SOL     OW 4615   4.809   5.061   4.223
 1239SOL    HW1 4616   4.715   5.075   4.192
 1239SOL    HW2 4617   4.835   5.135   4.285
 1240SOL     OW 4618   0.640   3.887   1.083
 1240SOL    HW1 4619   0.597   3.976   1.068
 1240SOL    HW2 4620   0.664   3.877   1.180
 1241SOL     OW 4621   4.127   5.073   5.900
 1241SOL    HW1 4622   4.187   5.114   5.969
 1241SOL    HW2 4623   4.083   4.992   5.938
 1242SOL     OW 4624   2.512   5.192   0.825
 1242SOL    HW1 4625   2.604   5.153   0.831
 1242SOL    HW2 4626   2.509   5.258   0.750
 1243SOL     OW 4627   0.895   3.187   3.659
 1243SOL    HW1 4628   0.890   3.252   3.735
 1243SOL    HW2 4629   0.876   3.095   3.693
 1244SOL     OW 4630   6.441   0.152   5.016
 1244SOL    HW1 4631   6.422   0.164   4.918
 1244SOL    HW2 4632   6.449   0.242   5.059
 1245SOL     OW 4633   4.754   6.234   1.017
 1245SOL    HW1 4634   4.673   6.271   1.063
 1245SOL    HW2 4635   4.833   6.293   1.035
 1246SOL     OW 4636   5.385   1.772   1.087
 1246SOL    HW1 4637   5.405   1.827   1.169
 1246SOL    HW2 4638   5.435   1.809   1.009
 1247SOL     OW 4639   6.271   6.699   3.076
 1247SOL    HW1 4640   6.336   6.772   3.100
 1247SOL    HW2 4641   6.320   6.612   3.068
 1248SOL     OW 4642   0.798   6.522   4.540
 1248SOL    HW1 4643   0.773   6.578   4.461
 1248SOL    HW2 4644   0.894   6.497   4.535
 1249SOL     OW 4645   5.873   5.702   6.149
 1249SOL    HW1 4646   5.829   5.782   6.107
 1249SOL    HW2 4647   5.965   5.727   6.178
 1250SOL     OW 4648   0.643   3.983   4.923
 1250SOL    HW1 4649   0.592   3.968   4.838
 1250SOL    HW2 4650   0.619   3.911   4.989
 1251SOL     OW 4651   3.267   0.389   2.823
 1251SOL    HW1 4652   3.281   0.398   2.922
 1251SOL    HW2 4653   3.316   0.462   2.776
 1252SOL     OW 4654   2.397   5.365   6.785
 1252SOL    HW1 4655   2.352   5.343   6.698
 1252SOL    HW2 4656   2.420   5.280   6.832
 1253SOL     OW 4657   2.759   6.641   6.868
 1253SOL    HW1 4658   2.820   6.710   6.830
 1253SOL    HW2 4659   2.682   6.626   6.806
 1254SOL     OW 4660   6.710   1.459   3.000
 1254SOL    HW1 4661   6.620   1.460   2.957
 1254SOL    HW2 4662   6.699   1.452   3.099
 1255SOL     OW 4663   6.103   1.805   5.616
 1255SOL    HW1 4664   6.179   1.754   5.574
 1255SOL    HW2 4665   6.056   1.746   5.681
 1256SOL     OW 4666   0.562   5.605   4.286
 1256SOL    HW1 4667   0.504   5.526   4.306
 1256SOL    HW2 4668   0.508   5.689   4.291
 1257SOL     OW 4669   0.236   6.459   3.777
 1257SOL    HW1 4670   0.146   6.503   3.779
 1257SOL    HW2 4671   0.227   6.368   3.736
 1258SOL     OW 4672   4.647   5.791   6.475
 1258SOL    HW1 4673   4.596   5.729   6.535
 1258SOL    HW2 4674   4.637   5.762   6.380
 1259SOL     OW 4675   5.342   0.527   5.383
 1259SOL    HW1 4676   5.347   0.430   5.358
 1259SOL    HW2 4677   5.425   0.552   5.433
 1260SOL     OW 4678   2.997   1.143   1.219
 1260SOL    HW1 4679   3.043   1.054   1.215
 1260SOL    HW2 4680   2.900   1.130   1.237
 1261SOL     OW 4681   0.206   4.494   5.067
 1261SOL    HW1 4682   0.209   4.528   4.973
 1261SOL    HW2 4683   0.222   4.570   5.130
 1262SOL     OW 4684   4.488   5.781   1.516
 1262SOL    HW1 4685   4.440   5.867   1.532
 1262SOL    HW2 4686   4.473   5.751   1.422
 1263SOL     OW 4687   6.223   1.892   0.691
 1263SOL    HW1 4688   6.249   1.972   0.637
 1263SOL    HW2 4689   6.305   1.854   0.735
 1264SOL     OW 4690   6.362   2.664   4.565
 1264SOL    HW1 4691   6.279   2.651   4.511
 1264SOL    HW2 4692   6.337   2.676   4.661
 1265SOL     OW 4693   6.383   5.785   5.053
 1265SOL    HW1 4694   6.295   5.791   5.007
 1265SOL    HW2 4695   6.380   5.713   5.122
 1266SOL     OW 4696   2.489   0.740   4.103
 1266SOL    HW1 4697   2.520   0.645   4.095
 1266SOL    HW2 4698   2.560   0.801   4.066
 1267SOL     OW 4699   0.132   4.540   2.895
 1267SOL    HW1 4700   0.090   4.603   2.831
 1267SOL    HW2 4701   0.090   4.550   2.985
 1268SOL     OW 4702   6.086   4.399   7.026
 1268SOL    HW1 4703   6.176   4.366   0.029
 1268SOL    HW2 4704   6.016   4.332   0.024
 1269SOL     OW 4705   6.766   5.078   6.237
 1269SOL    HW1 4706   6.710   5.013   6.185
 1269SOL    HW2 4707   6.851   5.095   6.189
 1270SOL     OW 4708   1.553   1.994   4.348
 1270SOL    HW1 4709   1.464   1.982   4.304
 1270SOL    HW2 4710   1.560   1.933   4.427
 1271SOL     OW 4711   4.872   2.807   3.235
 1271SOL    HW1 4712   4.878   2.708   3.228
 1271SOL    HW2 4713   4.958   2.843   3.272
 1272SOL     OW 4714   6.630   0.051   1.485
 1272SOL    HW1 4715   6.553   0.021   1.541
 1272SOL    HW2 4716   6.598   0.077   1.394
 1273SOL     OW 4717   2.680   6.549   6.338
 1273SOL    HW1 4718   2.738   6.473   6.310
 1273SOL    HW2 4719   2.628   6.523   6.420
 1274SOL     OW 4720   5.375   2.120   2.039
 1274SOL    HW1 4721   5.450   2.164   1.989
 1274SOL    HW2 4722   5.379   2.021   2.025
 1275SOL     OW 4723   4.040   1.685   4.013
 1275SOL    HW1 4724   4.116   1.666   3.950
 1275SOL    HW2 4725   3.970   1.615   4.002
 1276SOL     OW 4726   6.146   0.270   3.027
 1276SOL    HW1 4727   6.067   0.280   3.088
 1276SOL    HW2 4728   6.179   0.176   3.030
 1277SOL     OW 4729   0.730   1.589   5.156
 1277SOL    HW1 4730   0.783   1.542   5.086
 1277SOL    HW2 4731   0.641   1.616   5.119
 1278SOL     OW 4732   2.552   1.827   5.708
 1278SOL    HW1 4733   2.611   1.787   5.778
 1278SOL    HW2 4734   2.456   1.807   5.729
 1279SOL     OW 4735   2.300   4.656   0.466
 1279SOL    HW1 4736   2.339   4.580   0.518
 1279SOL    HW2 4737   2.221   4.692   0.514
 1280SOL     OW 4738   1.860   6.239   3.121
 1280SOL    HW1 4739   1.877   6.281   3.031
 1280SOL    HW2 4740   1.843   6.311   3.188
 1281SOL     OW 4741   0.356   6.719   3.978
 1281SOL    HW1 4742   0.414   6.775   4.038
 1281SOL    HW2 4743   0.414   6.667   3.915
 1282SOL     OW 4744   1.280   7.009   2.106
 1282SOL    HW1 4745   1.208   6.940   2.116
 1282SOL    HW2 4746   1.358   6.984   2.163
 1283SOL     OW 4747   5.161   4.505   4.794
 1283SOL    HW1 4748   5.259   4.520   4.781
 1283SOL    HW2 4749   5.144   4.409   4.813
 1284SOL     OW 4750   2.898   1.960   2.781
 1284SOL    HW1 4751   2.848   1.873   2.781
 1284SOL    HW2 4752   2.841   2.031   2.739
 1285SOL     OW 4753   5.651   2.748   6.230
 1285SOL    HW1 4754   5.733   2.750   6.174
 1285SOL    HW2 4755   5.594   2.827   6.210
 1286SOL     OW 4756   5.975   6.220   1.697
 1286SOL    HW1 4757   6.043   6.291   1.720
 1286SOL    HW2 4758   5.949   6.172   1.781
 1287SOL     OW 4759   6.157   4.828   6.058
 1287SOL    HW1 4760   6.238   4.790   6.101
 1287SOL    HW2 4761   6.112   4.891   6.121
 1288SOL     OW 4762   6.777   2.187   3.144
 1288SOL    HW1 4763   6.847   2.256   3.127
 1288SOL    HW2 4764   6.773   2.167   3.242
 1289SOL     OW 4765   6.828   5.437   2.444
 1289SOL    HW1 4766   6.891   5.495   2.495
 1289SOL    HW2 4767   6.818   5.473   2.351
 1290SOL     OW 4768   0.386   6.238   1.249
 1290SOL    HW1 4769   0.425   6.299   1.180
 1290SOL    HW2 4770   0.425   6.260   1.339
 1291SOL     OW 4771   1.723   6.955   0.541
 1291SOL    HW1 4772   1.759   6.872   0.583
 1291SOL    HW2 4773   1.720   6.943   0.441
 1292SOL     OW 4774   0.995   6.421   6.413
 1292SOL    HW1 4775   0.970   6.472   6.495
 1292SOL    HW2 4776   1.093   6.431   6.396
 1293SOL     OW 4777   6.593   2.793   5.673
 1293SOL    HW1 4778   6.687   2.789   5.707
 1293SOL    HW2 4779   6.579   2.880   5.625
 1294SOL     OW 4780   0.298   1.569   2.750
 1294SOL    HW1 4781   0.331   1.600   2.839
 1294SOL    HW2 4782   0.289   1.647   2.688
 1295SOL     OW 4783   4.919   3.285   1.523
 1295SOL    HW1 4784   4.944   3.202   1.472
 1295SOL    HW2 4785   4.843   3.264   1.585
 1296SOL     OW 4786   3.542   2.235   6.734
 1296SOL    HW1 4787   3.637   2.217   6.761
 1296SOL    HW2 4788   3.493   2.277   6.810
 1297SOL     OW 4789   6.575   1.355   6.686
 1297SOL    HW1 4790   6.500   1.360   6.619
 1297SOL    HW2 4791   6.662   1.351   6.638
 1298SOL     OW 4792   6.133   3.067   3.762
 1298SOL    HW1 4793   6.193   3.146   3.749
 1298SOL    HW2 4794   6.042   3.088   3.726
 1299SOL     OW 4795   1.244   3.871   4.567
 1299SOL    HW1 4796   1.259   3.785   4.518
 1299SOL    HW2 4797   1.246   3.854   4.665
 1300SOL     OW 4798   3.027   3.153   1.377
 1300SOL    HW1 4799   3.098   3.135   1.308
 1300SOL    HW2 4800   3.048   3.101   1.460
 1301SOL     OW 4801   0.483   0.582   3.013
 1301SOL    HW1 4802   0.574   0.573   3.055
 1301SOL    HW2 4803   0.475   0.672   2.971
 1302SOL     OW 4804   2.801   5.903   5.307
 1302SOL    HW1 4805   2.746   5.850   5.372
 1302SOL    HW2 4806   2.898   5.894   5.331
 1303SOL     OW 4807   3.849   0.473   1.181
 1303SOL    HW1 4808   3.911   0.397   1.163
 1303SOL    HW2 4809   3.896   0.543   1.234
 1304SOL     OW 4810   3.380   0.522   5.936
 1304SOL    HW1 4811   3.338   0.497   5.849
 1304SOL    HW2 4812   3.470   0.563   5.919
 1305SOL     OW 4813   5.818   6.605   4.553
 1305SOL    HW1 4814   5.913   6.576   4.564
 1305SOL    HW2 4815   5.800   6.683   4.613
 1306SOL     OW 4816   0.769   4.553   4.420
 1306SOL    HW1 4817   0.742   4.550   4.324
 1306SOL    HW2 4818   0.825   4.473   4.442
 1307SOL     OW 4819   1.710   2.012   4.765
 1307SOL    HW1 4820   1.713   2.047   4.859
 1307SOL    HW2 4821   1.778   2.061   4.710
 1308SOL     OW 4822   4.735   5.930   2.884
 1308SOL    HW1 4823   4.639   5.955   2.895
 1308SOL    HW2 4824   4.783   6.002   2.835
 1309SOL     OW 4825   5.959   2.757   4.899
 1309SOL    HW1 4826   5.878   2.738   4.954
 1309SOL    HW2 4827   6.016   2.825   4.945
 1310SOL     OW 4828   5.067   3.725   5.281
 1310SOL    HW1 4829   5.143   3.789   5.293
 1310SOL    HW2 4830   5.088   3.639   5.327
 1311SOL     OW 4831   5.578   5.222   5.415
 1311SOL    HW1 4832   5.663   5.236   5.364
 1311SOL    HW2 4833   5.582   5.133   5.461
 1312SOL     OW 4834   6.547   0.061   2.407
 1312SOL    HW1 4835   6.563   7.010   2.467
 1312SOL    HW2 4836   6.552   0.146   2.460
 1313SOL     OW 4837   3.689   4.927   5.317
 1313SOL    HW1 4838   3.685   4.832   5.286
 1313SOL    HW2 4839   3.630   4.938   5.397
 1314SOL     OW 4840   5.537   1.561   5.180
 1314SOL    HW1 4841   5.545   1.509   5.095
 1314SOL    HW2 4842   5.440   1.574   5.203
 1315SOL     OW 4843   2.191   0.508   3.060
 1315SOL    HW1 4844   2.233   0.599   3.060
 1315SOL    HW2 4845   2.148   0.491   2.972
 1316SOL     OW 4846   2.935   6.443   2.428
 1316SOL    HW1 4847   2.969   6.537   2.432
 1316SOL    HW2 4848   2.976   6.390   2.502
 1317SOL     OW 4849   0.095   4.888   3.913
 1317SOL    HW1 4850   0.096   4.856   3.818
 1317SOL    HW2 4851   0.163   4.837   3.966
 1318SOL     OW 4852   0.554   6.128   1.729
 1318SOL    HW1 4853   0.460   6.100   1.707
 1318SOL    HW2 4854   0.616   6.094   1.659
 1319SOL     OW 4855   6.151   0.918   0.316
 1319SOL    HW1 4856   6.242   0.936   0.354
 1319SOL    HW2 4857   6.148   0.826   0.277
 1320SOL     OW 4858   5.146   5.653   5.652
 1320SOL    HW1 4859   5.097   5.694   5.575
 1320SOL    HW2 4860   5.212   5.586   5.617
 1321SOL     OW 4861   2.938   1.859   6.845
 1321SOL    HW1 4862   2.876   1.781   6.834
 1321SOL    HW2 4863   2.946   1.907   6.758
 1322SOL     OW 4864   5.553   1.104   5.487
 1322SOL    HW1 4865   5.553   1.006   5.471
 1322SOL    HW2 4866   5.508   1.150   5.410
 1323SOL     OW 4867   6.268   0.851   3.719
 1323SOL    HW1 4868   6.339   0.910   3.682
 1323SOL    HW2 4869   6.193   0.907   3.756
 1324SOL     OW 4870   1.287   3.648   0.645
 1324SOL    HW1 4871   1.254   3.650   0.550
 1324SOL    HW2 4872   1.248   3.569   0.692
 1325SOL     OW 4873   3.173   5.594   3.031
 1325SOL    HW1 4874   3.151   5.672   3.090
 1325SOL    HW2 4875   3.229   5.529   3.082
 1326SOL     OW 4876   4.680   4.305   4.313
 1326SOL    HW1 4877   4.703   4.209   4.327
 1326SOL    HW2 4878   4.735   4.342   4.238
 1327SOL     OW 4879   3.419   5.980   3.418
 1327SOL    HW1 4880   3.395   6.075   3.436
 1327SOL    HW2 4881   3.433   5.967   3.319
 1328SOL     OW 4882   1.989   2.106   6.997
 1328SOL    HW1 4883   2.089   2.107   6.984
 1328SOL    HW2 4884   1.966   2.052   0.051
 1329SOL     OW 4885   0.734   0.398   1.451
 1329SOL    HW1 4886   0.668   0.325   1.471
 1329SOL    HW2 4887   0.734   0.463   1.527
 1330SOL     OW 4888   5.246   6.767   0.746
 1330SOL    HW1 4889   5.269   6.805   0.657
 1330SOL    HW2 4890   5.239   6.668   0.740
 1331SOL     OW 4891   7.007   1.032   2.411
 1331SOL    HW1 4892   6.947   0.972   2.358
 1331SOL    HW2 4893   6.977   1.127   2.401
 1332SOL     OW 4894   3.732   1.400   1.141
 1332SOL    HW1 4895   3.696   1.434   1.228
 1332SOL    HW2 4896   3.796   1.326   1.158
 1333SOL     OW 4897   3.962   3.179   4.378
 1333SOL    HW1 4898   3.947   3.191   4.279
 1333SOL    HW2 4899   3.972   3.268   4.421
 1334SOL     OW 4900   0.664   4.201   3.177
 1334SOL    HW1 4901   0.745   4.143   3.189
 1334SOL    HW2 4902   0.603   4.159   3.110
 1335SOL     OW 4903   2.653   5.026   1.785
 1335SOL    HW1 4904   2.728   5.052   1.846
 1335SOL    HW2 4905   2.607   4.945   1.821
 1336SOL     OW 4906   0.435   0.254   4.685
 1336SOL    HW1 4907   0.465   0.172   4.636
 1336SOL    HW2 4908   0.366   0.302   4.631
 1337SOL     OW 4909   2.670   0.713   6.475
 1337SOL    HW1 4910   2.742   0.668   6.423
 1337SOL    HW2 4911   2.636   0.650   6.545
 1338SOL     OW 4912   3.610   5.782   0.799
 1338SOL    HW1 4913   3.529   5.724   0.796
 1338SOL    HW2 4914   3.673   5.756   0.725
 1339SOL     OW 4915   0.303   4.806   5.180
 1339SOL    HW1 4916   0.353   4.893   5.180
 1339SOL    HW2 4917   0.358   4.736   5.225
 1340SOL     OW 4918   1.927   1.174   6.525
 1340SOL    HW1 4919   1.886   1.212   6.442
 1340SOL    HW2 4920   1.971   1.087   6.503
 1341SOL     OW 4921   5.727   1.798   3.805
 1341SOL    HW1 4922   5.712   1.736   3.728
 1341SOL    HW2 4923   5.780   1.877   3.774
 1342SOL     OW 4924   0.860   6.239   1.470
 1342SOL    HW1 4925   0.787   6.257   1.404
 1342SOL    HW2 4926   0.858   6.143   1.497
 1343SOL     OW 4927   3.593   5.103   3.312
 1343SOL    HW1 4928   3.570   5.009   3.287
 1343SOL    HW2 4929   3.526   5.137   3.378
 1344SOL     OW 4930   5.514   1.448   2.842
 1344SOL    HW1 4931   5.421   1.452   2.879
 1344SOL    HW2 4932   5.533   1.533   2.792
 1345SOL     OW 4933   1.251   6.741   3.738
 1345SOL    HW1 4934   1.332   6.691   3.767
 1345SOL    HW2 4935   1.264   6.839   3.756
 1346SOL     OW 4936   0.461   0.891   3.953
 1346SOL    HW1 4937   0.374   0.912   3.907
 1346SOL    HW2 4938   0.537   0.920   3.895
 1347SOL     OW 4939   5.148   0.517   3.401
 1347SOL    HW1 4940   5.107   0.470   3.323
 1347SOL    HW2 4941   5.198   0.597   3.368
 1348SOL     OW 4942   4.396   5.823   4.459
 1348SOL    HW1 4943   4.377   5.852   4.553
 1348SOL    HW2 4944   4.350   5.885   4.395
 1349SOL     OW 4945   5.091   2.634   0.322
 1349SOL    HW1 4946   5.096   2.661   0.226
 1349SOL    HW2 4947   5.095   2.534   0.329
 1350SOL     OW 4948   3.497   0.047   5.216
 1350SOL    HW1 4949   3.433   7.003   5.187
 1350SOL    HW2 4950   3.480   0.131   5.164
 1351SOL     OW 4951   1.122   1.653   4.644
 1351SOL    HW1 4952   1.167   1.718   4.582
 1351SOL    HW2 4953   1.123   1.689   4.737
 1352SOL     OW 4954   0.792   6.701   4.101
 1352SOL    HW1 4955   0.778   6.731   4.006
 1352SOL    HW2 4956   0.765   6.605   4.110
 1353SOL     OW 4957   1.828   2.846   4.172
 1353SOL    HW1 4958   1.755   2.778   4.159
 1353SOL    HW2 4959   1.914   2.799   4.192
 1354SOL     OW 4960   0.340   6.266   0.510
 1354SOL    HW1 4961   0.295   6.240   0.424
 1354SOL    HW2 4962   0.352   6.365   0.513
 1355SOL     OW 4963   4.485   3.426   0.245
 1355SOL    HW1 4964   4.529   3.478   0.318
 1355SOL    HW2 4965   4.401   3.384   0.279
 1356SOL     OW 4966   3.070   3.158   1.941
 1356SOL    HW1 4967   3.149   3.169   1.882
 1356SOL    HW2 4968   3.014   3.241   1.938
 1357SOL     OW 4969   2.669   2.837   5.797
 1357SOL    HW1 4970   2.670   2.884   5.885
 1357SOL    HW2 4971   2.660   2.904   5.723
 1358SOL     OW 4972   2.428   3.535   5.874
 1358SOL    HW1 4973   2.369   3.611   5.847
 1358SOL    HW2 4974   2.374   3.451   5.882
 1359SOL     OW 4975   6.781   1.213   0.180
 1359SOL    HW1 4976   6.774   1.242   0.276
 1359SOL    HW2 4977   6.724   1.273   0.124
 1360SOL     OW 4978   3.239   3.157   4.221
 1360SOL    HW1 4979   3.251   3.070   4.270
 1360SOL    HW2 4980   3.328   3.188   4.186
 1361SOL     OW 4981   0.958   5.920   1.213
 1361SOL    HW1 4982   1.027   5.983   1.249
 1361SOL    HW2 4983   0.923   5.863   1.287
 1362SOL     OW 4984   2.725   2.388   6.152
 1362SOL    HW1 4985   2.736   2.459   6.083
 1362SOL    HW2 4986   2.815   2.358   6.184
 1363SOL     OW 4987   0.155   6.666   1.534
 1363SOL    HW1 4988   0.150   6.766   1.526
 1363SOL    HW2 4989   0.149   6.624   1.444
 1364SOL     OW 4990   0.599   4.131   0.718
 1364SOL    HW1 4991   0.638   4.039   0.717
 1364SOL    HW2 4992   0.672   4.198   0.725
 1365SOL     OW 4993   0.596   3.792   5.572
 1365SOL    HW1 4994   0.590   3.869   5.508
 1365SOL    HW2 4995   0.553   3.818   5.659
 1366SOL     OW 4996   4.495   0.665   1.048
 1366SOL    HW1 4997   4.397   0.676   1.035
 1366SOL    HW2 4998   4.543   0.695   0.965
 1367SOL     OW 4999   1.395   6.836   4.313
 1367SOL    HW1 5000   1.490   6.812   4.331
 1367SOL    HW2 5001   1.335   6.769   4.356
 1368SOL     OW 5002   1.415   6.712   4.965
 1368SOL    HW1 5003   1.319   6.711   4.992
 1368SOL    HW2 5004   1.457   6.797   4.995
 1369SOL     OW 5005   2.820   5.912   3.625
 1369SOL    HW1 5006   2.859   5.850   3.693
 1369SOL    HW2 5007   2.867   5.900   3.538
 1370SOL     OW 5008   6.937   2.411   2.792
 1370SOL    HW1 5009   6.916   2.495   2.843
 1370SOL    HW2 5010   6.865   2.395   2.724
 1371SOL     OW 5011   5.902   2.015   5.606
 1371SOL    HW1 5012   5.973   1.945   5.608
 1371SOL    HW2 5013   5.839   2.001   5.683
 1372SOL     OW 5014   6.092   2.645   0.931
 1372SOL    HW1 5015   6.179   2.616   0.971
 1372SOL    HW2 5016   6.101   2.650   0.832
 1373SOL     OW 5017   5.579   2.368   1.546
 1373SOL    HW1 5018   5.490   2.336   1.578
 1373SOL    HW2 5019   5.570   2.405   1.453
 1374SOL     OW 5020   4.425   3.754   1.546
 1374SOL    HW1 5021   4.403   3.724   1.453
 1374SOL    HW2 5022   4.372   3.700   1.611
 1375SOL     OW 5023   5.501   4.726   4.221
 1375SOL    HW1 5024   5.533   4.680   4.138
 1375SOL    HW2 5025   5.488   4.658   4.293
 1376SOL     OW 5026   2.833   4.898   6.183
 1376SOL    HW1 5027   2.932   4.897   6.198
 1376SOL    HW2 5028   2.788   4.846   6.256
 1377SOL     OW 5029   2.239   1.573   2.786
 1377SOL    HW1 5030   2.186   1.559   2.870
 1377SOL    HW2 5031   2.288   1.489   2.764
 1378SOL     OW 5032   5.307   2.243   3.973
 1378SOL    HW1 5033   5.391   2.200   3.941
 1378SOL    HW2 5034   5.293   2.328   3.922
 1379SOL     OW 5035   4.671   5.739   0.933
 1379SOL    HW1 5036   4.686   5.704   0.840
 1379SOL    HW2 5037   4.700   5.834   0.938
 1380SOL     OW 5038   0.003   6.058   2.567
 1380SOL    HW1 5039   0.063   5.980   2.550
 1380SOL    HW2 5040   7.014   6.107   2.481
 1381SOL     OW 5041   6.283   2.252   6.245
 1381SOL    HW1 5042   6.327   2.171   6.284
 1381SOL    HW2 5043   6.335   2.334   6.271
 1382SOL     OW 5044   4.375   2.728   7.027
 1382SOL    HW1 5045   4.463   2.692   0.030
 1382SOL    HW2 5046   4.389   2.794   6.952
 1383SOL     OW 5047   6.898   0.532   1.342
 1383SOL    HW1 5048   6.988   0.512   1.380
 1383SOL    HW2 5049   6.858   0.448   1.305
 1384SOL     OW 5050   6.465   1.780   2.156
 1384SOL    HW1 5051   6.414   1.866   2.157
 1384SOL    HW2 5052   6.407   1.705   2.188
 1385SOL     OW 5053   0.644   5.642   1.133
 1385SOL    HW1 5054   0.692   5.636   1.046
 1385SOL    HW2 5055   0.705   5.681   1.202
 1386SOL     OW 5056   2.357   6.101   4.169
 1386SOL    HW1 5057   2.447   6.137   4.142
 1386SOL    HW2 5058   2.286   6.168   4.146
 1387SOL     OW 5059   2.415   6.271   1.691
 1387SOL    HW1 5060   2.469   6.203   1.642
 1387SOL    HW2 5061   2.465   6.300   1.773
 1388SOL     OW 5062   0.151   0.995   1.892
 1388SOL    HW1 5063   0.245   0.967   1.906
 1388SOL    HW2 5064   0.097   0.972   1.973
 1389SOL     OW 5065   6.255   1.118   2.261
 1389SOL    HW1 5066   6.215   1.026   2.264
 1389SOL    HW2 5067   6.248   1.154   2.168
 1390SOL     OW 5068   1.373   1.722   4.814
 1390SOL    HW1 5069   1.394   1.653   4.745
 1390SOL    HW2 5070   1.380   1.681   4.905
 1391SOL     OW 5071   0.061   3.147   3.458
 1391SOL    HW1 5072   0.066   3.079   3.531
 1391SOL    HW2 5073   6.992   3.171   3.441
 1392SOL     OW 5074   4.975   4.609   4.624
 1392SOL    HW1 5075   5.048   4.563   4.676
 1392SOL    HW2 5076   4.911   4.652   4.687
 1393SOL     OW 5077   3.095   6.252   6.228
 1393SOL    HW1 5078   3.162   6.322   6.205
 1393SOL    HW2 5079   3.096   6.179   6.160
 1394SOL     OW 5080   1.367   6.124   6.266
 1394SOL    HW1 5081   1.347   6.215   6.231
 1394SOL    HW2 5082   1.398   6.131   6.361
 1395SOL     OW 5083   3.742   4.496   5.580
 1395SOL    HW1 5084   3.783   4.430   5.517
 1395SOL    HW2 5085   3.803   4.512   5.657
 1396SOL     OW 5086   5.960   6.280   4.227
 1396SOL    HW1 5087   5.991   6.364   4.271
 1396SOL    HW2 5088   6.008   6.202   4.268
 1397SOL     OW 5089   4.416   6.039   5.338
 1397SOL    HW1 5090   4.335   6.019   5.394
 1397SOL    HW2 5091   4.421   5.973   5.263
 1398SOL     OW 5092   2.046   1.097   4.254
 1398SOL    HW1 5093   2.096   1.111   4.169
 1398SOL    HW2 5094   2.060   1.003   4.286
 1399SOL     OW 5095   3.032   6.339   1.410
 1399SOL    HW1 5096   3.097   6.414   1.422
 1399SOL    HW2 5097   3.057   6.263   1.470
 1400SOL     OW 5098   2.210   6.949   2.089
 1400SOL    HW1 5099   2.123   6.901   2.084
 1400SOL    HW2 5100   2.275   6.896   2.143
 1401SOL     OW 5101   6.419   1.077   4.488
 1401SOL    HW1 5102   6.453   1.080   4.583
 1401SOL    HW2 5103   6.484   1.123   4.428
 1402SOL     OW 5104   6.977   3.165   0.237
 1402SOL    HW1 5105   0.003   3.080   0.235
 1402SOL    HW2 5106   6.879   3.145   0.246
 1403SOL     OW 5107   3.162   1.018   2.616
 1403SOL    HW1 5108   3.201   1.110   2.619
 1403SOL    HW2 5109   3.226   0.955   2.572
 1404SOL     OW 5110   5.415   1.565   0.548
 1404SOL    HW1 5111   5.318   1.561   0.572
 1404SOL    HW2 5112   5.449   1.658   0.561
 1405SOL     OW 5113   2.831   3.000   1.001
 1405SOL    HW1 5114   2.734   2.981   0.983
 1405SOL    HW2 5115   2.839   3.062   1.078
 1406SOL     OW 5116   1.371   3.961   1.178
 1406SOL    HW1 5117   1.464   3.944   1.210
 1406SOL    HW2 5118   1.322   4.018   1.245
 1407SOL     OW 5119   6.359   2.779   3.070
 1407SOL    HW1 5120   6.317   2.711   3.131
 1407SOL    HW2 5121   6.445   2.743   3.034
 1408SOL     OW 5122   6.285   6.995   6.499
 1408SOL    HW1 5123   6.364   6.934   6.500
 1408SOL    HW2 5124   6.285   0.022   6.415
 1409SOL     OW 5125   0.762   1.494   4.327
 1409SOL    HW1 5126   0.796   1.586   4.347
 1409SOL    HW2 5127   0.820   1.451   4.258
 1410SOL     OW 5128   0.346   2.943   0.263
 1410SOL    HW1 5129   0.256   2.933   0.306
 1410SOL    HW2 5130   0.353   2.879   0.186
 1411SOL     OW 5131   1.860   6.896   1.191
 1411SOL    HW1 5132   1.912   6.953   1.255
 1411SOL    HW2 5133   1.823   6.953   1.118
 1412SOL     OW 5134   1.325   3.106   0.467
 1412SOL    HW1 5135   1.274   3.047   0.404
 1412SOL    HW2 5136   1.401   3.149   0.419
 1413SOL     OW 5137   2.795   0.020   4.245
 1413SOL    HW1 5138   2.704   0.018   4.204
 1413SOL    HW2 5139   2.858   0.068   4.184
 1414SOL     OW 5140   2.509   1.220   1.580
 1414SOL    HW1 5141   2.469   1.302   1.540
 1414SOL    HW2 5142   2.444   1.177   1.642
 1415SOL     OW 5143   4.390   5.998   5.934
 1415SOL    HW1 5144   4.346   6.037   5.853
 1415SOL    HW2 5145   4.373   6.058   6.013
 1416SOL     OW 5146   4.429   6.049   2.299
 1416SOL    HW1 5147   4.463   5.959   2.273
 1416SOL    HW2 5148   4.375   6.042   2.383
 1417SOL     OW 5149   3.150   2.294   5.973
 1417SOL    HW1 5150   3.082   2.367   5.976
 1417SOL    HW2 5151   3.242   2.334   5.971
 1418SOL     OW 5152   3.513   4.097   2.567
 1418SOL    HW1 5153   3.418   4.092   2.536
 1418SOL    HW2 5154   3.515   4.100   2.667
 1419SOL     OW 5155   4.986   6.678   5.220
 1419SOL    HW1 5156   4.948   6.635   5.302
 1419SOL    HW2 5157   5.059   6.741   5.246
 1420SOL     OW 5158   0.476   5.916   2.485
 1420SOL    HW1 5159   0.507   5.910   2.580
 1420SOL    HW2 5160   0.526   5.849   2.429
 1421SOL     OW 5161   3.600   1.218   2.825
 1421SOL    HW1 5162   3.625   1.232   2.729
 1421SOL    HW2 5163   3.586   1.120   2.841
 1422SOL     OW 5164   2.692   6.525   0.077
 1422SOL    HW1 5165   2.745   6.560   0.154
 1422SOL    HW2 5166   2.729   6.563   7.018
 1423SOL     OW 5167   4.510   0.522   2.705
 1423SOL    HW1 5168   4.579   0.595   2.703
 1423SOL    HW2 5169   4.526   0.463   2.784
 1424SOL     OW 5170   6.571   4.731   2.986
 1424SOL    HW1 5171   6.608   4.824   2.993
 1424SOL    HW2 5172   6.498   4.730   2.917
 1425SOL     OW 5173   2.333   0.188   4.679
 1425SOL    HW1 5174   2.243   0.226   4.660
 1425SOL    HW2 5175   2.325   0.091   4.702
 1426SOL     OW 5176   1.108   1.850   5.723
 1426SOL    HW1 5177   1.128   1.845   5.625
 1426SOL    HW2 5178   1.193   1.843   5.774
 1427SOL     OW 5179   5.975   0.493   4.673
 1427SOL    HW1 5180   6.052   0.443   4.634
 1427SOL    HW2 5181   5.956   0.458   4.765
 1428SOL     OW 5182   5.141   1.164   0.234
 1428SOL    HW1 5183   5.121   1.242   0.293
 1428SOL    HW2 5184   5.165   1.196   0.143
 1429SOL     OW 5185   6.173   0.629   0.510
 1429SOL    HW1 5186   6.241   0.556   0.505
 1429SOL    HW2 5187   6.189   0.696   0.438
 1430SOL     OW 5188   1.988   4.861   3.691
 1430SOL    HW1 5189   1.909   4.802   3.676
 1430SOL    HW2 5190   2.069   4.805   3.709
 1431SOL     OW 5191   1.697   0.711   1.070
 1431SOL    HW1 5192   1.770   0.774   1.096
 1431SOL    HW2 5193   1.703   0.692   0.972
 1432SOL     OW 5194   2.299   0.878   1.896
 1432SOL    HW1 5195   2.384   0.837   1.863
 1432SOL    HW2 5196   2.301   0.976   1.880
 1433SOL     OW 5197   4.624   0.889   3.713
 1433SOL    HW1 5198   4.685   0.966   3.734
 1433SOL    HW2 5199   4.531   0.923   3.700
 1434SOL     OW 5200   1.278   0.818   5.503
 1434SOL    HW1 5201   1.202   0.880   5.524
 1434SOL    HW2 5202   1.261   0.730   5.547
 1435SOL     OW 5203   0.032   1.992   3.395
 1435SOL    HW1 5204   0.029   1.990   3.295
 1435SOL    HW2 5205   0.128   1.991   3.425
 1436SOL     OW 5206   3.993   3.531   0.748
 1436SOL    HW1 5207   4.062   3.554   0.817
 1436SOL    HW2 5208   3.940   3.452   0.778
 1437SOL     OW 5209   3.793   1.358   2.359
 1437SOL    HW1 5210   3.788   1.445   2.408
 1437SOL    HW2 5211   3.887   1.324   2.361
 1438SOL     OW 5212   2.113   0.347   1.322
 1438SOL    HW1 5213   2.078   0.437   1.296
 1438SOL    HW2 5214   2.212   0.353   1.334
 1439SOL     OW 5215   0.167   5.797   2.520
 1439SOL    HW1 5216   0.245   5.792   2.457
 1439SOL    HW2 5217   0.104   5.722   2.500
 1440SOL     OW 5218   2.592   3.488   1.682
 1440SOL    HW1 5219   2.518   3.500   1.749
 1440SOL    HW2 5220   2.624   3.393   1.685
 1441SOL     OW 5221   5.250   6.489   0.682
 1441SOL    HW1 5222   5.290   6.419   0.741
 1441SOL    HW2 5223   5.257   6.460   0.586
 1442SOL     OW 5224   5.455   5.971   0.805
 1442SOL    HW1 5225   5.361   5.949   0.829
 1442SOL    HW2 5226   5.505   5.886   0.786
 1443SOL     OW 5227   0.425   2.946   2.956
 1443SOL    HW1 5228   0.392   2.984   2.870
 1443SOL    HW2 5229   0.395   3.004   3.032
 1444SOL     OW 5230   6.381   4.592   6.601
 1444SOL    HW1 5231   6.384   4.622   6.697
 1444SOL    HW2 5232   6.374   4.671   6.541
 1445SOL     OW 5233   1.108   3.553   1.378
 1445SOL    HW1 5234   1.168   3.625   1.344
 1445SOL    HW2 5235   1.017   3.563   1.338
 1446SOL     OW 5236   6.346   6.849   0.834
 1446SOL    HW1 5237   6.415   6.817   0.900
 1446SOL    HW2 5238   6.383   6.842   0.741
 1447SOL     OW 5239   6.162   5.219   4.508
 1447SOL    HW1 5240   6.133   5.124   4.518
 1447SOL    HW2 5241   6.233   5.240   4.575
 1448SOL     OW 5242   1.263   3.195   5.664
 1448SOL    HW1 5243   1.188   3.145   5.621
 1448SOL    HW2 5244   1.226   3.263   5.727
 1449SOL     OW 5245   2.184   3.268   3.631
 1449SOL    HW1 5246   2.211   3.362   3.652
 1449SOL    HW2 5247   2.185   3.214   3.715
 1450SOL     OW 5248   2.381   2.676   3.824
 1450SOL    HW1 5249   2.426   2.651   3.910
 1450SOL    HW2 5250   2.440   2.655   3.747
 1451SOL     OW 5251   2.754   0.787   2.683
 1451SOL    HW1 5252   2.817   0.767   2.609
 1451SOL    HW2 5253   2.804   0.787   2.770
 1452SOL     OW 5254   4.942   2.702   6.470
 1452SOL    HW1 5255   4.849   2.695   6.505
 1452SOL    HW2 5256   4.945   2.766   6.394
 1453SOL     OW 5257   6.994   4.795   5.371
 1453SOL    HW1 5258   6.946   4.865   5.317
 1453SOL    HW2 5259   6.927   4.733   5.411
 1454SOL     OW 5260   3.748   2.154   3.599
 1454SOL    HW1 5261   3.735   2.209   3.682
 1454SOL    HW2 5262   3.839   2.171   3.562
 1455SOL     OW 5263   0.650   5.843   1.899
 1455SOL    HW1 5264   0.679   5.861   1.993
 1455SOL    HW2 5265   0.553   5.866   1.889
 1456SOL     OW 5266   6.548   5.027   4.402
 1456SOL    HW1 5267   6.454   5.028   4.371
 1456SOL    HW2 5268   6.553   5.060   4.496
 1457SOL     OW 5269   1.363   5.382   6.004
 1457SOL    HW1 5270   1.361   5.292   6.048
 1457SOL    HW2 5271   1.447   5.430   6.029
 1458SOL     OW 5272   4.996   5.172   5.283
 1458SOL    HW1 5273   5.055   5.209   5.355
 1458SOL    HW2 5274   4.979   5.075   5.300
 1459SOL     OW 5275   5.584   6.870   5.454
 1459SOL    HW1 5276   5.659   6.831   5.508
 1459SOL    HW2 5277   5.548   6.800   5.392
 1460SOL     OW 5278   1.344   6.469   5.086
 1460SOL    HW1 5279   1.378   6.533   5.017
 1460SOL    HW2 5280   1.383   6.378   5.069
 1461SOL     OW 5281   6.362   3.175   3.701
 1461SOL    HW1 5282   6.384   3.115   3.624
 1461SOL    HW2 5283   6.438   3.174   3.766
 1462SOL     OW 5284   0.594   0.979   1.793
 1462SOL    HW1 5285   0.644   0.912   1.847
 1462SOL    HW2 5286   0.657   1.023   1.729
 1463SOL     OW 5287   2.137   5.614   6.987
 1463SOL    HW1 5288   2.101   5.534   6.939
 1463SOL    HW2 5289   2.236   5.607   6.995
 1464SOL     OW 5290   1.231   3.667   3.990
 1464SOL    HW1 5291   1.294   3.632   3.922
 1464SOL    HW2 5292   1.281   3.692   4.073
 1465SOL     OW 5293   0.595   3.043   3.924
 1465SOL    HW1 5294   0.596   3.038   3.824
 1465SOL    HW2 5295   0.630   2.958   3.962
 1466SOL     OW 5296   5.386   2.574   2.277
 1466SOL    HW1 5297   5.367   2.581   2.375
 1466SOL    HW2 5298   5.481   2.546   2.263
 1467SOL     OW 5299   0.812   1.028   4.173
 1467SOL    HW1 5300   0.875   1.098   4.139
 1467SOL    HW2 5301   0.858   0.940   4.178
 1468SOL     OW 5302   2.629   5.274   2.612
 1468SOL    HW1 5303   2.665   5.367   2.622
 1468SOL    HW2 5304   2.604   5.258   2.516
 1469SOL     OW 5305   5.982   3.900   2.892
 1469SOL    HW1 5306   5.893   3.926   2.856
 1469SOL    HW2 5307   5.982   3.803   2.914
 1470SOL     OW 5308   6.235   1.267   1.739
 1470SOL    HW1 5309   6.229   1.353   1.688
 1470SOL    HW2 5310   6.170   1.201   1.702
 1471SOL     OW 5311   4.519   6.430   1.411
 1471SOL    HW1 5312   4.528   6.393   1.504
 1471SOL    HW2 5313   4.450   6.501   1.410
 1472SOL     OW 5314   1.995   0.164   5.921
 1472SOL    HW1 5315   1.921   0.106   5.887
 1472SOL    HW2 5316   1.969   0.201   6.011
 1473SOL     OW 5317   1.632   5.593   3.760
 1473SOL    HW1 5318   1.613   5.604   3.858
 1473SOL    HW2 5319   1.605   5.676   3.711
 1474SOL     OW 5320   2.664   5.210   1.190
 1474SOL    HW1 5321   2.695   5.165   1.275
 1474SOL    HW2 5322   2.730   5.191   1.117
 1475SOL     OW 5323   5.717   0.162   6.412
 1475SOL    HW1 5324   5.780   0.098   6.456
 1475SOL    HW2 5325   5.646   0.188   6.477
 1476SOL     OW 5326   4.526   0.820   0.747
 1476SOL    HW1 5327   4.427   0.826   0.759
 1476SOL    HW2 5328   4.570   0.897   0.795
 1477SOL     OW 5329   3.496   4.927   1.626
 1477SOL    HW1 5330   3.517   4.954   1.532
 1477SOL    HW2 5331   3.404   4.888   1.631
 1478SOL     OW 5332   4.831   5.122   6.897
 1478SOL    HW1 5333   4.835   5.143   6.995
 1478SOL    HW2 5334   4.748   5.069   6.878
 1479SOL     OW 5335   4.016   3.697   1.579
 1479SOL    HW1 5336   4.055   3.618   1.530
 1479SOL    HW2 5337   4.082   3.771   1.580
 1480SOL     OW 5338   3.210   0.527   4.489
 1480SOL    HW1 5339   3.189   0.623   4.469
 1480SOL    HW2 5340   3.275   0.493   4.421
 1481SOL     OW 5341   5.475   2.536   6.226
 1481SOL    HW1 5342   5.541   2.608   6.204
 1481SOL    HW2 5343   5.494   2.455   6.171
 1482SOL     OW 5344   5.280   1.094   1.007
 1482SOL    HW1 5345   5.258   1.165   0.939
 1482SOL    HW2 5346   5.282   1.135   1.098
 1483SOL     OW 5347   5.536   1.145   6.612
 1483SOL    HW1 5348   5.533   1.175   6.516
 1483SOL    HW2 5349   5.610   1.080   6.624
 1484SOL     OW 5350   3.785   5.791   5.000
 1484SOL    HW1 5351   3.834   5.858   5.054
 1484SOL    HW2 5352   3.780   5.704   5.050
 1485SOL     OW 5353   5.509   2.699   3.533
 1485SOL    HW1 5354   5.413   2.716   3.555
 1485SOL    HW2 5355   5.555   2.786   3.516
 1486SOL     OW 5356   4.660   6.550   3.685
 1486SOL    HW1 5357   4.604   6.560   3.767
 1486SOL    HW2 5358   4.606   6.507   3.613
 1487SOL     OW 5359   6.434   0.504   0.579
 1487SOL    HW1 5360   6.442   0.565   0.659
 1487SOL    HW2 5361   6.389   0.419   0.606
 1488SOL     OW 5362   6.623   1.954   2.349
 1488SOL    HW1 5363   6.585   1.862   2.365
 1488SOL    HW2 5364   6.711   1.946   2.302
 1489SOL     OW 5365   3.692   4.456   0.232
 1489SOL    HW1 5366   3.729   4.364   0.220
 1489SOL    HW2 5367   3.671   4.470   0.329
 1490SOL     OW 5368   6.987   2.467   2.282
 1490SOL    HW1 5369   7.023   2.471   2.375
 1490SOL    HW2 5370   6.895   2.426   2.284
 1491SOL     OW 5371   6.126   2.724   3.814
 1491SOL    HW1 5372   6.131   2.801   3.877
 1491SOL    HW2 5373   6.162   2.642   3.858
 1492SOL     OW 5374   6.347   1.427   3.236
 1492SOL    HW1 5375   6.336   1.508   3.178
 1492SOL    HW2 5376   6.444   1.406   3.245
 1493SOL     OW 5377   5.551   2.229   6.282
 1493SOL    HW1 5378   5.471   2.246   6.339
 1493SOL    HW2 5379   5.590   2.317   6.253
 1494SOL     OW 5380   6.560   4.573   5.854
 1494SOL    HW1 5381   6.551   4.510   5.777
 1494SOL    HW2 5382   6.481   4.635   5.856
 1495SOL     OW 5383   0.029   3.985   4.020
 1495SOL    HW1 5384   0.127   3.995   4.036
 1495SOL    HW2 5385   0.012   3.902   3.966
 1496SOL     OW 5386   6.209   5.809   5.892
 1496SOL    HW1 5387   6.239   5.721   5.857
 1496SOL    HW2 5388   6.288   5.870   5.902
 1497SOL     OW 5389   5.919   2.962   2.716
 1497SOL    HW1 5390   5.918   3.048   2.666
 1497SOL    HW2 5391   5.980   2.970   2.795
 1498SOL     OW 5392   3.284   3.977   0.818
 1498SOL    HW1 5393   3.269   3.934   0.729
 1498SOL    HW2 5394   3.216   3.943   0.884
 1499SOL     OW 5395   0.834   4.404   4.868
 1499SOL    HW1 5396   0.777   4.332   4.828
 1499SOL    HW2 5397   0.820   4.490   4.819
 1500SOL     OW 5398   0.769   6.209   1.916
 1500SOL    HW1 5399   0.692   6.164   1.873
 1500SOL    HW2 5400   0.782   6.172   2.008
 1501SOL     OW 5401   5.641   2.082   0.680
 1501SOL    HW1 5402   5.669   2.035   0.764
 1501SOL    HW2 5403   5.546   2.060   0.659
 1502SOL     OW 5404   6.301   0.142   6.014
 1502SOL    HW1 5405   6.252   0.125   5.928
 1502SOL    HW2 5406   6.271   0.076   6.083
 1503SOL     OW 5407   6.793   5.079   1.249
 1503SOL    HW1 5408   6.892   5.067   1.242
 1503SOL    HW2 5409   6.767   5.077   1.346
 1504SOL     OW 5410   1.854   6.948   2.162
 1504SOL    HW1 5411   1.897   6.904   2.083
 1504SOL    HW2 5412   1.772   6.898   2.188
 1505SOL     OW 5413   5.788   5.407   4.928
 1505SOL    HW1 5414   5.790   5.431   5.025
 1505SOL    HW2 5415   5.847   5.328   4.912
 1506SOL     OW 5416   0.572   1.647   0.852
 1506SOL    HW1 5417   0.628   1.729   0.852
 1506SOL    HW2 5418   0.505   1.652   0.778
 1507SOL     OW 5419   1.431   2.896   4.078
 1507SOL    HW1 5420   1.443   2.914   3.980
 1507SOL    HW2 5421   1.481   2.813   4.103
 1508SOL     OW 5422   1.571   0.387   1.169
 1508SOL    HW1 5423   1.543   0.478   1.139
 1508SOL    HW2 5424   1.670   0.377   1.158
 1509SOL     OW 5425   4.878   1.342   4.719
 1509SOL    HW1 5426   4.830   1.257   4.699
 1509SOL    HW2 5427   4.887   1.396   4.635
 1510SOL     OW 5428   3.713   6.123   4.698
 1510SOL    HW1 5429   3.749   6.091   4.785
 1510SOL    HW2 5430   3.625   6.169   4.713
 1511SOL     OW 5431   2.957   3.626   5.109
 1511SOL    HW1 5432   2.919   3.601   5.198
 1511SOL    HW2 5433   2.940   3.552   5.044
 1512SOL     OW 5434   5.470   6.797   1.074
 1512SOL    HW1 5435   5.528   6.761   1.001
 1512SOL    HW2 5436   5.419   6.876   1.040
 1513SOL     OW 5437   2.801   0.042   6.198
 1513SOL    HW1 5438   2.800   0.096   6.282
 1513SOL    HW2 5439   2.896   0.023   6.172
 1514SOL     OW 5440   2.890   2.765   6.112
 1514SOL    HW1 5441   2.920   2.851   6.072
 1514SOL    HW2 5442   2.792   2.752   6.093
 1515SOL     OW 5443   4.707   1.185   2.436
 1515SOL    HW1 5444   4.747   1.209   2.347
 1515SOL    HW2 5445   4.774   1.204   2.508
 1516SOL     OW 5446   5.907   0.451   5.109
 1516SOL    HW1 5447   5.992   0.403   5.130
 1516SOL    HW2 5448   5.844   0.445   5.187
 1517SOL     OW 5449   3.630   6.120   3.829
 1517SOL    HW1 5450   3.660   6.069   3.910
 1517SOL    HW2 5451   3.615   6.056   3.754
 1518SOL     OW 5452   0.839   2.898   0.099
 1518SOL    HW1 5453   0.818   2.811   0.054
 1518SOL    HW2 5454   0.788   2.904   0.185
 1519SOL     OW 5455   6.989   4.870   6.875
 1519SOL    HW1 5456   0.017   4.796   6.835
 1519SOL    HW2 5457   0.021   4.950   6.888
 1520SOL     OW 5458   0.454   6.432   3.156
 1520SOL    HW1 5459   0.415   6.445   3.065
 1520SOL    HW2 5460   0.514   6.352   3.156
 1521SOL     OW 5461   2.281   4.967   5.866
 1521SOL    HW1 5462   2.262   5.061   5.894
 1521SOL    HW2 5463   2.364   4.935   5.912
 1522SOL     OW 5464   5.699   5.957   4.130
 1522SOL    HW1 5465   5.617   5.957   4.188
 1522SOL    HW2 5466   5.723   6.051   4.106
 1523SOL     OW 5467   3.768   6.465   0.743
 1523SOL    HW1 5468   3.805   6.547   0.788
 1523SOL    HW2 5469   3.767   6.480   0.644
 1524SOL     OW 5470   2.745   1.738   2.799
 1524SOL    HW1 5471   2.746   1.642   2.769
 1524SOL    HW2 5472   2.788   1.745   2.889
 1525SOL     OW 5473   5.382   3.368   6.870
 1525SOL    HW1 5474   5.445   3.298   6.838
 1525SOL    HW2 5475   5.384   3.446   6.808
 1526SOL     OW 5476   1.105   1.169   0.178
 1526SOL    HW1 5477   1.008   1.149   0.191
 1526SOL    HW2 5478   1.158   1.128   0.253
 1527SOL     OW 5479   4.381   1.984   3.722
 1527SOL    HW1 5480   4.287   2.012   3.738
 1527SOL    HW2 5481   4.382   1.898   3.671
 1528SOL     OW 5482   3.777   3.795   2.253
 1528SOL    HW1 5483   3.785   3.894   2.237
 1528SOL    HW2 5484   3.835   3.770   2.330
 1529SOL     OW 5485   4.123   1.392   5.724
 1529SOL    HW1 5486   4.189   1.365   5.654
 1529SOL    HW2 5487   4.124   1.324   5.798
 1530SOL     OW 5488   3.290   6.335   0.933
 1530SOL    HW1 5489   3.334   6.258   0.887
 1530SOL    HW2 5490   3.193   6.316   0.945
 1531SOL     OW 5491   4.402   6.728   4.119
 1531SOL    HW1 5492   4.444   6.810   4.080
 1531SOL    HW2 5493   4.340   6.753   4.193
 1532SOL     OW 5494   3.196   5.737   6.364
 1532SOL    HW1 5495   3.284   5.709   6.324
 1532SOL    HW2 5496   3.124   5.725   6.295
 1533SOL     OW 5497   6.108   5.593   1.474
 1533SOL    HW1 5498   6.045   5.603   1.397
 1533SOL    HW2 5499   6.134   5.497   1.484
 1534SOL     OW 5500   3.640   5.004   6.620
 1534SOL    HW1 5501   3.564   5.049   6.667
 1534SOL    HW2 5502   3.625   4.905   6.619
 1535SOL     OW 5503   5.618   5.232   4.118
 1535SOL    HW1 5504   5.591   5.329   4.119
 1535SOL    HW2 5505   5.717   5.225   4.131
 1536SOL     OW 5506   4.844   3.089   6.212
 1536SOL    HW1 5507   4.943   3.071   6.208
 1536SOL    HW2 5508   4.802   3.060   6.127
 1537SOL     OW 5509   2.980   5.220   3.073
 1537SOL    HW1 5510   2.890   5.179   3.060
 1537SOL    HW2 5511   3.001   5.278   2.994
 1538SOL     OW 5512   2.661   1.381   0.182
 1538SOL    HW1 5513   2.738   1.353   0.126
 1538SOL    HW2 5514   2.623   1.466   0.145
 1539SOL     OW 5515   5.894   3.271   0.425
 1539SOL    HW1 5516   5.884   3.189   0.370
 1539SOL    HW2 5517   5.869   3.351   0.371
 1540SOL     OW 5518   3.225   6.943   4.284
 1540SOL    HW1 5519   3.129   6.951   4.314
 1540SOL    HW2 5520   3.280   6.903   4.357
 1541SOL     OW 5521   3.698   3.176   5.220
 1541SOL    HW1 5522   3.659   3.151   5.309
 1541SOL    HW2 5523   3.650   3.128   5.147
 1542SOL     OW 5524   0.175   0.005   2.478
 1542SOL    HW1 5525   0.245   6.985   2.533
 1542SOL    HW2 5526   0.204   0.099   2.460
 1543SOL     OW 5527   3.148   4.592   0.443
 1543SOL    HW1 5528   3.134   4.496   0.469
 1543SOL    HW2 5529   3.118   4.607   0.349
 1544SOL     OW 5530   3.724   3.420   4.044
 1544SOL    HW1 5531   3.690   3.493   3.984
 1544SOL    HW2 5532   3.648   3.382   4.097
 1545SOL     OW 5533   5.910   6.141   1.945
 1545SOL    HW1 5534   5.868   6.060   1.903
 1545SOL    HW2 5535   5.858   6.166   2.027
 1546SOL     OW 5536   5.078   0.202   5.791
 1546SOL    HW1 5537   5.082   0.301   5.807
 1546SOL    HW2 5538   5.169   0.163   5.800
 1547SOL     OW 5539   2.143   3.276   6.490
 1547SOL    HW1 5540   2.061   3.294   6.436
 1547SOL    HW2 5541   2.182   3.362   6.523
 1548SOL     OW 5542   6.051   1.875   0.222
 1548SOL    HW1 5543   6.078   1.786   0.186
 1548SOL    HW2 5544   6.124   1.941   0.206
 1549SOL     OW 5545   4.684   0.719   4.794
 1549SOL    HW1 5546   4.689   0.623   4.822
 1549SOL    HW2 5547   4.776   0.753   4.775
 1550SOL     OW 5548   3.785   2.928   4.024
 1550SOL    HW1 5549   3.731   2.844   4.018
 1550SOL    HW2 5550   3.786   2.973   3.935
 1551SOL     OW 5551   6.477   4.654   6.128
 1551SOL    HW1 5552   6.522   4.601   6.199
 1551SOL    HW2 5553   6.497   4.614   6.038
 1552SOL     OW 5554   1.912   4.227   1.418
 1552SOL    HW1 5555   1.916   4.316   1.464
 1552SOL    HW2 5556   2.002   4.204   1.382
 1553SOL     OW 5557   1.365   1.714   5.776
 1553SOL    HW1 5558   1.458   1.684   5.754
 1553SOL    HW2 5559   1.313   1.725   5.691
 1554SOL     OW 5560   2.851   1.336   3.761
 1554SOL    HW1 5561   2.839   1.319   3.663
 1554SOL    HW2 5562   2.775   1.297   3.811
 1555SOL     OW 5563   6.622   3.743   5.934
 1555SOL    HW1 5564   6.553   3.687   5.889
 1555SOL    HW2 5565   6.590   3.772   6.024
 1556SOL     OW 5566   2.180   0.883   6.177
 1556SOL    HW1 5567   2.264   0.912   6.132
 1556SOL    HW2 5568   2.151   0.794   6.140
 1557SOL     OW 5569   7.014   2.669   6.551
 1557SOL    HW1 5570   0.018   2.658   6.646
 1557SOL    HW2 5571   0.064   2.702   6.496
 1558SOL     OW 5572   0.340   6.959   4.800
 1558SOL    HW1 5573   0.413   6.891   4.793
 1558SOL    HW2 5574   0.374   0.013   4.850
 1559SOL     OW 5575   1.253   1.905   6.421
 1559SOL    HW1 5576   1.278   1.843   6.347
 1559SOL    HW2 5577   1.196   1.857   6.488
 1560SOL     OW 5578   6.549   6.916   6.637
 1560SOL    HW1 5579   6.539   6.892   6.540
 1560SOL    HW2 5580   6.528   7.013   6.650
 1561SOL     OW 5581   5.973   5.985   2.581
 1561SOL    HW1 5582   6.005   5.970   2.487
 1561SOL    HW2 5583   5.874   5.999   2.581
 1562SOL     OW 5584   5.993   0.989   3.366
 1562SOL    HW1 5585   5.986   0.938   3.280
 1562SOL    HW2 5586   5.905   0.990   3.412
 1563SOL     OW 5587   4.232   6.982   4.978
 1563SOL    HW1 5588   4.215   6.883   4.969
 1563SOL    HW2 5589   4.291   7.012   4.903
 1564SOL     OW 5590   1.317   1.903   2.627
 1564SOL    HW1 5591   1.311   1.834   2.555
 1564SOL    HW2 5592   1.235   1.900   2.683
 1565SOL     OW 5593   5.602   4.675   1.883
 1565SOL    HW1 5594   5.614   4.690   1.784
 1565SOL    HW2 5595   5.513   4.633   1.899
 1566SOL     OW 5596   5.689   4.478   3.174
 1566SOL    HW1 5597   5.788   4.471   3.161
 1566SOL    HW2 5598   5.644   4.399   3.131
 1567SOL     OW 5599   6.537   5.798   5.336
 1567SOL    HW1 5600   6.506   5.705   5.354
 1567SOL    HW2 5601   6.549   5.847   5.422
 1568SOL     OW 5602   0.593   6.776   0.454
 1568SOL    HW1 5603   0.582   6.737   0.545
 1568SOL    HW2 5604   0.518   6.746   0.395
 1569SOL     OW 5605   3.716   6.480   4.991
 1569SOL    HW1 5606   3.708   6.382   5.005
 1569SOL    HW2 5607   3.671   6.506   4.906
 1570SOL     OW 5608   3.671   1.956   1.580
 1570SOL    HW1 5609   3.686   1.964   1.678
 1570SOL    HW2 5610   3.573   1.956   1.562
 1571SOL     OW 5611   6.847   4.543   1.073
 1571SOL    HW1 5612   6.885   4.475   1.136
 1571SOL    HW2 5613   6.751   4.560   1.096
 1572SOL     OW 5614   1.500   6.305   2.189
 1572SOL    HW1 5615   1.511   6.219   2.140
 1572SOL    HW2 5616   1.475   6.287   2.284
 1573SOL     OW 5617   3.907   0.149   0.935
 1573SOL    HW1 5618   3.973   0.225   0.941
 1573SOL    HW2 5619   3.820   0.178   0.974
 1574SOL     OW 5620   6.160   2.801   2.451
 1574SOL    HW1 5621   6.224   2.873   2.427
 1574SOL    HW2 5622   6.191   2.754   2.533
 1575SOL     OW 5623   3.326   2.490   0.414
 1575SOL    HW1 5624   3.274   2.499   0.499
 1575SOL    HW2 5625   3.298   2.562   0.350
 1576SOL     OW 5626   6.545   5.985   3.848
 1576SOL    HW1 5627   6.482   6.003   3.772
 1576SOL    HW2 5628   6.535   5.890   3.877
 1577SOL     OW 5629   1.336   0.749   0.217
 1577SOL    HW1 5630   1.420   0.701   0.239
 1577SOL    HW2 5631   1.348   0.801   0.132
 1578SOL     OW 5632   5.825   5.436   4.572
 1578SOL    HW1 5633   5.813   5.535   4.581
 1578SOL    HW2 5634   5.741   5.395   4.537
 1579SOL     OW 5635   0.719   0.176   3.502
 1579SOL    HW1 5636   0.759   0.266   3.517
 1579SOL    HW2 5637   0.686   0.169   3.407
 1580SOL     OW 5638   3.328   3.931   5.994
 1580SOL    HW1 5639   3.236   3.942   5.956
 1580SOL    HW2 5640   3.358   3.836   5.985
 1581SOL     OW 5641   6.575   4.016   4.257
 1581SOL    HW1 5642   6.580   3.931   4.205
 1581SOL    HW2 5643   6.668   4.048   4.277
 1582SOL     OW 5644   5.997   5.368   4.365
 1582SOL    HW1 5645   6.053   5.308   4.422
 1582SOL    HW2 5646   5.922   5.405   4.420
 1583SOL     OW 5647   2.115   2.432   3.121
 1583SOL    HW1 5648   2.118   2.385   3.033
 1583SOL    HW2 5649   2.058   2.381   3.185
 1584SOL     OW 5650   2.105   0.603   6.501
 1584SOL    HW1 5651   2.186   0.648   6.539
 1584SOL    HW2 5652   2.056   0.668   6.442
 1585SOL     OW 5653   6.104   1.373   5.389
 1585SOL    HW1 5654   6.100   1.308   5.313
 1585SOL    HW2 5655   6.190   1.361   5.439
 1586SOL     OW 5656   3.653   4.078   3.022
 1586SOL    HW1 5657   3.557   4.069   2.997
 1586SOL    HW2 5658   3.661   4.132   3.105
 1587SOL     OW 5659   2.200   6.572   6.645
 1587SOL    HW1 5660   2.188   6.489   6.590
 1587SOL    HW2 5661   2.263   6.634   6.598
 1588SOL     OW 5662   6.107   3.834   1.611
 1588SOL    HW1 5663   6.067   3.790   1.530
 1588SOL    HW2 5664   6.043   3.901   1.647
 1589SOL     OW 5665   5.088   4.050   3.979
 1589SOL    HW1 5666   5.135   3.964   3.996
 1589SOL    HW2 5667   5.132   4.123   4.032
 1590SOL     OW 5668   1.665   0.763   6.102
 1590SOL    HW1 5669   1.670   0.664   6.086
 1590SOL    HW2 5670   1.703   0.811   6.023
 1591SOL     OW 5671   6.976   4.512   1.444
 1591SOL    HW1 5672   7.005   4.572   1.519
 1591SOL    HW2 5673   0.005   4.530   1.364
 1592SOL     OW 5674   2.932   3.317   3.240
 1592SOL    HW1 5675   2.922   3.269   3.153
 1592SOL    HW2 5676   2.875   3.273   3.309
 1593SOL     OW 5677   0.723   5.416   5.085
 1593SOL    HW1 5678   0.685   5.506   5.107
 1593SOL    HW2 5679   0.688   5.348   5.150
 1594SOL     OW 5680   0.226   4.805   3.256
 1594SOL    HW1 5681   0.224   4.706   3.270
 1594SOL    HW2 5682   0.177   4.850   3.331
 1595SOL     OW 5683   0.299   5.137   6.116
 1595SOL    HW1 5684   0.364   5.096   6.180
 1595SOL    HW2 5685   0.348   5.183   6.042
 1596SOL     OW 5686   3.093   4.895   6.739
 1596SOL    HW1 5687   3.068   4.975   6.794
 1596SOL    HW2 5688   3.169   4.847   6.783
 1597SOL     OW 5689   2.601   6.875   0.986
 1597SOL    HW1 5690   2.604   6.839   0.893
 1597SOL    HW2 5691   2.673   6.832   1.041
 1598SOL     OW 5692   0.162   5.655   1.504
 1598SOL    HW1 5693   0.233   5.588   1.484
 1598SOL    HW2 5694   0.132   5.645   1.599
 1599SOL     OW 5695   3.319   5.123   6.934
 1599SOL    HW1 5696   3.289   5.169   7.018
 1599SOL    HW2 5697   3.288   5.175   6.855
 1600SOL     OW 5698   3.238   1.605   5.415
 1600SOL    HW1 5699   3.234   1.519   5.467
 1600SOL    HW2 5700   3.291   1.590   5.331
 1601SOL     OW 5701   1.323   4.874   4.501
 1601SOL    HW1 5702   1.236   4.887   4.548
 1601SOL    HW2 5703   1.317   4.908   4.407
 1602SOL     OW 5704   0.437   5.251   2.867
 1602SOL    HW1 5705   0.468   5.177   2.927
 1602SOL    HW2 5706   0.516   5.294   2.824
 1603SOL     OW 5707   6.059   6.700   1.121
 1603SOL    HW1 5708   6.027   6.620   1.173
 1603SOL    HW2 5709   5.992   6.774   1.130
 1604SOL     OW 5710   0.476   5.553   5.162
 1604SOL    HW1 5711   0.387   5.582   5.196
 1604SOL    HW2 5712   0.541   5.628   5.173
 1605SOL     OW 5713   4.802   6.168   2.798
 1605SOL    HW1 5714   4.842   6.226   2.869
 1605SOL    HW2 5715   4.740   6.223   2.741
 1606SOL     OW 5716   4.703   0.183   5.983
 1606SOL    HW1 5717   4.668   0.245   5.913
 1606SOL    HW2 5718   4.757   0.110   5.939
 1607SOL     OW 5719   4.668   2.372   0.857
 1607SOL    HW1 5720   4.671   2.377   0.757
 1607SOL    HW2 5721   4.656   2.278   0.886
 1608SOL     OW 5722   2.424   0.178   0.625
 1608SOL    HW1 5723   2.342   0.161   0.680
 1608SOL    HW2 5724   2.405   0.154   0.530
 1609SOL     OW 5725   5.159   1.253   5.460
 1609SOL    HW1 5726   5.228   1.316   5.494
 1609SOL    HW2 5727   5.133   1.278   5.367
 1610SOL     OW 5728   5.501   6.015   4.315
 1610SOL    HW1 5729   5.453   6.101   4.301
 1610SOL    HW2 5730   5.470   5.972   4.399
 1611SOL     OW 5731   3.423   3.696   1.111
 1611SOL    HW1 5732   3.490   3.648   1.168
 1611SOL    HW2 5733   3.376   3.630   1.052
 1612SOL     OW 5734   3.442   1.295   4.410
 1612SOL    HW1 5735   3.483   1.340   4.331
 1612SOL    HW2 5736   3.496   1.214   4.433
 1613SOL     OW 5737   1.922   6.374   0.935
 1613SOL    HW1 5738   1.951   6.341   0.845
 1613SOL    HW2 5739   1.995   6.355   1.002
 1614SOL     OW 5740   0.222   2.833   6.508
 1614SOL    HW1 5741   0.312   2.794   6.488
 1614SOL    HW2 5742   0.216   2.925   6.469
 1615SOL     OW 5743   6.327   5.137   6.331
 1615SOL    HW1 5744   6.344   5.185   6.245
 1615SOL    HW2 5745   6.411   5.090   6.361
 1616SOL     OW 5746   2.318   1.730   5.800
 1616SOL    HW1 5747   2.299   1.670   5.722
 1616SOL    HW2 5748   2.255   1.808   5.798
 1617SOL     OW 5749   4.915   0.492   4.070
 1617SOL    HW1 5750   4.910   0.587   4.039
 1617SOL    HW2 5751   4.909   0.488   4.170
 1618SOL     OW 5752   5.775   2.219   1.173
 1618SOL    HW1 5753   5.772   2.240   1.075
 1618SOL    HW2 5754   5.860   2.255   1.212
 1619SOL     OW 5755   1.726   3.197   4.814
 1619SOL    HW1 5756   1.767   3.196   4.905
 1619SOL    HW2 5757   1.741   3.109   4.769
 1620SOL     OW 5758   4.109   5.407   1.647
 1620SOL    HW1 5759   4.135   5.310   1.649
 1620SOL    HW2 5760   4.191   5.464   1.645
 1621SOL     OW 5761   2.181   1.405   1.591
 1621SOL    HW1 5762   2.166   1.345   1.669
 1621SOL    HW2 5763   2.097   1.412   1.538
 1622SOL     OW 5764   2.211   2.121   4.397
 1622SOL    HW1 5765   2.175   2.034   4.365
 1622SOL    HW2 5766   2.311   2.121   4.389
 1623SOL     OW 5767   2.575   2.449   5.072
 1623SOL    HW1 5768   2.510   2.374   5.063
 1623SOL    HW2 5769   2.655   2.418   5.125
 1624SOL     OW 5770   2.510   0.432   0.600
 1624SOL    HW1 5771   2.607   0.405   0.600
 1624SOL    HW2 5772   2.453   0.352   0.621
 1625SOL     OW 5773   6.963   5.405   1.840
 1625SOL    HW1 5774   6.878   5.455   1.828
 1625SOL    HW2 5775   0.014   5.467   1.828
 1626SOL     OW 5776   1.918   2.938   6.128
 1626SOL    HW1 5777   1.833   2.942   6.180
 1626SOL    HW2 5778   1.989   2.989   6.175
 1627SOL     OW 5779   5.142   3.367   3.536
 1627SOL    HW1 5780   5.062   3.404   3.489
 1627SOL    HW2 5781   5.186   3.299   3.478
 1628SOL     OW 5782   2.904   2.998   0.526
 1628SOL    HW1 5783   2.809   2.972   0.543
 1628SOL    HW2 5784   2.952   2.923   0.482
 1629SOL     OW 5785   4.556   1.956   3.235
 1629SOL    HW1 5786   4.536   1.926   3.141
 1629SOL    HW2 5787   4.616   2.036   3.232
 1630SOL     OW 5788   0.294   5.169   4.511
 1630SOL    HW1 5789   0.194   5.170   4.516
 1630SOL    HW2 5790   0.326   5.074   4.507
 1631SOL     OW 5791   0.303   6.633   5.638
 1631SOL    HW1 5792   0.330   6.717   5.684
 1631SOL    HW2 5793   0.246   6.578   5.699
 1632SOL     OW 5794   5.819   0.043   1.539
 1632SOL    HW1 5795   5.817   0.125   1.595
 1632SOL    HW2 5796   5.886   0.054   1.465
 1633SOL     OW 5797   5.642   2.535   3.360
 1633SOL    HW1 5798   5.578   2.592   3.412
 1633SOL    HW2 5799   5.643   2.564   3.265
 1634SOL     OW 5800   3.261   0.874   0.122
 1634SOL    HW1 5801   3.271   0.866   0.023
 1634SOL    HW2 5802   3.323   0.945   0.156
 1635SOL     OW 5803   0.892   4.977   3.789
 1635SOL    HW1 5804   0.869   5.036   3.866
 1635SOL    HW2 5805   0.976   5.011   3.745
 1636SOL     OW 5806   2.523   6.748   1.426
 1636SOL    HW1 5807   2.515   6.832   1.480
 1636SOL    HW2 5808   2.611   6.704   1.447
 1637SOL     OW 5809   6.949   3.170   2.727
 1637SOL    HW1 5810   7.013   3.153   2.652
 1637SOL    HW2 5811   6.993   3.149   2.814
 1638SOL     OW 5812   1.573   3.243   5.322
 1638SOL    HW1 5813   1.668   3.214   5.333
 1638SOL    HW2 5814   1.564   3.339   5.349
 1639SOL     OW 5815   4.594   4.777   2.723
 1639SOL    HW1 5816   4.521   4.754   2.658
 1639SOL    HW2 5817   4.597   4.876   2.736
 1640SOL     OW 5818   6.200   0.335   1.095
 1640SOL    HW1 5819   6.143   0.408   1.055
 1640SOL    HW2 5820   6.165   0.246   1.067
 1641SOL     OW 5821   6.837   2.462   5.642
 1641SOL    HW1 5822   6.844   2.424   5.550
 1641SOL    HW2 5823   6.809   2.558   5.637
 1642SOL     OW 5824   0.104   2.176   1.516
 1642SOL    HW1 5825   0.096   2.274   1.538
 1642SOL    HW2 5826   0.197   2.155   1.488
 1643SOL     OW 5827   3.550   0.881   6.325
 1643SOL    HW1 5828   3.585   0.967   6.289
 1643SOL    HW2 5829   3.503   0.831   6.251
 1644SOL     OW 5830   3.416   1.005   1.381
 1644SOL    HW1 5831   3.416   0.914   1.421
 1644SOL    HW2 5832   3.339   1.057   1.417
 1645SOL     OW 5833   2.039   6.491   5.825
 1645SOL    HW1 5834   1.941   6.494   5.805
 1645SOL    HW2 5835   2.064   6.399   5.856
 1646SOL     OW 5836   0.849   3.520   0.679
 1646SOL    HW1 5837   0.852   3.602   0.736
 1646SOL    HW2 5838   0.767   3.523   0.621
 1647SOL     OW 5839   5.965   2.707   3.593
 1647SOL    HW1 5840   6.006   2.725   3.683
 1647SOL    HW2 5841   5.884   2.649   3.604
 1648SOL     OW 5842   4.616   6.836   2.584
 1648SOL    HW1 5843   4.560   6.861   2.663
 1648SOL    HW2 5844   4.647   6.919   2.538
 1649SOL     OW 5845   3.410   0.207   3.163
 1649SOL    HW1 5846   3.397   0.135   3.232
 1649SOL    HW2 5847   3.484   0.180   3.101
 1650SOL     OW 5848   3.032   6.780   3.839
 1650SOL    HW1 5849   2.959   6.833   3.883
 1650SOL    HW2 5850   3.106   6.765   3.905
 1651SOL     OW 5851   1.403   6.334   0.917
 1651SOL    HW1 5852   1.500   6.332   0.893
 1651SOL    HW2 5853   1.358   6.254   0.876
 1652SOL     OW 5854   2.960   2.793   1.622
 1652SOL    HW1 5855   2.920   2.706   1.649
 1652SOL    HW2 5856   3.006   2.784   1.533
 1653SOL     OW 5857   1.418   5.010   0.799
 1653SOL    HW1 5858   1.450   4.998   0.893
 1653SOL    HW2 5859   1.323   4.980   0.792
 1654SOL     OW 5860   0.413   2.188   3.573
 1654SOL    HW1 5861   0.416   2.238   3.660
 1654SOL    HW2 5862   0.436   2.251   3.499
 1655SOL     OW 5863   5.280   4.820   5.849
 1655SOL    HW1 5864   5.330   4.751   5.901
 1655SOL    HW2 5865   5.326   4.908   5.859
 1656SOL     OW 5866   0.636   4.068   3.458
 1656SOL    HW1 5867   0.723   4.043   3.415
 1656SOL    HW2 5868   0.575   4.107   3.389
 1657SOL     OW 5869   0.724   0.458   5.434
 1657SOL    HW1 5870   0.779   0.509   5.369
 1657SOL    HW2 5871   0.627   0.467   5.411
 1658SOL     OW 5872   6.349   5.916   2.628
 1658SOL    HW1 5873   6.281   5.844   2.611
 1658SOL    HW2 5874   6.395   5.939   2.543
 1659SOL     OW 5875   4.750   2.280   5.577
 1659SOL    HW1 5876   4.827   2.287   5.512
 1659SOL    HW2 5877   4.786   2.258   5.668
 1660SOL     OW 5878   1.877   6.046   3.318
 1660SOL    HW1 5879   1.977   6.039   3.309
 1660SOL    HW2 5880   1.841   6.102   3.243
 1661SOL     OW 5881   2.935   0.121   2.571
 1661SOL    HW1 5882   2.966   0.158   2.659
 1661SOL    HW2 5883   3.014   0.088   2.519
 1662SOL     OW 5884   0.245   0.215   3.591
 1662SOL    HW1 5885   0.256   0.241   3.687
 1662SOL    HW2 5886   0.326   0.166   3.560
 1663SOL     OW 5887   2.742   6.815   3.660
 1663SOL    HW1 5888   2.752   6.717   3.678
 1663SOL    HW2 5889   2.650   6.845   3.688
 1664SOL     OW 5890   2.550   5.718   4.329
 1664SOL    HW1 5891   2.456   5.684   4.322
 1664SOL    HW2 5892   2.602   5.660   4.391
 1665SOL     OW 5893   0.595   0.122   4.918
 1665SOL    HW1 5894   0.635   0.087   4.833
 1665SOL    HW2 5895   0.509   0.169   4.898
 1666SOL     OW 5896   5.593   3.179   6.371
 1666SOL    HW1 5897   5.553   3.091   6.344
 1666SOL    HW2 5898   5.524   3.234   6.418
 1667SOL     OW 5899   6.402   0.597   6.004
 1667SOL    HW1 5900   6.422   0.531   5.932
 1667SOL    HW2 5901   6.477   0.664   6.010
 1668SOL     OW 5902   3.234   1.224   5.148
 1668SOL    HW1 5903   3.209   1.152   5.083
 1668SOL    HW2 5904   3.214   1.313   5.108
 1669SOL     OW 5905   5.847   6.304   5.954
 1669SOL    HW1 5906   5.876   6.253   5.873
 1669SOL    HW2 5907   5.747   6.306   5.958
 1670SOL     OW 5908   5.875   3.746   5.862
 1670SOL    HW1 5909   5.806   3.773   5.795
 1670SOL    HW2 5910   5.870   3.648   5.877
 1671SOL     OW 5911   5.640   4.844   7.022
 1671SOL    HW1 5912   5.597   4.754   0.005
 1671SOL    HW2 5913   5.592   4.897   6.953
 1672SOL     OW 5914   2.447   5.378   2.304
 1672SOL    HW1 5915   2.394   5.320   2.366
 1672SOL    HW2 5916   2.542   5.348   2.304
 1673SOL     OW 5917   6.718   1.718   3.772
 1673SOL    HW1 5918   6.780   1.651   3.812
 1673SOL    HW2 5919   6.720   1.802   3.827
 1674SOL     OW 5920   1.577   4.963   6.574
 1674SOL    HW1 5921   1.621   4.889   6.524
 1674SOL    HW2 5922   1.565   4.937   6.670
 1675SOL     OW 5923   4.858   2.785   0.395
 1675SOL    HW1 5924   4.791   2.711   0.388
 1675SOL    HW2 5925   4.950   2.747   0.383
 1676SOL     OW 5926   2.358   0.941   3.510
 1676SOL    HW1 5927   2.265   0.934   3.473
 1676SOL    HW2 5928   2.388   0.850   3.541
 1677SOL     OW 5929   6.423   0.375   5.242
 1677SOL    HW1 5930   6.484   0.361   5.321
 1677SOL    HW2 5931   6.459   0.449   5.185
 1678SOL     OW 5932   4.442   7.015   1.198
 1678SOL    HW1 5933   4.424   6.923   1.163
 1678SOL    HW2 5934   4.514   7.012   1.267
 1679SOL     OW 5935   6.217   4.013   0.511
 1679SOL    HW1 5936   6.138   4.074   0.517
 1679SOL    HW2 5937   6.189   3.920   0.533
 1680SOL     OW 5938   1.196   2.360   4.964
 1680SOL    HW1 5939   1.116   2.395   4.914
 1680SOL    HW2 5940   1.263   2.434   4.974
 1681SOL     OW 5941   5.747   5.674   1.123
 1681SOL    HW1 5942   5.705   5.595   1.079
 1681SOL    HW2 5943   5.810   5.718   1.059
 1682SOL     OW 5944   6.572   3.748   5.372
 1682SOL    HW1 5945   6.535   3.794   5.453
 1682SOL    HW2 5946   6.582   3.650   5.392
 1683SOL     OW 5947   6.323   6.058   6.667
 1683SOL    HW1 5948   6.359   5.965   6.673
 1683SOL    HW2 5949   6.298   6.078   6.573
 1684SOL     OW 5950   0.542   5.498   4.769
 1684SOL    HW1 5951   0.597   5.532   4.692
 1684SOL    HW2 5952   0.525   5.573   4.833
 1685SOL     OW 5953   1.412   1.793   0.024
 1685SOL    HW1 5954   1.450   1.885   0.011
 1685SOL    HW2 5955   1.443   1.734   6.976
 1686SOL     OW 5956   1.761   5.910   6.708
 1686SOL    HW1 5957   1.785   5.820   6.744
 1686SOL    HW2 5958   1.805   5.924   6.620
 1687SOL     OW 5959   1.679   6.843   1.714
 1687SOL    HW1 5960   1.630   6.842   1.802
 1687SOL    HW2 5961   1.653   6.763   1.661
 1688SOL     OW 5962   0.063   1.752   3.899
 1688SOL    HW1 5963   0.012   1.783   3.979
 1688SOL    HW2 5964   0.117   1.827   3.862
 1689SOL     OW 5965   3.290   1.467   2.760
 1689SOL    HW1 5966   3.193   1.478   2.738
 1689SOL    HW2 5967   3.300   1.440   2.856
 1690SOL     OW 5968   0.385   2.217   0.829
 1690SOL    HW1 5969   0.384   2.117   0.836
 1690SOL    HW2 5970   0.307   2.248   0.774
 1691SOL     OW 5971   4.395   4.580   2.610
 1691SOL    HW1 5972   4.452   4.499   2.628
 1691SOL    HW2 5973   4.369   4.582   2.514
 1692SOL     OW 5974   1.601   0.662   3.496
 1692SOL    HW1 5975   1.582   0.736   3.560
 1692SOL    HW2 5976   1.700   0.654   3.483
 1693SOL     OW 5977   2.674   2.385   3.897
 1693SOL    HW1 5978   2.618   2.320   3.845
 1693SOL    HW2 5979   2.712   2.454   3.835
 1694SOL     OW 5980   4.489   6.189   5.714
 1694SOL    HW1 5981   4.560   6.211   5.781
 1694SOL    HW2 5982   4.424   6.265   5.710
 1695SOL     OW 5983   2.506   1.445   6.101
 1695SOL    HW1 5984   2.473   1.525   6.051
 1695SOL    HW2 5985   2.434   1.377   6.108
 1696SOL     OW 5986   3.072   5.657   1.416
 1696SOL    HW1 5987   3.093   5.575   1.363
 1696SOL    HW2 5988   3.125   5.735   1.381
 1697SOL     OW 5989   1.221   1.131   1.793
 1697SOL    HW1 5990   1.210   1.231   1.795
 1697SOL    HW2 5991   1.161   1.090   1.862
 1698SOL     OW 5992   5.484   1.837   0.854
 1698SOL    HW1 5993   5.554   1.901   0.886
 1698SOL    HW2 5994   5.497   1.819   0.756
 1699SOL     OW 5995   2.477   3.921   1.099
 1699SOL    HW1 5996   2.499   3.836   1.051
 1699SOL    HW2 5997   2.381   3.919   1.128
 1700SOL     OW 5998   6.662   2.993   4.492
 1700SOL    HW1 5999   6.717   3.074   4.470
 1700SOL    HW2 6000   6.614   3.008   4.579
 1701SOL     OW 6001   6.071   3.403   4.940
 1701SOL    HW1 6002   5.971   3.400   4.938
 1701SOL    HW2 6003   6.102   3.435   5.029
 1702SOL     OW 6004   4.788   2.974   1.483
 1702SOL    HW1 6005   4.706   2.951   1.430
 1702SOL    HW2 6006   4.763   3.033   1.559
 1703SOL     OW 6007   2.101   4.234   0.189
 1703SOL    HW1 6008   2.189   4.189   0.205
 1703SOL    HW2 6009   2.048   4.233   0.274
 1704SOL     OW 6010   1.001   1.047   1.951
 1704SOL    HW1 6011   0.914   1.097   1.948
 1704SOL    HW2 6012   0.982   0.949   1.959
 1705SOL     OW 6013   3.981   3.317   2.191
 1705SOL    HW1 6014   3.982   3.218   2.194
 1705SOL    HW2 6015   3.887   3.350   2.199
 1706SOL     OW 6016   2.618   0.601   6.736
 1706SOL    HW1 6017   2.540   0.601   6.799
 1706SOL    HW2 6018   2.680   0.675   6.760
 1707SOL     OW 6019   6.215   1.469   2.908
 1707SOL    HW1 6020   6.225   1.549   2.967
 1707SOL    HW2 6021   6.149   1.406   2.949
 1708SOL     OW 6022   0.473   4.634   2.261
 1708SOL    HW1 6023   0.445   4.633   2.164
 1708SOL    HW2 6024   0.478   4.729   2.292
 1709SOL     OW 6025   3.803   5.982   4.299
 1709SOL    HW1 6026   3.794   5.883   4.308
 1709SOL    HW2 6027   3.895   6.010   4.328
 1710SOL     OW 6028   0.421   6.003   4.149
 1710SOL    HW1 6029   0.424   6.059   4.231
 1710SOL    HW2 6030   0.442   6.059   4.069
 1711SOL     OW 6031   2.010   4.468   5.368
 1711SOL    HW1 6032   2.006   4.482   5.467
 1711SOL    HW2 6033   1.971   4.548   5.322
 1712SOL     OW 6034   1.443   4.669   1.036
 1712SOL    HW1 6035   1.435   4.765   1.011
 1712SOL    HW2 6036   1.538   4.647   1.055
 1713SOL     OW 6037   1.552   3.235   0.355
 1713SOL    HW1 6038   1.560   3.333   0.335
 1713SOL    HW2 6039   1.576   3.218   0.451
 1714SOL     OW 6040   3.778   1.825   0.959
 1714SOL    HW1 6041   3.719   1.897   0.924
 1714SOL    HW2 6042   3.803   1.847   1.054
 1715SOL     OW 6043   0.382   3.194   3.994
 1715SOL    HW1 6044   0.376   3.247   3.910
 1715SOL    HW2 6045   0.458   3.130   3.988
 1716SOL     OW 6046   0.020   6.788   0.119
 1716SOL    HW1 6047   6.953   6.802   0.087
 1716SOL    HW2 6048   0.044   6.860   0.185
 1717SOL     OW 6049   3.270   0.336   6.960
 1717SOL    HW1 6050   3.357   0.380   6.937
 1717SOL    HW2 6051   3.270   0.311   0.030
 1718SOL     OW 6052   1.265   4.970   5.689
 1718SOL    HW1 6053   1.212   4.903   5.637
 1718SOL    HW2 6054   1.292   4.930   5.777
 1719SOL     OW 6055   2.489   3.494   1.384
 1719SOL    HW1 6056   2.550   3.481   1.307
 1719SOL    HW2 6057   2.461   3.405   1.420
 1720SOL     OW 6058   6.611   1.389   1.897
 1720SOL    HW1 6059   6.693   1.434   1.860
 1720SOL    HW2 6060   6.606   1.296   1.862
 1721SOL     OW 6061   2.175   6.359   3.343
 1721SOL    HW1 6062   2.137   6.443   3.303
 1721SOL    HW2 6063   2.150   6.354   3.440
 1722SOL     OW 6064   5.795   6.707   2.022
 1722SOL    HW1 6065   5.712   6.663   2.057
 1722SOL    HW2 6066   5.809   6.681   1.927
 1723SOL     OW 6067   6.281   1.536   2.159
 1723SOL    HW1 6068   6.312   1.542   2.064
 1723SOL    HW2 6069   6.203   1.475   2.165
 1724SOL     OW 6070   4.830   0.567   0.170
 1724SOL    HW1 6071   4.763   0.535   0.236
 1724SOL    HW2 6072   4.918   0.522   0.188
 1725SOL     OW 6073   4.138   5.143   2.275
 1725SOL    HW1 6074   4.174   5.127   2.367
 1725SOL    HW2 6075   4.211   5.179   2.216
 1726SOL     OW 6076   0.232   5.035   4.260
 1726SOL    HW1 6077   0.329   5.044   4.282
 1726SOL    HW2 6078   0.207   5.103   4.191
 1727SOL     OW 6079   3.565   3.210   5.483
 1727SOL    HW1 6080   3.493   3.159   5.531
 1727SOL    HW2 6081   3.619   3.262   5.549
 1728SOL     OW 6082   4.540   4.415   3.575
 1728SOL    HW1 6083   4.620   4.462   3.539
 1728SOL    HW2 6084   4.481   4.386   3.499
 1729SOL     OW 6085   1.802   3.135   2.944
 1729SOL    HW1 6086   1.729   3.188   2.901
 1729SOL    HW2 6087   1.863   3.099   2.873
 1730SOL     OW 6088   5.640   2.391   4.340
 1730SOL    HW1 6089   5.730   2.348   4.340
 1730SOL    HW2 6090   5.576   2.333   4.390
 1731SOL     OW 6091   0.906   5.608   0.408
 1731SOL    HW1 6092   0.826   5.549   0.397
 1731SOL    HW2 6093   0.985   5.567   0.361
 1732SOL     OW 6094   0.423   4.748   6.958
 1732SOL    HW1 6095   0.424   4.728   6.860
 1732SOL    HW2 6096   0.383   4.671   7.008
 1733SOL     OW 6097   1.416   4.118   0.877
 1733SOL    HW1 6098   1.346   4.047   0.865
 1733SOL    HW2 6099   1.459   4.107   0.967
 1734SOL     OW 6100   4.630   2.844   1.179
 1734SOL    HW1 6101   4.714   2.898   1.175
 1734SOL    HW2 6102   4.652   2.748   1.160
 1735SOL     OW 6103   5.884   5.952   1.342
 1735SOL    HW1 6104   5.797   5.904   1.346
 1735SOL    HW2 6105   5.942   5.922   1.418
 1736SOL     OW 6106   2.979   4.055   0.964
 1736SOL    HW1 6107   2.912   4.012   0.903
 1736SOL    HW2 6108   2.985   4.153   0.942
 1737SOL     OW 6109   1.467   5.932   3.941
 1737SOL    HW1 6110   1.388   5.873   3.927
 1737SOL    HW2 6111   1.487   5.982   3.857
 1738SOL     OW 6112   0.995   1.976   1.299
 1738SOL    HW1 6113   1.001   1.884   1.261
 1738SOL    HW2 6114   0.934   1.976   1.378
 1739SOL     OW 6115   4.211   2.232   5.727
 1739SOL    HW1 6116   4.167   2.276   5.804
 1739SOL    HW2 6117   4.311   2.234   5.740
 1740SOL     OW 6118   1.001   0.995   5.856
 1740SOL    HW1 6119   1.010   0.896   5.842
 1740SOL    HW2 6120   0.905   1.020   5.855
 1741SOL     OW 6121   2.163   0.857   2.536
 1741SOL    HW1 6122   2.137   0.823   2.446
 1741SOL    HW2 6123   2.137   0.953   2.545
 1742SOL     OW 6124   6.088   6.447   4.620
 1742SOL    HW1 6125   6.153   6.371   4.617
 1742SOL    HW2 6126   5.997   6.412   4.641
 1743SOL     OW 6127   4.720   1.275   0.593
 1743SOL    HW1 6128   4.661   1.194   0.600
 1743SOL    HW2 6129   4.740   1.294   0.497
 1744SOL     OW 6130   3.149   0.697   1.413
 1744SOL    HW1 6131   3.065   0.654   1.446
 1744SOL    HW2 6132   3.221   0.687   1.481
 1745SOL     OW 6133   6.789   3.216   4.419
 1745SOL    HW1 6134   6.837   3.141   4.374
 1745SOL    HW2 6135   6.770   3.288   4.353
 1746SOL     OW 6136   2.828   0.525   5.837
 1746SOL    HW1 6137   2.851   0.620   5.855
 1746SOL    HW2 6138   2.831   0.473   5.923
 1747SOL     OW 6139   4.559   0.827   6.684
 1747SOL    HW1 6140   4.605   0.894   6.742
 1747SOL    HW2 6141   4.604   0.738   6.692
 1748SOL     OW 6142   6.124   1.701   1.863
 1748SOL    HW1 6143   6.205   1.644   1.875
 1748SOL    HW2 6144   6.140   1.767   1.789
 1749SOL     OW 6145   4.568   6.772   6.602
 1749SOL    HW1 6146   4.601   6.764   6.696
 1749SOL    HW2 6147   4.621   6.842   6.555
 1750SOL     OW 6148   4.949   0.366   3.549
 1750SOL    HW1 6149   4.878   0.309   3.506
 1750SOL    HW2 6150   5.020   0.386   3.482
 1751SOL     OW 6151   1.830   5.880   3.887
 1751SOL    HW1 6152   1.765   5.898   3.961
 1751SOL    HW2 6153   1.908   5.942   3.895
 1752SOL     OW 6154   6.588   2.537   0.308
 1752SOL    HW1 6155   6.578   2.437   0.309
 1752SOL    HW2 6156   6.511   2.579   0.356
 1753SOL     OW 6157   2.714   7.005   2.212
 1753SOL    HW1 6158   2.708   0.064   2.265
 1753SOL    HW2 6159   2.635   6.997   2.152
 1754SOL     OW 6160   3.849   2.481   1.069
 1754SOL    HW1 6161   3.894   2.392   1.075
 1754SOL    HW2 6162   3.773   2.484   1.134
 1755SOL     OW 6163   5.272   3.203   0.156
 1755SOL    HW1 6164   5.220   3.282   0.123
 1755SOL    HW2 6165   5.314   3.226   0.244
 1756SOL     OW 6166   5.758   5.701   4.652
 1756SOL    HW1 6167   5.738   5.680   4.748
 1756SOL    HW2 6168   5.852   5.732   4.644
 1757SOL     OW 6169   3.407   0.583   5.073
 1757SOL    HW1 6170   3.501   0.597   5.106
 1757SOL    HW2 6171   3.359   0.671   5.075
 1758SOL     OW 6172   2.564   1.135   3.513
 1758SOL    HW1 6173   2.582   1.204   3.443
 1758SOL    HW2 6174   2.483   1.083   3.488
 1759SOL     OW 6175   0.687   5.426   6.151
 1759SOL    HW1 6176   0.685   5.436   6.052
 1759SOL    HW2 6177   0.594   5.422   6.187
 1760SOL     OW 6178   5.539   0.588   2.283
 1760SOL    HW1 6179   5.623   0.636   2.258
 1760SOL    HW2 6180   5.557   0.530   2.362
 1761SOL     OW 6181   6.338   2.700   1.084
 1761SOL    HW1 6182   6.407   2.732   1.150
 1761SOL    HW2 6183   6.300   2.778   1.035
 1762SOL     OW 6184   5.963   2.208   0.390
 1762SOL    HW1 6185   5.898   2.260   0.444
 1762SOL    HW2 6186   5.950   2.110   0.408
 1763SOL     OW 6187   2.000   4.063   3.652
 1763SOL    HW1 6188   1.945   4.122   3.712
 1763SOL    HW2 6189   2.090   4.048   3.693
 1764SOL     OW 6190   6.402   3.074   4.361
 1764SOL    HW1 6191   6.341   2.996   4.376
 1764SOL    HW2 6192   6.489   3.058   4.407
 1765SOL     OW 6193   2.501   2.695   6.229
 1765SOL    HW1 6194   2.538   2.605   6.251
 1765SOL    HW2 6195   2.402   2.694   6.239
 1766SOL     OW 6196   6.223   3.304   5.466
 1766SOL    HW1 6197   6.252   3.298   5.562
 1766SOL    HW2 6198   6.291   3.259   5.409
 1767SOL     OW 6199   5.584   3.985   1.901
 1767SOL    HW1 6200   5.654   3.953   1.966
 1767SOL    HW2 6201   5.496   3.988   1.947
 1768SOL     OW 6202   5.730   6.215   4.110
 1768SOL    HW1 6203   5.803   6.238   4.175
 1768SOL    HW2 6204   5.688   6.299   4.077
 1769SOL     OW 6205   5.690   1.537   3.298
 1769SOL    HW1 6206   5.631   1.586   3.234
 1769SOL    HW2 6207   5.679   1.439   3.285
 1770SOL     OW 6208   3.221   5.369   4.985
 1770SOL    HW1 6209   3.239   5.467   4.977
 1770SOL    HW2 6210   3.289   5.328   5.045
 1771SOL     OW 6211   5.026   6.356   6.454
 1771SOL    HW1 6212   5.012   6.266   6.412
 1771SOL    HW2 6213   4.947   6.380   6.509
 1772SOL     OW 6214   3.511   6.456   2.661
 1772SOL    HW1 6215   3.461   6.542   2.668
 1772SOL    HW2 6216   3.473   6.401   2.587
 1773SOL     OW 6217   0.947   5.541   6.852
 1773SOL    HW1 6218   0.955   5.507   6.758
 1773SOL    HW2 6219   1.031   5.586   6.878
 1774SOL     OW 6220   3.421   4.973   1.992
 1774SOL    HW1 6221   3.506   4.924   1.969
 1774SOL    HW2 6222   3.343   4.924   1.953
 1775SOL     OW 6223   0.675   4.708   1.847
 1775SOL    HW1 6224   0.715   4.665   1.766
 1775SOL    HW2 6225   0.748   4.729   1.912
 1776SOL     OW 6226   3.535   5.642   5.016
 1776SOL    HW1 6227   3.548   5.730   4.971
 1776SOL    HW2 6228   3.450   5.645   5.071
 1777SOL     OW 6229   3.165   5.638   0.142
 1777SOL    HW1 6230   3.174   5.589   0.229
 1777SOL    HW2 6231   3.128   5.729   0.159
 1778SOL     OW 6232   6.456   3.846   5.601
 1778SOL    HW1 6233   6.491   3.885   5.686
 1778SOL    HW2 6234   6.383   3.781   5.622
 1779SOL     OW 6235   3.458   6.843   5.625
 1779SOL    HW1 6236   3.508   6.881   5.548
 1779SOL    HW2 6237   3.451   6.744   5.615
 1780SOL     OW 6238   3.188   3.595   6.425
 1780SOL    HW1 6239   3.115   3.663   6.413
 1780SOL    HW2 6240   3.155   3.520   6.482
 1781SOL     OW 6241   3.689   5.189   3.066
 1781SOL    HW1 6242   3.653   5.158   3.154
 1781SOL    HW2 6243   3.731   5.280   3.077
 1782SOL     OW 6244   3.451   1.979   4.401
 1782SOL    HW1 6245   3.449   2.014   4.307
 1782SOL    HW2 6246   3.486   2.049   4.462
 1783SOL     OW 6247   1.739   5.317   0.186
 1783SOL    HW1 6248   1.717   5.395   0.126
 1783SOL    HW2 6249   1.657   5.261   0.199
 1784SOL     OW 6250   3.498   6.641   5.301
 1784SOL    HW1 6251   3.504   6.552   5.256
 1784SOL    HW2 6252   3.446   6.632   5.386
 1785SOL     OW 6253   6.242   4.352   2.448
 1785SOL    HW1 6254   6.215   4.273   2.502
 1785SOL    HW2 6255   6.167   4.379   2.387
 1786SOL     OW 6256   3.501   2.692   1.017
 1786SOL    HW1 6257   3.404   2.673   1.029
 1786SOL    HW2 6258   3.553   2.608   1.031
 1787SOL     OW 6259   3.681   0.374   6.124
 1787SOL    HW1 6260   3.680   0.473   6.142
 1787SOL    HW2 6261   3.660   0.325   6.208
 1788SOL     OW 6262   1.973   4.519   5.646
 1788SOL    HW1 6263   1.990   4.608   5.687
 1788SOL    HW2 6264   1.981   4.448   5.715
 1789SOL     OW 6265   5.743   1.124   0.016
 1789SOL    HW1 6266   5.806   1.191   0.054
 1789SOL    HW2 6267   5.777   1.032   0.033
 1790SOL     OW 6268   3.769   6.974   3.242
 1790SOL    HW1 6269   3.676   7.002   3.218
 1790SOL    HW2 6270   3.816   0.022   3.289
 1791SOL     OW 6271   0.365   6.904   2.637
 1791SOL    HW1 6272   0.341   6.828   2.698
 1791SOL    HW2 6273   0.429   6.964   2.683
 1792SOL     OW 6274   1.170   3.416   5.827
 1792SOL    HW1 6275   1.245   3.443   5.888
 1792SOL    HW2 6276   1.089   3.395   5.881
 1793SOL     OW 6277   0.299   0.622   3.317
 1793SOL    HW1 6278   0.301   0.587   3.410
 1793SOL    HW2 6279   0.309   0.546   3.253
 1794SOL     OW 6280   4.731   6.109   6.282
 1794SOL    HW1 6281   4.829   6.118   6.299
 1794SOL    HW2 6282   4.713   6.026   6.231
 1795SOL     OW 6283   0.207   3.185   0.446
 1795SOL    HW1 6284   0.141   3.144   0.384
 1795SOL    HW2 6285   0.160   3.213   0.531
 1796SOL     OW 6286   3.418   0.304   6.601
 1796SOL    HW1 6287   3.497   0.294   6.662
 1796SOL    HW2 6288   3.342   0.249   6.635
 1797SOL     OW 6289   0.496   0.276   0.831
 1797SOL    HW1 6290   0.515   0.368   0.796
 1797SOL    HW2 6291   0.398   0.262   0.835
 1798SOL     OW 6292   5.946   2.534   3.219
 1798SOL    HW1 6293   5.917   2.625   3.247
 1798SOL    HW2 6294   6.030   2.539   3.166
 1799SOL     OW 6295   1.673   1.741   6.380
 1799SOL    HW1 6296   1.710   1.649   6.393
 1799SOL    HW2 6297   1.746   1.802   6.350
 1800SOL     OW 6298   3.916   5.304   2.235
 1800SOL    HW1 6299   3.967   5.384   2.203
 1800SOL    HW2 6300   3.979   5.232   2.263
 1801SOL     OW 6301   5.587   6.965   0.825
 1801SOL    HW1 6302   5.573   6.867   0.837
 1801SOL    HW2 6303   5.614   7.006   0.912
 1802SOL     OW 6304   5.171   5.297   4.071
 1802SOL    HW1 6305   5.162   5.252   3.983
 1802SOL    HW2 6306   5.185   5.395   4.057
 1803SOL     OW 6307   6.329   5.443   1.198
 1803SOL    HW1 6308   6.271   5.524   1.192
 1803SOL    HW2 6309   6.289   5.369   1.145
 1804SOL     OW 6310   3.402   3.241   5.270
 1804SOL    HW1 6311   3.312   3.238   5.313
 1804SOL    HW2 6312   3.473   3.227   5.338
 1805SOL     OW 6313   4.893   3.041   6.777
 1805SOL    HW1 6314   4.946   2.985   6.842
 1805SOL    HW2 6315   4.956   3.086   6.714
 1806SOL     OW 6316   0.878   6.755   1.043
 1806SOL    HW1 6317   0.878   6.690   1.119
 1806SOL    HW2 6318   0.972   6.772   1.014
 1807SOL     OW 6319   5.478   1.286   5.256
 1807SOL    HW1 6320   5.489   1.316   5.161
 1807SOL    HW2 6321   5.433   1.358   5.309
 1808SOL     OW 6322   1.664   4.641   3.928
 1808SOL    HW1 6323   1.695   4.733   3.951
 1808SOL    HW2 6324   1.585   4.617   3.984
 1809SOL     OW 6325   3.401   6.896   6.293
 1809SOL    HW1 6326   3.496   6.911   6.318
 1809SOL    HW2 6327   3.352   6.853   6.370
 1810SOL     OW 6328   3.185   6.187   2.871
 1810SOL    HW1 6329   3.279   6.221   2.865
 1810SOL    HW2 6330   3.177   6.102   2.819
 1811SOL     OW 6331   5.809   5.417   3.172
 1811SOL    HW1 6332   5.745   5.399   3.246
 1811SOL    HW2 6333   5.874   5.488   3.199
 1812SOL     OW 6334   4.236   5.324   6.298
 1812SOL    HW1 6335   4.222   5.288   6.390
 1812SOL    HW2 6336   4.176   5.403   6.283
 1813SOL     OW 6337   6.323   4.698   5.803
 1813SOL    HW1 6338   6.283   4.743   5.723
 1813SOL    HW2 6339   6.253   4.644   5.850
 1814SOL     OW 6340   4.897   6.849   1.870
 1814SOL    HW1 6341   4.918   6.756   1.898
 1814SOL    HW2 6342   4.982   6.901   1.859
 1815SOL     OW 6343   0.531   1.033   2.697
 1815SOL    HW1 6344   0.524   1.097   2.621
 1815SOL    HW2 6345   0.606   1.060   2.757
 1816SOL     OW 6346   0.873   4.440   0.009
 1816SOL    HW1 6347   0.897   4.386   0.090
 1816SOL    HW2 6348   0.815   4.516   0.035
 1817SOL     OW 6349   1.959   5.711   1.834
 1817SOL    HW1 6350   1.953   5.621   1.789
 1817SOL    HW2 6351   1.923   5.781   1.772
 1818SOL     OW 6352   2.295   0.980   3.194
 1818SOL    HW1 6353   2.390   0.952   3.208
 1818SOL    HW2 6354   2.245   0.968   3.280
 1819SOL     OW 6355   1.698   4.374   1.863
 1819SOL    HW1 6356   1.659   4.444   1.804
 1819SOL    HW2 6357   1.769   4.415   1.921
 1820SOL     OW 6358   5.440   6.863   2.610
 1820SOL    HW1 6359   5.425   6.817   2.698
 1820SOL    HW2 6360   5.377   6.940   2.601
 1821SOL     OW 6361   2.687   2.038   3.061
 1821SOL    HW1 6362   2.707   2.082   2.974
 1821SOL    HW2 6363   2.747   2.076   3.132
 1822SOL     OW 6364   3.569   3.200   1.649
 1822SOL    HW1 6365   3.518   3.148   1.717
 1822SOL    HW2 6366   3.629   3.138   1.597
 1823SOL     OW 6367   4.063   0.108   2.703
 1823SOL    HW1 6368   4.030   0.041   2.770
 1823SOL    HW2 6369   4.101   0.060   2.624
 1824SOL     OW 6370   5.281   2.793   1.503
 1824SOL    HW1 6371   5.320   2.780   1.412
 1824SOL    HW2 6372   5.246   2.706   1.537
 1825SOL     OW 6373   1.043   0.663   1.298
 1825SOL    HW1 6374   1.126   0.719   1.293
 1825SOL    HW2 6375   0.987   0.694   1.374
 1826SOL     OW 6376   3.006   6.495   6.746
 1826SOL    HW1 6377   2.936   6.547   6.696
 1826SOL    HW2 6378   3.037   6.419   6.690
 1827SOL     OW 6379   6.438   6.933   1.620
 1827SOL    HW1 6380   6.376   6.868   1.576
 1827SOL    HW2 6381   6.388   6.986   1.688
 1828SOL     OW 6382   1.910   1.962   0.186
 1828SOL    HW1 6383   1.856   2.028   0.240
 1828SOL    HW2 6384   1.979   1.920   0.245
 1829SOL     OW 6385   6.231   5.707   1.237
 1829SOL    HW1 6386   6.312   5.765   1.229
 1829SOL    HW2 6387   6.212   5.691   1.334
 1830SOL     OW 6388   5.127   6.098   3.662
 1830SOL    HW1 6389   5.207   6.119   3.605
 1830SOL    HW2 6390   5.074   6.181   3.676
 1831SOL     OW 6391   4.906   0.628   3.055
 1831SOL    HW1 6392   4.993   0.638   3.007
 1831SOL    HW2 6393   4.901   0.695   3.129
 1832SOL     OW 6394   5.496   2.558   0.458
 1832SOL    HW1 6395   5.459   2.604   0.538
 1832SOL    HW2 6396   5.485   2.617   0.378
 1833SOL     OW 6397   5.785   1.900   5.820
 1833SOL    HW1 6398   5.856   1.841   5.859
 1833SOL    HW2 6399   5.714   1.843   5.779
 1834SOL     OW 6400   2.878   3.425   0.866
 1834SOL    HW1 6401   2.969   3.386   0.854
 1834SOL    HW2 6402   2.884   3.509   0.919
 1835SOL     OW 6403   1.504   4.456   0.394
 1835SOL    HW1 6404   1.584   4.468   0.335
 1835SOL    HW2 6405   1.529   4.474   0.488
 1836SOL     OW 6406   0.595   5.839   0.744
 1836SOL    HW1 6407   0.556   5.923   0.708
 1836SOL    HW2 6408   0.657   5.860   0.820
 1837SOL     OW 6409   1.429   2.821   5.036
 1837SOL    HW1 6410   1.418   2.884   5.113
 1837SOL    HW2 6411   1.478   2.867   4.962
 1838SOL     OW 6412   6.980   2.586   4.393
 1838SOL    HW1 6413   7.023   2.670   4.362
 1838SOL    HW2 6414   6.921   2.605   4.472
 1839SOL     OW 6415   6.852   2.343   5.893
 1839SOL    HW1 6416   6.848   2.439   5.866
 1839SOL    HW2 6417   6.904   2.335   5.978
 1840SOL     OW 6418   1.459   4.925   1.063
 1840SOL    HW1 6419   1.398   4.956   1.136
 1840SOL    HW2 6420   1.554   4.931   1.095
 1841SOL     OW 6421   1.818   2.702   3.593
 1841SOL    HW1 6422   1.821   2.607   3.563
 1841SOL    HW2 6423   1.831   2.762   3.514
 1842SOL     OW 6424   1.165   4.454   0.017
 1842SOL    HW1 6425   1.065   4.448   0.017
 1842SOL    HW2 6426   1.203   4.369   7.007
 1843SOL     OW 6427   3.258   1.916   4.865
 1843SOL    HW1 6428   3.329   1.978   4.898
 1843SOL    HW2 6429   3.286   1.821   4.879
 1844SOL     OW 6430   5.225   3.506   4.107
 1844SOL    HW1 6431   5.165   3.488   4.029
 1844SOL    HW2 6432   5.178   3.565   4.173
 1845SOL     OW 6433   4.439   0.684   0.246
 1845SOL    HW1 6434   4.465   0.691   0.150
 1845SOL    HW2 6435   4.492   0.750   0.299
 1846SOL     OW 6436   2.968   1.553   5.501
 1846SOL    HW1 6437   3.024   1.613   5.443
 1846SOL    HW2 6438   2.889   1.604   5.534
 1847SOL     OW 6439   1.289   7.015   0.423
 1847SOL    HW1 6440   1.332   0.075   0.398
 1847SOL    HW2 6441   1.233   0.001   0.505
 1848SOL     OW 6442   3.376   6.917   2.320
 1848SOL    HW1 6443   3.301   6.865   2.278
 1848SOL    HW2 6444   3.361   6.922   2.419
 1849SOL     OW 6445   2.568   1.353   6.359
 1849SOL    HW1 6446   2.506   1.274   6.355
 1849SOL    HW2 6447   2.569   1.399   6.271
 1850SOL     OW 6448   5.921   1.577   2.024
 1850SOL    HW1 6449   5.998   1.618   1.975
 1850SOL    HW2 6450   5.864   1.650   2.064
 1851SOL     OW 6451   6.455   3.140   3.071
 1851SOL    HW1 6452   6.515   3.085   3.013
 1851SOL    HW2 6453   6.439   3.092   3.157
 1852SOL     OW 6454   5.380   2.998   0.016
 1852SOL    HW1 6455   5.363   3.088   0.055
 1852SOL    HW2 6456   5.354   2.998   6.946
 1853SOL     OW 6457   1.842   4.527   0.557
 1853SOL    HW1 6458   1.894   4.605   0.594
 1853SOL    HW2 6459   1.746   4.536   0.583
 1854SOL     OW 6460   3.249   6.038   4.035
 1854SOL    HW1 6461   3.221   5.957   4.086
 1854SOL    HW2 6462   3.168   6.089   4.008
 1855SOL     OW 6463   4.943   4.709   2.065
 1855SOL    HW1 6464   4.993   4.678   2.146
 1855SOL    HW2 6465   4.943   4.809   2.063
 1856SOL     OW 6466   4.961   2.490   5.626
 1856SOL    HW1 6467   5.039   2.461   5.570
 1856SOL    HW2 6468   4.881   2.503   5.567
 1857SOL     OW 6469   4.723   1.175   3.163
 1857SOL    HW1 6470   4.816   1.200   3.136
 1857SOL    HW2 6471   4.675   1.256   3.197
 1858SOL     OW 6472   5.079   4.144   3.699
 1858SOL    HW1 6473   5.087   4.243   3.704
 1858SOL    HW2 6474   5.083   4.105   3.791
 1859SOL     OW 6475   5.494   1.674   3.126
 1859SOL    HW1 6476   5.396   1.656   3.128
 1859SOL    HW2 6477   5.510   1.761   3.079
 1860SOL     OW 6478   4.448   1.574   4.888
 1860SOL    HW1 6479   4.355   1.560   4.855
 1860SOL    HW2 6480   4.464   1.671   4.906
 1861SOL     OW 6481   5.660   6.559   2.585
 1861SOL    HW1 6482   5.735   6.608   2.630
 1861SOL    HW2 6483   5.695   6.475   2.543
 1862SOL     OW 6484   2.146   1.901   0.316
 1862SOL    HW1 6485   2.197   1.925   0.234
 1862SOL    HW2 6486   2.175   1.811   0.348
 1863SOL     OW 6487   2.704   3.249   1.605
 1863SOL    HW1 6488   2.781   3.186   1.617
 1863SOL    HW2 6489   2.638   3.209   1.541
 1864SOL     OW 6490   1.112   6.459   4.156
 1864SOL    HW1 6491   1.035   6.396   4.164
 1864SOL    HW2 6492   1.098   6.520   4.079
 1865SOL     OW 6493   4.624   2.195   6.591
 1865SOL    HW1 6494   4.543   2.229   6.543
 1865SOL    HW2 6495   4.669   2.126   6.535
 1866SOL     OW 6496   4.806   5.272   2.587
 1866SOL    HW1 6497   4.848   5.361   2.610
 1866SOL    HW2 6498   4.878   5.208   2.561
 1867SOL     OW 6499   1.165   4.230   6.742
 1867SOL    HW1 6500   1.163   4.163   6.668
 1867SOL    HW2 6501   1.174   4.321   6.704
 1868SOL     OW 6502   6.047   3.854   4.929
 1868SOL    HW1 6503   6.067   3.838   4.833
 1868SOL    HW2 6504   5.992   3.778   4.965
 1869SOL     OW 6505   6.315   1.026   4.799
 1869SOL    HW1 6506   6.309   1.016   4.898
 1869SOL    HW2 6507   6.400   1.073   4.775
 1870SOL     OW 6508   2.081   4.746   4.449
 1870SOL    HW1 6509   2.039   4.778   4.363
 1870SOL    HW2 6510   2.179   4.762   4.446
 1871SOL     OW 6511   1.281   0.303   0.612
 1871SOL    HW1 6512   1.338   0.328   0.690
 1871SOL    HW2 6513   1.272   0.382   0.551
 1872SOL     OW 6514   2.462   4.860   0.406
 1872SOL    HW1 6515   2.524   4.872   0.484
 1872SOL    HW2 6516   2.393   4.791   0.429
 1873SOL     OW 6517   4.558   1.824   0.249
 1873SOL    HW1 6518   4.625   1.750   0.251
 1873SOL    HW2 6519   4.474   1.794   0.294
 1874SOL     OW 6520   0.875   3.035   2.382
 1874SOL    HW1 6521   0.942   2.963   2.364
 1874SOL    HW2 6522   0.783   3.002   2.358
 1875SOL     OW 6523   1.065   6.784   0.248
 1875SOL    HW1 6524   1.031   6.839   0.324
 1875SOL    HW2 6525   1.162   6.765   0.262
 1876SOL     OW 6526   2.213   6.916   4.752
 1876SOL    HW1 6527   2.140   6.877   4.696
 1876SOL    HW2 6528   2.176   6.938   4.842
 1877SOL     OW 6529   0.612   6.709   3.501
 1877SOL    HW1 6530   0.613   6.692   3.403
 1877SOL    HW2 6531   0.518   6.705   3.535
 1878SOL     OW 6532   6.025   2.763   5.813
 1878SOL    HW1 6533   5.986   2.702   5.882
 1878SOL    HW2 6534   6.118   2.788   5.841
 1879SOL     OW 6535   1.432   4.574   5.607
 1879SOL    HW1 6536   1.433   4.487   5.559
 1879SOL    HW2 6537   1.526   4.607   5.620
 1880SOL     OW 6538   5.994   0.745   5.657
 1880SOL    HW1 6539   6.053   0.673   5.693
 1880SOL    HW2 6540   5.922   0.765   5.723
 1881SOL     OW 6541   0.012   2.270   6.852
 1881SOL    HW1 6542   6.970   2.296   6.920
 1881SOL    HW2 6543   0.037   2.349   6.797
 1882SOL     OW 6544   1.018   5.451   6.144
 1882SOL    HW1 6545   0.924   5.437   6.175
 1882SOL    HW2 6546   1.064   5.363   6.134
 1883SOL     OW 6547   6.953   1.837   4.100
 1883SOL    HW1 6548   6.920   1.768   4.165
 1883SOL    HW2 6549   6.876   1.887   4.062
 1884SOL     OW 6550   6.748   3.085   1.376
 1884SOL    HW1 6551   6.751   3.037   1.463
 1884SOL    HW2 6552   6.682   3.160   1.381
 1885SOL     OW 6553   1.860   1.827   4.415
 1885SOL    HW1 6554   1.864   1.920   4.452
 1885SOL    HW2 6555   1.830   1.764   4.486
 1886SOL     OW 6556   1.246   6.885   3.476
 1886SOL    HW1 6557   1.259   6.824   3.555
 1886SOL    HW2 6558   1.335   6.907   3.436
 1887SOL     OW 6559   1.768   6.599   5.787
 1887SOL    HW1 6560   1.703   6.641   5.725
 1887SOL    HW2 6561   1.720   6.538   5.850
 1888SOL     OW 6562   2.669   1.041   2.633
 1888SOL    HW1 6563   2.723   0.958   2.616
 1888SOL    HW2 6564   2.719   1.121   2.598
 1889SOL     OW 6565   0.144   3.417   3.280
 1889SOL    HW1 6566   0.134   3.349   3.352
 1889SOL    HW2 6567   0.152   3.371   3.191
 1890SOL     OW 6568   0.832   5.700   3.830
 1890SOL    HW1 6569   0.744   5.730   3.868
 1890SOL    HW2 6570   0.825   5.606   3.799
 1891SOL     OW 6571   3.822   3.439   3.561
 1891SOL    HW1 6572   3.922   3.448   3.565
 1891SOL    HW2 6573   3.796   3.346   3.588
 1892SOL     OW 6574   0.743   0.815   2.575
 1892SOL    HW1 6575   0.696   0.736   2.615
 1892SOL    HW2 6576   0.677   0.872   2.527
 1893SOL     OW 6577   3.637   3.172   4.396
 1893SOL    HW1 6578   3.632   3.074   4.416
 1893SOL    HW2 6579   3.732   3.196   4.375
 1894SOL     OW 6580   3.003   3.289   4.206
 1894SOL    HW1 6581   2.967   3.306   4.298
 1894SOL    HW2 6582   3.089   3.240   4.213
 1895SOL     OW 6583   1.934   5.943   6.911
 1895SOL    HW1 6584   1.975   5.852   6.900
 1895SOL    HW2 6585   1.873   5.961   6.834
 1896SOL     OW 6586   5.525   2.707   0.974
 1896SOL    HW1 6587   5.603   2.716   1.036
 1896SOL    HW2 6588   5.510   2.794   0.927
 1897SOL     OW 6589   1.586   4.389   4.630
 1897SOL    HW1 6590   1.523   4.311   4.627
 1897SOL    HW2 6591   1.533   4.473   4.645
 1898SOL     OW 6592   1.520   6.353   3.606
 1898SOL    HW1 6593   1.507   6.450   3.628
 1898SOL    HW2 6594   1.618   6.334   3.600
 1899SOL     OW 6595   0.432   0.652   2.394
 1899SOL    HW1 6596   0.388   0.726   2.445
 1899SOL    HW2 6597   0.424   0.567   2.446
 1900SOL     OW 6598   2.551   0.052   6.963
 1900SOL    HW1 6599   2.488   0.024   0.009
 1900SOL    HW2 6600   2.578   0.147   6.977
 1901SOL     OW 6601   2.898   3.629   1.214
 1901SOL    HW1 6602   2.994   3.600   1.224
 1901SOL    HW2 6603   2.884   3.667   1.123
 1902SOL     OW 6604   1.133   0.058   4.128
 1902SOL    HW1 6605   1.099   0.122   4.059
 1902SOL    HW2 6606   1.100   6.993   4.109
 1903SOL     OW 6607   1.157   2.546   4.154
 1903SOL    HW1 6608   1.192   2.532   4.061
 1903SOL    HW2 6609   1.233   2.540   4.219
 1904SOL     OW 6610   5.935   5.501   1.715
 1904SOL    HW1 6611   5.853   5.542   1.676
 1904SOL    HW2 6612   6.015   5.530   1.662
 1905SOL     OW 6613   0.511   1.303   4.087
 1905SOL    HW1 6614   0.603   1.265   4.074
 1905SOL    HW2 6615   0.515   1.383   4.147
 1906SOL     OW 6616   1.584   6.929   5.475
 1906SOL    HW1 6617   1.682   6.911   5.477
 1906SOL    HW2 6618   1.568   0.000   5.489
 1907SOL     OW 6619   5.734   2.694   0.468
 1907SOL    HW1 6620   5.648   2.653   0.438
 1907SOL    HW2 6621   5.773   2.638   0.542
 1908SOL     OW 6622   3.075   1.331   1.056
 1908SOL    HW1 6623   3.029   1.267   1.117
 1908SOL    HW2 6624   3.151   1.285   1.010
 1909SOL     OW 6625   6.756   5.093   4.715
 1909SOL    HW1 6626   6.789   5.164   4.653
 1909SOL    HW2 6627   6.818   5.014   4.710
 1910SOL     OW 6628   0.322   6.245   5.223
 1910SOL    HW1 6629   0.397   6.244   5.157
 1910SOL    HW2 6630   0.234   6.235   5.175
 1911SOL     OW 6631   6.718   5.215   3.952
 1911SOL    HW1 6632   6.691   5.310   3.962
 1911SOL    HW2 6633   6.712   5.169   4.040
 1912SOL     OW 6634   3.137   5.140   1.801
 1912SOL    HW1 6635   3.179   5.052   1.823
 1912SOL    HW2 6636   3.198   5.214   1.831
 1913SOL     OW 6637   3.739   4.156   6.705
 1913SOL    HW1 6638   3.729   4.100   6.623
 1913SOL    HW2 6639   3.778   4.101   6.779
 1914SOL     OW 6640   2.990   4.603   6.613
 1914SOL    HW1 6641   2.975   4.691   6.568
 1914SOL    HW2 6642   3.081   4.602   6.654
 1915SOL     OW 6643   3.994   2.605   5.553
 1915SOL    HW1 6644   4.014   2.616   5.650
 1915SOL    HW2 6645   3.921   2.538   5.542
 1916SOL     OW 6646   3.912   0.934   2.523
 1916SOL    HW1 6647   3.817   0.914   2.544
 1916SOL    HW2 6648   3.916   0.998   2.446
 1917SOL     OW 6649   2.146   4.122   1.661
 1917SOL    HW1 6650   2.224   4.087   1.610
 1917SOL    HW2 6651   2.150   4.090   1.755
 1918SOL     OW 6652   5.860   2.418   3.849
 1918SOL    HW1 6653   5.842   2.481   3.774
 1918SOL    HW2 6654   5.790   2.429   3.920
 1919SOL     OW 6655   6.692   2.598   0.059
 1919SOL    HW1 6656   6.653   2.586   0.151
 1919SOL    HW2 6657   6.622   2.638   7.025
 1920SOL     OW 6658   4.619   3.138   1.254
 1920SOL    HW1 6659   4.570   3.116   1.169
 1920SOL    HW2 6660   4.713   3.104   1.249
 1921SOL     OW 6661   2.436   2.658   6.923
 1921SOL    HW1 6662   2.386   2.671   7.009
 1921SOL    HW2 6663   2.372   2.630   6.851
 1922SOL     OW 6664   3.251   2.924   2.643
 1922SOL    HW1 6665   3.180   2.991   2.664
 1922SOL    HW2 6666   3.246   2.900   2.546
 1923SOL     OW 6667   4.106   0.976   4.484
 1923SOL    HW1 6668   4.067   0.917   4.555
 1923SOL    HW2 6669   4.039   1.046   4.459
 1924SOL     OW 6670   4.437   1.122   6.719
 1924SOL    HW1 6671   4.366   1.110   6.788
 1924SOL    HW2 6672   4.517   1.066   6.743
 1925SOL     OW 6673   1.320   3.420   1.263
 1925SOL    HW1 6674   1.227   3.455   1.275
 1925SOL    HW2 6675   1.356   3.391   1.352
 1926SOL     OW 6676   3.961   0.403   1.532
 1926SOL    HW1 6677   3.975   0.488   1.480
 1926SOL    HW2 6678   3.986   0.325   1.475
 1927SOL     OW 6679   2.157   4.974   1.326
 1927SOL    HW1 6680   2.243   4.998   1.371
 1927SOL    HW2 6681   2.121   4.890   1.367
 1928SOL     OW 6682   5.136   4.467   3.182
 1928SOL    HW1 6683   5.064   4.406   3.217
 1928SOL    HW2 6684   5.101   4.518   3.103
 1929SOL     OW 6685   3.129   0.101   3.121
 1929SOL    HW1 6686   3.172   0.172   3.177
 1929SOL    HW2 6687   3.160   0.011   3.151
 1930SOL     OW 6688   4.123   3.337   0.142
 1930SOL    HW1 6689   4.023   3.332   0.150
 1930SOL    HW2 6690   4.150   3.432   0.127
 1931SOL     OW 6691   6.771   2.250   4.448
 1931SOL    HW1 6692   6.729   2.164   4.474
 1931SOL    HW2 6693   6.712   2.326   4.476
 1932SOL     OW 6694   4.665   2.259   2.210
 1932SOL    HW1 6695   4.667   2.354   2.181
 1932SOL    HW2 6696   4.585   2.243   2.269
 1933SOL     OW 6697   0.892   0.874   1.045
 1933SOL    HW1 6698   0.883   0.775   1.054
 1933SOL    HW2 6699   0.869   0.917   1.133
 1934SOL     OW 6700   6.935   0.483   6.976
 1934SOL    HW1 6701   6.870   0.537   6.922
 1934SOL    HW2 6702   6.885   0.424   0.012
 1935SOL     OW 6703   6.529   4.966   3.774
 1935SOL    HW1 6704   6.608   5.024   3.751
 1935SOL    HW2 6705   6.484   5.002   3.855
 1936SOL     OW 6706   4.558   2.654   5.918
 1936SOL    HW1 6707   4.593   2.706   5.840
 1936SOL    HW2 6708   4.623   2.658   5.993
 1937SOL     OW 6709   6.173   5.088   6.710
 1937SOL    HW1 6710   6.230   5.109   6.790
 1937SOL    HW2 6711   6.121   5.169   6.684
 1938SOL     OW 6712   6.773   2.831   6.734
 1938SOL    HW1 6713   6.756   2.743   6.689
 1938SOL    HW2 6714   6.777   2.903   6.665
 1939SOL     OW 6715   1.177   0.627   4.752
 1939SOL    HW1 6716   1.252   0.585   4.802
 1939SOL    HW2 6717   1.104   0.560   4.738
 1940SOL     OW 6718   0.137   5.252   0.857
 1940SOL    HW1 6719   0.131   5.165   0.906
 1940SOL    HW2 6720   0.225   5.296   0.879
 1941SOL     OW 6721   5.410   1.393   4.612
 1941SOL    HW1 6722   5.428   1.355   4.521
 1941SOL    HW2 6723   5.495   1.424   4.653
 1942SOL     OW 6724   6.144   4.082   2.069
 1942SOL    HW1 6725   6.045   4.073   2.075
 1942SOL    HW2 6726   6.184   4.064   2.158
 1943SOL     OW 6727   0.925   2.328   3.229
 1943SOL    HW1 6728   1.022   2.345   3.215
 1943SOL    HW2 6729   0.872   2.386   3.168
 1944SOL     OW 6730   0.675   3.000   3.655
 1944SOL    HW1 6731   0.741   2.938   3.613
 1944SOL    HW2 6732   0.671   3.085   3.603
 1945SOL     OW 6733   4.690   1.298   1.865
 1945SOL    HW1 6734   4.696   1.379   1.924
 1945SOL    HW2 6735   4.629   1.231   1.906
 1946SOL     OW 6736   6.697   6.178   0.919
 1946SOL    HW1 6737   6.669   6.272   0.938
 1946SOL    HW2 6738   6.796   6.176   0.902
 1947SOL     OW 6739   6.040   4.889   3.218
 1947SOL    HW1 6740   6.091   4.952   3.276
 1947SOL    HW2 6741   5.998   4.939   3.142
 1948SOL     OW 6742   5.341   3.485   3.787
 1948SOL    HW1 6743   5.298   3.420   3.849
 1948SOL    HW2 6744   5.292   3.572   3.791
 1949SOL     OW 6745   3.354   4.854   6.847
 1949SOL    HW1 6746   3.352   4.946   6.886
 1949SOL    HW2 6747   3.438   4.807   6.876
 1950SOL     OW 6748   3.818   3.704   3.225
 1950SOL    HW1 6749   3.754   3.738   3.293
 1950SOL    HW2 6750   3.853   3.615   3.254
 1951SOL     OW 6751   5.987   4.929   5.866
 1951SOL    HW1 6752   5.970   5.013   5.917
 1951SOL    HW2 6753   6.068   4.883   5.903
 1952SOL     OW 6754   6.087   5.827   6.977
 1952SOL    HW1 6755   6.081   5.924   7.001
 1952SOL    HW2 6756   6.114   5.817   6.882
 1953SOL     OW 6757   0.723   1.012   6.789
 1953SOL    HW1 6758   0.659   0.970   6.725
 1953SOL    HW2 6759   0.778   0.941   6.832
 1954SOL     OW 6760   4.633   6.888   1.853
 1954SOL    HW1 6761   4.731   6.870   1.862
 1954SOL    HW2 6762   4.614   6.982   1.884
 1955SOL     OW 6763   0.210   2.509   3.777
 1955SOL    HW1 6764   0.291   2.452   3.793
 1955SOL    HW2 6765   0.166   2.530   3.863
 1956SOL     OW 6766   5.342   0.528   1.870
 1956SOL    HW1 6767   5.391   0.478   1.942
 1956SOL    HW2 6768   5.388   0.515   1.782
 1957SOL     OW 6769   6.875   2.528   4.136
 1957SOL    HW1 6770   6.847   2.431   4.132
 1957SOL    HW2 6771   6.908   2.549   4.228
 1958SOL     OW 6772   4.104   1.599   0.585
 1958SOL    HW1 6773   4.043   1.546   0.643
 1958SOL    HW2 6774   4.063   1.688   0.565
 1959SOL     OW 6775   1.071   2.152   5.450
 1959SOL    HW1 6776   1.067   2.252   5.444
 1959SOL    HW2 6777   1.125   2.116   5.374
 1960SOL     OW 6778   5.673   4.425   4.438
 1960SOL    HW1 6779   5.758   4.392   4.478
 1960SOL    HW2 6780   5.668   4.396   4.342
 1961SOL     OW 6781   0.449   3.596   3.642
 1961SOL    HW1 6782   0.402   3.614   3.555
 1961SOL    HW2 6783   0.498   3.678   3.670
 1962SOL     OW 6784   0.831   0.403   2.778
 1962SOL    HW1 6785   0.742   0.434   2.744
 1962SOL    HW2 6786   0.816   0.341   2.856
 1963SOL     OW 6787   0.397   2.754   0.032
 1963SOL    HW1 6788   0.312   2.704   0.052
 1963SOL    HW2 6789   0.472   2.689   0.024
 1964SOL     OW 6790   5.505   3.720   0.638
 1964SOL    HW1 6791   5.442   3.690   0.566
 1964SOL    HW2 6792   5.529   3.816   0.623
 1965SOL     OW 6793   6.011   4.345   3.774
 1965SOL    HW1 6794   5.927   4.322   3.725
 1965SOL    HW2 6795   6.042   4.436   3.747
 1966SOL     OW 6796   1.333   4.253   6.958
 1966SOL    HW1 6797   1.285   4.257   6.870
 1966SOL    HW2 6798   1.419   4.303   6.952
 1967SOL     OW 6799   6.346   3.310   4.494
 1967SOL    HW1 6800   6.345   3.210   4.487
 1967SOL    HW2 6801   6.316   3.337   4.586
 1968SOL     OW 6802   2.819   1.862   5.015
 1968SOL    HW1 6803   2.876   1.943   5.028
 1968SOL    HW2 6804   2.873   1.789   4.973
 1969SOL     OW 6805   1.714   6.094   0.851
 1969SOL    HW1 6806   1.676   6.186   0.861
 1969SOL    HW2 6807   1.797   6.086   0.906
 1970SOL     OW 6808   5.403   5.524   4.328
 1970SOL    HW1 6809   5.331   5.459   4.349
 1970SOL    HW2 6810   5.429   5.574   4.411
 1971SOL     OW 6811   1.512   5.191   4.970
 1971SOL    HW1 6812   1.489   5.288   4.983
 1971SOL    HW2 6813   1.430   5.135   4.982
 1972SOL     OW 6814   6.049   2.163   2.728
 1972SOL    HW1 6815   6.106   2.082   2.713
 1972SOL    HW2 6816   6.105   2.245   2.720
 1973SOL     OW 6817   3.261   2.586   1.108
 1973SOL    HW1 6818   3.263   2.541   1.197
 1973SOL    HW2 6819   3.209   2.672   1.115
 1974SOL     OW 6820   2.413   6.243   4.752
 1974SOL    HW1 6821   2.448   6.299   4.828
 1974SOL    HW2 6822   2.481   6.241   4.679
 1975SOL     OW 6823   2.123   2.645   3.517
 1975SOL    HW1 6824   2.179   2.727   3.531
 1975SOL    HW2 6825   2.065   2.659   3.436
 1976SOL     OW 6826   0.881   0.787   5.362
 1976SOL    HW1 6827   0.873   0.757   5.457
 1976SOL    HW2 6828   0.925   0.877   5.358
 1977SOL     OW 6829   2.034   4.310   6.320
 1977SOL    HW1 6830   1.972   4.232   6.332
 1977SOL    HW2 6831   2.027   4.370   6.399
 1978SOL     OW 6832   3.041   0.026   2.125
 1978SOL    HW1 6833   2.956   7.002   2.138
 1978SOL    HW2 6834   3.063   0.032   2.028
 1979SOL     OW 6835   6.285   4.319   5.966
 1979SOL    HW1 6836   6.257   4.347   5.874
 1979SOL    HW2 6837   6.228   4.243   5.997
 1980SOL     OW 6838   3.672   0.691   0.760
 1980SOL    HW1 6839   3.763   0.652   0.741
 1980SOL    HW2 6840   3.659   0.699   0.858
 1981SOL     OW 6841   3.968   2.131   2.671
 1981SOL    HW1 6842   3.912   2.133   2.589
 1981SOL    HW2 6843   4.022   2.215   2.678
 1982SOL     OW 6844   0.855   2.855   5.887
 1982SOL    HW1 6845   0.788   2.875   5.959
 1982SOL    HW2 6846   0.841   2.919   5.811
 1983SOL     OW 6847   0.683   0.862   2.225
 1983SOL    HW1 6848   0.637   0.907   2.301
 1983SOL    HW2 6849   0.616   0.809   2.172
 1984SOL     OW 6850   4.696   3.168   5.811
 1984SOL    HW1 6851   4.656   3.095   5.866
 1984SOL    HW2 6852   4.673   3.256   5.852
 1985SOL     OW 6853   6.449   3.290   3.445
 1985SOL    HW1 6854   6.380   3.339   3.498
 1985SOL    HW2 6855   6.404   3.220   3.389
 1986SOL     OW 6856   2.876   3.390   2.231
 1986SOL    HW1 6857   2.878   3.378   2.132
 1986SOL    HW2 6858   2.783   3.376   2.265
 1987SOL     OW 6859   2.259   1.180   1.210
 1987SOL    HW1 6860   2.159   1.182   1.211
 1987SOL    HW2 6861   2.294   1.263   1.252
 1988SOL     OW 6862   0.716   1.883   1.730
 1988SOL    HW1 6863   0.718   1.832   1.816
 1988SOL    HW2 6864   0.728   1.981   1.749
 1989SOL     OW 6865   2.884   5.162   4.669
 1989SOL    HW1 6866   2.920   5.250   4.701
 1989SOL    HW2 6867   2.946   5.088   4.697
 1990SOL     OW 6868   4.014   0.323   0.018
 1990SOL    HW1 6869   4.035   0.226   0.030
 1990SOL    HW2 6870   4.082   0.378   0.065
 1991SOL     OW 6871   2.580   5.551   1.599
 1991SOL    HW1 6872   2.559   5.643   1.632
 1991SOL    HW2 6873   2.501   5.513   1.552
 1992SOL     OW 6874   1.009   6.704   2.634
 1992SOL    HW1 6875   0.939   6.649   2.589
 1992SOL    HW2 6876   1.086   6.646   2.662
 1993SOL     OW 6877   2.402   2.177   2.975
 1993SOL    HW1 6878   2.303   2.161   2.966
 1993SOL    HW2 6879   2.451   2.116   2.912
 1994SOL     OW 6880   3.891   2.644   0.642
 1994SOL    HW1 6881   3.908   2.631   0.544
 1994SOL    HW2 6882   3.802   2.604   0.666
 1995SOL     OW 6883   5.527   1.852   3.968
 1995SOL    HW1 6884   5.451   1.790   3.950
 1995SOL    HW2 6885   5.603   1.831   3.907
 1996SOL     OW 6886   4.625   0.886   1.149
 1996SOL    HW1 6887   4.569   0.804   1.145
 1996SOL    HW2 6888   4.708   0.868   1.202
 1997SOL     OW 6889   3.449   1.405   4.122
 1997SOL    HW1 6890   3.399   1.382   4.039
 1997SOL    HW2 6891   3.543   1.371   4.115
 1998SOL     OW 6892   2.363   3.886   1.839
 1998SOL    HW1 6893   2.346   3.922   1.931
 1998SOL    HW2 6894   2.361   3.961   1.773
 1999SOL     OW 6895   0.583   0.227   0.012
 1999SOL    HW1 6896   0.501   0.250   0.066
 1999SOL    HW2 6897   0.656   0.199   0.074
 2000SOL     OW 6898   4.275   4.466   5.781
 2000SOL    HW1 6899   4.203   4.504   5.838
 2000SOL    HW2 6900   4.305   4.378   5.818
 2001SOL     OW 6901   2.142   2.226   1.515
 2001SOL    HW1 6902   2.050   2.231   1.555
 2001SOL    HW2 6903   2.202   2.175   1.576
 2002SOL     OW 6904   6.891   5.732   0.800
 2002SOL    HW1 6905   6.917   5.681   0.719
 2002SOL    HW2 6906   6.843   5.816   0.773
 2003SOL     OW 6907   5.734   5.157   2.378
 2003SOL    HW1 6908   5.637   5.175   2.364
 2003SOL    HW2 6909   5.772   5.113   2.296
 2004SOL     OW 6910   3.462   6.770   3.003
 2004SOL    HW1 6911   3.405   6.703   2.954
 2004SOL    HW2 6912   3.532   6.721   3.054
 2005SOL     OW 6913   1.491   5.939   0.334
 2005SOL    HW1 6914   1.558   5.981   0.272
 2005SOL    HW2 6915   1.535   5.921   0.422
 2006SOL     OW 6916   5.594   6.331   2.143
 2006SOL    HW1 6917   5.595   6.414   2.199
 2006SOL    HW2 6918   5.652   6.345   2.063
 2007SOL     OW 6919   5.305   4.713   6.516
 2007SOL    HW1 6920   5.209   4.726   6.491
 2007SOL    HW2 6921   5.363   4.758   6.448
 2008SOL     OW 6922   2.068   3.380   3.266
 2008SOL    HW1 6923   2.099   3.308   3.204
 2008SOL    HW2 6924   1.983   3.352   3.311
 2009SOL     OW 6925   6.240   6.904   2.630
 2009SOL    HW1 6926   6.164   6.955   2.589
 2009SOL    HW2 6927   6.203   6.832   2.688
 2010SOL     OW 6928   0.059   1.774   1.987
 2010SOL    HW1 6929   0.001   1.704   2.029
 2010SOL    HW2 6930   0.063   1.760   1.888
 2011SOL     OW 6931   0.685   7.017   4.697
 2011SOL    HW1 6932   0.768   6.961   4.695
 2011SOL    HW2 6933   0.655   0.008   4.604
 2012SOL     OW 6934   0.798   2.912   1.143
 2012SOL    HW1 6935   0.794   2.958   1.232
 2012SOL    HW2 6936   0.893   2.892   1.120
 2013SOL     OW 6937   0.346   2.687   1.871
 2013SOL    HW1 6938   0.273   2.621   1.848
 2013SOL    HW2 6939   0.407   2.698   1.793
 2014SOL     OW 6940   4.082   1.199   4.700
 2014SOL    HW1 6941   4.108   1.106   4.727
 2014SOL    HW2 6942   4.159   1.260   4.713
 2015SOL     OW 6943   4.306   6.978   1.803
 2015SOL    HW1 6944   4.282   0.023   1.738
 2015SOL    HW2 6945   4.349   7.019   1.884
 2016SOL     OW 6946   1.863   0.698   4.386
 2016SOL    HW1 6947   1.891   0.681   4.291
 2016SOL    HW2 6948   1.827   0.613   4.425
 2017SOL     OW 6949   3.712   6.368   3.726
 2017SOL    HW1 6950   3.677   6.276   3.746
 2017SOL    HW2 6951   3.812   6.368   3.734
 2018SOL     OW 6952   1.159   0.658   4.162
 2018SOL    HW1 6953   1.169   0.560   4.147
 2018SOL    HW2 6954   1.247   0.698   4.185
 2019SOL     OW 6955   5.307   5.109   6.655
 2019SOL    HW1 6956   5.318   5.026   6.710
 2019SOL    HW2 6957   5.239   5.169   6.698
 2020SOL     OW 6958   2.052   6.729   6.934
 2020SOL    HW1 6959   1.984   6.778   6.880
 2020SOL    HW2 6960   2.022   6.635   6.948
 2021SOL     OW 6961   0.200   6.254   4.381
 2021SOL    HW1 6962   0.163   6.331   4.434
 2021SOL    HW2 6963   0.296   6.240   4.406
 2022SOL     OW 6964   2.017   3.304   4.014
 2022SOL    HW1 6965   1.994   3.401   4.018
 2022SOL    HW2 6966   2.020   3.274   3.919
 2023SOL     OW 6967   6.622   6.598   6.754
 2023SOL    HW1 6968   6.611   6.674   6.819
 2023SOL    HW2 6969   6.591   6.513   6.796
 2024SOL     OW 6970   0.624   5.829   3.907
 2024SOL    HW1 6971   0.661   5.863   3.994
 2024SOL    HW2 6972   0.635   5.898   3.836
 2025SOL     OW 6973   1.678   5.623   4.885
 2025SOL    HW1 6974   1.627   5.672   4.815
 2025SOL    HW2 6975   1.760   5.583   4.845
 2026SOL     OW 6976   6.956   0.502   5.890
 2026SOL    HW1 6977   7.019   0.444   5.837
 2026SOL    HW2 6978   6.869   0.508   5.842
 2027SOL     OW 6979   0.196   6.105   2.174
 2027SOL    HW1 6980   0.251   6.104   2.258
 2027SOL    HW2 6981   0.252   6.138   2.099
 2028SOL     OW 6982   3.106   4.941   4.742
 2028SOL    HW1 6983   3.091   4.894   4.655
 2028SOL    HW2 6984   3.045   4.903   4.812
 2029SOL     OW 6985   6.385   2.731   6.306
 2029SOL    HW1 6986   6.373   2.633   6.327
 2029SOL    HW2 6987   6.297   2.769   6.277
 2030SOL     OW 6988   2.502   6.924   2.627
 2030SOL    HW1 6989   2.514   6.836   2.581
 2030SOL    HW2 6990   2.423   6.971   2.588
 2031SOL     OW 6991   0.748   6.116   4.773
 2031SOL    HW1 6992   0.749   6.021   4.743
 2031SOL    HW2 6993   0.701   6.172   4.705
 2032SOL     OW 6994   2.376   3.010   5.906
 2032SOL    HW1 6995   2.342   2.923   5.870
 2032SOL    HW2 6996   2.442   2.992   5.979
 2033SOL     OW 6997   2.212   1.740   0.653
 2033SOL    HW1 6998   2.309   1.725   0.671
 2033SOL    HW2 6999   2.193   1.724   0.556
 2034SOL     OW 7000   0.707   4.661   5.427
 2034SOL    HW1 7001   0.644   4.587   5.452
 2034SOL    HW2 7002   0.692   4.685   5.331
 2035SOL     OW 7003   5.217   6.608   3.525
 2035SOL    HW1 7004   5.186   6.692   3.569
 2035SOL    HW2 7005   5.305   6.624   3.481
 2036SOL     OW 7006   0.302   4.775   6.416
 2036SOL    HW1 7007   0.215   4.825   6.417
 2036SOL    HW2 7008   0.284   4.677   6.407
 2037SOL     OW 7009   0.724   2.343   0.134
 2037SOL    HW1 7010   0.755   2.406   0.206
 2037SOL    HW2 7011   0.801   2.325   0.072
 2038SOL     OW 7012   0.964   0.752   6.349
 2038SOL    HW1 7013   0.931   0.658   6.358
 2038SOL    HW2 7014   0.899   0.806   6.295
 2039SOL     OW 7015   5.227   6.342   3.577
 2039SOL    HW1 7016   5.205   6.439   3.568
 2039SOL    HW2 7017   5.325   6.331   3.595
 2040SOL     OW 7018   2.241   2.162   6.819
 2040SOL    HW1 7019   2.205   2.244   6.776
 2040SOL    HW2 7020   2.320   2.186   6.876
 2041SOL     OW 7021   2.740   0.186   6.459
 2041SOL    HW1 7022   2.670   0.223   6.398
 2041SOL    HW2 7023   2.772   0.258   6.521
 2042SOL     OW 7024   5.915   1.155   5.881
 2042SOL    HW1 7025   5.828   1.117   5.849
 2042SOL    HW2 7026   5.944   1.228   5.820
 2043SOL     OW 7027   0.742   3.725   0.896
 2043SOL    HW1 7028   0.710   3.797   0.957
 2043SOL    HW2 7029   0.667   3.661   0.877
 2044SOL     OW 7030   3.963   0.637   1.379
 2044SOL    HW1 7031   4.051   0.659   1.336
 2044SOL    HW2 7032   3.905   0.718   1.378
 2045SOL     OW 7033   2.107   6.329   4.389
 2045SOL    HW1 7034   2.130   6.244   4.436
 2045SOL    HW2 7035   2.102   6.403   4.456
 2046SOL     OW 7036   0.525   3.007   5.434
 2046SOL    HW1 7037   0.564   3.026   5.344
 2046SOL    HW2 7038   0.504   2.910   5.442
 2047SOL     OW 7039   0.080   0.008   0.592
 2047SOL    HW1 7040   0.037   0.051   0.671
 2047SOL    HW2 7041   0.164   6.989   0.620
 2048SOL     OW 7042   2.043   1.533   3.779
 2048SOL    HW1 7043   2.017   1.629   3.775
 2048SOL    HW2 7044   2.034   1.492   3.688
 2049SOL     OW 7045   4.653   2.796   4.953
 2049SOL    HW1 7046   4.660   2.849   4.868
 2049SOL    HW2 7047   4.595   2.716   4.938
 2050SOL     OW 7048   0.552   0.721   3.358
 2050SOL    HW1 7049   0.462   0.677   3.353
 2050SOL    HW2 7050   0.560   0.771   3.444
 2051SOL     OW 7051   3.013   6.334   0.686
 2051SOL    HW1 7052   3.090   6.384   0.645
 2051SOL    HW2 7053   3.047   6.278   0.761
 2052SOL     OW 7054   0.945   4.183   0.549
 2052SOL    HW1 7055   0.977   4.156   0.640
 2052SOL    HW2 7056   0.985   4.122   0.481
 2053SOL     OW 7057   6.593   5.077   2.657
 2053SOL    HW1 7058   6.624   5.172   2.661
 2053SOL    HW2 7059   6.609   5.041   2.565
 2054SOL     OW 7060   3.146   3.996   2.793
 2054SOL    HW1 7061   3.074   3.933   2.823
 2054SOL    HW2 7062   3.172   3.975   2.699
 2055SOL     OW 7063   3.739   2.847   5.443
 2055SOL    HW1 7064   3.800   2.773   5.470
 2055SOL    HW2 7065   3.765   2.881   5.353
 2056SOL     OW 7066   2.942   5.249   1.429
 2056SOL    HW1 7067   2.937   5.183   1.505
 2056SOL    HW2 7068   2.858   5.302   1.426
 2057SOL     OW 7069   5.621   3.203   4.195
 2057SOL    HW1 7070   5.526   3.208   4.166
 2057SOL    HW2 7071   5.665   3.292   4.182
 2058SOL     OW 7072   6.067   6.689   3.963
 2058SOL    HW1 7073   6.118   6.774   3.976
 2058SOL    HW2 7074   6.045   6.678   3.866
 2059SOL     OW 7075   2.003   1.539   5.269
 2059SOL    HW1 7076   1.958   1.627   5.280
 2059SOL    HW2 7077   1.991   1.484   5.352
 2060SOL     OW 7078   1.844   3.038   6.747
 2060SOL    HW1 7079   1.919   3.068   6.807
 2060SOL    HW2 7080   1.804   2.954   6.785
 2061SOL     OW 7081   1.734   2.706   2.891
 2061SOL    HW1 7082   1.739   2.796   2.934
 2061SOL    HW2 7083   1.668   2.650   2.941
 2062SOL     OW 7084   6.277   4.994   4.332
 2062SOL    HW1 7085   6.296   4.915   4.273
 2062SOL    HW2 7086   6.190   4.980   4.379
 2063SOL     OW 7087   0.744   2.103   3.821
 2063SOL    HW1 7088   0.743   2.201   3.804
 2063SOL    HW2 7089   0.738   2.053   3.735
 2064SOL     OW 7090   0.793   3.270   3.937
 2064SOL    HW1 7091   0.711   3.212   3.936
 2064SOL    HW2 7092   0.871   3.216   3.967
 2065SOL     OW 7093   4.001   3.535   5.807
 2065SOL    HW1 7094   3.974   3.611   5.749
 2065SOL    HW2 7095   3.924   3.504   5.862
 2066SOL     OW 7096   1.261   3.246   5.344
 2066SOL    HW1 7097   1.348   3.228   5.389
 2066SOL    HW2 7098   1.188   3.198   5.392
 2067SOL     OW 7099   6.629   4.795   1.651
 2067SOL    HW1 7100   6.656   4.701   1.671
 2067SOL    HW2 7101   6.562   4.825   1.719
 2068SOL     OW 7102   4.662   0.625   4.278
 2068SOL    HW1 7103   4.591   0.620   4.348
 2068SOL    HW2 7104   4.620   0.610   4.188
 2069SOL     OW 7105   6.792   1.298   3.656
 2069SOL    HW1 7106   6.744   1.211   3.670
 2069SOL    HW2 7107   6.826   1.332   3.744
 2070SOL     OW 7108   1.382   5.054   1.274
 2070SOL    HW1 7109   1.348   5.055   1.368
 2070SOL    HW2 7110   1.462   5.114   1.267
 2071SOL     OW 7111   0.479   2.053   5.594
 2071SOL    HW1 7112   0.555   2.061   5.659
 2071SOL    HW2 7113   0.399   2.014   5.640
 2072SOL     OW 7114   5.676   4.428   5.454
 2072SOL    HW1 7115   5.618   4.347   5.467
 2072SOL    HW2 7116   5.738   4.438   5.532
 2073SOL     OW 7117   3.286   5.671   6.641
 2073SOL    HW1 7118   3.218   5.697   6.710
 2073SOL    HW2 7119   3.247   5.683   6.550
 2074SOL     OW 7120   2.408   4.931   5.615
 2074SOL    HW1 7121   2.479   4.861   5.626
 2074SOL    HW2 7122   2.352   4.934   5.697
 2075SOL     OW 7123   5.672   2.566   1.716
 2075SOL    HW1 7124   5.754   2.539   1.766
 2075SOL    HW2 7125   5.652   2.499   1.645
 2076SOL     OW 7126   6.586   6.298   4.425
 2076SOL    HW1 7127   6.609   6.310   4.328
 2076SOL    HW2 7128   6.524   6.370   4.454
 2077SOL     OW 7129   6.237   4.617   0.165
 2077SOL    HW1 7130   6.270   4.596   0.256
 2077SOL    HW2 7131   6.262   4.543   0.102
 2078SOL     OW 7132   0.523   3.436   5.884
 2078SOL    HW1 7133   0.457   3.397   5.949
 2078SOL    HW2 7134   0.477   3.452   5.796
 2079SOL     OW 7135   5.538   1.056   2.932
 2079SOL    HW1 7136   5.575   1.133   2.879
 2079SOL    HW2 7137   5.545   1.078   3.029
 2080SOL     OW 7138   2.484   3.375   6.394
 2080SOL    HW1 7139   2.408   3.317   6.363
 2080SOL    HW2 7140   2.529   3.416   6.315
 2081SOL     OW 7141   6.447   6.255   1.905
 2081SOL    HW1 7142   6.431   6.213   1.995
 2081SOL    HW2 7143   6.404   6.200   1.834
 2082SOL     OW 7144   6.956   5.440   4.145
 2082SOL    HW1 7145   6.940   5.482   4.055
 2082SOL    HW2 7146   6.992   5.348   4.133
 2083SOL     OW 7147   0.105   6.270   4.123
 2083SOL    HW1 7148   0.166   6.256   4.202
 2083SOL    HW2 7149   0.021   6.218   4.137
 2084SOL     OW 7150   6.722   1.525   1.086
 2084SOL    HW1 7151   6.808   1.568   1.057
 2084SOL    HW2 7152   6.740   1.466   1.165
 2085SOL     OW 7153   6.398   6.177   0.682
 2085SOL    HW1 7154   6.367   6.258   0.632
 2085SOL    HW2 7155   6.372   6.186   0.778
 2086SOL     OW 7156   4.807   0.796   6.990
 2086SOL    HW1 7157   4.792   0.699   7.006
 2086SOL    HW2 7158   4.873   0.831   0.029
 2087SOL     OW 7159   4.001   1.598   0.150
 2087SOL    HW1 7160   4.098   1.619   0.137
 2087SOL    HW2 7161   3.952   1.607   0.063
 2088SOL     OW 7162   0.347   4.506   5.851
 2088SOL    HW1 7163   0.444   4.514   5.826
 2088SOL    HW2 7164   0.299   4.590   5.825
 2089SOL     OW 7165   2.521   4.002   6.418
 2089SOL    HW1 7166   2.506   3.927   6.482
 2089SOL    HW2 7167   2.436   4.052   6.405
 2090SOL     OW 7168   5.309   2.960   6.395
 2090SOL    HW1 7169   5.327   2.882   6.455
 2090SOL    HW2 7170   5.286   3.040   6.452
 2091SOL     OW 7171   5.597   6.365   0.328
 2091SOL    HW1 7172   5.677   6.390   0.274
 2091SOL    HW2 7173   5.606   6.403   0.420
 2092SOL     OW 7174   3.429   3.461   2.145
 2092SOL    HW1 7175   3.409   3.495   2.237
 2092SOL    HW2 7176   3.500   3.517   2.103
 2093SOL     OW 7177   4.080   0.919   1.528
 2093SOL    HW1 7178   4.130   0.920   1.615
 2093SOL    HW2 7179   4.107   0.998   1.474
 2094SOL     OW 7180   5.514   2.216   0.087
 2094SOL    HW1 7181   5.545   2.133   0.040
 2094SOL    HW2 7182   5.591   2.262   0.129
 2095SOL     OW 7183   5.233   5.056   4.217
 2095SOL    HW1 7184   5.212   5.146   4.180
 2095SOL    HW2 7185   5.240   4.990   4.142
 2096SOL     OW 7186   3.955   6.895   2.235
 2096SOL    HW1 7187   3.894   6.924   2.162
 2096SOL    HW2 7188   3.926   6.806   2.270
 2097SOL     OW 7189   0.960   5.546   5.717
 2097SOL    HW1 7190   1.045   5.524   5.766
 2097SOL    HW2 7191   0.972   5.631   5.666
 2098SOL     OW 7192   3.051   6.738   3.581
 2098SOL    HW1 7193   2.984   6.688   3.526
 2098SOL    HW2 7194   3.025   6.735   3.677
 2099SOL     OW 7195   4.267   1.942   6.659
 2099SOL    HW1 7196   4.296   1.994   6.579
 2099SOL    HW2 7197   4.285   1.845   6.644
 2100SOL     OW 7198   4.680   0.353   0.557
 2100SOL    HW1 7199   4.615   0.427   0.542
 2100SOL    HW2 7200   4.747   0.381   0.627
 2101SOL     OW 7201   1.213   0.626   2.524
 2101SOL    HW1 7202   1.207   0.527   2.509
 2101SOL    HW2 7203   1.144   0.654   2.590
 2102SOL     OW 7204   4.253   2.570   0.956
 2102SOL    HW1 7205   4.166   2.556   0.908
 2102SOL    HW2 7206   4.258   2.508   1.034
 2103SOL     OW 7207   1.829   6.222   0.453
 2103SOL    HW1 7208   1.872   6.217   0.363
 2103SOL    HW2 7209   1.796   6.131   0.479
 2104SOL     OW 7210   1.713   3.762   3.265
 2104SOL    HW1 7211   1.757   3.783   3.352
 2104SOL    HW2 7212   1.772   3.792   3.189
 2105SOL     OW 7213   5.751   0.494   4.885
 2105SOL    HW1 7214   5.698   0.579   4.885
 2105SOL    HW2 7215   5.820   0.497   4.957
 2106SOL     OW 7216   4.035   3.228   1.154
 2106SOL    HW1 7217   3.983   3.311   1.171
 2106SOL    HW2 7218   3.982   3.166   1.097
 2107SOL     OW 7219   5.121   4.675   4.981
 2107SOL    HW1 7220   5.146   4.649   4.888
 2107SOL    HW2 7221   5.038   4.625   5.008
 2108SOL     OW 7222   5.043   0.138   5.210
 2108SOL    HW1 7223   4.996   0.210   5.261
 2108SOL    HW2 7224   4.985   0.056   5.206
 2109SOL     OW 7225   2.611   6.301   2.283
 2109SOL    HW1 7226   2.645   6.255   2.202
 2109SOL    HW2 7227   2.673   6.286   2.360
 2110SOL     OW 7228   3.402   6.044   6.944
 2110SOL    HW1 7229   3.444   5.969   6.995
 2110SOL    HW2 7230   3.460   6.126   6.951
 2111SOL     OW 7231   1.210   2.422   5.822
 2111SOL    HW1 7232   1.180   2.515   5.803
 2111SOL    HW2 7233   1.223   2.410   5.920
 2112SOL     OW 7234   0.939   0.026   6.830
 2112SOL    HW1 7235   0.978   0.112   6.863
 2112SOL    HW2 7236   0.949   6.983   6.902
 2113SOL     OW 7237   6.737   1.550   5.037
 2113SOL    HW1 7238   6.788   1.524   4.955
 2113SOL    HW2 7239   6.679   1.474   5.066
 2114SOL     OW 7240   2.000   0.818   5.871
 2114SOL    HW1 7241   2.024   0.796   5.776
 2114SOL    HW2 7242   2.011   0.736   5.928
 2115SOL     OW 7243   6.719   5.500   3.230
 2115SOL    HW1 7244   6.737   5.505   3.329
 2115SOL    HW2 7245   6.768   5.574   3.184
 2116SOL     OW 7246   1.407   1.612   6.865
 2116SOL    HW1 7247   1.403   1.650   6.773
 2116SOL    HW2 7248   1.358   1.525   6.869
 2117SOL     OW 7249   6.711   2.393   2.633
 2117SOL    HW1 7250   6.640   2.429   2.693
 2117SOL    HW2 7251   6.672   2.322   2.574
 2118SOL     OW 7252   0.263   2.002   2.686
 2118SOL    HW1 7253   0.173   2.039   2.708
 2118SOL    HW2 7254   0.254   1.908   2.654
 2119SOL     OW 7255   0.223   2.828   0.585
 2119SOL    HW1 7256   0.242   2.915   0.539
 2119SOL    HW2 7257   0.226   2.842   0.684
 2120SOL     OW 7258   5.633   2.054   0.949
 2120SOL    HW1 7259   5.684   2.020   1.028
 2120SOL    HW2 7260   5.589   2.141   0.973
 2121SOL     OW 7261   1.917   6.634   1.118
 2121SOL    HW1 7262   2.011   6.606   1.099
 2121SOL    HW2 7263   1.915   6.733   1.135
 2122SOL     OW 7264   6.030   0.600   4.267
 2122SOL    HW1 7265   5.981   0.530   4.216
 2122SOL    HW2 7266   6.125   0.572   4.280
 2123SOL     OW 7267   1.118   5.176   2.939
 2123SOL    HW1 7268   1.087   5.266   2.908
 2123SOL    HW2 7269   1.214   5.182   2.966
 2124SOL     OW 7270   4.581   3.334   6.176
 2124SOL    HW1 7271   4.585   3.307   6.272
 2124SOL    HW2 7272   4.504   3.287   6.131
 2125SOL     OW 7273   1.671   5.832   4.380
 2125SOL    HW1 7274   1.673   5.751   4.438
 2125SOL    HW2 7275   1.613   5.815   4.300
 2126SOL     OW 7276   2.747   3.780   0.484
 2126SOL    HW1 7277   2.715   3.699   0.434
 2126SOL    HW2 7278   2.814   3.829   0.428
 2127SOL     OW 7279   1.290   3.343   4.222
 2127SOL    HW1 7280   1.267   3.398   4.302
 2127SOL    HW2 7281   1.259   3.249   4.237
 2128SOL     OW 7282   5.273   2.935   2.467
 2128SOL    HW1 7283   5.239   3.023   2.500
 2128SOL    HW2 7284   5.372   2.932   2.480
 2129SOL     OW 7285   4.732   4.642   4.455
 2129SOL    HW1 7286   4.658   4.589   4.414
 2129SOL    HW2 7287   4.779   4.586   4.524
 2130SOL     OW 7288   2.029   0.607   1.291
 2130SOL    HW1 7289   2.019   0.671   1.214
 2130SOL    HW2 7290   2.053   0.659   1.373
 2131SOL     OW 7291   5.711   0.515   6.337
 2131SOL    HW1 7292   5.664   0.554   6.416
 2131SOL    HW2 7293   5.656   0.440   6.300
 2132SOL     OW 7294   2.833   2.870   0.141
 2132SOL    HW1 7295   2.822   2.962   0.104
 2132SOL    HW2 7296   2.786   2.804   0.081
 2133SOL     OW 7297   3.477   2.099   1.209
 2133SOL    HW1 7298   3.457   2.042   1.289
 2133SOL    HW2 7299   3.517   2.186   1.240
 2134SOL     OW 7300   2.076   6.075   5.282
 2134SOL    HW1 7301   2.025   6.157   5.254
 2134SOL    HW2 7302   2.169   6.102   5.310
 2135SOL     OW 7303   1.236   5.750   3.925
 2135SOL    HW1 7304   1.146   5.774   3.889
 2135SOL    HW2 7305   1.230   5.733   4.023
 2136SOL     OW 7306   1.287   4.846   3.818
 2136SOL    HW1 7307   1.355   4.823   3.747
 2136SOL    HW2 7308   1.201   4.871   3.774
 2137SOL     OW 7309   1.103   1.031   4.708
 2137SOL    HW1 7310   1.185   0.983   4.679
 2137SOL    HW2 7311   1.056   0.978   4.778
 2138SOL     OW 7312   1.064   2.671   5.876
 2138SOL    HW1 7313   1.132   2.710   5.938
 2138SOL    HW2 7314   0.980   2.726   5.879
 2139SOL     OW 7315   2.869   6.957   4.710
 2139SOL    HW1 7316   2.860   0.018   4.756
 2139SOL    HW2 7317   2.928   6.897   4.764
 2140SOL     OW 7318   1.798   5.946   3.559
 2140SOL    HW1 7319   1.870   5.884   3.591
 2140SOL    HW2 7320   1.826   5.986   3.471
 2141SOL     OW 7321   6.679   1.822   6.387
 2141SOL    HW1 7322   6.749   1.755   6.411
 2141SOL    HW2 7323   6.722   1.910   6.370
 2142SOL     OW 7324   3.108   1.261   3.801
 2142SOL    HW1 7325   3.116   1.181   3.740
 2142SOL    HW2 7326   3.018   1.302   3.789
 2143SOL     OW 7327   3.823   6.480   0.164
 2143SOL    HW1 7328   3.892   6.417   0.201
 2143SOL    HW2 7329   3.801   6.454   0.070
 2144SOL     OW 7330   0.930   0.610   1.595
 2144SOL    HW1 7331   1.021   0.568   1.602
 2144SOL    HW2 7332   0.939   0.709   1.612
 2145SOL     OW 7333   2.888   5.876   2.711
 2145SOL    HW1 7334   2.862   5.780   2.698
 2145SOL    HW2 7335   2.806   5.930   2.729
 2146SOL     OW 7336   2.761   2.127   0.841
 2146SOL    HW1 7337   2.663   2.141   0.829
 2146SOL    HW2 7338   2.809   2.150   0.756
 2147SOL     OW 7339   0.176   0.989   5.008
 2147SOL    HW1 7340   0.165   1.041   4.924
 2147SOL    HW2 7341   0.225   0.903   4.988
 2148SOL     OW 7342   5.458   3.631   4.093
 2148SOL    HW1 7343   5.494   3.606   4.183
 2148SOL    HW2 7344   5.365   3.597   4.084
 2149SOL     OW 7345   3.061   0.199   2.862
 2149SOL    HW1 7346   3.079   0.195   2.960
 2149SOL    HW2 7347   3.114   0.274   2.822
 2150SOL     OW 7348   4.184   0.470   3.215
 2150SOL    HW1 7349   4.165   0.559   3.257
 2150SOL    HW2 7350   4.098   0.419   3.207
 2151SOL     OW 7351   3.719   4.138   5.617
 2151SOL    HW1 7352   3.638   4.129   5.560
 2151SOL    HW2 7353   3.698   4.194   5.697
 2152SOL     OW 7354   6.569   6.704   2.345
 2152SOL    HW1 7355   6.656   6.751   2.331
 2152SOL    HW2 7356   6.557   6.634   2.274
 2153SOL     OW 7357   4.894   1.915   3.317
 2153SOL    HW1 7358   4.846   1.828   3.325
 2153SOL    HW2 7359   4.865   1.961   3.233
 2154SOL     OW 7360   4.217   6.580   5.517
 2154SOL    HW1 7361   4.120   6.565   5.498
 2154SOL    HW2 7362   4.272   6.518   5.462
 2155SOL     OW 7363   6.368   4.353   0.055
 2155SOL    HW1 7364   6.395   4.378   6.989
 2155SOL    HW2 7365   6.443   4.306   0.101
 2156SOL     OW 7366   0.037   0.606   1.088
 2156SOL    HW1 7367   0.120   0.586   1.140
 2156SOL    HW2 7368   0.048   0.575   0.994
 2157SOL     OW 7369   6.264   0.925   4.023
 2157SOL    HW1 7370   6.200   0.857   3.987
 2157SOL    HW2 7371   6.228   0.962   4.108
 2158SOL     OW 7372   4.503   0.212   3.464
 2158SOL    HW1 7373   4.508   0.202   3.364
 2158SOL    HW2 7374   4.588   0.179   3.505
 2159SOL     OW 7375   2.304   0.527   5.131
 2159SOL    HW1 7376   2.341   0.490   5.046
 2159SOL    HW2 7377   2.372   0.587   5.174
 2160SOL     OW 7378   2.904   2.564   0.821
 2160SOL    HW1 7379   2.885   2.536   0.727
 2160SOL    HW2 7380   2.946   2.488   0.870
 2161SOL     OW 7381   5.236   2.414   3.660
 2161SOL    HW1 7382   5.290   2.485   3.705
 2161SOL    HW2 7383   5.171   2.457   3.597
 2162SOL     OW 7384   1.552   0.996   1.001
 2162SOL    HW1 7385   1.646   0.975   1.028
 2162SOL    HW2 7386   1.538   0.971   0.906
 2163SOL     OW 7387   2.283   1.795   1.266
 2163SOL    HW1 7388   2.185   1.781   1.283
 2163SOL    HW2 7389   2.325   1.709   1.237
 2164SOL     OW 7390   6.969   0.139   1.028
 2164SOL    HW1 7391   0.010   0.082   1.075
 2164SOL    HW2 7392   6.940   0.213   1.088
 2165SOL     OW 7393   2.793   0.410   1.837
 2165SOL    HW1 7394   2.842   0.471   1.899
 2165SOL    HW2 7395   2.812   0.315   1.862
 2166SOL     OW 7396   6.121   2.529   6.004
 2166SOL    HW1 7397   6.220   2.540   5.988
 2166SOL    HW2 7398   6.080   2.482   5.926
 2167SOL     OW 7399   2.741   1.211   1.431
 2167SOL    HW1 7400   2.763   1.122   1.390
 2167SOL    HW2 7401   2.652   1.206   1.475
 2168SOL     OW 7402   5.783   6.754   4.887
 2168SOL    HW1 7403   5.757   6.811   4.965
 2168SOL    HW2 7404   5.870   6.709   4.907
 2169SOL     OW 7405   6.388   1.705   5.830
 2169SOL    HW1 7406   6.477   1.661   5.817
 2169SOL    HW2 7407   6.317   1.649   5.787
 2170SOL     OW 7408   5.278   4.306   4.493
 2170SOL    HW1 7409   5.197   4.247   4.494
 2170SOL    HW2 7410   5.252   4.398   4.465
 2171SOL     OW 7411   7.000   3.428   0.506
 2171SOL    HW1 7412   6.996   3.528   0.507
 2171SOL    HW2 7413   0.002   3.397   0.416
 2172SOL     OW 7414   2.296   0.239   1.693
 2172SOL    HW1 7415   2.345   0.307   1.748
 2172SOL    HW2 7416   2.224   0.196   1.749
 2173SOL     OW 7417   4.698   2.289   4.828
 2173SOL    HW1 7418   4.609   2.283   4.783
 2173SOL    HW2 7419   4.764   2.230   4.780
 2174SOL     OW 7420   1.385   5.446   4.930
 2174SOL    HW1 7421   1.386   5.523   4.867
 2174SOL    HW2 7422   1.450   5.464   5.005
 2175SOL     OW 7423   1.676   6.026   6.150
 2175SOL    HW1 7424   1.636   6.057   6.236
 2175SOL    HW2 7425   1.610   6.039   6.076
 2176SOL     OW 7426   1.633   2.676   2.500
 2176SOL    HW1 7427   1.722   2.723   2.495
 2176SOL    HW2 7428   1.636   2.595   2.442
 2177SOL     OW 7429   0.340   2.146   1.417
 2177SOL    HW1 7430   0.350   2.048   1.399
 2177SOL    HW2 7431   0.414   2.176   1.476
 2178SOL     OW 7432   6.750   6.463   1.260
 2178SOL    HW1 7433   6.783   6.386   1.314
 2178SOL    HW2 7434   6.809   6.475   1.179
 2179SOL     OW 7435   1.412   3.773   4.197
 2179SOL    HW1 7436   1.351   3.788   4.274
 2179SOL    HW2 7437   1.453   3.682   4.203
 2180SOL     OW 7438   3.769   2.632   1.436
 2180SOL    HW1 7439   3.843   2.699   1.441
 2180SOL    HW2 7440   3.681   2.678   1.435
 2181SOL     OW 7441   3.750   6.642   1.433
 2181SOL    HW1 7442   3.785   6.736   1.433
 2181SOL    HW2 7443   3.658   6.640   1.395
 2182SOL     OW 7444   5.290   2.132   0.956
 2182SOL    HW1 7445   5.234   2.134   1.039
 2182SOL    HW2 7446   5.363   2.199   0.963
 2183SOL     OW 7447   2.814   2.692   0.353
 2183SOL    HW1 7448   2.809   2.745   0.269
 2183SOL    HW2 7449   2.894   2.720   0.406
 2184SOL     OW 7450   4.400   3.092   6.138
 2184SOL    HW1 7451   4.363   3.169   6.085
 2184SOL    HW2 7452   4.335   3.016   6.137
 2185SOL     OW 7453   0.132   6.933   2.105
 2185SOL    HW1 7454   0.064   6.861   2.117
 2185SOL    HW2 7455   0.198   6.906   2.034
 2186SOL     OW 7456   0.375   4.547   3.055
 2186SOL    HW1 7457   0.365   4.599   3.140
 2186SOL    HW2 7458   0.286   4.535   3.012
 2187SOL     OW 7459   6.286   1.496   6.749
 2187SOL    HW1 7460   6.322   1.485   6.842
 2187SOL    HW2 7461   6.267   1.405   6.710
 2188SOL     OW 7462   5.039   1.250   3.997
 2188SOL    HW1 7463   5.019   1.263   4.094
 2188SOL    HW2 7464   5.085   1.331   3.961
 2189SOL     OW 7465   2.917   0.112   6.825
 2189SOL    HW1 7466   2.970   0.190   6.857
 2189SOL    HW2 7467   2.944   0.030   6.876
 2190SOL     OW 7468   4.851   2.545   0.746
 2190SOL    HW1 7469   4.938   2.585   0.776
 2190SOL    HW2 7470   4.806   2.502   0.825
 2191SOL     OW 7471   2.601   1.893   0.046
 2191SOL    HW1 7472   2.502   1.895   0.035
 2191SOL    HW2 7473   2.644   1.874   6.984
 2192SOL     OW 7474   3.822   5.448   2.562
 2192SOL    HW1 7475   3.747   5.392   2.598
 2192SOL    HW2 7476   3.855   5.410   2.476
 2193SOL     OW 7477   6.650   5.938   4.862
 2193SOL    HW1 7478   6.571   5.973   4.811
 2193SOL    HW2 7479   6.734   5.968   4.816
 2194SOL     OW 7480   2.796   0.570   1.592
 2194SOL    HW1 7481   2.835   0.656   1.624
 2194SOL    HW2 7482   2.791   0.506   1.669
 2195SOL     OW 7483   0.770   5.389   2.230
 2195SOL    HW1 7484   0.704   5.369   2.303
 2195SOL    HW2 7485   0.737   5.349   2.144
 2196SOL     OW 7486   4.302   3.013   0.370
 2196SOL    HW1 7487   4.256   2.933   0.333
 2196SOL    HW2 7488   4.239   3.090   0.372
 2197SOL     OW 7489   4.455   4.337   6.647
 2197SOL    HW1 7490   4.458   4.343   6.547
 2197SOL    HW2 7491   4.536   4.290   6.680
 2198SOL     OW 7492   6.310   4.454   0.767
 2198SOL    HW1 7493   6.279   4.511   0.690
 2198SOL    HW2 7494   6.410   4.456   0.770
 2199SOL     OW 7495   4.275   1.314   2.994
 2199SOL    HW1 7496   4.349   1.250   3.012
 2199SOL    HW2 7497   4.242   1.302   2.901
 2200SOL     OW 7498   2.647   6.882   4.565
 2200SOL    HW1 7499   2.733   6.908   4.610
 2200SOL    HW2 7500   2.664   6.809   4.499
 2201SOL     OW 7501   4.829   3.969   4.007
 2201SOL    HW1 7502   4.750   4.030   4.006
 2201SOL    HW2 7503   4.911   4.018   3.977
 2202SOL     OW 7504   4.534   5.716   4.049
 2202SOL    HW1 7505   4.587   5.682   3.972
 2202SOL    HW2 7506   4.514   5.641   4.112
 2203SOL     OW 7507   3.039   2.172   2.893
 2203SOL    HW1 7508   2.984   2.094   2.863
 2203SOL    HW2 7509   3.097   2.144   2.970
 2204SOL     OW 7510   2.638   2.508   0.419
 2204SOL    HW1 7511   2.545   2.541   0.433
 2204SOL    HW2 7512   2.697   2.586   0.397
 2205SOL     OW 7513   2.633   1.035   1.923
 2205SOL    HW1 7514   2.648   1.115   1.866
 2205SOL    HW2 7515   2.582   1.062   2.005
 2206SOL     OW 7516   1.764   2.864   0.004
 2206SOL    HW1 7517   1.708   2.785   7.007
 2206SOL    HW2 7518   1.713   2.924   0.066
 2207SOL     OW 7519   0.549   4.655   4.910
 2207SOL    HW1 7520   0.589   4.692   4.993
 2207SOL    HW2 7521   0.620   4.648   4.839
 2208SOL     OW 7522   6.733   5.010   2.129
 2208SOL    HW1 7523   6.704   4.922   2.094
 2208SOL    HW2 7524   6.720   5.080   2.059
 2209SOL     OW 7525   0.923   7.002   1.762
 2209SOL    HW1 7526   0.895   7.012   1.666
 2209SOL    HW2 7527   0.994   6.932   1.768
 2210SOL     OW 7528   2.142   5.139   3.298
 2210SOL    HW1 7529   2.083   5.081   3.353
 2210SOL    HW2 7530   2.086   5.198   3.240
 2211SOL     OW 7531   0.226   1.536   5.129
 2211SOL    HW1 7532   0.151   1.514   5.190
 2211SOL    HW2 7533   0.239   1.635   5.125
 2212SOL     OW 7534   1.747   0.087   6.403
 2212SOL    HW1 7535   1.752   0.024   6.325
 2212SOL    HW2 7536   1.836   0.131   6.415
 2213SOL     OW 7537   3.638   0.491   3.136
 2213SOL    HW1 7538   3.549   0.536   3.130
 2213SOL    HW2 7539   3.698   0.546   3.194
 2214SOL     OW 7540   4.447   0.600   4.485
 2214SOL    HW1 7541   4.414   0.662   4.556
 2214SOL    HW2 7542   4.388   0.519   4.482
 2215SOL     OW 7543   5.957   2.205   5.182
 2215SOL    HW1 7544   5.878   2.182   5.239
 2215SOL    HW2 7545   6.039   2.162   5.221
 2216SOL     OW 7546   2.914   0.851   2.487
 2216SOL    HW1 7547   2.973   0.929   2.507
 2216SOL    HW2 7548   2.851   0.874   2.413
 2217SOL     OW 7549   4.240   0.992   2.151
 2217SOL    HW1 7550   4.195   1.067   2.101
 2217SOL    HW2 7551   4.170   0.931   2.189
 2218SOL     OW 7552   1.437   0.013   3.076
 2218SOL    HW1 7553   1.515   0.076   3.082
 2218SOL    HW2 7554   1.406   0.006   2.981
 2219SOL     OW 7555   1.097   2.613   2.674
 2219SOL    HW1 7556   1.089   2.526   2.626
 2219SOL    HW2 7557   1.164   2.604   2.748
 2220SOL     OW 7558   0.712   0.482   2.285
 2220SOL    HW1 7559   0.666   0.531   2.359
 2220SOL    HW2 7560   0.809   0.470   2.307
 2221SOL     OW 7561   0.585   0.843   6.410
 2221SOL    HW1 7562   0.594   0.833   6.509
 2221SOL    HW2 7563   0.549   0.758   6.371
 2222SOL     OW 7564   6.326   5.570   3.224
 2222SOL    HW1 7565   6.331   5.475   3.193
 2222SOL    HW2 7566   6.273   5.624   3.158
 2223SOL     OW 7567   6.671   6.383   1.903
 2223SOL    HW1 7568   6.588   6.326   1.905
 2223SOL    HW2 7569   6.751   6.324   1.897
 2224SOL     OW 7570   1.189   4.723   1.494
 2224SOL    HW1 7571   1.135   4.654   1.544
 2224SOL    HW2 7572   1.187   4.701   1.396
 2225SOL     OW 7573   0.525   4.253   0.957
 2225SOL    HW1 7574   0.512   4.332   0.897
 2225SOL    HW2 7575   0.528   4.169   0.901
 2226SOL     OW 7576   4.096   3.836   2.070
 2226SOL    HW1 7577   4.148   3.919   2.088
 2226SOL    HW2 7578   4.110   3.771   2.145
 2227SOL     OW 7579   0.919   2.871   4.420
 2227SOL    HW1 7580   0.835   2.922   4.440
 2227SOL    HW2 7581   0.998   2.924   4.448
 2228SOL     OW 7582   3.013   5.042   4.265
 2228SOL    HW1 7583   2.925   4.998   4.283
 2228SOL    HW2 7584   3.053   5.003   4.182
 2229SOL     OW 7585   5.672   6.434   3.459
 2229SOL    HW1 7586   5.745   6.444   3.526
 2229SOL    HW2 7587   5.701   6.372   3.387
 2230SOL     OW 7588   2.534   5.348   1.805
 2230SOL    HW1 7589   2.614   5.333   1.863
 2230SOL    HW2 7590   2.562   5.354   1.709
 2231SOL     OW 7591   2.570   6.085   1.282
 2231SOL    HW1 7592   2.553   6.063   1.378
 2231SOL    HW2 7593   2.650   6.144   1.275
 2232SOL     OW 7594   5.537   2.634   3.783
 2232SOL    HW1 7595   5.529   2.673   3.691
 2232SOL    HW2 7596   5.559   2.706   3.848
 2233SOL     OW 7597   2.767   1.439   6.116
 2233SOL    HW1 7598   2.803   1.380   6.044
 2233SOL    HW2 7599   2.667   1.436   6.114
 2234SOL     OW 7600   3.640   2.483   1.249
 2234SOL    HW1 7601   3.709   2.528   1.304
 2234SOL    HW2 7602   3.573   2.438   1.308
 2235SOL     OW 7603   2.267   2.006   1.705
 2235SOL    HW1 7604   2.356   1.997   1.749
 2235SOL    HW2 7605   2.196   1.967   1.764
 2236SOL     OW 7606   1.165   4.887   6.384
 2236SOL    HW1 7607   1.088   4.825   6.392
 2236SOL    HW2 7608   1.133   4.982   6.392
 2237SOL     OW 7609   6.158   3.221   4.070
 2237SOL    HW1 7610   6.245   3.232   4.021
 2237SOL    HW2 7611   6.143   3.124   4.089
 2238SOL     OW 7612   6.297   6.229   0.925
 2238SOL    HW1 7613   6.353   6.223   1.007
 2238SOL    HW2 7614   6.219   6.167   0.934
 2239SOL     OW 7615   6.304   5.935   2.095
 2239SOL    HW1 7616   6.229   5.988   2.056
 2239SOL    HW2 7617   6.292   5.838   2.072
 2240SOL     OW 7618   5.831   3.485   1.915
 2240SOL    HW1 7619   5.930   3.471   1.909
 2240SOL    HW2 7620   5.804   3.558   1.852
 2241SOL     OW 7621   1.163   0.100   3.132
 2241SOL    HW1 7622   1.126   0.116   3.224
 2241SOL    HW2 7623   1.239   0.035   3.138
 2242SOL     OW 7624   3.452   1.694   2.405
 2242SOL    HW1 7625   3.468   1.627   2.332
 2242SOL    HW2 7626   3.398   1.770   2.370
 2243SOL     OW 7627   2.598   0.050   5.192
 2243SOL    HW1 7628   2.570   6.989   5.151
 2243SOL    HW2 7629   2.566   0.054   5.287
 2244SOL     OW 7630   3.035   1.393   4.575
 2244SOL    HW1 7631   3.026   1.383   4.674
 2244SOL    HW2 7632   3.020   1.489   4.549
 2245SOL     OW 7633   0.378   2.221   1.798
 2245SOL    HW1 7634   0.375   2.256   1.891
 2245SOL    HW2 7635   0.286   2.192   1.770
 2246SOL     OW 7636   1.629   4.798   5.224
 2246SOL    HW1 7637   1.687   4.717   5.223
 2246SOL    HW2 7638   1.539   4.776   5.189
 2247SOL     OW 7639   1.802   1.407   4.402
 2247SOL    HW1 7640   1.738   1.440   4.333
 2247SOL    HW2 7641   1.894   1.407   4.365
 2248SOL     OW 7642   4.322   3.963   5.776
 2248SOL    HW1 7643   4.303   3.911   5.860
 2248SOL    HW2 7644   4.396   3.919   5.725
 2249SOL     OW 7645   3.882   5.559   5.156
 2249SOL    HW1 7646   3.977   5.591   5.157
 2249SOL    HW2 7647   3.872   5.487   5.088
 2250SOL     OW 7648   4.527   4.957   1.520
 2250SOL    HW1 7649   4.534   5.050   1.485
 2250SOL    HW2 7650   4.602   4.940   1.585
 2251SOL     OW 7651   0.398   0.305   6.203
 2251SOL    HW1 7652   0.354   0.393   6.219
 2251SOL    HW2 7653   0.340   0.250   6.142
 2252SOL     OW 7654   3.254   0.528   6.213
 2252SOL    HW1 7655   3.281   0.534   6.117
 2252SOL    HW2 7656   3.184   0.596   6.233
 2253SOL     OW 7657   1.146   3.196   6.526
 2253SOL    HW1 7658   1.187   3.138   6.596
 2253SOL    HW2 7659   1.050   3.172   6.514
 2254SOL     OW 7660   1.969   4.662   6.109
 2254SOL    HW1 7661   1.900   4.734   6.112
 2254SOL    HW2 7662   2.019   4.667   6.022
 2255SOL     OW 7663   6.052   3.425   6.805
 2255SOL    HW1 7664   6.107   3.504   6.777
 2255SOL    HW2 7665   5.955   3.448   6.798
 2256SOL     OW 7666   2.656   4.675   2.180
 2256SOL    HW1 7667   2.726   4.730   2.226
 2256SOL    HW2 7668   2.697   4.622   2.107
 2257SOL     OW 7669   1.808   3.664   4.426
 2257SOL    HW1 7670   1.856   3.598   4.370
 2257SOL    HW2 7671   1.834   3.653   4.522
 2258SOL     OW 7672   1.917   4.892   5.376
 2258SOL    HW1 7673   1.818   4.904   5.387
 2258SOL    HW2 7674   1.964   4.971   5.415
 2259SOL     OW 7675   6.735   3.357   6.598
 2259SOL    HW1 7676   6.781   3.311   6.674
 2259SOL    HW2 7677   6.664   3.298   6.561
 2260SOL     OW 7678   4.318   3.368   1.195
 2260SOL    HW1 7679   4.238   3.311   1.181
 2260SOL    HW2 7680   4.307   3.420   1.280
 2261SOL     OW 7681   2.931   6.718   4.897
 2261SOL    HW1 7682   2.897   6.667   4.818
 2261SOL    HW2 7683   2.853   6.755   4.948
 2262SOL     OW 7684   3.508   1.563   3.145
 2262SOL    HW1 7685   3.574   1.568   3.220
 2262SOL    HW2 7686   3.470   1.654   3.127
 2263SOL     OW 7687   0.834   4.274   5.782
 2263SOL    HW1 7688   0.802   4.333   5.856
 2263SOL    HW2 7689   0.759   4.260   5.717
 2264SOL     OW 7690   2.981   3.578   3.168
 2264SOL    HW1 7691   2.940   3.495   3.205
 2264SOL    HW2 7692   3.081   3.569   3.170
 2265SOL     OW 7693   0.826   6.816   3.620
 2265SOL    HW1 7694   0.875   6.879   3.560
 2265SOL    HW2 7695   0.742   6.785   3.575
 2266SOL     OW 7696   6.731   0.267   6.183
 2266SOL    HW1 7697   6.637   0.233   6.185
 2266SOL    HW2 7698   6.731   0.364   6.160
 2267SOL     OW 7699   5.786   2.038   5.342
 2267SOL    HW1 7700   5.690   2.008   5.336
 2267SOL    HW2 7701   5.816   2.030   5.437
 2268SOL     OW 7702   0.007   5.379   6.729
 2268SOL    HW1 7703   0.005   5.473   6.764
 2268SOL    HW2 7704   7.012   5.315   6.803
 2269SOL     OW 7705   0.198   6.909   3.441
 2269SOL    HW1 7706   0.289   6.951   3.443
 2269SOL    HW2 7707   0.202   6.818   3.481
 2270SOL     OW 7708   3.387   3.262   3.069
 2270SOL    HW1 7709   3.482   3.268   3.098
 2270SOL    HW2 7710   3.331   3.225   3.143
 2271SOL     OW 7711   0.860   4.926   3.186
 2271SOL    HW1 7712   0.907   5.012   3.164
 2271SOL    HW2 7713   0.809   4.937   3.271
 2272SOL     OW 7714   5.603   2.138   5.812
 2272SOL    HW1 7715   5.528   2.145   5.878
 2272SOL    HW2 7716   5.670   2.071   5.845
 2273SOL     OW 7717   0.762   1.068   2.868
 2273SOL    HW1 7718   0.745   1.053   2.966
 2273SOL    HW2 7719   0.849   1.026   2.843
 2274SOL     OW 7720   0.839   4.364   2.942
 2274SOL    HW1 7721   0.743   4.388   2.926
 2274SOL    HW2 7722   0.865   4.289   2.882
 2275SOL     OW 7723   4.926   6.499   3.753
 2275SOL    HW1 7724   4.966   6.590   3.739
 2275SOL    HW2 7725   4.828   6.502   3.733
 2276SOL     OW 7726   2.970   5.914   2.075
 2276SOL    HW1 7727   2.954   5.912   1.976
 2276SOL    HW2 7728   3.033   5.989   2.097
 2277SOL     OW 7729   3.163   3.573   1.217
 2277SOL    HW1 7730   3.215   3.658   1.219
 2277SOL    HW2 7731   3.170   3.532   1.126
 2278SOL     OW 7732   4.742   6.603   1.425
 2278SOL    HW1 7733   4.767   6.665   1.500
 2278SOL    HW2 7734   4.660   6.553   1.450
 2279SOL     OW 7735   5.998   3.917   5.679
 2279SOL    HW1 7736   5.964   3.865   5.757
 2279SOL    HW2 7737   6.018   3.854   5.603
 2280SOL     OW 7738   5.718   6.909   6.285
 2280SOL    HW1 7739   5.682   6.911   6.191
 2280SOL    HW2 7740   5.681   6.986   6.336
 2281SOL     OW 7741   2.115   1.734   6.954
 2281SOL    HW1 7742   2.033   1.761   7.004
 2281SOL    HW2 7743   2.100   1.647   6.907
 2282SOL     OW 7744   3.994   6.235   2.123
 2282SOL    HW1 7745   3.972   6.144   2.087
 2282SOL    HW2 7746   3.943   6.304   2.071
 2283SOL     OW 7747   0.143   3.893   1.826
 2283SOL    HW1 7748   0.144   3.989   1.795
 2283SOL    HW2 7749   0.159   3.890   1.925
 2284SOL     OW 7750   2.433   1.997   2.150
 2284SOL    HW1 7751   2.478   1.948   2.225
 2284SOL    HW2 7752   2.455   2.094   2.156
 2285SOL     OW 7753   1.792   3.893   6.808
 2285SOL    HW1 7754   1.721   3.945   6.855
 2285SOL    HW2 7755   1.880   3.908   6.853
 2286SOL     OW 7756   6.342   6.491   4.176
 2286SOL    HW1 7757   6.281   6.527   4.247
 2286SOL    HW2 7758   6.318   6.532   4.088
 2287SOL     OW 7759   2.183   2.262   0.708
 2287SOL    HW1 7760   2.183   2.162   0.703
 2287SOL    HW2 7761   2.103   2.298   0.659
 2288SOL     OW 7762   2.487   5.190   4.941
 2288SOL    HW1 7763   2.397   5.229   4.920
 2288SOL    HW2 7764   2.501   5.190   5.040
 2289SOL     OW 7765   3.962   1.172   0.109
 2289SOL    HW1 7766   3.900   1.221   0.048
 2289SOL    HW2 7767   4.006   1.098   0.059
 2290SOL     OW 7768   3.398   3.878   3.713
 2290SOL    HW1 7769   3.375   3.869   3.617
 2290SOL    HW2 7770   3.470   3.946   3.724
 2291SOL     OW 7771   1.795   2.282   0.042
 2291SOL    HW1 7772   1.871   2.223   0.016
 2291SOL    HW2 7773   1.713   2.254   7.020
 2292SOL     OW 7774   4.975   1.814   2.954
 2292SOL    HW1 7775   4.887   1.840   2.913
 2292SOL    HW2 7776   5.045   1.810   2.882
 2293SOL     OW 7777   0.587   0.772   0.257
 2293SOL    HW1 7778   0.646   0.693   0.239
 2293SOL    HW2 7779   0.511   0.772   0.192
 2294SOL     OW 7780   0.164   0.728   5.669
 2294SOL    HW1 7781   0.111   0.752   5.750
 2294SOL    HW2 7782   0.150   0.631   5.648
 2295SOL     OW 7783   5.561   6.098   1.010
 2295SOL    HW1 7784   5.651   6.135   0.990
 2295SOL    HW2 7785   5.521   6.060   0.926
 2296SOL     OW 7786   3.740   5.369   4.286
 2296SOL    HW1 7787   3.827   5.380   4.335
 2296SOL    HW2 7788   3.671   5.332   4.348
 2297SOL     OW 7789   5.867   3.872   5.271
 2297SOL    HW1 7790   5.913   3.930   5.204
 2297SOL    HW2 7791   5.830   3.791   5.227
 2298SOL     OW 7792   2.894   3.477   4.895
 2298SOL    HW1 7793   2.965   3.425   4.849
 2298SOL    HW2 7794   2.812   3.420   4.904
 2299SOL     OW 7795   5.834   3.302   4.495
 2299SOL    HW1 7796   5.834   3.402   4.493
 2299SOL    HW2 7797   5.741   3.268   4.500
 2300SOL     OW 7798   5.180   0.113   2.281
 2300SOL    HW1 7799   5.200   0.068   2.194
 2300SOL    HW2 7800   5.163   0.043   2.351
 2301SOL     OW 7801   3.953   3.098   4.877
 2301SOL    HW1 7802   3.983   3.103   4.972
 2301SOL    HW2 7803   3.871   3.041   4.871
 2302SOL     OW 7804   6.303   3.353   6.194
 2302SOL    HW1 7805   6.393   3.384   6.163
 2302SOL    HW2 7806   6.306   3.332   6.291
 2303SOL     OW 7807   2.998   2.130   6.707
 2303SOL    HW1 7808   2.932   2.184   6.760
 2303SOL    HW2 7809   3.069   2.096   6.769
 2304SOL     OW 7810   6.492   6.844   2.558
 2304SOL    HW1 7811   6.394   6.850   2.575
 2304SOL    HW2 7812   6.509   6.773   2.490
 2305SOL     OW 7813   2.526   6.902   5.507
 2305SOL    HW1 7814   2.597   6.868   5.568
 2305SOL    HW2 7815   2.519   7.001   5.516
 2306SOL     OW 7816   2.018   4.487   4.605
 2306SOL    HW1 7817   2.027   4.575   4.558
 2306SOL    HW2 7818   2.070   4.489   4.691
 2307SOL     OW 7819   6.638   3.585   5.143
 2307SOL    HW1 7820   6.707   3.558   5.210
 2307SOL    HW2 7821   6.594   3.669   5.172
 2308SOL     OW 7822   0.708   5.849   2.176
 2308SOL    HW1 7823   0.800   5.887   2.185
 2308SOL    HW2 7824   0.681   5.806   2.262
 2309SOL     OW 7825   2.522   0.508   4.578
 2309SOL    HW1 7826   2.571   0.591   4.606
 2309SOL    HW2 7827   2.588   0.434   4.561
 2310SOL     OW 7828   4.471   6.865   0.946
 2310SOL    HW1 7829   4.467   6.812   1.031
 2310SOL    HW2 7830   4.380   6.868   0.904
 2311SOL     OW 7831   2.157   5.735   0.886
 2311SOL    HW1 7832   2.074   5.740   0.941
 2311SOL    HW2 7833   2.215   5.660   0.919
 2312SOL     OW 7834   3.647   4.863   2.467
 2312SOL    HW1 7835   3.583   4.899   2.399
 2312SOL    HW2 7836   3.700   4.789   2.427
 2313SOL     OW 7837   5.094   4.583   1.596
 2313SOL    HW1 7838   5.058   4.530   1.673
 2313SOL    HW2 7839   5.020   4.637   1.555
 2314SOL     OW 7840   2.856   4.780   4.249
 2314SOL    HW1 7841   2.800   4.697   4.256
 2314SOL    HW2 7842   2.856   4.812   4.154
 2315SOL     OW 7843   4.976   2.030   6.945
 2315SOL    HW1 7844   4.910   2.098   6.913
 2315SOL    HW2 7845   5.068   2.056   6.914
 2316SOL     OW 7846   4.959   3.223   1.986
 2316SOL    HW1 7847   4.925   3.263   2.071
 2316SOL    HW2 7848   4.898   3.149   1.957
 2317SOL     OW 7849   0.889   6.211   3.057
 2317SOL    HW1 7850   0.947   6.265   3.118
 2317SOL    HW2 7851   0.857   6.269   2.982
 2318SOL     OW 7852   0.457   1.508   4.269
 2318SOL    HW1 7853   0.549   1.505   4.307
 2318SOL    HW2 7854   0.420   1.601   4.276
 2319SOL     OW 7855   1.074   4.776   1.924
 2319SOL    HW1 7856   0.992   4.787   1.979
 2319SOL    HW2 7857   1.087   4.679   1.902
 2320SOL     OW 7858   6.709   4.781   4.441
 2320SOL    HW1 7859   6.633   4.841   4.415
 2320SOL    HW2 7860   6.706   4.764   4.539
 2321SOL     OW 7861   3.967   5.188   4.616
 2321SOL    HW1 7862   3.969   5.179   4.517
 2321SOL    HW2 7863   4.007   5.276   4.643
 2322SOL     OW 7864   3.116   0.637   5.187
 2322SOL    HW1 7865   3.174   0.719   5.188
 2322SOL    HW2 7866   3.079   0.622   5.278
 2323SOL     OW 7867   4.919   3.624   2.156
 2323SOL    HW1 7868   4.945   3.569   2.076
 2323SOL    HW2 7869   4.903   3.564   2.234
 2324SOL     OW 7870   1.045   4.737   3.276
 2324SOL    HW1 7871   1.090   4.655   3.241
 2324SOL    HW2 7872   1.013   4.792   3.199
 2325SOL     OW 7873   6.964   2.406   0.540
 2325SOL    HW1 7874   6.971   2.505   0.527
 2325SOL    HW2 7875   0.006   2.376   0.607
 2326SOL     OW 7876   0.956   4.248   0.201
 2326SOL    HW1 7877   0.868   4.203   0.221
 2326SOL    HW2 7878   1.009   4.190   0.139
 2327SOL     OW 7879   5.193   1.467   3.906
 2327SOL    HW1 7880   5.269   1.518   3.945
 2327SOL    HW2 7881   5.166   1.508   3.819
 2328SOL     OW 7882   6.460   5.593   3.466
 2328SOL    HW1 7883   6.542   5.647   3.452
 2328SOL    HW2 7884   6.409   5.587   3.381
 2329SOL     OW 7885   0.404   5.646   2.909
 2329SOL    HW1 7886   0.411   5.728   2.967
 2329SOL    HW2 7887   0.356   5.574   2.959
 2330SOL     OW 7888   0.635   4.323   1.472
 2330SOL    HW1 7889   0.558   4.387   1.474
 2330SOL    HW2 7890   0.610   4.240   1.521
 2331SOL     OW 7891   1.420   4.172   6.224
 2331SOL    HW1 7892   1.384   4.162   6.131
 2331SOL    HW2 7893   1.417   4.083   6.270
 2332SOL     OW 7894   5.230   2.672   5.633
 2332SOL    HW1 7895   5.230   2.584   5.585
 2332SOL    HW2 7896   5.157   2.730   5.597
 2333SOL     OW 7897   3.130   4.944   4.009
 2333SOL    HW1 7898   3.114   4.985   3.919
 2333SOL    HW2 7899   3.066   4.869   4.024
 2334SOL     OW 7900   2.514   0.174   6.674
 2334SOL    HW1 7901   2.564   0.125   6.746
 2334SOL    HW2 7902   2.575   0.192   6.597
 2335SOL     OW 7903   4.513   4.792   4.747
 2335SOL    HW1 7904   4.438   4.767   4.685
 2335SOL    HW2 7905   4.599   4.795   4.696
 2336SOL     OW 7906   4.437   2.924   5.743
 2336SOL    HW1 7907   4.502   2.889   5.811
 2336SOL    HW2 7908   4.366   2.977   5.789
 2337SOL     OW 7909   6.211   0.392   4.531
 2337SOL    HW1 7910   6.246   0.337   4.456
 2337SOL    HW2 7911   6.284   0.410   4.597
 2338SOL     OW 7912   1.263   6.915   6.740
 2338SOL    HW1 7913   1.251   6.879   6.832
 2338SOL    HW2 7914   1.197   6.872   6.678
 2339SOL     OW 7915   4.552   4.945   7.004
 2339SOL    HW1 7916   4.616   4.931   0.053
 2339SOL    HW2 7917   4.462   4.969   0.014
 2340SOL     OW 7918   4.003   4.809   4.115
 2340SOL    HW1 7919   3.945   4.861   4.178
 2340SOL    HW2 7920   4.082   4.774   4.164
 2341SOL     OW 7921   5.873   4.979   6.522
 2341SOL    HW1 7922   5.797   5.030   6.483
 2341SOL    HW2 7923   5.910   5.028   6.601
 2342SOL     OW 7924   6.807   0.176   4.928
 2342SOL    HW1 7925   6.742   0.247   4.900
 2342SOL    HW2 7926   6.768   0.123   5.002
 2343SOL     OW 7927   0.624   0.279   0.489
 2343SOL    HW1 7928   0.670   0.215   0.551
 2343SOL    HW2 7929   0.667   0.369   0.496
 2344SOL     OW 7930   2.713   1.438   2.774
 2344SOL    HW1 7931   2.658   1.431   2.690
 2344SOL    HW2 7932   2.653   1.456   2.851
 2345SOL     OW 7933   1.384   1.753   2.369
 2345SOL    HW1 7934   1.311   1.687   2.350
 2345SOL    HW2 7935   1.469   1.703   2.390
 2346SOL     OW 7936   4.850   3.218   5.301
 2346SOL    HW1 7937   4.791   3.145   5.335
 2346SOL    HW2 7938   4.809   3.307   5.321
 2347SOL     OW 7939   1.699   3.410   1.016
 2347SOL    HW1 7940   1.789   3.418   0.973
 2347SOL    HW2 7941   1.698   3.330   1.076
 2348SOL     OW 7942   2.928   6.830   1.620
 2348SOL    HW1 7943   2.890   6.921   1.631
 2348SOL    HW2 7944   2.978   6.804   1.702
 2349SOL     OW 7945   4.593   4.325   6.393
 2349SOL    HW1 7946   4.623   4.233   6.371
 2349SOL    HW2 7947   4.659   4.391   6.358
 2350SOL     OW 7948   2.409   5.828   5.233
 2350SOL    HW1 7949   2.341   5.890   5.193
 2350SOL    HW2 7950   2.496   5.839   5.186
 2351SOL     OW 7951   1.501   5.402   3.226
 2351SOL    HW1 7952   1.481   5.468   3.299
 2351SOL    HW2 7953   1.596   5.415   3.196
 2352SOL     OW 7954   5.815   4.397   0.681
 2352SOL    HW1 7955   5.905   4.366   0.651
 2352SOL    HW2 7956   5.825   4.480   0.736
 2353SOL     OW 7957   2.375   3.673   6.750
 2353SOL    HW1 7958   2.316   3.693   6.828
 2353SOL    HW2 7959   2.407   3.578   6.757
 2354SOL     OW 7960   4.014   1.911   2.229
 2354SOL    HW1 7961   4.098   1.930   2.280
 2354SOL    HW2 7962   3.992   1.991   2.172
 2355SOL     OW 7963   0.391   1.659   1.875
 2355SOL    HW1 7964   0.335   1.594   1.926
 2355SOL    HW2 7965   0.405   1.625   1.782
 2356SOL     OW 7966   2.955   5.258   3.811
 2356SOL    HW1 7967   2.972   5.275   3.908
 2356SOL    HW2 7968   2.989   5.166   3.788
 2357SOL     OW 7969   0.424   4.701   0.611
 2357SOL    HW1 7970   0.511   4.743   0.587
 2357SOL    HW2 7971   0.356   4.772   0.630
 2358SOL     OW 7972   3.143   1.481   5.014
 2358SOL    HW1 7973   3.121   1.560   4.957
 2358SOL    HW2 7974   3.074   1.472   5.086
 2359SOL     OW 7975   2.070   1.823   5.724
 2359SOL    HW1 7976   2.038   1.729   5.732
 2359SOL    HW2 7977   2.086   1.845   5.628
 2360SOL     OW 7978   2.998   5.508   0.687
 2360SOL    HW1 7979   2.973   5.567   0.610
 2360SOL    HW2 7980   3.008   5.564   0.770
 2361SOL     OW 7981   3.776   5.821   1.283
 2361SOL    HW1 7982   3.775   5.726   1.252
 2361SOL    HW2 7983   3.724   5.877   1.218
 2362SOL     OW 7984   3.408   4.915   4.029
 2362SOL    HW1 7985   3.408   4.940   4.126
 2362SOL    HW2 7986   3.318   4.934   3.990
 2363SOL     OW 7987   1.915   4.026   1.039
 2363SOL    HW1 7988   1.832   4.081   1.035
 2363SOL    HW2 7989   1.893   3.930   1.024
 2364SOL     OW 7990   4.272   1.953   2.325
 2364SOL    HW1 7991   4.312   2.044   2.341
 2364SOL    HW2 7992   4.319   1.886   2.382
 2365SOL     OW 7993   4.949   4.310   2.704
 2365SOL    HW1 7994   4.889   4.389   2.694
 2365SOL    HW2 7995   4.980   4.304   2.799
 2366SOL     OW 7996   3.167   5.237   5.696
 2366SOL    HW1 7997   3.091   5.182   5.662
 2366SOL    HW2 7998   3.226   5.263   5.620
 2367SOL     OW 7999   5.922   5.159   6.041
 2367SOL    HW1 8000   5.972   5.096   6.100
 2367SOL    HW2 8001   5.948   5.253   6.063
 2368SOL     OW 8002   5.298   0.916   5.638
 2368SOL    HW1 8003   5.277   0.939   5.543
 2368SOL    HW2 8004   5.370   0.847   5.640
 2369SOL     OW 8005   3.813   2.103   4.155
 2369SOL    HW1 8006   3.910   2.128   4.155
 2369SOL    HW2 8007   3.769   2.137   4.238
 2370SOL     OW 8008   5.206   1.780   1.799
 2370SOL    HW1 8009   5.148   1.712   1.842
 2370SOL    HW2 8010   5.168   1.871   1.815
 2371SOL     OW 8011   1.250   6.309   1.590
 2371SOL    HW1 8012   1.313   6.330   1.664
 2371SOL    HW2 8013   1.156   6.319   1.622
 2372SOL     OW 8014   6.910   6.953   6.383
 2372SOL    HW1 8015   6.988   7.006   6.351
 2372SOL    HW2 8016   6.826   7.008   6.376
 2373SOL     OW 8017   6.079   4.580   5.911
 2373SOL    HW1 8018   6.121   4.590   6.001
 2373SOL    HW2 8019   5.981   4.566   5.921
 2374SOL     OW 8020   5.981   6.552   2.475
 2374SOL    HW1 8021   5.956   6.590   2.564
 2374SOL    HW2 8022   6.062   6.599   2.440
 2375SOL     OW 8023   2.305   0.645   4.479
 2375SOL    HW1 8024   2.352   0.719   4.431
 2375SOL    HW2 8025   2.372   0.589   4.528
 2376SOL     OW 8026   5.266   1.946   3.060
 2376SOL    HW1 8027   5.258   2.043   3.085
 2376SOL    HW2 8028   5.227   1.890   3.133
 2377SOL     OW 8029   4.434   3.503   5.675
 2377SOL    HW1 8030   4.495   3.448   5.618
 2377SOL    HW2 8031   4.457   3.491   5.771
 2378SOL     OW 8032   0.639   1.778   0.198
 2378SOL    HW1 8033   0.684   1.702   0.153
 2378SOL    HW2 8034   0.674   1.864   0.161
 2379SOL     OW 8035   7.015   5.169   2.448
 2379SOL    HW1 8036   6.962   5.254   2.453
 2379SOL    HW2 8037   0.029   5.161   2.357
 2380SOL     OW 8038   4.650   5.343   0.097
 2380SOL    HW1 8039   4.738   5.296   0.095
 2380SOL    HW2 8040   4.600   5.318   0.180
 2381SOL     OW 8041   2.051   3.670   3.760
 2381SOL    HW1 8042   2.088   3.636   3.673
 2381SOL    HW2 8043   2.032   3.767   3.752
 2382SOL     OW 8044   0.101   5.163   3.047
 2382SOL    HW1 8045   0.018   5.214   3.026
 2382SOL    HW2 8046   0.117   5.165   3.146
 2383SOL     OW 8047   5.213   4.155   5.826
 2383SOL    HW1 8048   5.173   4.242   5.856
 2383SOL    HW2 8049   5.209   4.089   5.901
 2384SOL     OW 8050   0.530   1.968   2.658
 2384SOL    HW1 8051   0.439   2.009   2.672
 2384SOL    HW2 8052   0.535   1.928   2.566
 2385SOL     OW 8053   0.020   1.247   0.583
 2385SOL    HW1 8054   6.957   1.293   0.579
 2385SOL    HW2 8055   0.007   1.148   0.572
 2386SOL     OW 8056   5.942   6.036   4.743
 2386SOL    HW1 8057   5.944   6.028   4.843
 2386SOL    HW2 8058   6.008   5.973   4.703
 2387SOL     OW 8059   1.164   1.021   4.114
 2387SOL    HW1 8060   1.264   1.030   4.108
 2387SOL    HW2 8061   1.141   0.972   4.197
 2388SOL     OW 8062   0.563   3.351   5.504
 2388SOL    HW1 8063   0.514   3.363   5.591
 2388SOL    HW2 8064   0.517   3.281   5.450
 2389SOL     OW 8065   4.547   5.591   2.965
 2389SOL    HW1 8066   4.618   5.578   3.033
 2389SOL    HW2 8067   4.531   5.505   2.916
 2390SOL     OW 8068   4.645   2.614   6.806
 2390SOL    HW1 8069   4.702   2.547   6.854
 2390SOL    HW2 8070   4.630   2.694   6.864
 2391SOL     OW 8071   3.618   4.515   6.714
 2391SOL    HW1 8072   3.691   4.449   6.729
 2391SOL    HW2 8073   3.531   4.466   6.705
 2392SOL     OW 8074   4.232   4.846   5.605
 2392SOL    HW1 8075   4.272   4.764   5.564
 2392SOL    HW2 8076   4.255   4.925   5.548
 2393SOL     OW 8077   4.401   4.375   1.013
 2393SOL    HW1 8078   4.446   4.463   1.025
 2393SOL    HW2 8079   4.302   4.387   1.018
 2394SOL     OW 8080   0.029   1.557   3.746
 2394SOL    HW1 8081   6.997   1.488   3.788
 2394SOL    HW2 8082   0.021   1.643   3.797
 2395SOL     OW 8083   1.014   3.105   3.931
 2395SOL    HW1 8084   1.049   3.012   3.936
 2395SOL    HW2 8085   1.090   3.169   3.922
 2396SOL     OW 8086   6.832   0.193   6.787
 2396SOL    HW1 8087   6.822   0.119   6.721
 2396SOL    HW2 8088   6.917   0.180   6.839
 2397SOL     OW 8089   1.606   4.049   5.304
 2397SOL    HW1 8090   1.569   4.038   5.396
 2397SOL    HW2 8091   1.657   4.135   5.299
 2398SOL     OW 8092   4.210   6.771   3.587
 2398SOL    HW1 8093   4.232   6.739   3.495
 2398SOL    HW2 8094   4.287   6.824   3.623
 2399SOL     OW 8095   3.505   2.116   3.136
 2399SOL    HW1 8096   3.586   2.120   3.195
 2399SOL    HW2 8097   3.530   2.076   3.048
 2400SOL     OW 8098   1.749   3.699   0.604
 2400SOL    HW1 8099   1.813   3.705   0.527
 2400SOL    HW2 8100   1.801   3.685   0.689
 2401SOL     OW 8101   1.755   6.484   6.583
 2401SOL    HW1 8102   1.662   6.512   6.607
 2401SOL    HW2 8103   1.753   6.430   6.499
 2402SOL     OW 8104   0.975   3.750   2.162
 2402SOL    HW1 8105   0.895   3.697   2.190
 2402SOL    HW2 8106   0.945   3.829   2.108
 2403SOL     OW 8107   3.234   3.683   5.119
 2403SOL    HW1 8108   3.143   3.656   5.151
 2403SOL    HW2 8109   3.247   3.780   5.137
 2404SOL     OW 8110   6.028   1.441   1.294
 2404SOL    HW1 8111   5.971   1.366   1.326
 2404SOL    HW2 8112   6.089   1.408   1.221
 2405SOL     OW 8113   1.855   3.134   0.638
 2405SOL    HW1 8114   1.901   3.213   0.597
 2405SOL    HW2 8115   1.756   3.145   0.629
 2406SOL     OW 8116   3.545   5.515   4.755
 2406SOL    HW1 8117   3.514   5.548   4.844
 2406SOL    HW2 8118   3.502   5.426   4.736
 2407SOL     OW 8119   2.914   1.343   3.261
 2407SOL    HW1 8120   3.000   1.381   3.295
 2407SOL    HW2 8121   2.933   1.268   3.198
 2408SOL     OW 8122   2.549   0.145   5.466
 2408SOL    HW1 8123   2.514   0.237   5.449
 2408SOL    HW2 8124   2.647   0.149   5.485
 2409SOL     OW 8125   0.957   3.493   0.408
 2409SOL    HW1 8126   0.935   3.512   0.503
 2409SOL    HW2 8127   1.045   3.445   0.403
 2410SOL     OW 8128   0.150   3.230   4.462
 2410SOL    HW1 8129   0.116   3.303   4.402
 2410SOL    HW2 8130   0.073   3.172   4.491
 2411SOL     OW 8131   2.635   1.825   6.806
 2411SOL    HW1 8132   2.543   1.847   6.774
 2411SOL    HW2 8133   2.690   1.789   6.730
 2412SOL     OW 8134   3.146   2.077   5.788
 2412SOL    HW1 8135   3.142   2.146   5.860
 2412SOL    HW2 8136   3.225   2.017   5.804
 2413SOL     OW 8137   0.312   3.226   0.066
 2413SOL    HW1 8138   0.318   3.178   0.154
 2413SOL    HW2 8139   0.398   3.217   0.017
 2414SOL     OW 8140   6.775   1.144   5.098
 2414SOL    HW1 8141   6.841   1.171   5.169
 2414SOL    HW2 8142   6.752   1.047   5.110
 2415SOL     OW 8143   3.121   4.912   6.228
 2415SOL    HW1 8144   3.189   4.962   6.174
 2415SOL    HW2 8145   3.130   4.938   6.324
 2416SOL     OW 8146   0.020   2.142   2.787
 2416SOL    HW1 8147   7.024   2.235   2.815
 2416SOL    HW2 8148   6.962   2.092   2.766
 2417SOL     OW 8149   2.921   2.560   1.402
 2417SOL    HW1 8150   2.887   2.504   1.327
 2417SOL    HW2 8151   2.932   2.503   1.484
 2418SOL     OW 8152   4.913   3.631   6.810
 2418SOL    HW1 8153   4.980   3.570   6.768
 2418SOL    HW2 8154   4.944   3.658   6.901
 2419SOL     OW 8155   2.731   0.775   3.289
 2419SOL    HW1 8156   2.805   0.739   3.232
 2419SOL    HW2 8157   2.769   0.838   3.357
 2420SOL     OW 8158   1.065   3.840   2.719
 2420SOL    HW1 8159   0.980   3.789   2.708
 2420SOL    HW2 8160   1.113   3.808   2.801
 2421SOL     OW 8161   3.348   6.659   3.553
 2421SOL    HW1 8162   3.358   6.586   3.621
 2421SOL    HW2 8163   3.252   6.687   3.548
 2422SOL     OW 8164   4.363   4.751   0.763
 2422SOL    HW1 8165   4.317   4.683   0.705
 2422SOL    HW2 8166   4.438   4.792   0.712
 2423SOL     OW 8167   2.282   5.322   3.434
 2423SOL    HW1 8168   2.333   5.291   3.515
 2423SOL    HW2 8169   2.216   5.253   3.407
 2424SOL     OW 8170   4.844   6.760   6.340
 2424SOL    HW1 8171   4.840   6.757   6.240
 2424SOL    HW2 8172   4.790   6.836   6.374
 2425SOL     OW 8173   4.428   5.854   5.144
 2425SOL    HW1 8174   4.378   5.774   5.112
 2425SOL    HW2 8175   4.495   5.880   5.074
 2426SOL     OW 8176   2.379   2.636   5.182
 2426SOL    HW1 8177   2.466   2.597   5.152
 2426SOL    HW2 8178   2.332   2.677   5.103
 2427SOL     OW 8179   4.885   0.995   0.631
 2427SOL    HW1 8180   4.980   1.021   0.647
 2427SOL    HW2 8181   4.826   1.045   0.694
 2428SOL     OW 8182   1.613   1.567   2.746
 2428SOL    HW1 8183   1.522   1.550   2.784
 2428SOL    HW2 8184   1.619   1.661   2.713
 2429SOL     OW 8185   6.504   5.354   1.404
 2429SOL    HW1 8186   6.602   5.348   1.385
 2429SOL    HW2 8187   6.456   5.385   1.323
 2430SOL     OW 8188   6.304   0.955   6.451
 2430SOL    HW1 8189   6.241   0.931   6.377
 2430SOL    HW2 8190   6.380   1.008   6.414
 2431SOL     OW 8191   0.828   3.186   1.722
 2431SOL    HW1 8192   0.817   3.087   1.726
 2431SOL    HW2 8193   0.914   3.212   1.765
 2432SOL     OW 8194   2.326   5.170   1.873
 2432SOL    HW1 8195   2.244   5.166   1.815
 2432SOL    HW2 8196   2.377   5.253   1.852
 2433SOL     OW 8197   7.001   4.384   5.466
 2433SOL    HW1 8198   6.993   4.297   5.515
 2433SOL    HW2 8199   0.017   4.368   5.378
 2434SOL     OW 8200   4.575   0.840   2.906
 2434SOL    HW1 8201   4.603   0.875   2.816
 2434SOL    HW2 8202   4.615   0.750   2.921
 2435SOL     OW 8203   5.949   6.798   0.089
 2435SOL    HW1 8204   5.913   6.889   0.070
 2435SOL    HW2 8205   5.873   6.734   0.102
 2436SOL     OW 8206   0.220   3.015   0.812
 2436SOL    HW1 8207   0.300   3.066   0.781
 2436SOL    HW2 8208   0.137   3.066   0.790
 2437SOL     OW 8209   6.844   3.782   1.670
 2437SOL    HW1 8210   6.778   3.759   1.598
 2437SOL    HW2 8211   6.848   3.881   1.680
 2438SOL     OW 8212   3.574   1.743   4.410
 2438SOL    HW1 8213   3.526   1.831   4.408
 2438SOL    HW2 8214   3.514   1.671   4.373
 2439SOL     OW 8215   1.647   5.329   1.160
 2439SOL    HW1 8216   1.557   5.344   1.118
 2439SOL    HW2 8217   1.636   5.269   1.239
 2440SOL     OW 8218   6.471   0.841   5.640
 2440SOL    HW1 8219   6.535   0.871   5.570
 2440SOL    HW2 8220   6.492   0.885   5.727
 2441SOL     OW 8221   5.847   0.723   0.921
 2441SOL    HW1 8222   5.857   0.791   0.993
 2441SOL    HW2 8223   5.755   0.683   0.925
 2442SOL     OW 8224   5.484   2.923   1.662
 2442SOL    HW1 8225   5.485   3.017   1.628
 2442SOL    HW2 8226   5.426   2.866   1.604
 2443SOL     OW 8227   0.446   3.525   1.361
 2443SOL    HW1 8228   0.420   3.605   1.308
 2443SOL    HW2 8229   0.443   3.444   1.302
 2444SOL     OW 8230   3.691   5.148   2.225
 2444SOL    HW1 8231   3.708   5.062   2.178
 2444SOL    HW2 8232   3.759   5.216   2.196
 2445SOL     OW 8233   0.411   1.635   1.135
 2445SOL    HW1 8234   0.424   1.539   1.158
 2445SOL    HW2 8235   0.472   1.661   1.060
 2446SOL     OW 8236   1.017   5.627   1.872
 2446SOL    HW1 8237   0.967   5.626   1.958
 2446SOL    HW2 8238   1.051   5.719   1.854
 2447SOL     OW 8239   2.391   0.116   0.354
 2447SOL    HW1 8240   2.377   0.072   0.265
 2447SOL    HW2 8241   2.461   0.065   0.405
 2448SOL     OW 8242   5.651   1.027   4.782
 2448SOL    HW1 8243   5.678   0.960   4.851
 2448SOL    HW2 8244   5.629   0.979   4.696
 2449SOL     OW 8245   1.525   4.249   1.702
 2449SOL    HW1 8246   1.598   4.289   1.757
 2449SOL    HW2 8247   1.531   4.283   1.608
 2450SOL     OW 8248   1.237   6.380   4.736
 2450SOL    HW1 8249   1.198   6.385   4.644
 2450SOL    HW2 8250   1.164   6.363   4.802
 2451SOL     OW 8251   1.408   6.397   5.581
 2451SOL    HW1 8252   1.493   6.449   5.595
 2451SOL    HW2 8253   1.362   6.429   5.498
 2452SOL     OW 8254   2.598   1.829   3.521
 2452SOL    HW1 8255   2.570   1.787   3.608
 2452SOL    HW2 8256   2.559   1.776   3.445
 2453SOL     OW 8257   1.209   1.520   5.931
 2453SOL    HW1 8258   1.241   1.586   5.862
 2453SOL    HW2 8259   1.286   1.464   5.960
 2454SOL     OW 8260   3.393   6.060   1.119
 2454SOL    HW1 8261   3.334   5.997   1.069
 2454SOL    HW2 8262   3.344   6.094   1.200
 2455SOL     OW 8263   4.184   2.091   1.014
 2455SOL    HW1 8264   4.101   2.145   1.005
 2455SOL    HW2 8265   4.174   2.026   1.090
 2456SOL     OW 8266   0.353   3.620   6.064
 2456SOL    HW1 8267   0.452   3.634   6.061
 2456SOL    HW2 8268   0.333   3.523   6.075
 2457SOL     OW 8269   4.060   2.250   5.478
 2457SOL    HW1 8270   4.112   2.246   5.564
 2457SOL    HW2 8271   3.993   2.176   5.477
 2458SOL     OW 8272   0.382   6.808   3.116
 2458SOL    HW1 8273   0.401   6.712   3.133
 2458SOL    HW2 8274   0.453   6.864   3.160
 2459SOL     OW 8275   2.003   6.866   0.456
 2459SOL    HW1 8276   1.961   6.957   0.451
 2459SOL    HW2 8277   2.034   6.839   0.365
 2460SOL     OW 8278   0.724   1.098   4.845
 2460SOL    HW1 8279   0.769   1.038   4.910
 2460SOL    HW2 8280   0.660   1.158   4.894
 2461SOL     OW 8281   4.535   1.286   3.411
 2461SOL    HW1 8282   4.545   1.278   3.510
 2461SOL    HW2 8283   4.456   1.233   3.381
 2462SOL     OW 8284   0.398   5.330   0.313
 2462SOL    HW1 8285   0.336   5.256   0.340
 2462SOL    HW2 8286   0.390   5.405   0.379
 2463SOL     OW 8287   6.321   0.480   0.138
 2463SOL    HW1 8288   6.245   0.415   0.140
 2463SOL    HW2 8289   6.380   0.463   0.217
 2464SOL     OW 8290   0.510   2.276   4.426
 2464SOL    HW1 8291   0.522   2.267   4.327
 2464SOL    HW2 8292   0.553   2.360   4.457
 2465SOL     OW 8293   0.047   6.699   5.888
 2465SOL    HW1 8294   0.055   6.611   5.842
 2465SOL    HW2 8295   0.125   6.712   5.949
 2466SOL     OW 8296   0.957   1.784   1.577
 2466SOL    HW1 8297   1.035   1.761   1.636
 2466SOL    HW2 8298   0.889   1.833   1.631
 2467SOL     OW 8299   6.218   2.627   5.325
 2467SOL    HW1 8300   6.219   2.528   5.309
 2467SOL    HW2 8301   6.248   2.674   5.242
 2468SOL     OW 8302   3.577   6.894   5.391
 2468SOL    HW1 8303   3.544   6.802   5.370
 2468SOL    HW2 8304   3.539   6.959   5.326
 2469SOL     OW 8305   3.561   1.919   5.575
 2469SOL    HW1 8306   3.499   1.922   5.654
 2469SOL    HW2 8307   3.511   1.886   5.495
 2470SOL     OW 8308   2.442   5.148   6.278
 2470SOL    HW1 8309   2.388   5.095   6.213
 2470SOL    HW2 8310   2.436   5.246   6.254
 2471SOL     OW 8311   2.824   5.327   1.820
 2471SOL    HW1 8312   2.908   5.355   1.867
 2471SOL    HW2 8313   2.848   5.273   1.740
 2472SOL     OW 8314   4.854   1.351   3.817
 2472SOL    HW1 8315   4.887   1.302   3.897
 2472SOL    HW2 8316   4.922   1.419   3.788
 2473SOL     OW 8317   0.501   4.311   3.798
 2473SOL    HW1 8318   0.568   4.257   3.746
 2473SOL    HW2 8319   0.410   4.295   3.760
 2474SOL     OW 8320   1.103   5.872   1.864
 2474SOL    HW1 8321   1.071   5.919   1.946
 2474SOL    HW2 8322   1.185   5.917   1.829
 2475SOL     OW 8323   4.582   1.057   0.184
 2475SOL    HW1 8324   4.526   1.104   0.252
 2475SOL    HW2 8325   4.609   0.967   0.219
 2476SOL     OW 8326   4.938   0.560   0.515
 2476SOL    HW1 8327   5.005   0.634   0.521
 2476SOL    HW2 8328   4.848   0.598   0.496
 2477SOL     OW 8329   3.965   0.307   3.185
 2477SOL    HW1 8330   3.895   0.269   3.246
 2477SOL    HW2 8331   3.925   0.324   3.095
 2478SOL     OW 8332   5.122   0.080   4.896
 2478SOL    HW1 8333   5.081   0.127   4.975
 2478SOL    HW2 8334   5.069   0.102   4.814
 2479SOL     OW 8335   5.996   3.368   0.699
 2479SOL    HW1 8336   5.927   3.353   0.770
 2479SOL    HW2 8337   5.954   3.357   0.609
 2480SOL     OW 8338   3.479   2.304   1.436
 2480SOL    HW1 8339   3.577   2.302   1.453
 2480SOL    HW2 8340   3.433   2.355   1.510
 2481SOL     OW 8341   3.080   0.136   1.429
 2481SOL    HW1 8342   3.175   0.107   1.443
 2481SOL    HW2 8343   3.034   0.142   1.518
 2482SOL     OW 8344   6.211   3.281   6.971
 2482SOL    HW1 8345   6.147   3.323   6.907
 2482SOL    HW2 8346   6.293   3.338   6.979
 2483SOL     OW 8347   1.364   2.568   0.990
 2483SOL    HW1 8348   1.325   2.620   0.914
 2483SOL    HW2 8349   1.290   2.542   1.053
 2484SOL     OW 8350   4.384   1.097   0.881
 2484SOL    HW1 8351   4.479   1.075   0.904
 2484SOL    HW2 8352   4.379   1.191   0.845
 2485SOL     OW 8353   0.176   2.120   6.473
 2485SOL    HW1 8354   0.209   2.127   6.379
 2485SOL    HW2 8355   0.087   2.163   6.481
 2486SOL     OW 8356   6.765   5.239   4.471
 2486SOL    HW1 8357   6.849   5.292   4.463
 2486SOL    HW2 8358   6.738   5.205   4.380
 2487SOL     OW 8359   4.774   6.401   6.667
 2487SOL    HW1 8360   4.788   6.462   6.745
 2487SOL    HW2 8361   4.692   6.346   6.681
 2488SOL     OW 8362   5.961   4.169   0.862
 2488SOL    HW1 8363   6.030   4.141   0.928
 2488SOL    HW2 8364   5.896   4.094   0.848
 2489SOL     OW 8365   6.503   5.765   4.637
 2489SOL    HW1 8366   6.584   5.745   4.693
 2489SOL    HW2 8367   6.476   5.860   4.652
 2490SOL     OW 8368   2.739   5.741   3.297
 2490SOL    HW1 8369   2.666   5.745   3.365
 2490SOL    HW2 8370   2.741   5.651   3.255
 2491SOL     OW 8371   3.790   4.723   1.544
 2491SOL    HW1 8372   3.766   4.682   1.456
 2491SOL    HW2 8373   3.885   4.756   1.541
 2492SOL     OW 8374   6.776   4.983   1.510
 2492SOL    HW1 8375   6.726   4.920   1.570
 2492SOL    HW2 8376   6.874   4.977   1.530
 2493SOL     OW 8377   5.262   6.939   0.980
 2493SOL    HW1 8378   5.223   0.004   0.971
 2493SOL    HW2 8379   5.262   6.894   0.891
 2494SOL     OW 8380   6.233   3.799   2.059
 2494SOL    HW1 8381   6.161   3.767   2.121
 2494SOL    HW2 8382   6.220   3.896   2.040
 2495SOL     OW 8383   0.333   4.708   2.685
 2495SOL    HW1 8384   0.234   4.714   2.692
 2495SOL    HW2 8385   0.362   4.614   2.701
 2496SOL     OW 8386   6.044   4.517   6.324
 2496SOL    HW1 8387   6.095   4.534   6.240
 2496SOL    HW2 8388   6.033   4.603   6.374
 2497SOL     OW 8389   0.258   0.280   2.406
 2497SOL    HW1 8390   0.172   0.318   2.373
 2497SOL    HW2 8391   0.333   0.313   2.349
 2498SOL     OW 8392   2.603   4.175   5.733
 2498SOL    HW1 8393   2.659   4.154   5.654
 2498SOL    HW2 8394   2.572   4.270   5.728
 2499SOL     OW 8395   6.595   3.519   1.947
 2499SOL    HW1 8396   6.540   3.586   1.996
 2499SOL    HW2 8397   6.677   3.497   2.001
 2500SOL     OW 8398   3.326   3.683   0.388
 2500SOL    HW1 8399   3.370   3.713   0.303
 2500SOL    HW2 8400   3.259   3.611   0.368
 2501SOL     OW 8401   5.753   5.449   6.696
 2501SOL    HW1 8402   5.667   5.435   6.646
 2501SOL    HW2 8403   5.823   5.481   6.633
 2502SOL     OW 8404   2.658   5.522   4.457
 2502SOL    HW1 8405   2.730   5.488   4.517
 2502SOL    HW2 8406   2.573   5.529   4.509
 2503SOL     OW 8407   2.745   6.869   5.662
 2503SOL    HW1 8408   2.843   6.865   5.640
 2503SOL    HW2 8409   2.734   6.904   5.755
 2504SOL     OW 8410   3.446   6.921   3.699
 2504SOL    HW1 8411   3.370   6.857   3.711
 2504SOL    HW2 8412   3.490   6.904   3.610
 2505SOL     OW 8413   0.327   5.015   3.694
 2505SOL    HW1 8414   0.283   5.080   3.756
 2505SOL    HW2 8415   0.266   4.996   3.617
 2506SOL     OW 8416   5.035   5.497   5.953
 2506SOL    HW1 8417   4.947   5.509   5.998
 2506SOL    HW2 8418   5.030   5.535   5.861
 2507SOL     OW 8419   6.592   3.290   1.298
 2507SOL    HW1 8420   6.606   3.389   1.299
 2507SOL    HW2 8421   6.506   3.267   1.346
 2508SOL     OW 8422   4.997   1.685   4.743
 2508SOL    HW1 8423   5.023   1.722   4.832
 2508SOL    HW2 8424   5.068   1.623   4.711
 2509SOL     OW 8425   6.910   3.968   5.820
 2509SOL    HW1 8426   6.826   4.019   5.801
 2509SOL    HW2 8427   6.959   4.011   5.895
 2510SOL     OW 8428   3.319   4.094   1.988
 2510SOL    HW1 8429   3.409   4.063   2.018
 2510SOL    HW2 8430   3.317   4.100   1.888
 2511SOL     OW 8431   1.728   0.596   4.679
 2511SOL    HW1 8432   1.667   0.607   4.757
 2511SOL    HW2 8433   1.818   0.633   4.701
 2512SOL     OW 8434   3.430   4.949   4.291
 2512SOL    HW1 8435   3.466   4.889   4.363
 2512SOL    HW2 8436   3.360   5.009   4.329
 2513SOL     OW 8437   2.484   5.615   5.651
 2513SOL    HW1 8438   2.523   5.564   5.727
 2513SOL    HW2 8439   2.400   5.661   5.681
 2514SOL     OW 8440   1.438   2.226   2.785
 2514SOL    HW1 8441   1.532   2.210   2.815
 2514SOL    HW2 8442   1.437   2.243   2.686
 2515SOL     OW 8443   1.362   1.407   1.208
 2515SOL    HW1 8444   1.293   1.420   1.137
 2515SOL    HW2 8445   1.443   1.364   1.169
 2516SOL     OW 8446   6.163   1.996   4.075
 2516SOL    HW1 8447   6.132   2.077   4.126
 2516SOL    HW2 8448   6.121   1.996   3.984
 2517SOL     OW 8449   1.671   1.516   4.179
 2517SOL    HW1 8450   1.662   1.615   4.183
 2517SOL    HW2 8451   1.745   1.492   4.117
 2518SOL     OW 8452   2.864   5.174   0.978
 2518SOL    HW1 8453   2.949   5.122   0.982
 2518SOL    HW2 8454   2.885   5.269   0.952
 2519SOL     OW 8455   1.097   1.343   0.808
 2519SOL    HW1 8456   1.096   1.409   0.884
 2519SOL    HW2 8457   1.058   1.256   0.839
 2520SOL     OW 8458   2.548   2.117   0.366
 2520SOL    HW1 8459   2.562   2.192   0.431
 2520SOL    HW2 8460   2.612   2.127   0.290
 2521SOL     OW 8461   4.869   1.450   5.465
 2521SOL    HW1 8462   4.801   1.433   5.393
 2521SOL    HW2 8463   4.843   1.400   5.548
 2522SOL     OW 8464   0.954   2.613   6.205
 2522SOL    HW1 8465   0.990   2.520   6.197
 2522SOL    HW2 8466   0.943   2.653   6.114
 2523SOL     OW 8467   2.288   4.990   6.821
 2523SOL    HW1 8468   2.293   4.893   6.796
 2523SOL    HW2 8469   2.199   5.027   6.793
 2524SOL     OW 8470   1.580   0.088   4.046
 2524SOL    HW1 8471   1.664   0.050   4.083
 2524SOL    HW2 8472   1.507   0.020   4.052
 2525SOL     OW 8473   6.600   2.556   4.941
 2525SOL    HW1 8474   6.629   2.651   4.931
 2525SOL    HW2 8475   6.534   2.533   4.870
 2526SOL     OW 8476   1.173   6.496   1.036
 2526SOL    HW1 8477   1.263   6.453   1.027
 2526SOL    HW2 8478   1.116   6.471   0.958
 2527SOL     OW 8479   5.040   4.731   6.397
 2527SOL    HW1 8480   5.013   4.733   6.300
 2527SOL    HW2 8481   4.991   4.657   6.444
 2528SOL     OW 8482   4.455   5.611   6.599
 2528SOL    HW1 8483   4.379   5.674   6.614
 2528SOL    HW2 8484   4.424   5.517   6.616
 2529SOL     OW 8485   0.154   6.817   6.686
 2529SOL    HW1 8486   0.230   6.796   6.748
 2529SOL    HW2 8487   0.085   6.745   6.693
 2530SOL     OW 8488   2.004   5.598   6.227
 2530SOL    HW1 8489   2.068   5.532   6.188
 2530SOL    HW2 8490   1.990   5.674   6.162
 2531SOL     OW 8491   6.413   5.186   6.064
 2531SOL    HW1 8492   6.352   5.138   6.001
 2531SOL    HW2 8493   6.506   5.184   6.028
 2532SOL     OW 8494   5.676   6.359   1.154
 2532SOL    HW1 8495   5.658   6.393   1.246
 2532SOL    HW2 8496   5.696   6.262   1.158
 2533SOL     OW 8497   5.007   1.085   3.457
 2533SOL    HW1 8498   5.031   1.181   3.468
 2533SOL    HW2 8499   5.027   1.035   3.541
 2534SOL     OW 8500   4.336   1.543   3.130
 2534SOL    HW1 8501   4.300   1.475   3.066
 2534SOL    HW2 8502   4.292   1.631   3.113
 2535SOL     OW 8503   3.916   2.942   6.405
 2535SOL    HW1 8504   3.887   2.908   6.494
 2535SOL    HW2 8505   3.942   3.038   6.412
 2536SOL     OW 8506   1.239   0.558   0.496
 2536SOL    HW1 8507   1.172   0.616   0.450
 2536SOL    HW2 8508   1.317   0.614   0.524
 2537SOL     OW 8509   3.927   0.245   6.710
 2537SOL    HW1 8510   3.973   0.244   6.621
 2537SOL    HW2 8511   3.983   0.297   6.775
 2538SOL     OW 8512   6.699   3.570   3.990
 2538SOL    HW1 8513   6.729   3.622   3.911
 2538SOL    HW2 8514   6.624   3.509   3.964
 2539SOL     OW 8515   5.150   2.193   5.754
 2539SOL    HW1 8516   5.174   2.109   5.705
 2539SOL    HW2 8517   5.061   2.226   5.723
 2540SOL     OW 8518   3.400   1.897   2.227
 2540SOL    HW1 8519   3.446   1.926   2.143
 2540SOL    HW2 8520   3.319   1.953   2.242
 2541SOL     OW 8521   3.593   6.517   4.763
 2541SOL    HW1 8522   3.507   6.556   4.797
 2541SOL    HW2 8523   3.613   6.557   4.673
 2542SOL     OW 8524   1.857   4.923   6.210
 2542SOL    HW1 8525   1.772   4.945   6.162
 2542SOL    HW2 8526   1.919   5.002   6.205
 2543SOL     OW 8527   1.826   1.265   3.752
 2543SOL    HW1 8528   1.737   1.308   3.735
 2543SOL    HW2 8529   1.878   1.321   3.816
 2544SOL     OW 8530   1.029   4.601   0.268
 2544SOL    HW1 8531   1.067   4.567   0.182
 2544SOL    HW2 8532   1.036   4.529   0.338
 2545SOL     OW 8533   2.671   6.081   3.185
 2545SOL    HW1 8534   2.763   6.083   3.145
 2545SOL    HW2 8535   2.675   6.115   3.279
 2546SOL     OW 8536   6.375   1.353   1.261
 2546SOL    HW1 8537   6.317   1.420   1.215
 2546SOL    HW2 8538   6.398   1.280   1.198
 2547SOL     OW 8539   0.409   3.761   4.867
 2547SOL    HW1 8540   0.420   3.769   4.966
 2547SOL    HW2 8541   0.475   3.696   4.831
 2548SOL     OW 8542   0.808   6.738   4.363
 2548SOL    HW1 8543   0.816   6.764   4.267
 2548SOL    HW2 8544   0.879   6.784   4.416
 2549SOL     OW 8545   6.610   2.487   1.150
 2549SOL    HW1 8546   6.644   2.451   1.063
 2549SOL    HW2 8547   6.553   2.418   1.194
 2550SOL     OW 8548   6.264   6.154   0.091
 2550SOL    HW1 8549   6.191   6.189   0.150
 2550SOL    HW2 8550   6.243   6.177   7.022
 2551SOL     OW 8551   1.565   4.419   7.016
 2551SOL    HW1 8552   1.589   4.493   0.052
 2551SOL    HW2 8553   1.645   4.363   6.998
 2552SOL     OW 8554   1.955   5.773   3.683
 2552SOL    HW1 8555   1.959   5.675   3.665
 2552SOL    HW2 8556   1.904   5.789   3.768
 2553SOL     OW 8557   3.626   3.836   0.110
 2553SOL    HW1 8558   3.624   3.855   0.012
 2553SOL    HW2 8559   3.721   3.833   0.141
 2554SOL     OW 8560   1.366   1.315   6.920
 2554SOL    HW1 8561   1.435   1.274   6.980
 2554SOL    HW2 8562   1.389   1.297   6.825
 2555SOL     OW 8563   6.142   1.371   0.106
 2555SOL    HW1 8564   6.044   1.357   0.116
 2555SOL    HW2 8565   6.176   1.429   0.181
 2556SOL     OW 8566   3.034   6.216   0.939
 2556SOL    HW1 8567   2.966   6.144   0.929
 2556SOL    HW2 8568   2.996   6.290   0.995
 2557SOL     OW 8569   2.395   3.879   0.120
 2557SOL    HW1 8570   2.355   3.906   0.033
 2557SOL    HW2 8571   2.384   3.954   0.186
 2558SOL     OW 8572   3.998   0.544   6.040
 2558SOL    HW1 8573   4.003   0.492   5.954
 2558SOL    HW2 8574   4.059   0.503   6.107
 2559SOL     OW 8575   0.270   4.846   4.917
 2559SOL    HW1 8576   0.275   4.812   5.011
 2559SOL    HW2 8577   0.361   4.875   4.887
 2560SOL     OW 8578   6.108   1.994   6.848
 2560SOL    HW1 8579   6.124   2.020   6.943
 2560SOL    HW2 8580   6.178   1.929   6.818
 2561SOL     OW 8581   3.464   5.283   4.655
 2561SOL    HW1 8582   3.495   5.269   4.561
 2561SOL    HW2 8583   3.498   5.209   4.713
 2562SOL     OW 8584   1.956   4.041   6.971
 2562SOL    HW1 8585   2.039   4.029   7.025
 2562SOL    HW2 8586   1.887   4.086   0.000
 2563SOL     OW 8587   2.277   1.353   6.961
 2563SOL    HW1 8588   2.245   1.365   0.029
 2563SOL    HW2 8589   2.319   1.262   6.952
 2564SOL     OW 8590   1.889   5.327   1.414
 2564SOL    HW1 8591   1.798   5.356   1.387
 2564SOL    HW2 8592   1.951   5.331   1.335
 2565SOL     OW 8593   2.013   0.512   0.957
 2565SOL    HW1 8594   1.936   0.488   1.017
 2565SOL    HW2 8595   2.099   0.491   1.003
 2566SOL     OW 8596   1.513   6.602   6.529
 2566SOL    HW1 8597   1.449   6.678   6.535
 2566SOL    HW2 8598   1.531   6.580   6.433
 2567SOL     OW 8599   1.122   6.144   0.213
 2567SOL    HW1 8600   1.156   6.086   0.288
 2567SOL    HW2 8601   1.148   6.239   0.231
 2568SOL     OW 8602   4.658   3.043   6.615
 2568SOL    HW1 8603   4.577   3.039   6.673
 2568SOL    HW2 8604   4.740   3.026   6.671
 2569SOL     OW 8605   2.608   0.371   2.982
 2569SOL    HW1 8606   2.588   0.449   3.040
 2569SOL    HW2 8607   2.612   0.288   3.038
 2570SOL     OW 8608   5.423   2.013   6.375
 2570SOL    HW1 8609   5.324   2.002   6.379
 2570SOL    HW2 8610   5.445   2.101   6.333
 2571SOL     OW 8611   1.111   4.210   4.845
 2571SOL    HW1 8612   1.122   4.246   4.753
 2571SOL    HW2 8613   1.065   4.122   4.842
 2572SOL     OW 8614   1.934   4.585   3.016
 2572SOL    HW1 8615   1.880   4.660   3.054
 2572SOL    HW2 8616   1.903   4.498   3.055
 2573SOL     OW 8617   0.822   0.248   0.948
 2573SOL    HW1 8618   0.809   0.275   1.044
 2573SOL    HW2 8619   0.896   0.301   0.908
 2574SOL     OW 8620   6.380   3.157   0.114
 2574SOL    HW1 8621   6.453   3.103   0.070
 2574SOL    HW2 8622   6.316   3.189   0.045
 2575SOL     OW 8623   0.303   5.439   5.863
 2575SOL    HW1 8624   0.232   5.453   5.794
 2575SOL    HW2 8625   0.389   5.418   5.818
 2576SOL     OW 8626   4.145   6.263   3.879
 2576SOL    HW1 8627   4.186   6.229   3.963
 2576SOL    HW2 8628   4.218   6.293   3.816
 2577SOL     OW 8629   2.427   4.428   2.356
 2577SOL    HW1 8630   2.368   4.352   2.383
 2577SOL    HW2 8631   2.405   4.456   2.263
 2578SOL     OW 8632   4.068   2.171   4.068
 2578SOL    HW1 8633   4.098   2.103   4.001
 2578SOL    HW2 8634   4.015   2.242   4.023
 2579SOL     OW 8635   0.998   6.187   3.906
 2579SOL    HW1 8636   0.959   6.095   3.906
 2579SOL    HW2 8637   1.097   6.181   3.893
 2580SOL     OW 8638   1.372   2.350   6.551
 2580SOL    HW1 8639   1.455   2.352   6.606
 2580SOL    HW2 8640   1.382   2.281   6.479
 2581SOL     OW 8641   3.729   0.321   5.232
 2581SOL    HW1 8642   3.636   0.298   5.202
 2581SOL    HW2 8643   3.727   0.351   5.327
 2582SOL     OW 8644   0.055   3.015   1.802
 2582SOL    HW1 8645   0.120   3.090   1.795
 2582SOL    HW2 8646   0.088   2.936   1.751
 2583SOL     OW 8647   5.906   0.201   0.926
 2583SOL    HW1 8648   5.917   0.299   0.912
 2583SOL    HW2 8649   5.810   0.181   0.947
 2584SOL     OW 8650   4.630   4.668   5.621
 2584SOL    HW1 8651   4.584   4.666   5.710
 2584SOL    HW2 8652   4.644   4.763   5.593
 2585SOL     OW 8653   3.525   5.335   6.407
 2585SOL    HW1 8654   3.456   5.350   6.336
 2585SOL    HW2 8655   3.552   5.423   6.446
 2586SOL     OW 8656   2.255   0.865   4.061
 2586SOL    HW1 8657   2.335   0.809   4.080
 2586SOL    HW2 8658   2.262   0.903   3.969
 2587SOL     OW 8659   6.817   1.477   3.878
 2587SOL    HW1 8660   6.865   1.479   3.966
 2587SOL    HW2 8661   6.720   1.460   3.894
 2588SOL     OW 8662   4.090   0.974   6.270
 2588SOL    HW1 8663   4.128   1.058   6.307
 2588SOL    HW2 8664   4.066   0.988   6.174
 2589SOL     OW 8665   1.932   6.480   6.979
 2589SOL    HW1 8666   2.028   6.478   6.950
 2589SOL    HW2 8667   1.905   6.390   7.011
 2590SOL     OW 8668   2.760   5.335   0.712
 2590SOL    HW1 8669   2.832   5.398   0.683
 2590SOL    HW2 8670   2.774   5.246   0.669
 2591SOL     OW 8671   6.035   5.621   3.950
 2591SOL    HW1 8672   6.058   5.590   4.042
 2591SOL    HW2 8673   6.119   5.648   3.902
 2592SOL     OW 8674   2.459   4.201   1.063
 2592SOL    HW1 8675   2.384   4.244   1.114
 2592SOL    HW2 8676   2.437   4.105   1.046
 2593SOL     OW 8677   3.366   4.342   0.575
 2593SOL    HW1 8678   3.433   4.346   0.650
 2593SOL    HW2 8679   3.378   4.257   0.524
 2594SOL     OW 8680   1.572   3.556   4.533
 2594SOL    HW1 8681   1.620   3.636   4.496
 2594SOL    HW2 8682   1.607   3.535   4.624
 2595SOL     OW 8683   1.765   1.284   2.549
 2595SOL    HW1 8684   1.781   1.307   2.645
 2595SOL    HW2 8685   1.842   1.318   2.494
 2596SOL     OW 8686   1.002   2.380   0.030
 2596SOL    HW1 8687   1.039   2.412   6.970
 2596SOL    HW2 8688   1.011   2.280   0.035
 2597SOL     OW 8689   6.836   6.118   6.158
 2597SOL    HW1 8690   6.757   6.109   6.218
 2597SOL    HW2 8691   6.879   6.207   6.173
 2598SOL     OW 8692   5.751   2.646   2.862
 2598SOL    HW1 8693   5.725   2.742   2.854
 2598SOL    HW2 8694   5.838   2.631   2.814
 2599SOL     OW 8695   3.091   6.143   1.573
 2599SOL    HW1 8696   3.134   6.206   1.638
 2599SOL    HW2 8697   3.110   6.049   1.601
 2600SOL     OW 8698   6.134   4.324   4.323
 2600SOL    HW1 8699   6.114   4.334   4.225
 2600SOL    HW2 8700   6.233   4.325   4.337
 2601SOL     OW 8701   6.919   1.861   3.609
 2601SOL    HW1 8702   6.866   1.776   3.611
 2601SOL    HW2 8703   6.983   1.858   3.533
 2602SOL     OW 8704   1.173   4.306   3.413
 2602SOL    HW1 8705   1.223   4.261   3.339
 2602SOL    HW2 8706   1.175   4.248   3.495
 2603SOL     OW 8707   2.984   6.608   2.696
 2603SOL    HW1 8708   3.022   6.652   2.614
 2603SOL    HW2 8709   2.964   6.679   2.764
 2604SOL     OW 8710   4.681   2.612   3.647
 2604SOL    HW1 8711   4.735   2.677   3.593
 2604SOL    HW2 8712   4.595   2.594   3.600
 2605SOL     OW 8713   1.962   3.952   1.542
 2605SOL    HW1 8714   1.907   4.014   1.486
 2605SOL    HW2 8715   2.032   4.004   1.591
 2606SOL     OW 8716   4.530   3.347   1.447
 2606SOL    HW1 8717   4.598   3.339   1.375
 2606SOL    HW2 8718   4.468   3.269   1.443
 2607SOL     OW 8719   2.773   2.219   1.363
 2607SOL    HW1 8720   2.776   2.282   1.286
 2607SOL    HW2 8721   2.699   2.153   1.350
 2608SOL     OW 8722   2.631   5.086   5.808
 2608SOL    HW1 8723   2.639   5.078   5.709
 2608SOL    HW2 8724   2.719   5.116   5.846
 2609SOL     OW 8725   6.692   2.355   0.904
 2609SOL    HW1 8726   6.717   2.412   0.826
 2609SOL    HW2 8727   6.746   2.271   0.902
 2610SOL     OW 8728   1.435   4.615   4.643
 2610SOL    HW1 8729   1.406   4.601   4.737
 2610SOL    HW2 8730   1.378   4.684   4.600
 2611SOL     OW 8731   5.127   0.087   6.471
 2611SOL    HW1 8732   5.084   0.004   6.506
 2611SOL    HW2 8733   5.074   0.167   6.501
 2612SOL     OW 8734   6.410   0.558   5.609
 2612SOL    HW1 8735   6.440   0.654   5.609
 2612SOL    HW2 8736   6.324   0.551   5.659
 2613SOL     OW 8737   0.956   6.520   6.698
 2613SOL    HW1 8738   0.933   6.462   6.776
 2613SOL    HW2 8739   0.872   6.556   6.657
 2614SOL     OW 8740   6.200   1.607   6.507
 2614SOL    HW1 8741   6.217   1.553   6.589
 2614SOL    HW2 8742   6.102   1.627   6.499
 2615SOL     OW 8743   0.783   3.368   0.212
 2615SOL    HW1 8744   0.840   3.400   0.288
 2615SOL    HW2 8745   0.787   3.435   0.137
 2616SOL     OW 8746   1.493   0.912   5.640
 2616SOL    HW1 8747   1.412   0.878   5.594
 2616SOL    HW2 8748   1.467   0.971   5.716
 2617SOL     OW 8749   4.936   0.337   0.905
 2617SOL    HW1 8750   4.897   0.291   0.985
 2617SOL    HW2 8751   4.934   0.274   0.826
 2618SOL     OW 8752   0.946   6.294   5.918
 2618SOL    HW1 8753   0.939   6.210   5.972
 2618SOL    HW2 8754   0.914   6.372   5.973
 2619SOL     OW 8755   5.498   1.195   2.396
 2619SOL    HW1 8756   5.400   1.183   2.377
 2619SOL    HW2 8757   5.527   1.128   2.465
 2620SOL     OW 8758   5.543   1.131   1.410
 2620SOL    HW1 8759   5.478   1.060   1.384
 2620SOL    HW2 8760   5.623   1.089   1.454
 2621SOL     OW 8761   1.466   6.349   1.804
 2621SOL    HW1 8762   1.496   6.256   1.824
 2621SOL    HW2 8763   1.494   6.410   1.878
 2622SOL     OW 8764   3.429   3.458   6.540
 2622SOL    HW1 8765   3.381   3.435   6.625
 2622SOL    HW2 8766   3.362   3.490   6.473
 2623SOL     OW 8767   0.505   6.507   3.866
 2623SOL    HW1 8768   0.409   6.502   3.838
 2623SOL    HW2 8769   0.555   6.430   3.827
 2624SOL     OW 8770   0.311   1.277   5.088
 2624SOL    HW1 8771   0.301   1.375   5.106
 2624SOL    HW2 8772   0.268   1.225   5.162
 2625SOL     OW 8773   2.361   5.104   6.528
 2625SOL    HW1 8774   2.269   5.066   6.516
 2625SOL    HW2 8775   2.402   5.120   6.439
 2626SOL     OW 8776   6.666   5.852   6.992
 2626SOL    HW1 8777   6.690   5.909   6.914
 2626SOL    HW2 8778   6.710   5.888   0.048
 2627SOL     OW 8779   1.913   0.270   6.175
 2627SOL    HW1 8780   1.980   0.310   6.237
 2627SOL    HW2 8781   1.824   0.314   6.189
 2628SOL     OW 8782   0.438   4.593   1.846
 2628SOL    HW1 8783   0.383   4.634   1.772
 2628SOL    HW2 8784   0.518   4.650   1.864
 2629SOL     OW 8785   3.268   3.849   2.580
 2629SOL    HW1 8786   3.192   3.846   2.515
 2629SOL    HW2 8787   3.354   3.856   2.529
 2630SOL     OW 8788   3.874   0.767   4.177
 2630SOL    HW1 8789   3.957   0.803   4.135
 2630SOL    HW2 8790   3.861   0.809   4.267
 2631SOL     OW 8791   5.837   0.415   0.184
 2631SOL    HW1 8792   5.805   0.368   0.102
 2631SOL    HW2 8793   5.772   0.486   0.209
 2632SOL     OW 8794   5.677   4.788   2.232
 2632SOL    HW1 8795   5.684   4.851   2.154
 2632SOL    HW2 8796   5.600   4.816   2.290
 2633SOL     OW 8797   7.013   3.277   6.451
 2633SOL    HW1 8798   6.979   3.306   6.361
 2633SOL    HW2 8799   6.955   3.315   6.522
 2634SOL     OW 8800   0.501   0.567   5.660
 2634SOL    HW1 8801   0.601   0.562   5.662
 2634SOL    HW2 8802   0.469   0.562   5.566
 2635SOL     OW 8803   4.815   5.654   3.444
 2635SOL    HW1 8804   4.740   5.651   3.377
 2635SOL    HW2 8805   4.813   5.742   3.492
 2636SOL     OW 8806   3.973   6.079   5.316
 2636SOL    HW1 8807   3.996   6.018   5.240
 2636SOL    HW2 8808   3.885   6.053   5.354
 2637SOL     OW 8809   0.909   0.902   3.136
 2637SOL    HW1 8810   0.861   0.819   3.105
 2637SOL    HW2 8811   0.842   0.972   3.160
 2638SOL     OW 8812   0.789   6.197   4.496
 2638SOL    HW1 8813   0.884   6.168   4.488
 2638SOL    HW2 8814   0.784   6.297   4.495
 2639SOL     OW 8815   4.340   4.808   5.324
 2639SOL    HW1 8816   4.395   4.860   5.258
 2639SOL    HW2 8817   4.245   4.839   5.319
 2640SOL     OW 8818   1.961   0.329   3.490
 2640SOL    HW1 8819   2.007   0.304   3.574
 2640SOL    HW2 8820   1.896   0.258   3.464
 2641SOL     OW 8821   6.192   2.136   6.561
 2641SOL    HW1 8822   6.292   2.142   6.564
 2641SOL    HW2 8823   6.157   2.117   6.652
 2642SOL     OW 8824   6.159   0.699   3.505
 2642SOL    HW1 8825   6.214   0.694   3.422
 2642SOL    HW2 8826   6.201   0.763   3.570
 2643SOL     OW 8827   2.220   4.730   3.685
 2643SOL    HW1 8828   2.225   4.638   3.647
 2643SOL    HW2 8829   2.273   4.793   3.629
 2644SOL     OW 8830   5.155   5.375   4.542
 2644SOL    HW1 8831   5.161   5.287   4.496
 2644SOL    HW2 8832   5.070   5.380   4.595
 2645SOL     OW 8833   4.820   5.905   3.591
 2645SOL    HW1 8834   4.756   5.932   3.663
 2645SOL    HW2 8835   4.913   5.931   3.616
 2646SOL     OW 8836   1.199   2.840   6.493
 2646SOL    HW1 8837   1.238   2.927   6.464
 2646SOL    HW2 8838   1.102   2.838   6.470
 2647SOL     OW 8839   5.141   0.379   2.314
 2647SOL    HW1 8840   5.055   0.398   2.267
 2647SOL    HW2 8841   5.173   0.288   2.289
 2648SOL     OW 8842   0.765   6.705   6.531
 2648SOL    HW1 8843   0.681   6.695   6.476
 2648SOL    HW2 8844   0.843   6.721   6.470
 2649SOL     OW 8845   5.042   1.473   3.243
 2649SOL    HW1 8846   4.997   1.414   3.176
 2649SOL    HW2 8847   5.037   1.568   3.214
 2650SOL     OW 8848   2.988   6.298   4.322
 2650SOL    HW1 8849   2.943   6.255   4.244
 2650SOL    HW2 8850   3.066   6.352   4.291
 2651SOL     OW 8851   4.502   2.217   4.666
 2651SOL    HW1 8852   4.470   2.124   4.686
 2651SOL    HW2 8853   4.426   2.272   4.633
 2652SOL     OW 8854   5.106   4.128   5.208
 2652SOL    HW1 8855   5.180   4.190   5.233
 2652SOL    HW2 8856   5.022   4.155   5.257
 2653SOL     OW 8857   2.274   6.005   6.989
 2653SOL    HW1 8858   2.235   5.946   0.032
 2653SOL    HW2 8859   2.201   6.060   6.947
 2654SOL     OW 8860   6.705   1.054   0.409
 2654SOL    HW1 8861   6.725   1.073   0.312
 2654SOL    HW2 8862   6.742   0.964   0.433
 2655SOL     OW 8863   5.200   6.785   2.448
 2655SOL    HW1 8864   5.198   6.717   2.374
 2655SOL    HW2 8865   5.290   6.827   2.452
 2656SOL     OW 8866   4.306   5.968   3.115
 2656SOL    HW1 8867   4.233   6.028   3.148
 2656SOL    HW2 8868   4.337   5.910   3.190
 2657SOL     OW 8869   0.572   3.941   6.859
 2657SOL    HW1 8870   0.577   3.919   6.956
 2657SOL    HW2 8871   0.599   4.036   6.844
 2658SOL     OW 8872   3.701   5.041   0.923
 2658SOL    HW1 8873   3.706   4.955   0.872
 2658SOL    HW2 8874   3.786   5.055   0.973
 2659SOL     OW 8875   0.219   2.056   5.211
 2659SOL    HW1 8876   0.269   2.115   5.273
 2659SOL    HW2 8877   0.201   2.105   5.125
 2660SOL     OW 8878   0.408   1.923   1.933
 2660SOL    HW1 8879   0.389   1.825   1.925
 2660SOL    HW2 8880   0.332   1.968   1.980
 2661SOL     OW 8881   1.039   1.123   0.990
 2661SOL    HW1 8882   0.967   1.067   1.030
 2661SOL    HW2 8883   1.128   1.081   1.007
 2662SOL     OW 8884   2.998   1.654   2.188
 2662SOL    HW1 8885   3.070   1.705   2.141
 2662SOL    HW2 8886   3.036   1.570   2.226
 2663SOL     OW 8887   4.197   6.864   0.079
 2663SOL    HW1 8888   4.154   6.795   0.021
 2663SOL    HW2 8889   4.284   6.829   0.115
 2664SOL     OW 8890   4.641   3.892   5.286
 2664SOL    HW1 8891   4.570   3.823   5.298
 2664SOL    HW2 8892   4.632   3.962   5.357
 2665SOL     OW 8893   1.999   3.489   4.336
 2665SOL    HW1 8894   2.013   3.394   4.363
 2665SOL    HW2 8895   2.053   3.549   4.395
 2666SOL     OW 8896   1.820   4.133   1.916
 2666SOL    HW1 8897   1.775   4.221   1.900
 2666SOL    HW2 8898   1.752   4.065   1.941
 2667SOL     OW 8899   6.882   2.840   5.050
 2667SOL    HW1 8900   6.804   2.841   5.113
 2667SOL    HW2 8901   6.848   2.841   4.956
 2668SOL     OW 8902   6.173   0.567   3.163
 2668SOL    HW1 8903   6.238   0.580   3.237
 2668SOL    HW2 8904   6.184   0.641   3.096
 2669SOL     OW 8905   2.286   0.503   0.136
 2669SOL    HW1 8906   2.326   0.511   0.227
 2669SOL    HW2 8907   2.198   0.455   0.143
 2670SOL     OW 8908   0.423   0.062   6.363
 2670SOL    HW1 8909   0.413   0.149   6.314
 2670SOL    HW2 8910   0.346   0.003   6.343
 2671SOL     OW 8911   5.338   4.560   5.973
 2671SOL    HW1 8912   5.432   4.534   5.996
 2671SOL    HW2 8913   5.275   4.488   6.002
 2672SOL     OW 8914   3.351   1.075   2.286
 2672SOL    HW1 8915   3.450   1.086   2.284
 2672SOL    HW2 8916   3.321   1.028   2.203
 2673SOL     OW 8917   3.570   0.941   2.825
 2673SOL    HW1 8918   3.652   0.891   2.799
 2673SOL    HW2 8919   3.495   0.877   2.842
 2674SOL     OW 8920   0.319   5.844   3.129
 2674SOL    HW1 8921   0.261   5.787   3.187
 2674SOL    HW2 8922   0.265   5.918   3.089
 2675SOL     OW 8923   4.983   1.289   4.265
 2675SOL    HW1 8924   5.027   1.236   4.338
 2675SOL    HW2 8925   4.887   1.302   4.287
 2676SOL     OW 8926   3.537   4.110   3.738
 2676SOL    HW1 8927   3.464   4.162   3.781
 2676SOL    HW2 8928   3.534   4.122   3.639
 2677SOL     OW 8929   2.027   5.851   1.302
 2677SOL    HW1 8930   1.959   5.840   1.374
 2677SOL    HW2 8931   2.069   5.763   1.283
 2678SOL     OW 8932   3.796   1.764   2.922
 2678SOL    HW1 8933   3.754   1.678   2.953
 2678SOL    HW2 8934   3.726   1.834   2.910
 2679SOL     OW 8935   2.180   3.033   2.734
 2679SOL    HW1 8936   2.219   2.947   2.701
 2679SOL    HW2 8937   2.127   3.076   2.661
 2680SOL     OW 8938   5.919   1.944   0.460
 2680SOL    HW1 8939   5.956   1.906   0.375
 2680SOL    HW2 8940   5.822   1.921   0.467
 2681SOL     OW 8941   1.794   2.249   3.605
 2681SOL    HW1 8942   1.772   2.182   3.534
 2681SOL    HW2 8943   1.885   2.231   3.642
 2682SOL     OW 8944   3.673   4.567   1.354
 2682SOL    HW1 8945   3.651   4.499   1.423
 2682SOL    HW2 8946   3.690   4.522   1.267
 2683SOL     OW 8947   2.287   4.066   2.080
 2683SOL    HW1 8948   2.234   4.022   2.154
 2683SOL    HW2 8949   2.228   4.078   2.000
 2684SOL     OW 8950   6.731   0.256   4.177
 2684SOL    HW1 8951   6.796   0.243   4.102
 2684SOL    HW2 8952   6.650   0.305   4.143
 2685SOL     OW 8953   0.843   5.956   5.372
 2685SOL    HW1 8954   0.770   6.020   5.397
 2685SOL    HW2 8955   0.876   5.979   5.281
 2686SOL     OW 8956   1.079   1.015   5.538
 2686SOL    HW1 8957   1.054   1.100   5.492
 2686SOL    HW2 8958   1.049   1.018   5.633
 2687SOL     OW 8959   4.065   1.979   1.632
 2687SOL    HW1 8960   4.019   1.967   1.720
 2687SOL    HW2 8961   4.159   2.008   1.648
 2688SOL     OW 8962   3.649   2.493   6.567
 2688SOL    HW1 8963   3.629   2.417   6.629
 2688SOL    HW2 8964   3.564   2.521   6.521
 2689SOL     OW 8965   0.936   4.281   3.257
 2689SOL    HW1 8966   0.993   4.301   3.337
 2689SOL    HW2 8967   0.867   4.352   3.246
 2690SOL     OW 8968   4.731   1.596   5.729
 2690SOL    HW1 8969   4.741   1.499   5.707
 2690SOL    HW2 8970   4.675   1.640   5.658
 2691SOL     OW 8971   6.986   3.760   5.513
 2691SOL    HW1 8972   6.989   3.857   5.490
 2691SOL    HW2 8973   6.916   3.744   5.583
 2692SOL     OW 8974   2.268   6.046   2.116
 2692SOL    HW1 8975   2.275   6.116   2.188
 2692SOL    HW2 8976   2.253   5.957   2.158
 2693SOL     OW 8977   1.524   6.088   3.696
 2693SOL    HW1 8978   1.538   6.183   3.668
 2693SOL    HW2 8979   1.613   6.041   3.701
 2694SOL     OW 8980   2.737   0.163   2.407
 2694SOL    HW1 8981   2.818   0.148   2.463
 2694SOL    HW2 8982   2.669   0.214   2.460
 2695SOL     OW 8983   0.549   4.971   3.884
 2695SOL    HW1 8984   0.617   4.910   3.844
 2695SOL    HW2 8985   0.478   4.990   3.815
 2696SOL     OW 8986   4.832   5.096   6.432
 2696SOL    HW1 8987   4.832   5.155   6.513
 2696SOL    HW2 8988   4.754   5.120   6.375
 2697SOL     OW 8989   4.001   2.136   6.767
 2697SOL    HW1 8990   3.942   2.068   6.810
 2697SOL    HW2 8991   4.062   2.090   6.702
 2698SOL     OW 8992   1.633   5.293   6.426
 2698SOL    HW1 8993   1.553   5.241   6.398
 2698SOL    HW2 8994   1.654   5.274   6.521
 2699SOL     OW 8995   2.772   6.205   2.089
 2699SOL    HW1 8996   2.860   6.251   2.081
 2699SOL    HW2 8997   2.769   6.127   2.026
 2700SOL     OW 8998   3.965   1.649   1.411
 2700SOL    HW1 8999   4.016   1.563   1.401
 2700SOL    HW2 9000   3.891   1.636   1.478
 2701SOL     OW 9001   4.862   3.109   4.530
 2701SOL    HW1 9002   4.805   3.066   4.460
 2701SOL    HW2 9003   4.840   3.070   4.619
 2702SOL     OW 9004   2.529   1.167   4.900
 2702SOL    HW1 9005   2.506   1.262   4.918
 2702SOL    HW2 9006   2.546   1.154   4.802
 2703SOL     OW 9007   2.506   6.682   2.501
 2703SOL    HW1 9008   2.462   6.625   2.571
 2703SOL    HW2 9009   2.587   6.635   2.466
 2704SOL     OW 9010   4.987   0.859   3.281
 2704SOL    HW1 9011   4.896   0.866   3.240
 2704SOL    HW2 9012   4.995   0.924   3.356
 2705SOL     OW 9013   0.261   0.248   5.593
 2705SOL    HW1 9014   0.222   0.162   5.562
 2705SOL    HW2 9015   0.346   0.231   5.642
 2706SOL     OW 9016   6.595   3.738   3.374
 2706SOL    HW1 9017   6.593   3.793   3.290
 2706SOL    HW2 9018   6.564   3.645   3.354
 2707SOL     OW 9019   4.246   1.141   3.405
 2707SOL    HW1 9020   4.202   1.196   3.334
 2707SOL    HW2 9021   4.232   1.044   3.384
 2708SOL     OW 9022   5.680   3.803   5.657
 2708SOL    HW1 9023   5.688   3.886   5.602
 2708SOL    HW2 9024   5.614   3.819   5.731
 2709SOL     OW 9025   5.152   1.274   5.779
 2709SOL    HW1 9026   5.159   1.202   5.710
 2709SOL    HW2 9027   5.242   1.316   5.793
 2710SOL     OW 9028   0.753   2.796   4.786
 2710SOL    HW1 9029   0.722   2.740   4.709
 2710SOL    HW2 9030   0.680   2.858   4.814
 2711SOL     OW 9031   4.174   1.247   1.997
 2711SOL    HW1 9032   4.251   1.298   2.036
 2711SOL    HW2 9033   4.090   1.298   2.012
 2712SOL     OW 9034   4.246   6.243   2.153
 2712SOL    HW1 9035   4.150   6.222   2.134
 2712SOL    HW2 9036   4.286   6.169   2.206
 2713SOL     OW 9037   3.848   5.160   5.279
 2713SOL    HW1 9038   3.777   5.089   5.287
 2713SOL    HW2 9039   3.894   5.151   5.191
 2714SOL     OW 9040   3.232   4.629   6.806
 2714SOL    HW1 9041   3.166   4.637   6.881
 2714SOL    HW2 9042   3.293   4.709   6.807
 2715SOL     OW 9043   4.062   0.192   6.460
 2715SOL    HW1 9044   4.158   0.207   6.434
 2715SOL    HW2 9045   4.002   0.219   6.385
 2716SOL     OW 9046   3.934   1.453   2.656
 2716SOL    HW1 9047   3.875   1.512   2.601
 2716SOL    HW2 9048   3.919   1.357   2.630
 2717SOL     OW 9049   1.171   1.690   1.744
 2717SOL    HW1 9050   1.115   1.655   1.819
 2717SOL    HW2 9051   1.266   1.662   1.756
 2718SOL     OW 9052   7.004   1.332   5.555
 2718SOL    HW1 9053   7.001   1.264   5.628
 2718SOL    HW2 9054   6.937   1.309   5.485
 2719SOL     OW 9055   1.280   4.985   3.219
 2719SOL    HW1 9056   1.238   4.908   3.170
 2719SOL    HW2 9057   1.337   5.037   3.155
 2720SOL     OW 9058   1.662   6.187   6.408
 2720SOL    HW1 9059   1.710   6.261   6.362
 2720SOL    HW2 9060   1.728   6.117   6.436
 2721SOL     OW 9061   3.004   6.801   1.886
 2721SOL    HW1 9062   2.965   6.725   1.937
 2721SOL    HW2 9063   3.084   6.837   1.934
 2722SOL     OW 9064   3.657   5.835   6.321
 2722SOL    HW1 9065   3.743   5.788   6.300
 2722SOL    HW2 9066   3.590   5.768   6.353
 2723SOL     OW 9067   3.198   6.023   6.561
 2723SOL    HW1 9068   3.292   6.004   6.589
 2723SOL    HW2 9069   3.187   5.999   6.464
 2724SOL     OW 9070   0.476   6.067   0.635
 2724SOL    HW1 9071   0.406   6.137   0.616
 2724SOL    HW2 9072   0.527   6.048   0.552
 2725SOL     OW 9073   5.979   4.128   4.470
 2725SOL    HW1 9074   5.997   4.200   4.403
 2725SOL    HW2 9075   5.881   4.119   4.485
 2726SOL     OW 9076   6.817   2.031   2.165
 2726SOL    HW1 9077   6.738   2.091   2.156
 2726SOL    HW2 9078   6.823   1.972   2.084
 2727SOL     OW 9079   1.786   5.173   3.688
 2727SOL    HW1 9080   1.770   5.089   3.636
 2727SOL    HW2 9081   1.780   5.252   3.626
 2728SOL     OW 9082   4.852   5.547   6.141
 2728SOL    HW1 9083   4.775   5.524   6.200
 2728SOL    HW2 9084   4.933   5.565   6.198
 2729SOL     OW 9085   5.602   0.642   6.557
 2729SOL    HW1 9086   5.523   0.654   6.616
 2729SOL    HW2 9087   5.685   0.643   6.612
 2730SOL     OW 9088   1.192   5.754   2.486
 2730SOL    HW1 9089   1.243   5.671   2.466
 2730SOL    HW2 9090   1.245   5.811   2.550
 2731SOL     OW 9091   2.982   3.825   4.134
 2731SOL    HW1 9092   3.038   3.783   4.206
 2731SOL    HW2 9093   3.020   3.914   4.110
 2732SOL     OW 9094   5.460   0.406   2.061
 2732SOL    HW1 9095   5.532   0.339   2.080
 2732SOL    HW2 9096   5.466   0.482   2.126
 2733SOL     OW 9097   0.892   5.876   6.869
 2733SOL    HW1 9098   0.885   5.857   6.967
 2733SOL    HW2 9099   0.808   5.850   6.823
 2734SOL     OW 9100   3.401   6.032   2.554
 2734SOL    HW1 9101   3.479   6.000   2.607
 2734SOL    HW2 9102   3.317   6.018   2.605
 2735SOL     OW 9103   0.796   1.282   1.370
 2735SOL    HW1 9104   0.877   1.330   1.336
 2735SOL    HW2 9105   0.731   1.348   1.407
 2736SOL     OW 9106   5.253   4.065   3.040
 2736SOL    HW1 9107   5.280   4.145   3.094
 2736SOL    HW2 9108   5.312   4.058   2.960
 2737SOL     OW 9109   2.937   0.797   5.455
 2737SOL    HW1 9110   2.918   0.847   5.371
 2737SOL    HW2 9111   2.916   0.700   5.443
 2738SOL     OW 9112   5.249   5.959   1.588
 2738SOL    HW1 9113   5.221   5.940   1.682
 2738SOL    HW2 9114   5.186   6.026   1.548
 2739SOL     OW 9115   6.761   5.413   1.325
 2739SOL    HW1 9116   6.746   5.396   1.227
 2739SOL    HW2 9117   6.835   5.354   1.357
 2740SOL     OW 9118   0.038   5.720   3.011
 2740SOL    HW1 9119   0.094   5.700   3.091
 2740SOL    HW2 9120   0.080   5.680   2.929
 2741SOL     OW 9121   0.951   0.402   5.606
 2741SOL    HW1 9122   0.858   0.418   5.574
 2741SOL    HW2 9123   0.990   0.323   5.558
 2742SOL     OW 9124   3.167   5.584   1.779
 2742SOL    HW1 9125   3.235   5.522   1.738
 2742SOL    HW2 9126   3.128   5.541   1.861
 2743SOL     OW 9127   5.563   1.518   2.023
 2743SOL    HW1 9128   5.476   1.523   2.072
 2743SOL    HW2 9129   5.546   1.512   1.924
 2744SOL     OW 9130   3.281   4.113   2.433
 2744SOL    HW1 9131   3.239   4.098   2.344
 2744SOL    HW2 9132   3.213   4.150   2.496
 2745SOL     OW 9133   0.605   5.968   0.399
 2745SOL    HW1 9134   0.651   5.887   0.434
 2745SOL    HW2 9135   0.530   5.941   0.338
 2746SOL     OW 9136   1.668   1.336   3.245
 2746SOL    HW1 9137   1.694   1.412   3.185
 2746SOL    HW2 9138   1.574   1.309   3.226
 2747SOL     OW 9139   3.796   4.785   0.728
 2747SOL    HW1 9140   3.866   4.721   0.759
 2747SOL    HW2 9141   3.707   4.740   0.728
 2748SOL     OW 9142   4.382   0.090   0.273
 2748SOL    HW1 9143   4.400   0.043   0.360
 2748SOL    HW2 9144   4.366   0.187   0.291
 2749SOL     OW 9145   3.261   1.602   0.491
 2749SOL    HW1 9146   3.288   1.524   0.547
 2749SOL    HW2 9147   3.187   1.652   0.537
 2750SOL     OW 9148   3.297   5.406   2.085
 2750SOL    HW1 9149   3.323   5.503   2.084
 2750SOL    HW2 9150   3.372   5.351   2.047
 2751SOL     OW 9151   5.961   5.367   1.084
 2751SOL    HW1 9152   6.026   5.291   1.081
 2751SOL    HW2 9153   5.875   5.338   1.043
 2752SOL     OW 9154   4.267   5.125   0.020
 2752SOL    HW1 9155   4.210   5.181   0.079
 2752SOL    HW2 9156   4.331   5.183   6.996
 2753SOL     OW 9157   5.499   5.659   5.338
 2753SOL    HW1 9158   5.442   5.736   5.367
 2753SOL    HW2 9159   5.535   5.612   5.419
 2754SOL     OW 9160   1.233   0.142   5.856
 2754SOL    HW1 9161   1.201   0.164   5.948
 2754SOL    HW2 9162   1.319   0.189   5.838
 2755SOL     OW 9163   3.372   0.657   2.277
 2755SOL    HW1 9164   3.446   0.594   2.254
 2755SOL    HW2 9165   3.330   0.691   2.194
 2756SOL     OW 9166   4.647   5.956   0.338
 2756SOL    HW1 9167   4.613   5.862   0.349
 2756SOL    HW2 9168   4.601   6.015   0.405
 2757SOL     OW 9169   0.076   5.055   1.274
 2757SOL    HW1 9170   0.032   5.032   1.361
 2757SOL    HW2 9171   0.175   5.040   1.282
 2758SOL     OW 9172   3.779   0.668   6.088
 2758SOL    HW1 9173   3.861   0.620   6.054
 2758SOL    HW2 9174   3.801   0.712   6.175
 2759SOL     OW 9175   5.057   5.536   5.051
 2759SOL    HW1 9176   4.976   5.478   5.050
 2759SOL    HW2 9177   5.034   5.624   5.093
 2760SOL     OW 9178   2.399   6.662   3.978
 2760SOL    HW1 9179   2.300   6.661   3.961
 2760SOL    HW2 9180   2.422   6.586   4.039
 2761SOL     OW 9181   2.119   5.137   3.882
 2761SOL    HW1 9182   2.074   5.156   3.969
 2761SOL    HW2 9183   2.054   5.094   3.819
 2762SOL     OW 9184   1.319   0.186   5.065
 2762SOL    HW1 9185   1.253   0.261   5.074
 2762SOL    HW2 9186   1.276   0.101   5.094
 2763SOL     OW 9187   5.249   2.131   2.436
 2763SOL    HW1 9188   5.330   2.158   2.384
 2763SOL    HW2 9189   5.182   2.204   2.434
 2764SOL     OW 9190   6.658   0.893   2.140
 2764SOL    HW1 9191   6.645   0.858   2.047
 2764SOL    HW2 9192   6.581   0.865   2.197
 2765SOL     OW 9193   5.472   2.193   2.319
 2765SOL    HW1 9194   5.530   2.209   2.399
 2765SOL    HW2 9195   5.523   2.215   2.236
 2766SOL     OW 9196   5.972   0.379   2.801
 2766SOL    HW1 9197   5.937   0.291   2.768
 2766SOL    HW2 9198   6.034   0.363   2.878
 2767SOL     OW 9199   6.451   4.419   5.635
 2767SOL    HW1 9200   6.358   4.423   5.672
 2767SOL    HW2 9201   6.472   4.324   5.608
 2768SOL     OW 9202   5.860   1.452   6.690
 2768SOL    HW1 9203   5.817   1.378   6.742
 2768SOL    HW2 9204   5.879   1.420   6.597
 2769SOL     OW 9205   1.003   4.463   1.419
 2769SOL    HW1 9206   0.972   4.392   1.482
 2769SOL    HW2 9207   1.070   4.425   1.356
 2770SOL     OW 9208   6.373   6.043   1.753
 2770SOL    HW1 9209   6.427   5.959   1.750
 2770SOL    HW2 9210   6.281   6.024   1.718
 2771SOL     OW 9211   4.883   0.896   1.223
 2771SOL    HW1 9212   4.921   0.915   1.314
 2771SOL    HW2 9213   4.926   0.956   1.156
 2772SOL     OW 9214   3.728   2.697   6.290
 2772SOL    HW1 9215   3.773   2.690   6.379
 2772SOL    HW2 9216   3.642   2.646   6.292
 2773SOL     OW 9217   4.212   4.456   0.406
 2773SOL    HW1 9218   4.169   4.366   0.395
 2773SOL    HW2 9219   4.228   4.496   0.316
 2774SOL     OW 9220   5.498   3.124   2.588
 2774SOL    HW1 9221   5.507   3.092   2.494
 2774SOL    HW2 9222   5.470   3.220   2.588
 2775SOL     OW 9223   6.807   6.864   2.289
 2775SOL    HW1 9224   6.866   6.816   2.224
 2775SOL    HW2 9225   6.854   6.945   2.324
 2776SOL     OW 9226   3.564   6.079   5.844
 2776SOL    HW1 9227   3.553   6.004   5.778
 2776SOL    HW2 9228   3.596   6.042   5.931
 2777SOL     OW 9229   2.916   1.191   3.494
 2777SOL    HW1 9230   2.860   1.256   3.443
 2777SOL    HW2 9231   3.013   1.216   3.483
 2778SOL     OW 9232   2.313   1.933   4.626
 2778SOL    HW1 9233   2.372   1.963   4.701
 2778SOL    HW2 9234   2.329   1.990   4.545
 2779SOL     OW 9235   5.737   0.786   0.654
 2779SOL    HW1 9236   5.759   0.801   0.750
 2779SOL    HW2 9237   5.668   0.852   0.624
 2780SOL     OW 9238   4.482   5.735   0.286
 2780SOL    HW1 9239   4.561   5.729   0.226
 2780SOL    HW2 9240   4.452   5.643   0.311
 2781SOL     OW 9241   5.056   4.419   0.343
 2781SOL    HW1 9242   5.058   4.497   0.406
 2781SOL    HW2 9243   4.962   4.401   0.314
 2782SOL     OW 9244   2.422   1.966   6.208
 2782SOL    HW1 9245   2.519   1.954   6.230
 2782SOL    HW2 9246   2.372   1.986   6.292
 2783SOL     OW 9247   0.090   4.432   5.981
 2783SOL    HW1 9248   0.020   4.431   5.910
 2783SOL    HW2 9249   0.178   4.460   5.941
 2784SOL     OW 9250   2.120   2.051   2.385
 2784SOL    HW1 9251   2.201   2.020   2.435
 2784SOL    HW2 9252   2.141   2.135   2.335
 2785SOL     OW 9253   6.016   1.451   1.704
 2785SOL    HW1 9254   5.927   1.410   1.721
 2785SOL    HW2 9255   6.005   1.531   1.646
 2786SOL     OW 9256   3.313   7.010   0.197
 2786SOL    HW1 9257   3.245   7.002   0.123
 2786SOL    HW2 9258   3.277   6.966   0.280
 2787SOL     OW 9259   1.912   2.632   5.635
 2787SOL    HW1 9260   1.927   2.727   5.661
 2787SOL    HW2 9261   1.846   2.627   5.560
 2788SOL     OW 9262   1.100   3.218   0.596
 2788SOL    HW1 9263   1.182   3.166   0.573
 2788SOL    HW2 9264   1.022   3.155   0.605
 2789SOL     OW 9265   6.995   2.231   4.628
 2789SOL    HW1 9266   0.049   2.289   4.618
 2789SOL    HW2 9267   6.930   2.251   4.554
 2790SOL     OW 9268   4.162   5.690   3.477
 2790SOL    HW1 9269   4.130   5.710   3.384
 2790SOL    HW2 9270   4.151   5.771   3.534
 2791SOL     OW 9271   2.242   2.666   3.211
 2791SOL    HW1 9272   2.225   2.596   3.142
 2791SOL    HW2 9273   2.156   2.691   3.255
 2792SOL     OW 9274   1.299   2.655   4.657
 2792SOL    HW1 9275   1.292   2.612   4.567
 2792SOL    HW2 9276   1.210   2.694   4.682
 2793SOL     OW 9277   5.416   0.951   3.793
 2793SOL    HW1 9278   5.499   0.963   3.848
 2793SOL    HW2 9279   5.358   1.033   3.803
 2794SOL     OW 9280   0.623   0.811   0.776
 2794SOL    HW1 9281   0.718   0.803   0.809
 2794SOL    HW2 9282   0.577   0.885   0.826
 2795SOL     OW 9283   2.049   4.271   2.038
 2795SOL    HW1 9284   2.066   4.268   2.137
 2795SOL    HW2 9285   1.974   4.209   2.015
 2796SOL     OW 9286   5.400   4.169   2.453
 2796SOL    HW1 9287   5.360   4.235   2.516
 2796SOL    HW2 9288   5.446   4.217   2.379
 2797SOL     OW 9289   4.254   4.811   4.995
 2797SOL    HW1 9290   4.156   4.815   4.976
 2797SOL    HW2 9291   4.280   4.718   5.018
 2798SOL     OW 9292   1.519   3.480   4.133
 2798SOL    HW1 9293   1.444   3.426   4.170
 2798SOL    HW2 9294   1.604   3.428   4.138
 2799SOL     OW 9295   6.629   5.380   5.823
 2799SOL    HW1 9296   6.708   5.440   5.837
 2799SOL    HW2 9297   6.638   5.298   5.880
 2800SOL     OW 9298   3.070   2.754   6.859
 2800SOL    HW1 9299   3.016   2.760   6.774
 2800SOL    HW2 9300   3.164   2.729   6.837
 2801SOL     OW 9301   4.431   5.751   2.321
 2801SOL    HW1 9302   4.472   5.783   2.406
 2801SOL    HW2 9303   4.430   5.651   2.320
 2802SOL     OW 9304   5.358   0.702   6.004
 2802SOL    HW1 9305   5.362   0.641   6.083
 2802SOL    HW2 9306   5.269   0.692   5.958
 2803SOL     OW 9307   1.910   5.815   6.045
 2803SOL    HW1 9308   1.856   5.785   5.967
 2803SOL    HW2 9309   1.859   5.884   6.097
 2804SOL     OW 9310   7.019   4.736   2.775
 2804SOL    HW1 9311   6.975   4.806   2.832
 2804SOL    HW2 9312   7.007   4.760   2.679
 2805SOL     OW 9313   5.354   4.251   6.227
 2805SOL    HW1 9314   5.337   4.325   6.292
 2805SOL    HW2 9315   5.367   4.165   6.277
 2806SOL     OW 9316   6.841   5.714   3.143
 2806SOL    HW1 9317   6.922   5.723   3.086
 2806SOL    HW2 9318   6.817   5.803   3.182
 2807SOL     OW 9319   4.133   4.762   3.876
 2807SOL    HW1 9320   4.091   4.753   3.966
 2807SOL    HW2 9321   4.145   4.859   3.855
 2808SOL     OW 9322   4.950   6.287   3.915
 2808SOL    HW1 9323   4.858   6.249   3.916
 2808SOL    HW2 9324   4.952   6.370   3.860
 2809SOL     OW 9325   5.219   2.952   0.916
 2809SOL    HW1 9326   5.245   3.027   0.977
 2809SOL    HW2 9327   5.237   2.865   0.960
 2810SOL     OW 9328   1.744   0.349   5.209
 2810SOL    HW1 9329   1.813   0.398   5.263
 2810SOL    HW2 9330   1.689   0.414   5.157
 2811SOL     OW 9331   6.936   0.952   4.349
 2811SOL    HW1 9332   6.838   0.964   4.362
 2811SOL    HW2 9333   6.953   0.911   4.259
 2812SOL     OW 9334   5.292   3.606   2.634
 2812SOL    HW1 9335   5.297   3.659   2.719
 2812SOL    HW2 9336   5.275   3.668   2.558
 2813SOL     OW 9337   6.088   1.397   6.208
 2813SOL    HW1 9338   6.096   1.471   6.141
 2813SOL    HW2 9339   6.134   1.423   6.293
 2814SOL     OW 9340   5.297   4.335   5.272
 2814SOL    HW1 9341   5.366   4.283   5.220
 2814SOL    HW2 9342   5.290   4.427   5.234
 2815SOL     OW 9343   0.160   1.113   5.244
 2815SOL    HW1 9344   0.178   1.066   5.157
 2815SOL    HW2 9345   0.189   1.056   5.320
 2816SOL     OW 9346   5.488   6.332   3.627
 2816SOL    HW1 9347   5.510   6.235   3.616
 2816SOL    HW2 9348   5.559   6.387   3.583
 2817SOL     OW 9349   1.403   1.910   1.149
 2817SOL    HW1 9350   1.371   1.999   1.181
 2817SOL    HW2 9351   1.370   1.838   1.211
 2818SOL     OW 9352   0.092   4.290   5.253
 2818SOL    HW1 9353   0.083   4.194   5.226
 2818SOL    HW2 9354   0.108   4.346   5.172
 2819SOL     OW 9355   6.139   2.877   0.436
 2819SOL    HW1 9356   6.046   2.871   0.398
 2819SOL    HW2 9357   6.200   2.916   0.367
 2820SOL     OW 9358   6.602   2.750   4.329
 2820SOL    HW1 9359   6.598   2.670   4.390
 2820SOL    HW2 9360   6.613   2.833   4.384
 2821SOL     OW 9361   1.508   3.305   4.459
 2821SOL    HW1 9362   1.557   3.391   4.474
 2821SOL    HW2 9363   1.555   3.251   4.390
 2822SOL     OW 9364   3.175   1.683   6.765
 2822SOL    HW1 9365   3.202   1.716   6.674
 2822SOL    HW2 9366   3.092   1.729   6.794
 2823SOL     OW 9367   2.127   6.638   3.227
 2823SOL    HW1 9368   2.033   6.668   3.207
 2823SOL    HW2 9369   2.165   6.594   3.146
 2824SOL     OW 9370   3.035   1.697   4.628
 2824SOL    HW1 9371   3.008   1.792   4.645
 2824SOL    HW2 9372   3.089   1.691   4.545
 2825SOL     OW 9373   6.593   6.443   0.991
 2825SOL    HW1 9374   6.494   6.429   0.996
 2825SOL    HW2 9375   6.630   6.453   1.084
 2826SOL     OW 9376   4.793   2.376   4.551
 2826SOL    HW1 9377   4.879   2.329   4.568
 2826SOL    HW2 9378   4.717   2.317   4.578
 2827SOL     OW 9379   5.522   0.750   5.718
 2827SOL    HW1 9380   5.462   0.731   5.795
 2827SOL    HW2 9381   5.614   0.773   5.753
 2828SOL     OW 9382   2.962   2.352   6.299
 2828SOL    HW1 9383   3.059   2.375   6.301
 2828SOL    HW2 9384   2.942   2.285   6.370
 2829SOL     OW 9385   1.757   0.073   6.690
 2829SOL    HW1 9386   1.738   7.016   6.742
 2829SOL    HW2 9387   1.758   0.053   6.593
 2830SOL     OW 9388   3.597   3.242   6.642
 2830SOL    HW1 9389   3.563   3.152   6.615
 2830SOL    HW2 9390   3.558   3.313   6.583
 2831SOL     OW 9391   6.105   5.796   4.402
 2831SOL    HW1 9392   6.087   5.766   4.495
 2831SOL    HW2 9393   6.105   5.717   4.341
 2832SOL     OW 9394   0.394   0.940   1.977
 2832SOL    HW1 9395   0.423   0.850   2.010
 2832SOL    HW2 9396   0.456   0.970   1.905
 2833SOL     OW 9397   5.910   2.950   2.175
 2833SOL    HW1 9398   5.933   3.046   2.163
 2833SOL    HW2 9399   5.854   2.939   2.258
 2834SOL     OW 9400   3.235   0.839   6.091
 2834SOL    HW1 9401   3.322   0.800   6.120
 2834SOL    HW2 9402   3.213   0.919   6.147
 2835SOL     OW 9403   0.849   6.534   3.119
 2835SOL    HW1 9404   0.918   6.607   3.113
 2835SOL    HW2 9405   0.886   6.457   3.170
 2836SOL     OW 9406   6.474   0.707   0.766
 2836SOL    HW1 9407   6.562   0.746   0.794
 2836SOL    HW2 9408   6.401   0.774   0.783
 2837SOL     OW 9409   5.970   3.298   3.561
 2837SOL    HW1 9410   5.884   3.263   3.522
 2837SOL    HW2 9411   5.966   3.293   3.660
 2838SOL     OW 9412   2.475   5.287   3.643
 2838SOL    HW1 9413   2.568   5.307   3.672
 2838SOL    HW2 9414   2.411   5.327   3.709
 2839SOL     OW 9415   4.852   1.921   1.367
 2839SOL    HW1 9416   4.780   1.980   1.329
 2839SOL    HW2 9417   4.818   1.827   1.371
 2840SOL     OW 9418   0.096   1.715   5.588
 2840SOL    HW1 9419   0.158   1.636   5.588
 2840SOL    HW2 9420   0.095   1.757   5.497
 2841SOL     OW 9421   0.715   6.257   1.216
 2841SOL    HW1 9422   0.677   6.164   1.219
 2841SOL    HW2 9423   0.644   6.321   1.186
 2842SOL     OW 9424   6.224   3.374   3.572
 2842SOL    HW1 9425   6.261   3.318   3.646
 2842SOL    HW2 9426   6.141   3.332   3.537
 2843SOL     OW 9427   3.977   2.009   4.818
 2843SOL    HW1 9428   4.017   1.924   4.852
 2843SOL    HW2 9429   4.050   2.073   4.794
 2844SOL     OW 9430   6.764   3.755   5.702
 2844SOL    HW1 9431   6.818   3.829   5.741
 2844SOL    HW2 9432   6.677   3.747   5.752
 2845SOL     OW 9433   6.470   4.239   5.180
 2845SOL    HW1 9434   6.471   4.140   5.165
 2845SOL    HW2 9435   6.377   4.274   5.163
 2846SOL     OW 9436   4.741   1.946   6.468
 2846SOL    HW1 9437   4.724   1.988   6.379
 2846SOL    HW2 9438   4.694   1.858   6.473
 2847SOL     OW 9439   4.885   4.592   4.050
 2847SOL    HW1 9440   4.926   4.608   3.960
 2847SOL    HW2 9441   4.867   4.680   4.094
 2848SOL     OW 9442   1.011   5.648   4.853
 2848SOL    HW1 9443   1.058   5.609   4.932
 2848SOL    HW2 9444   0.987   5.575   4.789
 2849SOL     OW 9445   2.317   2.722   1.361
 2849SOL    HW1 9446   2.391   2.660   1.334
 2849SOL    HW2 9447   2.248   2.671   1.413
 2850SOL     OW 9448   3.587   1.226   0.078
 2850SOL    HW1 9449   3.661   1.249   0.015
 2850SOL    HW2 9450   3.501   1.216   0.028
 2851SOL     OW 9451   2.518   4.515   6.584
 2851SOL    HW1 9452   2.611   4.526   6.548
 2851SOL    HW2 9453   2.522   4.498   6.682
 2852SOL     OW 9454   0.324   3.408   6.339
 2852SOL    HW1 9455   0.358   3.498   6.311
 2852SOL    HW2 9456   0.395   3.361   6.392
 2853SOL     OW 9457   3.498   3.429   1.506
 2853SOL    HW1 9458   3.524   3.335   1.528
 2853SOL    HW2 9459   3.400   3.441   1.523
 2854SOL     OW 9460   1.479   1.253   3.585
 2854SOL    HW1 9461   1.383   1.254   3.556
 2854SOL    HW2 9462   1.536   1.216   3.512
 2855SOL     OW 9463   2.884   0.949   5.223
 2855SOL    HW1 9464   2.872   0.939   5.124
 2855SOL    HW2 9465   2.886   1.046   5.247
 2856SOL     OW 9466   2.439   1.946   4.882
 2856SOL    HW1 9467   2.489   1.863   4.862
 2856SOL    HW2 9468   2.362   1.925   4.942
 2857SOL     OW 9469   3.000   3.798   2.878
 2857SOL    HW1 9470   3.008   3.747   2.793
 2857SOL    HW2 9471   3.001   3.734   2.955
 2858SOL     OW 9472   5.851   3.302   2.886
 2858SOL    HW1 9473   5.847   3.280   2.789
 2858SOL    HW2 9474   5.762   3.338   2.916
 2859SOL     OW 9475   6.258   6.692   0.314
 2859SOL    HW1 9476   6.164   6.678   0.347
 2859SOL    HW2 9477   6.257   6.748   0.232
 2860SOL     OW 9478   4.411   1.725   1.812
 2860SOL    HW1 9479   4.366   1.784   1.745
 2860SOL    HW2 9480   4.411   1.771   1.902
 2861SOL     OW 9481   3.484   5.845   5.680
 2861SOL    HW1 9482   3.555   5.783   5.712
 2861SOL    HW2 9483   3.394   5.803   5.695
 2862SOL     OW 9484   5.765   0.347   4.526
 2862SOL    HW1 9485   5.682   0.303   4.558
 2862SOL    HW2 9486   5.792   0.419   4.590
 2863SOL     OW 9487   6.108   1.647   0.046
 2863SOL    HW1 9488   6.174   1.712   0.007
 2863SOL    HW2 9489   6.137   1.554   0.024
 2864SOL     OW 9490   3.065   1.216   0.040
 2864SOL    HW1 9491   3.070   1.133   7.012
 2864SOL    HW2 9492   2.976   1.260   0.026
 2865SOL     OW 9493   4.835   5.011   4.807
 2865SOL    HW1 9494   4.799   5.105   4.806
 2865SOL    HW2 9495   4.804   4.962   4.726
 2866SOL     OW 9496   0.022   6.597   6.296
 2866SOL    HW1 9497   7.015   6.514   6.342
 2866SOL    HW2 9498   0.005   6.676   6.355
 2867SOL     OW 9499   6.326   4.122   3.307
 2867SOL    HW1 9500   6.231   4.101   3.284
 2867SOL    HW2 9501   6.329   4.189   3.381
 2868SOL     OW 9502   1.632   4.840   5.705
 2868SOL    HW1 9503   1.659   4.744   5.706
 2868SOL    HW2 9504   1.598   4.865   5.796
 2869SOL     OW 9505   6.142   1.593   2.652
 2869SOL    HW1 9506   6.184   1.574   2.740
 2869SOL    HW2 9507   6.205   1.569   2.579
 2870SOL     OW 9508   4.874   1.855   2.581
 2870SOL    HW1 9509   4.945   1.926   2.585
 2870SOL    HW2 9510   4.799   1.886   2.522
 2871SOL     OW 9511   1.621   2.147   5.767
 2871SOL    HW1 9512   1.522   2.159   5.757
 2871SOL    HW2 9513   1.640   2.052   5.794
 2872SOL     OW 9514   2.580   6.261   4.050
 2872SOL    HW1 9515   2.625   6.347   4.026
 2872SOL    HW2 9516   2.644   6.201   4.096
 2873SOL     OW 9517   6.927   5.271   1.521
 2873SOL    HW1 9518   7.019   5.268   1.559
 2873SOL    HW2 9519   6.870   5.202   1.566
 2874SOL     OW 9520   5.833   1.922   2.081
 2874SOL    HW1 9521   5.746   1.875   2.097
 2874SOL    HW2 9522   5.894   1.906   2.159
 2875SOL     OW 9523   3.412   5.101   0.202
 2875SOL    HW1 9524   3.489   5.130   0.145
 2875SOL    HW2 9525   3.446   5.067   0.290
 2876SOL     OW 9526   6.675   1.272   2.146
 2876SOL    HW1 9527   6.662   1.173   2.148
 2876SOL    HW2 9528   6.604   1.314   2.089
 2877SOL     OW 9529   2.406   3.094   6.199
 2877SOL    HW1 9530   2.422   3.085   6.297
 2877SOL    HW2 9531   2.317   3.138   6.184
 2878SOL     OW 9532   3.268   4.409   7.020
 2878SOL    HW1 9533   3.222   4.459   6.946
 2878SOL    HW2 9534   3.324   4.473   0.047
 2879SOL     OW 9535   5.376   4.837   6.756
 2879SOL    HW1 9536   5.337   4.770   6.819
 2879SOL    HW2 9537   5.367   4.803   6.662
 2880SOL     OW 9538   1.134   6.075   1.383
 2880SOL    HW1 9539   1.101   6.168   1.402
 2880SOL    HW2 9540   1.234   6.076   1.377
 2881SOL     OW 9541   0.001   6.979   0.334
 2881SOL    HW1 9542   6.961   0.026   0.348
 2881SOL    HW2 9543   0.049   6.961   0.419
 2882SOL     OW 9544   6.859   3.031   3.178
 2882SOL    HW1 9545   6.857   3.129   3.160
 2882SOL    HW2 9546   6.774   3.003   3.223
 2883SOL     OW 9547   4.607   6.941   2.239
 2883SOL    HW1 9548   4.697   6.969   2.204
 2883SOL    HW2 9549   4.585   6.995   2.320
 2884SOL     OW 9550   1.244   5.989   3.166
 2884SOL    HW1 9551   1.205   5.902   3.136
 2884SOL    HW2 9552   1.331   5.972   3.213
 2885SOL     OW 9553   0.288   1.983   3.458
 2885SOL    HW1 9554   0.330   2.065   3.497
 2885SOL    HW2 9555   0.349   1.942   3.391
 2886SOL     OW 9556   2.235   2.768   6.263
 2886SOL    HW1 9557   2.221   2.866   6.249
 2886SOL    HW2 9558   2.172   2.716   6.205
 2887SOL     OW 9559   1.785   0.941   4.733
 2887SOL    HW1 9560   1.788   0.956   4.634
 2887SOL    HW2 9561   1.857   0.995   4.777
 2888SOL     OW 9562   6.629   5.097   6.741
 2888SOL    HW1 9563   6.594   5.189   6.759
 2888SOL    HW2 9564   6.593   5.034   6.810
 2889SOL     OW 9565   0.834   0.019   2.214
 2889SOL    HW1 9566   0.794   0.102   2.174
 2889SOL    HW2 9567   0.817   0.019   2.313
 2890SOL     OW 9568   3.428   7.021   0.670
 2890SOL    HW1 9569   3.422   6.982   0.579
 2890SOL    HW2 9570   3.389   0.087   0.670
 2891SOL     OW 9571   2.598   5.057   4.019
 2891SOL    HW1 9572   2.520   4.996   4.002
 2891SOL    HW2 9573   2.574   5.149   3.989
 2892SOL     OW 9574   4.649   4.208   5.727
 2892SOL    HW1 9575   4.580   4.249   5.785
 2892SOL    HW2 9576   4.698   4.279   5.676
 2893SOL     OW 9577   3.053   0.710   6.353
 2893SOL    HW1 9578   3.067   0.801   6.314
 2893SOL    HW2 9579   2.961   0.678   6.330
 2894SOL     OW 9580   3.565   3.165   0.813
 2894SOL    HW1 9581   3.631   3.227   0.770
 2894SOL    HW2 9582   3.475   3.177   0.771
 2895SOL     OW 9583   2.966   3.756   6.363
 2895SOL    HW1 9584   2.983   3.847   6.326
 2895SOL    HW2 9585   2.884   3.758   6.419
 2896SOL     OW 9586   2.143   5.259   1.290
 2896SOL    HW1 9587   2.102   5.172   1.316
 2896SOL    HW2 9588   2.242   5.251   1.292
 2897SOL     OW 9589   1.847   6.463   3.811
 2897SOL    HW1 9590   1.748   6.452   3.824
 2897SOL    HW2 9591   1.866   6.559   3.790
 2898SOL     OW 9592   2.976   5.214   2.295
 2898SOL    HW1 9593   3.052   5.206   2.359
 2898SOL    HW2 9594   3.004   5.178   2.206
 2899SOL     OW 9595   6.573   0.295   6.845
 2899SOL    HW1 9596   6.517   0.256   6.918
 2899SOL    HW2 9597   6.669   0.271   6.859
 2900SOL     OW 9598   2.199   5.465   6.036
 2900SOL    HW1 9599   2.147   5.520   5.971
 2900SOL    HW2 9600   2.209   5.372   6.001
 2901SOL     OW 9601   2.869   0.991   1.664
 2901SOL    HW1 9602   2.821   1.069   1.703
 2901SOL    HW2 9603   2.842   0.979   1.569
 2902SOL     OW 9604   5.640   5.814   1.329
 2902SOL    HW1 9605   5.657   5.740   1.263
 2902SOL    HW2 9606   5.586   5.885   1.286
 2903SOL     OW 9607   2.482   2.148   2.472
 2903SOL    HW1 9608   2.559   2.190   2.424
 2903SOL    HW2 9609   2.429   2.219   2.519
 2904SOL     OW 9610   1.889   3.253   5.019
 2904SOL    HW1 9611   1.961   3.185   5.006
 2904SOL    HW2 9612   1.928   3.344   5.007
 2905SOL     OW 9613   1.522   2.427   1.426
 2905SOL    HW1 9614   1.546   2.511   1.377
 2905SOL    HW2 9615   1.501   2.355   1.359
 2906SOL     OW 9616   5.611   5.761   1.985
 2906SOL    HW1 9617   5.556   5.720   1.912
 2906SOL    HW2 9618   5.551   5.801   2.054
 2907SOL     OW 9619   6.639   0.768   3.816
 2907SOL    HW1 9620   6.685   0.703   3.756
 2907SOL    HW2 9621   6.540   0.750   3.816
 2908SOL     OW 9622   3.995   6.491   4.618
 2908SOL    HW1 9623   3.940   6.411   4.596
 2908SOL    HW2 9624   4.050   6.516   4.539
 2909SOL     OW 9625   2.014   5.812   4.863
 2909SOL    HW1 9626   1.952   5.837   4.938
 2909SOL    HW2 9627   2.079   5.743   4.894
 2910SOL     OW 9628   5.569   6.240   5.960
 2910SOL    HW1 9629   5.558   6.152   5.915
 2910SOL    HW2 9630   5.502   6.248   6.034
 2911SOL     OW 9631   1.641   4.045   3.521
 2911SOL    HW1 9632   1.716   4.104   3.550
 2911SOL    HW2 9633   1.570   4.044   3.592
 2912SOL     OW 9634   2.570   5.579   0.977
 2912SOL    HW1 9635   2.663   5.543   0.971
 2912SOL    HW2 9636   2.557   5.652   0.910
 2913SOL     OW 9637   0.949   2.671   2.996
 2913SOL    HW1 9638   0.894   2.735   3.049
 2913SOL    HW2 9639   1.043   2.703   2.991
 2914SOL     OW 9640   5.109   5.295   5.502
 2914SOL    HW1 9641   5.203   5.323   5.482
 2914SOL    HW2 9642   5.107   5.241   5.586
 2915SOL     OW 9643   4.378   1.215   4.174
 2915SOL    HW1 9644   4.435   1.297   4.169
 2915SOL    HW2 9645   4.285   1.241   4.197
 2916SOL     OW 9646   5.081   5.861   4.430
 2916SOL    HW1 9647   5.117   5.938   4.484
 2916SOL    HW2 9648   5.112   5.870   4.335
 2917SOL     OW 9649   4.510   1.169   2.753
 2917SOL    HW1 9650   4.441   1.195   2.685
 2917SOL    HW2 9651   4.595   1.144   2.707
 2918SOL     OW 9652   0.043   3.908   3.565
 2918SOL    HW1 9653   6.980   3.864   3.558
 2918SOL    HW2 9654   0.039   3.997   3.518
 2919SOL     OW 9655   6.897   6.111   0.129
 2919SOL    HW1 9656   6.931   6.096   0.221
 2919SOL    HW2 9657   6.964   6.165   0.077
 2920SOL     OW 9658   4.413   2.363   3.275
 2920SOL    HW1 9659   4.345   2.300   3.239
 2920SOL    HW2 9660   4.400   2.373   3.374
 2921SOL     OW 9661   0.776   0.264   2.120
 2921SOL    HW1 9662   0.750   0.275   2.024
 2921SOL    HW2 9663   0.746   0.345   2.171
 2922SOL     OW 9664   4.115   6.862   5.523
 2922SOL    HW1 9665   4.164   6.811   5.593
 2922SOL    HW2 9666   4.016   6.856   5.540
 2923SOL     OW 9667   6.300   4.176   1.290
 2923SOL    HW1 9668   6.309   4.273   1.268
 2923SOL    HW2 9669   6.252   4.167   1.378
 2924SOL     OW 9670   5.911   1.106   5.596
 2924SOL    HW1 9671   5.850   1.095   5.674
 2924SOL    HW2 9672   5.959   1.020   5.579
 2925SOL     OW 9673   5.451   3.991   1.326
 2925SOL    HW1 9674   5.454   4.020   1.230
 2925SOL    HW2 9675   5.362   3.948   1.344
 2926SOL     OW 9676   0.280   1.168   4.580
 2926SOL    HW1 9677   0.243   1.122   4.500
 2926SOL    HW2 9678   0.231   1.136   4.662
 2927SOL     OW 9679   0.684   2.459   2.778
 2927SOL    HW1 9680   0.621   2.454   2.855
 2927SOL    HW2 9681   0.720   2.551   2.770
 2928SOL     OW 9682   6.059   6.375   0.933
 2928SOL    HW1 9683   6.061   6.443   1.006
 2928SOL    HW2 9684   6.145   6.325   0.931
 2929SOL     OW 9685   0.890   6.750   6.021
 2929SOL    HW1 9686   0.814   6.799   5.978
 2929SOL    HW2 9687   0.976   6.775   5.975
 2930SOL     OW 9688   3.625   6.667   4.542
 2930SOL    HW1 9689   3.633   6.759   4.581
 2930SOL    HW2 9690   3.666   6.666   4.451
 2931SOL     OW 9691   4.032   5.950   5.942
 2931SOL    HW1 9692   4.071   5.968   6.032
 2931SOL    HW2 9693   3.995   6.034   5.904
 2932SOL     OW 9694   1.350   4.627   1.905
 2932SOL    HW1 9695   1.325   4.587   1.993
 2932SOL    HW2 9696   1.332   4.726   1.908
 2933SOL     OW 9697   5.027   1.548   3.662
 2933SOL    HW1 9698   5.082   1.601   3.597
 2933SOL    HW2 9699   4.955   1.606   3.700
 2934SOL     OW 9700   2.742   0.470   0.058
 2934SOL    HW1 9701   2.822   0.530   0.072
 2934SOL    HW2 9702   2.773   0.375   0.052
 2935SOL     OW 9703   6.267   2.000   1.323
 2935SOL    HW1 9704   6.359   2.027   1.292
 2935SOL    HW2 9705   6.256   1.901   1.312
 2936SOL     OW 9706   4.082   6.073   0.704
 2936SOL    HW1 9707   4.005   6.136   0.716
 2936SOL    HW2 9708   4.082   6.039   0.610
 2937SOL     OW 9709   3.277   4.685   0.956
 2937SOL    HW1 9710   3.312   4.777   0.935
 2937SOL    HW2 9711   3.177   4.685   0.952
 2938SOL     OW 9712   4.935   5.032   5.569
 2938SOL    HW1 9713   4.906   4.979   5.649
 2938SOL    HW2 9714   5.029   5.064   5.583
 2939SOL     OW 9715   0.133   6.087   5.711
 2939SOL    HW1 9716   0.218   6.055   5.753
 2939SOL    HW2 9717   0.152   6.122   5.620
 2940SOL     OW 9718   4.263   0.630   5.535
 2940SOL    HW1 9719   4.272   0.616   5.633
 2940SOL    HW2 9720   4.339   0.686   5.502
 2941SOL     OW 9721   2.248   2.456   4.883
 2941SOL    HW1 9722   2.226   2.552   4.899
 2941SOL    HW2 9723   2.281   2.415   4.968
 2942SOL     OW 9724   3.585   6.560   4.133
 2942SOL    HW1 9725   3.642   6.481   4.114
 2942SOL    HW2 9726   3.561   6.606   4.048
 2943SOL     OW 9727   5.921   4.238   3.306
 2943SOL    HW1 9728   5.953   4.274   3.394
 2943SOL    HW2 9729   5.933   4.307   3.235
 2944SOL     OW 9730   3.665   5.942   6.067
 2944SOL    HW1 9731   3.722   5.871   6.025
 2944SOL    HW2 9732   3.659   5.927   6.165
 2945SOL     OW 9733   3.121   3.058   3.685
 2945SOL    HW1 9734   3.099   3.079   3.781
 2945SOL    HW2 9735   3.107   3.140   3.630
 2946SOL     OW 9736   6.518   5.895   5.938
 2946SOL    HW1 9737   6.514   5.956   5.859
 2946SOL    HW2 9738   6.614   5.870   5.956
 2947SOL     OW 9739   6.562   4.668   6.990
 2947SOL    HW1 9740   6.620   4.720   6.928
 2947SOL    HW2 9741   6.619   4.620   0.030
 2948SOL     OW 9742   6.376   4.591   4.937
 2948SOL    HW1 9743   6.320   4.648   4.996
 2948SOL    HW2 9744   6.374   4.496   4.970
 2949SOL     OW 9745   1.429   6.390   0.424
 2949SOL    HW1 9746   1.457   6.303   0.464
 2949SOL    HW2 9747   1.504   6.428   0.369
 2950SOL     OW 9748   5.296   3.545   4.452
 2950SOL    HW1 9749   5.289   3.642   4.479
 2950SOL    HW2 9750   5.365   3.536   4.380
 2951SOL     OW 9751   6.499   1.112   1.594
 2951SOL    HW1 9752   6.512   1.022   1.552
 2951SOL    HW2 9753   6.406   1.145   1.574
 2952SOL     OW 9754   1.689   3.495   2.158
 2952SOL    HW1 9755   1.731   3.577   2.197
 2952SOL    HW2 9756   1.723   3.414   2.205
 2953SOL     OW 9757   5.824   0.711   2.877
 2953SOL    HW1 9758   5.733   0.744   2.849
 2953SOL    HW2 9759   5.822   0.611   2.883
 2954SOL     OW 9760   6.189   6.727   1.777
 2954SOL    HW1 9761   6.174   6.743   1.874
 2954SOL    HW2 9762   6.133   6.789   1.723
 2955SOL     OW 9763   5.975   3.038   0.605
 2955SOL    HW1 9764   6.010   3.131   0.605
 2955SOL    HW2 9765   6.045   2.976   0.568
 2956SOL     OW 9766   6.512   5.701   2.414
 2956SOL    HW1 9767   6.437   5.636   2.397
 2956SOL    HW2 9768   6.481   5.794   2.395
 2957SOL     OW 9769   0.710   3.798   1.338
 2957SOL    HW1 9770   0.688   3.722   1.399
 2957SOL    HW2 9771   0.809   3.817   1.342
 2958SOL     OW 9772   2.531   4.906   5.988
 2958SOL    HW1 9773   2.575   4.914   6.077
 2958SOL    HW2 9774   2.565   4.979   5.928
 2959SOL     OW 9775   4.035   5.296   6.856
 2959SOL    HW1 9776   3.967   5.227   6.831
 2959SOL    HW2 9777   4.021   5.323   6.951
 2960SOL     OW 9778   2.384   1.904   6.737
 2960SOL    HW1 9779   2.328   1.848   6.676
 2960SOL    HW2 9780   2.326   1.967   6.788
 2961SOL     OW 9781   5.578   2.872   4.630
 2961SOL    HW1 9782   5.543   2.779   4.626
 2961SOL    HW2 9783   5.666   2.877   4.583
 2962SOL     OW 9784   3.987   1.247   4.003
 2962SOL    HW1 9785   4.008   1.161   4.049
 2962SOL    HW2 9786   4.064   1.275   3.946
 2963SOL     OW 9787   1.934   2.802   4.881
 2963SOL    HW1 9788   1.844   2.785   4.923
 2963SOL    HW2 9789   1.954   2.729   4.816
 2964SOL     OW 9790   3.090   6.006   0.576
 2964SOL    HW1 9791   3.163   6.063   0.615
 2964SOL    HW2 9792   3.130   5.940   0.512
 2965SOL     OW 9793   0.669   2.416   5.994
 2965SOL    HW1 9794   0.760   2.387   6.024
 2965SOL    HW2 9795   0.650   2.379   5.903
 2966SOL     OW 9796   4.546   4.452   3.855
 2966SOL    HW1 9797   4.484   4.531   3.851
 2966SOL    HW2 9798   4.539   4.400   3.770
 2967SOL     OW 9799   5.899   1.585   4.015
 2967SOL    HW1 9800   5.934   1.577   3.921
 2967SOL    HW2 9801   5.799   1.574   4.013
 2968SOL     OW 9802   6.797   3.845   3.523
 2968SOL    HW1 9803   6.782   3.751   3.493
 2968SOL    HW2 9804   6.712   3.897   3.513
 2969SOL     OW 9805   4.617   1.461   5.293
 2969SOL    HW1 9806   4.680   1.534   5.266
 2969SOL    HW2 9807   4.606   1.397   5.217
 2970SOL     OW 9808   1.232   4.466   6.523
 2970SOL    HW1 9809   1.152   4.456   6.464
 2970SOL    HW2 9810   1.306   4.408   6.489
 2971SOL     OW 9811   5.417   3.156   3.484
 2971SOL    HW1 9812   5.384   3.104   3.406
 2971SOL    HW2 9813   5.422   3.253   3.459
 2972SOL     OW 9814   0.457   4.183   5.966
 2972SOL    HW1 9815   0.407   4.214   5.885
 2972SOL    HW2 9816   0.536   4.243   5.981
 2973SOL     OW 9817   5.417   5.940   4.575
 2973SOL    HW1 9818   5.319   5.959   4.578
 2973SOL    HW2 9819   5.466   6.006   4.633
 2974SOL     OW 9820   0.436   3.647   2.202
 2974SOL    HW1 9821   0.423   3.627   2.104
 2974SOL    HW2 9822   0.413   3.566   2.256
 2975SOL     OW 9823   0.454   0.986   4.833
 2975SOL    HW1 9824   0.419   0.929   4.759
 2975SOL    HW2 9825   0.430   1.081   4.816
 2976SOL     OW 9826   3.781   7.019   1.949
 2976SOL    HW1 9827   3.854   0.050   1.911
 2976SOL    HW2 9828   3.705   0.051   1.978
 2977SOL     OW 9829   3.277   6.615   4.023
 2977SOL    HW1 9830   3.275   6.715   4.028
 2977SOL    HW2 9831   3.370   6.584   4.005
 2978SOL     OW 9832   4.174   6.250   0.001
 2978SOL    HW1 9833   4.259   6.196   0.003
 2978SOL    HW2 9834   4.164   6.292   6.937
 2979SOL     OW 9835   3.197   0.688   3.390
 2979SOL    HW1 9836   3.158   0.713   3.301
 2979SOL    HW2 9837   3.160   0.748   3.461
 2980SOL     OW 9838   6.758   6.369   3.810
 2980SOL    HW1 9839   6.710   6.299   3.864
 2980SOL    HW2 9840   6.845   6.333   3.778
 2981SOL     OW 9841   2.191   1.161   5.180
 2981SOL    HW1 9842   2.097   1.185   5.154
 2981SOL    HW2 9843   2.199   1.061   5.183
 2982SOL     OW 9844   4.538   0.240   3.192
 2982SOL    HW1 9845   4.514   0.331   3.159
 2982SOL    HW2 9846   4.492   0.171   3.136
 2983SOL     OW 9847   6.345   0.276   3.324
 2983SOL    HW1 9848   6.363   0.313   3.234
 2983SOL    HW2 9849   6.252   0.299   3.352
 2984SOL     OW 9850   5.153   4.922   1.983
 2984SOL    HW1 9851   5.129   5.003   2.038
 2984SOL    HW2 9852   5.231   4.876   2.025
 2985SOL     OW 9853   6.480   2.182   3.146
 2985SOL    HW1 9854   6.539   2.130   3.085
 2985SOL    HW2 9855   6.534   2.216   3.224
 2986SOL     OW 9856   2.277   3.769   5.249
 2986SOL    HW1 9857   2.349   3.830   5.217
 2986SOL    HW2 9858   2.200   3.772   5.186
 2987SOL     OW 9859   4.584   2.534   4.937
 2987SOL    HW1 9860   4.506   2.472   4.929
 2987SOL    HW2 9861   4.669   2.481   4.925
 2988SOL     OW 9862   0.961   0.385   2.346
 2988SOL    HW1 9863   0.998   0.329   2.272
 2988SOL    HW2 9864   0.939   0.327   2.424
 2989SOL     OW 9865   6.482   5.100   0.882
 2989SOL    HW1 9866   6.407   5.068   0.824
 2989SOL    HW2 9867   6.504   5.195   0.859
 2990SOL     OW 9868   3.679   0.283   1.048
 2990SOL    HW1 9869   3.590   0.252   1.080
 2990SOL    HW2 9870   3.707   0.363   1.101
 2991SOL     OW 9871   6.543   4.647   0.837
 2991SOL    HW1 9872   6.606   4.649   0.915
 2991SOL    HW2 9873   6.595   4.647   0.752
 2992SOL     OW 9874   4.099   4.515   6.417
 2992SOL    HW1 9875   4.177   4.457   6.394
 2992SOL    HW2 9876   4.050   4.476   6.495
 2993SOL     OW 9877   1.755   5.263   0.926
 2993SOL    HW1 9878   1.694   5.262   1.005
 2993SOL    HW2 9879   1.850   5.264   0.956
 2994SOL     OW 9880   4.427   6.732   0.176
 2994SOL    HW1 9881   4.397   6.645   0.137
 2994SOL    HW2 9882   4.433   6.724   0.275
 2995SOL     OW 9883   2.863   1.293   5.902
 2995SOL    HW1 9884   2.790   1.348   5.860
 2995SOL    HW2 9885   2.950   1.315   5.858
 2996SOL     OW 9886   4.147   5.820   5.696
 2996SOL    HW1 9887   4.115   5.864   5.779
 2996SOL    HW2 9888   4.197   5.736   5.720
 2997SOL     OW 9889   5.346   6.628   0.254
 2997SOL    HW1 9890   5.254   6.667   0.244
 2997SOL    HW2 9891   5.342   6.550   0.316
 2998SOL     OW 9892   6.699   5.671   5.099
 2998SOL    HW1 9893   6.716   5.644   5.194
 2998SOL    HW2 9894   6.649   5.599   5.051
 2999SOL     OW 9895   3.322   6.293   2.491
 2999SOL    HW1 9896   3.248   6.292   2.558
 2999SOL    HW2 9897   3.357   6.200   2.479
 3000SOL     OW 9898   2.063   3.039   4.963
 3000SOL    HW1 9899   2.147   3.060   4.913
 3000SOL    HW2 9900   2.015   2.963   4.919
 3001SOL     OW 9901   4.281   0.286   6.076
 3001SOL    HW1 9902   4.224   0.297   6.158
 3001SOL    HW2 9903   4.373   0.322   6.094
 3002SOL     OW 9904   3.922   0.074   5.642
 3002SOL    HW1 9905   3.892   0.130   5.565
 3002SOL    HW2 9906   3.901   7.004   5.624
 3003SOL     OW 9907   2.498   0.344   6.370
 3003SOL    HW1 9908   2.443   0.419   6.407
 3003SOL    HW2 9909   2.530   0.368   6.279
 3004SOL     OW 9910   6.496   3.313   4.756
 3004SOL    HW1 9911   6.564   3.386   4.761
 3004SOL    HW2 9912   6.529   3.241   4.694
 3005SOL     OW 9913   4.607   2.224   1.504
 3005SOL    HW1 9914   4.678   2.210   1.574
 3005SOL    HW2 9915   4.577   2.319   1.505
 3006SOL     OW 9916   5.519   0.506   1.625
 3006SOL    HW1 9917   5.590   0.457   1.575
 3006SOL    HW2 9918   5.431   0.459   1.614
 3007SOL     OW 9919   6.556   5.631   2.075
 3007SOL    HW1 9920   6.547   5.730   2.078
 3007SOL    HW2 9921   6.472   5.589   2.111
 3008SOL     OW 9922   3.629   5.208   5.783
 3008SOL    HW1 9923   3.634   5.297   5.737
 3008SOL    HW2 9924   3.703   5.149   5.748
 3009SOL     OW 9925   1.412   0.966   3.307
 3009SOL    HW1 9926   1.378   0.998   3.395
 3009SOL    HW2 9927   1.337   0.966   3.240
 3010SOL     OW 9928   4.021   0.187   1.757
 3010SOL    HW1 9929   3.945   0.235   1.714
 3010SOL    HW2 9930   4.100   0.189   1.696
 3011SOL     OW 9931   5.346   0.691   6.703
 3011SOL    HW1 9932   5.304   0.781   6.705
 3011SOL    HW2 9933   5.337   0.648   6.793
 3012SOL     OW 9934   6.840   4.176   2.351
 3012SOL    HW1 9935   6.938   4.188   2.372
 3012SOL    HW2 9936   6.821   4.079   2.336
 3013SOL     OW 9937   5.867   4.721   2.394
 3013SOL    HW1 9938   5.794   4.756   2.336
 3013SOL    HW2 9939   5.942   4.788   2.397
 3014SOL     OW 9940   4.617   1.248   5.077
 3014SOL    HW1 9941   4.688   1.302   5.032
 3014SOL    HW2 9942   4.635   1.151   5.061
 3015SOL     OW 9943   3.012   2.637   6.602
 3015SOL    HW1 9944   3.017   2.641   6.503
 3015SOL    HW2 9945   2.924   2.598   6.630
 3016SOL     OW 9946   3.710   6.323   3.354
 3016SOL    HW1 9947   3.727   6.270   3.437
 3016SOL    HW2 9948   3.641   6.393   3.372
 3017SOL     OW 9949   6.844   5.985   1.253
 3017SOL    HW1 9950   6.916   5.974   1.185
 3017SOL    HW2 9951   6.852   5.913   1.322
 3018SOL     OW 9952   3.554   6.535   6.585
 3018SOL    HW1 9953   3.458   6.507   6.578
 3018SOL    HW2 9954   3.597   6.528   6.495
 3019SOL     OW 9955   4.909   0.431   2.203
 3019SOL    HW1 9956   4.942   0.461   2.114
 3019SOL    HW2 9957   4.829   0.484   2.229
 3020SOL     OW 9958   1.250   1.642   0.631
 3020SOL    HW1 9959   1.253   1.742   0.632
 3020SOL    HW2 9960   1.211   1.611   0.544
 3021SOL     OW 9961   3.191   1.302   6.544
 3021SOL    HW1 9962   3.119   1.305   6.613
 3021SOL    HW2 9963   3.150   1.287   6.454
 3022SOL     OW 9964   4.892   6.865   2.835
 3022SOL    HW1 9965   4.813   6.885   2.778
 3022SOL    HW2 9966   4.911   6.942   2.895
 3023SOL     OW 9967   5.555   6.606   2.126
 3023SOL    HW1 9968   5.464   6.566   2.120
 3023SOL    HW2 9969   5.558   6.671   2.202
 3024SOL     OW 9970   2.849   6.256   0.109
 3024SOL    HW1 9971   2.800   6.250   0.022
 3024SOL    HW2 9972   2.938   6.211   0.100
 3025SOL     OW 9973   1.921   2.155   1.718
 3025SOL    HW1 9974   1.921   2.236   1.776
 3025SOL    HW2 9975   1.891   2.076   1.771
 3026SOL     OW 9976   2.143   4.564   1.043
 3026SOL    HW1 9977   2.200   4.482   1.047
 3026SOL    HW2 9978   2.078   4.563   1.119
 3027SOL     OW 9979   1.299   1.629   3.976
 3027SOL    HW1 9980   1.349   1.716   3.977
 3027SOL    HW2 9981   1.205   1.644   4.006
 3028SOL     OW 9982   1.834   6.997   4.796
 3028SOL    HW1 9983   1.734   6.999   4.800
 3028SOL    HW2 9984   1.870   0.060   4.822
 3029SOL     OW 9985   5.158   7.006   5.577
 3029SOL    HW1 9986   5.100   6.948   5.635
 3029SOL    HW2 9987   5.106   0.058   5.545
 3030SOL     OW 9988   1.373   2.234   5.722
 3030SOL    HW1 9989   1.312   2.302   5.764
 3030SOL    HW2 9990   1.381   2.253   5.624
 3031SOL     OW 9991   1.489   4.808   6.794
 3031SOL    HW1 9992   1.490   4.755   6.709
 3031SOL    HW2 9993   1.420   4.771   6.856
 3032SOL     OW 9994   4.493   0.467   6.196
 3032SOL    HW1 9995   4.581   0.421   6.191
 3032SOL    HW2 9996   4.487   0.520   6.281
 3033SOL     OW 9997   5.426   4.031   6.392
 3033SOL    HW1 9998   5.369   3.953   6.364
 3033SOL    HW2 9999   5.468   4.012   6.480
 3034SOL     OW10000   2.404   0.244   4.402
 3034SOL    HW110001   2.356   0.240   4.490
 3034SOL    HW210002   2.503   0.249   4.418
 3035SOL     OW10003   6.466   0.217   0.125
 3035SOL    HW110004   6.538   0.156   0.158
 3035SOL    HW210005   6.474   0.305   0.170
 3036SOL     OW10006   1.480   4.616   6.602
 3036SOL    HW110007   1.498   4.650   6.510
 3036SOL    HW210008   1.395   4.563   6.602
 3037SOL     OW10009   6.815   6.556   5.285
 3037SOL    HW110010   6.906   6.593   5.267
 3037SOL    HW210011   6.750   6.631   5.296
 3038SOL     OW10012   5.642   0.368   5.878
 3038SOL    HW110013   5.548   0.390   5.853
 3038SOL    HW210014   5.656   0.269   5.873
 3039SOL     OW10015   0.596   5.291   0.934
 3039SOL    HW110016   0.673   5.227   0.924
 3039SOL    HW210017   0.510   5.239   0.934
 3040SOL     OW10018   2.686   3.304   6.581
 3040SOL    HW110019   2.609   3.297   6.518
 3040SOL    HW210020   2.768   3.264   6.538
 3041SOL     OW10021   1.783   2.260   5.972
 3041SOL    HW110022   1.846   2.326   5.931
 3041SOL    HW210023   1.747   2.199   5.900
 3042SOL     OW10024   4.491   0.669   1.770
 3042SOL    HW110025   4.449   0.756   1.795
 3042SOL    HW210026   4.567   0.686   1.707
 3043SOL     OW10027   0.143   5.328   0.563
 3043SOL    HW110028   0.214   5.289   0.505
 3043SOL    HW210029   0.147   5.286   0.654
 3044SOL     OW10030   3.351   4.097   6.397
 3044SOL    HW110031   3.378   4.129   6.306
 3044SOL    HW210032   3.293   4.016   6.388
 3045SOL     OW10033   5.793   2.238   3.654
 3045SOL    HW110034   5.791   2.304   3.729
 3045SOL    HW210035   5.862   2.265   3.587
 3046SOL     OW10036   2.059   2.718   6.037
 3046SOL    HW110037   2.114   2.755   5.962
 3046SOL    HW210038   1.999   2.790   6.073
 3047SOL     OW10039   6.661   4.775   2.040
 3047SOL    HW110040   6.629   4.689   2.079
 3047SOL    HW210041   6.588   4.816   1.985
 3048SOL     OW10042   3.359   2.458   1.651
 3048SOL    HW110043   3.394   2.550   1.633
 3048SOL    HW210044   3.261   2.463   1.670
 3049SOL     OW10045   1.108   0.174   2.226
 3049SOL    HW110046   1.176   0.120   2.177
 3049SOL    HW210047   1.018   0.131   2.216
 3050SOL     OW10048   3.984   5.483   3.756
 3050SOL    HW110049   4.047   5.434   3.815
 3050SOL    HW210050   3.964   5.573   3.795
 3051SOL     OW10051   2.414   4.521   6.035
 3051SOL    HW110052   2.440   4.440   6.088
 3051SOL    HW210053   2.493   4.581   6.027
 3052SOL     OW10054   4.295   6.769   2.917
 3052SOL    HW110055   4.309   6.692   2.979
 3052SOL    HW210056   4.266   6.736   2.827
 3053SOL     OW10057   5.043   6.563   0.395
 3053SOL    HW110058   5.117   6.496   0.399
 3053SOL    HW210059   5.073   6.649   0.436
 3054SOL     OW10060   1.542   3.550   6.491
 3054SOL    HW110061   1.553   3.598   6.578
 3054SOL    HW210062   1.611   3.478   6.483
 3055SOL     OW10063   6.313   6.337   2.955
 3055SOL    HW110064   6.333   6.256   2.900
 3055SOL    HW210065   6.261   6.310   3.036
 3056SOL     OW10066   6.725   0.793   0.870
 3056SOL    HW110067   6.728   0.716   0.933
 3056SOL    HW210068   6.819   0.820   0.846
 3057SOL     OW10069   6.003   5.646   2.546
 3057SOL    HW110070   6.004   5.547   2.565
 3057SOL    HW210071   5.927   5.688   2.596
 3058SOL     OW10072   6.315   4.771   1.478
 3058SOL    HW110073   6.339   4.868   1.472
 3058SOL    HW210074   6.396   4.718   1.500
 3059SOL     OW10075   1.771   2.912   4.657
 3059SOL    HW110076   1.844   2.927   4.590
 3059SOL    HW210077   1.810   2.877   4.742
 3060SOL     OW10078   6.759   6.982   0.893
 3060SOL    HW110079   6.804   0.042   0.919
 3060SOL    HW210080   6.781   6.961   0.798
 3061SOL     OW10081   6.878   0.095   6.003
 3061SOL    HW110082   6.852   0.178   6.052
 3061SOL    HW210083   6.824   0.018   6.037
 3062SOL     OW10084   2.556   6.354   6.867
 3062SOL    HW110085   2.524   6.288   6.935
 3062SOL    HW210086   2.491   6.429   6.860
 3063SOL     OW10087   1.999   4.981   1.104
 3063SOL    HW110088   2.049   4.956   1.021
 3063SOL    HW210089   2.057   4.967   1.184
 3064SOL     OW10090   6.653   4.005   2.930
 3064SOL    HW110091   6.671   4.103   2.923
 3064SOL    HW210092   6.736   3.954   2.905
 3065SOL     OW10093   1.843   0.913   0.705
 3065SOL    HW110094   1.841   0.910   0.805
 3065SOL    HW210095   1.841   0.820   0.669
 3066SOL     OW10096   6.137   5.129   1.362
 3066SOL    HW110097   6.046   5.168   1.376
 3066SOL    HW210098   6.134   5.064   1.286
 3067SOL     OW10099   5.197   6.986   3.499
 3067SOL    HW110100   5.262   6.949   3.565
 3067SOL    HW210101   5.130   0.017   3.547
 3068SOL     OW10102   5.922   5.190   0.322
 3068SOL    HW110103   5.864   5.253   0.269
 3068SOL    HW210104   5.970   5.241   0.394
 3069SOL     OW10105   0.867   5.696   3.005
 3069SOL    HW110106   0.898   5.623   3.066
 3069SOL    HW210107   0.827   5.656   2.923
 3070SOL     OW10108   4.130   1.309   4.230
 3070SOL    HW110109   4.045   1.308   4.178
 3070SOL    HW210110   4.115   1.273   4.322
 3071SOL     OW10111   5.893   6.510   3.678
 3071SOL    HW110112   5.976   6.564   3.666
 3071SOL    HW210113   5.915   6.426   3.728
 3072SOL     OW10114   0.299   0.122   2.924
 3072SOL    HW110115   0.251   0.067   2.992
 3072SOL    HW210116   0.275   0.219   2.937
 3073SOL     OW10117   1.333   3.572   5.029
 3073SOL    HW110118   1.337   3.472   5.033
 3073SOL    HW210119   1.425   3.609   5.018
 3074SOL     OW10120   5.186   3.167   5.854
 3074SOL    HW110121   5.150   3.074   5.857
 3074SOL    HW210122   5.110   3.232   5.858
 3075SOL     OW10123   1.858   5.750   1.511
 3075SOL    HW110124   1.767   5.735   1.474
 3075SOL    HW210125   1.893   5.664   1.547
 3076SOL     OW10126   0.354   0.252   5.021
 3076SOL    HW110127   0.264   0.296   5.026
 3076SOL    HW210128   0.403   0.267   5.107
 3077SOL     OW10129   4.993   4.667   3.797
 3077SOL    HW110130   4.910   4.708   3.759
 3077SOL    HW210131   5.045   4.736   3.847
 3078SOL     OW10132   2.330   2.874   1.138
 3078SOL    HW110133   2.241   2.873   1.092
 3078SOL    HW210134   2.319   2.845   1.233
 3079SOL     OW10135   6.478   2.563   5.673
 3079SOL    HW110136   6.529   2.649   5.666
 3079SOL    HW210137   6.427   2.562   5.759
 3080SOL     OW10138   6.598   5.693   0.740
 3080SOL    HW110139   6.575   5.695   0.838
 3080SOL    HW210140   6.649   5.775   0.716
 3081SOL     OW10141   6.692   4.767   5.610
 3081SOL    HW110142   6.627   4.728   5.676
 3081SOL    HW210143   6.739   4.692   5.562
 3082SOL     OW10144   2.857   6.881   2.698
 3082SOL    HW110145   2.903   6.935   2.629
 3082SOL    HW210146   2.764   6.860   2.667
 3083SOL     OW10147   3.098   0.338   1.934
 3083SOL    HW110148   3.130   0.300   2.021
 3083SOL    HW210149   3.116   0.273   1.860
 3084SOL     OW10150   5.104   6.502   5.029
 3084SOL    HW110151   5.040   6.458   4.966
 3084SOL    HW210152   5.070   6.594   5.052
 3085SOL     OW10153   0.867   5.480   1.654
 3085SOL    HW110154   0.936   5.491   1.583
 3085SOL    HW210155   0.907   5.501   1.743
 3086SOL     OW10156   5.292   1.193   3.810
 3086SOL    HW110157   5.263   1.279   3.851
 3086SOL    HW210158   5.346   1.212   3.728
 3087SOL     OW10159   6.163   2.981   3.486
 3087SOL    HW110160   6.175   2.896   3.435
 3087SOL    HW210161   6.187   2.965   3.582
 3088SOL     OW10162   3.094   4.613   5.856
 3088SOL    HW110163   3.178   4.560   5.861
 3088SOL    HW210164   3.049   4.614   5.946
 3089SOL     OW10165   1.519   2.491   0.555
 3089SOL    HW110166   1.552   2.455   0.642
 3089SOL    HW210167   1.423   2.468   0.543
 3090SOL     OW10168   0.841   1.636   1.105
 3090SOL    HW110169   0.796   1.721   1.077
 3090SOL    HW210170   0.857   1.638   1.204
 3091SOL     OW10171   2.616   7.011   0.527
 3091SOL    HW110172   2.666   0.062   0.565
 3091SOL    HW210173   2.589   6.949   0.601
 3092SOL     OW10174   4.324   6.209   0.961
 3092SOL    HW110175   4.243   6.265   0.973
 3092SOL    HW210176   4.392   6.260   0.907
 3093SOL     OW10177   5.175   5.855   4.159
 3093SOL    HW110178   5.080   5.845   4.131
 3093SOL    HW210179   5.226   5.902   4.087
 3094SOL     OW10180   3.015   5.556   5.568
 3094SOL    HW110181   3.098   5.517   5.608
 3094SOL    HW210182   2.937   5.498   5.589
 3095SOL     OW10183   3.178   4.830   5.226
 3095SOL    HW110184   3.245   4.759   5.202
 3095SOL    HW210185   3.092   4.786   5.252
 3096SOL     OW10186   1.028   0.676   5.609
 3096SOL    HW110187   1.055   0.706   5.701
 3096SOL    HW210188   0.993   0.583   5.614
 3097SOL     OW10189   1.314   2.857   0.121
 3097SOL    HW110190   1.396   2.820   0.165
 3097SOL    HW210191   1.276   2.788   0.060
 3098SOL     OW10192   3.832   2.120   0.411
 3098SOL    HW110193   3.856   2.136   0.315
 3098SOL    HW210194   3.752   2.061   0.416
 3099SOL     OW10195   1.088   6.284   5.160
 3099SOL    HW110196   1.112   6.264   5.255
 3099SOL    HW210197   1.144   6.360   5.127
 3100SOL     OW10198   6.583   6.885   0.446
 3100SOL    HW110199   6.559   6.925   0.358
 3100SOL    HW210200   6.645   6.946   0.496
 3101SOL     OW10201   4.406   6.933   0.541
 3101SOL    HW110202   4.349   6.922   0.622
 3101SOL    HW210203   4.487   6.988   0.565
 3102SOL     OW10204   1.729   4.930   1.154
 3102SOL    HW110205   1.823   4.963   1.150
 3102SOL    HW210206   1.694   4.941   1.247
 3103SOL     OW10207   3.724   3.411   2.276
 3103SOL    HW110208   3.700   3.330   2.330
 3103SOL    HW210209   3.700   3.493   2.327
 3104SOL     OW10210   6.864   5.447   3.466
 3104SOL    HW110211   6.962   5.467   3.462
 3104SOL    HW210212   6.822   5.499   3.540
 3105SOL     OW10213   6.209   6.451   3.755
 3105SOL    HW110214   6.256   6.363   3.741
 3105SOL    HW210215   6.258   6.504   3.824
 3106SOL     OW10216   6.849   2.759   4.016
 3106SOL    HW110217   6.856   2.682   4.081
 3106SOL    HW210218   6.807   2.837   4.062
 3107SOL     OW10219   2.995   6.987   4.420
 3107SOL    HW110220   2.979   7.005   4.517
 3107SOL    HW210221   2.917   7.018   4.367
 3108SOL     OW10222   3.609   0.477   3.472
 3108SOL    HW110223   3.550   0.420   3.529
 3108SOL    HW210224   3.703   0.469   3.503
 3109SOL     OW10225   4.785   5.836   3.127
 3109SOL    HW110226   4.751   5.887   3.206
 3109SOL    HW210227   4.767   5.888   3.043
 3110SOL     OW10228   0.605   3.376   2.295
 3110SOL    HW110229   0.676   3.356   2.227
 3110SOL    HW210230   0.649   3.392   2.384
 3111SOL     OW10231   6.487   4.589   3.437
 3111SOL    HW110232   6.464   4.596   3.340
 3111SOL    HW210233   6.498   4.681   3.475
 3112SOL     OW10234   3.651   3.608   6.680
 3112SOL    HW110235   3.732   3.549   6.672
 3112SOL    HW210236   3.573   3.563   6.637
 3113SOL     OW10237   3.395   0.160   3.770
 3113SOL    HW110238   3.306   0.194   3.741
 3113SOL    HW210239   3.403   0.063   3.747
 3114SOL     OW10240   5.626   5.723   0.777
 3114SOL    HW110241   5.663   5.678   0.696
 3114SOL    HW210242   5.701   5.761   0.831
 3115SOL     OW10243   2.770   3.688   1.459
 3115SOL    HW110244   2.809   3.657   1.372
 3115SOL    HW210245   2.816   3.772   1.488
 3116SOL     OW10246   0.176   1.989   6.871
 3116SOL    HW110247   0.205   2.054   6.800
 3116SOL    HW210248   0.137   2.040   6.948
 3117SOL     OW10249   3.939   3.986   5.067
 3117SOL    HW110250   3.960   4.076   5.105
 3117SOL    HW210251   3.983   3.916   5.121
 3118SOL     OW10252   5.749   4.521   0.401
 3118SOL    HW110253   5.764   4.508   0.303
 3118SOL    HW210254   5.823   4.575   0.439
 3119SOL     OW10255   1.692   4.589   5.683
 3119SOL    HW110256   1.664   4.530   5.759
 3119SOL    HW210257   1.778   4.556   5.644
 3120SOL     OW10258   3.569   5.733   5.303
 3120SOL    HW110259   3.502   5.689   5.363
 3120SOL    HW210260   3.568   5.688   5.214
 3121SOL     OW10261   0.406   6.613   2.550
 3121SOL    HW110262   0.501   6.643   2.540
 3121SOL    HW210263   0.346   6.693   2.554
 3122SOL     OW10264   3.380   5.551   0.904
 3122SOL    HW110265   3.428   5.489   0.968
 3122SOL    HW210266   3.282   5.544   0.919
 3123SOL     OW10267   3.861   6.941   4.365
 3123SOL    HW110268   3.811   7.012   4.315
 3123SOL    HW210269   3.805   6.859   4.371
 3124SOL     OW10270   3.962   0.231   6.192
 3124SOL    HW110271   3.964   0.146   6.138
 3124SOL    HW210272   3.881   0.284   6.167
 3125SOL     OW10273   6.940   1.795   5.792
 3125SOL    HW110274   6.951   1.894   5.805
 3125SOL    HW210275   7.009   1.761   5.728
 3126SOL     OW10276   4.285   6.074   0.280
 3126SOL    HW110277   4.320   6.010   0.211
 3126SOL    HW210278   4.217   6.029   0.336
 3127SOL     OW10279   0.547   1.337   3.560
 3127SOL    HW110280   0.491   1.333   3.477
 3127SOL    HW210281   0.506   1.277   3.630
 3128SOL     OW10282   1.368   1.398   0.362
 3128SOL    HW110283   1.298   1.428   0.297
 3128SOL    HW210284   1.327   1.390   0.453
 3129SOL     OW10285   1.161   3.176   4.851
 3129SOL    HW110286   1.204   3.223   4.774
 3129SOL    HW210287   1.173   3.077   4.841
 3130SOL     OW10288   1.786   5.883   2.944
 3130SOL    HW110289   1.885   5.892   2.954
 3130SOL    HW210290   1.763   5.786   2.934
 3131SOL     OW10291   6.838   3.223   3.452
 3131SOL    HW110292   6.807   3.292   3.517
 3131SOL    HW210293   6.803   3.244   3.361
 3132SOL     OW10294   5.269   6.531   5.547
 3132SOL    HW110295   5.215   6.613   5.531
 3132SOL    HW210296   5.260   6.469   5.469
 3133SOL     OW10297   2.802   1.787   3.057
 3133SOL    HW110298   2.804   1.787   3.157
 3133SOL    HW210299   2.757   1.870   3.025
 3134SOL     OW10300   4.970   2.835   2.539
 3134SOL    HW110301   4.907   2.777   2.487
 3134SOL    HW210302   5.021   2.893   2.475
 3135SOL     OW10303   3.414   1.367   3.579
 3135SOL    HW110304   3.474   1.340   3.504
 3135SOL    HW210305   3.465   1.367   3.665
 3136SOL     OW10306   5.754   6.622   5.217
 3136SOL    HW110307   5.768   6.564   5.137
 3136SOL    HW210308   5.837   6.621   5.273
 3137SOL     OW10309   6.122   1.570   4.508
 3137SOL    HW110310   6.155   1.482   4.541
 3137SOL    HW210311   6.058   1.556   4.432
 3138SOL     OW10312   5.253   1.565   5.219
 3138SOL    HW110313   5.271   1.470   5.194
 3138SOL    HW210314   5.207   1.567   5.308
 3139SOL     OW10315   4.962   6.330   5.618
 3139SOL    HW110316   5.051   6.290   5.598
 3139SOL    HW210317   4.900   6.259   5.649
 3140SOL     OW10318   6.396   6.559   6.550
 3140SOL    HW110319   6.339   6.629   6.594
 3140SOL    HW210320   6.480   6.547   6.603
 3141SOL     OW10321   1.207   4.716   0.467
 3141SOL    HW110322   1.162   4.724   0.378
 3141SOL    HW210323   1.139   4.723   0.540
 3142SOL     OW10324   3.863   6.738   6.845
 3142SOL    HW110325   3.775   6.755   6.800
 3142SOL    HW210326   3.902   6.825   6.876
 3143SOL     OW10327   0.028   1.719   0.581
 3143SOL    HW110328   0.119   1.751   0.555
 3143SOL    HW210329   7.007   1.790   0.632
 3144SOL     OW10330   1.545   4.034   6.877
 3144SOL    HW110331   1.510   4.024   6.783
 3144SOL    HW210332   1.603   4.115   6.882
 3145SOL     OW10333   3.773   6.739   3.804
 3145SOL    HW110334   3.690   6.684   3.813
 3145SOL    HW210335   3.753   6.834   3.826
 3146SOL     OW10336   2.209   0.575   3.792
 3146SOL    HW110337   2.171   0.536   3.876
 3146SOL    HW210338   2.262   0.506   3.744
 3147SOL     OW10339   4.229   3.695   0.356
 3147SOL    HW110340   4.129   3.693   0.355
 3147SOL    HW210341   4.263   3.649   0.438
 3148SOL     OW10342   3.861   5.610   4.805
 3148SOL    HW110343   3.782   5.582   4.751
 3148SOL    HW210344   3.831   5.668   4.881
 3149SOL     OW10345   3.866   6.619   5.651
 3149SOL    HW110346   3.899   6.556   5.581
 3149SOL    HW210347   3.790   6.577   5.701
 3150SOL     OW10348   6.279   0.202   4.347
 3150SOL    HW110349   6.327   0.136   4.405
 3150SOL    HW210350   6.284   0.172   4.252
 3151SOL     OW10351   3.517   0.462   6.890
 3151SOL    HW110352   3.517   0.521   6.971
 3151SOL    HW210353   3.528   0.519   6.808
 3152SOL     OW10354   1.880   4.842   0.455
 3152SOL    HW110355   1.821   4.919   0.480
 3152SOL    HW210356   1.826   4.774   0.406
 3153SOL     OW10357   0.217   4.527   2.340
 3153SOL    HW110358   0.242   4.436   2.374
 3153SOL    HW210359   0.299   4.581   2.326
 3154SOL     OW10360   5.916   1.939   6.622
 3154SOL    HW110361   5.839   2.002   6.613
 3154SOL    HW210362   5.951   1.942   6.715
 3155SOL     OW10363   4.973   5.898   0.137
 3155SOL    HW110364   4.881   5.921   0.104
 3155SOL    HW210365   4.977   5.911   0.236
 3156SOL     OW10366   3.438   3.619   3.341
 3156SOL    HW110367   3.395   3.710   3.343
 3156SOL    HW210368   3.529   3.625   3.380
 3157SOL     OW10369   2.207   2.904   4.487
 3157SOL    HW110370   2.218   2.887   4.389
 3157SOL    HW210371   2.257   2.835   4.539
 3158SOL     OW10372   4.685   5.993   1.054
 3158SOL    HW110373   4.720   6.087   1.045
 3158SOL    HW210374   4.585   5.995   1.057
 3159SOL     OW10375   5.697   4.628   0.949
 3159SOL    HW110376   5.792   4.612   0.921
 3159SOL    HW210377   5.657   4.699   0.891
 3160SOL     OW10378   5.670   4.253   6.875
 3160SOL    HW110379   5.731   4.292   6.807
 3160SOL    HW210380   5.677   4.304   6.961
 3161SOL     OW10381   0.885   1.784   2.865
 3161SOL    HW110382   0.948   1.817   2.935
 3161SOL    HW210383   0.849   1.694   2.891
 3162SOL     OW10384   6.453   6.414   5.971
 3162SOL    HW110385   6.515   6.481   6.013
 3162SOL    HW210386   6.438   6.439   5.875
 3163SOL     OW10387   2.719   4.152   5.445
 3163SOL    HW110388   2.794   4.119   5.388
 3163SOL    HW210389   2.636   4.100   5.425
 3164SOL     OW10390   5.550   5.424   6.488
 3164SOL    HW110391   5.571   5.475   6.404
 3164SOL    HW210392   5.564   5.326   6.471
 3165SOL     OW10393   0.187   2.843   1.659
 3165SOL    HW110394   0.132   2.800   1.587
 3165SOL    HW210395   0.280   2.809   1.655
 3166SOL     OW10396   5.505   2.986   6.197
 3166SOL    HW110397   5.487   3.048   6.121
 3166SOL    HW210398   5.423   2.979   6.255
 3167SOL     OW10399   0.878   4.275   2.686
 3167SOL    HW110400   0.851   4.186   2.652
 3167SOL    HW210401   0.799   4.336   2.687
 3168SOL     OW10402   5.506   2.917   0.824
 3168SOL    HW110403   5.599   2.906   0.789
 3168SOL    HW210404   5.468   3.003   0.791
 3169SOL     OW10405   1.331   1.951   4.957
 3169SOL    HW110406   1.354   1.887   4.884
 3169SOL    HW210407   1.368   2.041   4.934
 3170SOL     OW10408   4.509   0.730   6.422
 3170SOL    HW110409   4.528   0.786   6.503
 3170SOL    HW210410   4.421   0.758   6.383
 3171SOL     OW10411   6.044   6.531   3.247
 3171SOL    HW110412   6.113   6.601   3.267
 3171SOL    HW210413   6.028   6.476   3.329
 3172SOL     OW10414   6.044   0.445   5.972
 3172SOL    HW110415   6.039   0.361   6.026
 3172SOL    HW210416   5.958   0.496   5.981
 3173SOL     OW10417   1.990   1.521   1.432
 3173SOL    HW110418   2.030   1.487   1.347
 3173SOL    HW210419   1.953   1.613   1.418
 3174SOL     OW10420   1.612   4.479   5.913
 3174SOL    HW110421   1.605   4.381   5.892
 3174SOL    HW210422   1.650   4.491   6.005
 3175SOL     OW10423   0.251   5.779   1.148
 3175SOL    HW110424   0.250   5.789   1.049
 3175SOL    HW210425   0.158   5.767   1.182
 3176SOL     OW10426   1.386   5.151   6.432
 3176SOL    HW110427   1.340   5.183   6.515
 3176SOL    HW210428   1.436   5.067   6.451
 3177SOL     OW10429   6.774   6.988   4.780
 3177SOL    HW110430   6.791   0.030   4.851
 3177SOL    HW210431   6.842   6.916   4.785
 3178SOL     OW10432   1.549   3.146   1.298
 3178SOL    HW110433   1.622   3.148   1.230
 3178SOL    HW210434   1.467   3.191   1.260
 3179SOL     OW10435   1.207   2.296   3.192
 3179SOL    HW110436   1.264   2.333   3.118
 3179SOL    HW210437   1.208   2.196   3.189
 3180SOL     OW10438   5.694   1.052   5.800
 3180SOL    HW110439   5.614   1.015   5.848
 3180SOL    HW210440   5.666   1.086   5.710
 3181SOL     OW10441   0.384   1.689   2.980
 3181SOL    HW110442   0.454   1.623   3.008
 3181SOL    HW210443   0.427   1.762   2.927
 3182SOL     OW10444   1.377   4.727   5.172
 3182SOL    HW110445   1.337   4.813   5.204
 3182SOL    HW210446   1.368   4.657   5.244
 3183SOL     OW10447   3.908   3.463   1.280
 3183SOL    HW110448   3.852   3.433   1.203
 3183SOL    HW210449   3.864   3.438   1.366
 3184SOL     OW10450   2.927   1.113   3.051
 3184SOL    HW110451   2.855   1.045   3.064
 3184SOL    HW210452   2.905   1.169   2.971
 3185SOL     OW10453   0.315   6.410   5.804
 3185SOL    HW110454   0.280   6.370   5.889
 3185SOL    HW210455   0.397   6.464   5.824
 3186SOL     OW10456   3.138   0.175   1.732
 3186SOL    HW110457   3.188   0.105   1.782
 3186SOL    HW210458   3.045   0.143   1.713
 3187SOL     OW10459   3.077   4.883   0.297
 3187SOL    HW110460   3.163   4.861   0.252
 3187SOL    HW210461   3.011   4.810   0.282
 3188SOL     OW10462   4.774   0.219   3.401
 3188SOL    HW110463   4.760   0.133   3.351
 3188SOL    HW210464   4.767   0.296   3.337
 3189SOL     OW10465   0.430   0.412   1.751
 3189SOL    HW110466   0.418   0.329   1.697
 3189SOL    HW210467   0.433   0.491   1.690
 3190SOL     OW10468   0.793   6.673   1.512
 3190SOL    HW110469   0.721   6.660   1.581
 3190SOL    HW210470   0.881   6.680   1.557
 3191SOL     OW10471   3.454   0.397   1.254
 3191SOL    HW110472   3.372   0.452   1.243
 3191SOL    HW210473   3.441   0.308   1.209
 3192SOL     OW10474   6.141   2.480   3.629
 3192SOL    HW110475   6.172   2.436   3.713
 3192SOL    HW210476   6.085   2.560   3.653
 3193SOL     OW10477   4.868   4.145   0.065
 3193SOL    HW110478   4.960   4.146   0.026
 3193SOL    HW210479   4.873   4.110   0.159
 3194SOL     OW10480   1.317   4.556   5.839
 3194SOL    HW110481   1.398   4.566   5.897
 3194SOL    HW210482   1.340   4.580   5.744
 3195SOL     OW10483   0.758   3.905   2.941
 3195SOL    HW110484   0.659   3.905   2.958
 3195SOL    HW210485   0.801   3.975   2.997
 3196SOL     OW10486   0.400   6.539   5.241
 3196SOL    HW110487   0.482   6.494   5.276
 3196SOL    HW210488   0.340   6.471   5.198
 3197SOL     OW10489   1.188   3.970   4.325
 3197SOL    HW110490   1.092   3.995   4.342
 3197SOL    HW210491   1.231   3.941   4.410
 3198SOL     OW10492   5.831   0.883   0.067
 3198SOL    HW110493   5.857   0.823   0.143
 3198SOL    HW210494   5.867   0.846   7.008
 3199SOL     OW10495   3.833   2.108   2.908
 3199SOL    HW110496   3.887   2.117   2.825
 3199SOL    HW210497   3.744   2.068   2.885
 3200SOL     OW10498   6.620   2.008   0.701
 3200SOL    HW110499   6.543   2.050   0.653
 3200SOL    HW210500   6.650   2.069   0.774
 3201SOL     OW10501   4.603   4.455   3.097
 3201SOL    HW110502   4.616   4.386   3.168
 3201SOL    HW210503   4.540   4.525   3.131
 3202SOL     OW10504   1.640   5.748   1.905
 3202SOL    HW110505   1.703   5.819   1.874
 3202SOL    HW210506   1.661   5.661   1.860
 3203SOL     OW10507   6.132   0.260   1.592
 3203SOL    HW110508   6.081   0.235   1.674
 3203SOL    HW210509   6.122   0.358   1.575
 3204SOL     OW10510   6.479   6.006   1.440
 3204SOL    HW110511   6.402   6.068   1.448
 3204SOL    HW210512   6.480   5.965   1.349
 3205SOL     OW10513   1.464   3.800   3.013
 3205SOL    HW110514   1.538   3.736   2.997
 3205SOL    HW210515   1.487   3.860   3.090
 3206SOL     OW10516   1.611   6.688   6.998
 3206SOL    HW110517   1.588   6.773   0.018
 3206SOL    HW210518   1.674   6.634   0.028
 3207SOL     OW10519   1.215   1.348   3.553
 3207SOL    HW110520   1.177   1.425   3.503
 3207SOL    HW210521   1.176   1.344   3.645
 3208SOL     OW10522   6.155   0.406   5.227
 3208SOL    HW110523   6.131   0.494   5.268
 3208SOL    HW210524   6.253   0.391   5.235
 3209SOL     OW10525   2.765   0.168   2.840
 3209SOL    HW110526   2.865   0.164   2.833
 3209SOL    HW210527   2.728   0.075   2.836
 3210SOL     OW10528   0.228   4.866   2.980
 3210SOL    HW110529   0.220   4.855   3.079
 3210SOL    HW210530   0.324   4.860   2.954
 3211SOL     OW10531   0.895   4.287   2.120
 3211SOL    HW110532   0.886   4.191   2.090
 3211SOL    HW210533   0.968   4.294   2.188
 3212SOL     OW10534   4.908   3.207   5.039
 3212SOL    HW110535   4.900   3.194   5.138
 3212SOL    HW210536   4.931   3.303   5.020
 3213SOL     OW10537   5.574   6.380   1.433
 3213SOL    HW110538   5.525   6.293   1.445
 3213SOL    HW210539   5.517   6.455   1.466
 3214SOL     OW10540   4.243   4.370   6.102
 3214SOL    HW110541   4.317   4.344   6.039
 3214SOL    HW210542   4.282   4.411   6.184
 3215SOL     OW10543   5.963   1.107   0.412
 3215SOL    HW110544   6.030   1.038   0.386
 3215SOL    HW210545   5.988   1.147   0.500
 3216SOL     OW10546   6.107   6.914   4.851
 3216SOL    HW110547   6.055   6.954   4.926
 3216SOL    HW210548   6.153   6.986   4.800
 3217SOL     OW10549   6.428   4.021   0.660
 3217SOL    HW110550   6.415   3.955   0.734
 3217SOL    HW210551   6.349   4.016   0.598
 3218SOL     OW10552   3.242   0.761   2.029
 3218SOL    HW110553   3.277   0.754   1.935
 3218SOL    HW210554   3.168   0.829   2.031
 3219SOL     OW10555   6.642   6.924   4.030
 3219SOL    HW110556   6.637   6.829   4.060
 3219SOL    HW210557   6.714   6.934   3.962
 3220SOL     OW10558   6.330   2.830   5.745
 3220SOL    HW110559   6.317   2.775   5.663
 3220SOL    HW210560   6.427   2.842   5.762
 3221SOL     OW10561   4.359   0.223   2.475
 3221SOL    HW110562   4.337   0.318   2.496
 3221SOL    HW210563   4.274   0.172   2.460
 3222SOL     OW10564   5.908   3.626   2.536
 3222SOL    HW110565   5.832   3.676   2.579
 3222SOL    HW210566   5.992   3.680   2.544
 3223SOL     OW10567   2.602   4.621   4.311
 3223SOL    HW110568   2.598   4.666   4.222
 3223SOL    HW210569   2.512   4.581   4.332
 3224SOL     OW10570   3.787   5.917   1.561
 3224SOL    HW110571   3.863   5.866   1.603
 3224SOL    HW210572   3.768   5.878   1.471
 3225SOL     OW10573   2.346   2.197   1.066
 3225SOL    HW110574   2.422   2.180   1.128
 3225SOL    HW210575   2.267   2.229   1.118
 3226SOL     OW10576   0.164   0.984   4.395
 3226SOL    HW110577   0.221   0.950   4.321
 3226SOL    HW210578   0.068   0.981   4.367
 3227SOL     OW10579   2.126   1.880   5.455
 3227SOL    HW110580   2.200   1.910   5.396
 3227SOL    HW210581   2.058   1.830   5.401
 3228SOL     OW10582   5.066   3.261   4.685
 3228SOL    HW110583   5.112   3.200   4.749
 3228SOL    HW210584   5.005   3.208   4.626
 3229SOL     OW10585   3.814   2.050   5.097
 3229SOL    HW110586   3.870   2.116   5.148
 3229SOL    HW210587   3.846   2.048   5.002
 3230SOL     OW10588   1.411   0.443   3.926
 3230SOL    HW110589   1.327   0.429   3.980
 3230SOL    HW210590   1.488   0.402   3.973
 3231SOL     OW10591   5.072   5.518   0.182
 3231SOL    HW110592   5.130   5.600   0.180
 3231SOL    HW210593   5.045   5.494   0.089
 3232SOL     OW10594   2.384   4.292   3.169
 3232SOL    HW110595   2.306   4.334   3.122
 3232SOL    HW210596   2.448   4.256   3.101
 3233SOL     OW10597   1.782   3.776   1.033
 3233SOL    HW110598   1.733   3.720   1.100
 3233SOL    HW210599   1.716   3.817   0.970
 3234SOL     OW10600   6.626   1.999   4.507
 3234SOL    HW110601   6.587   1.919   4.461
 3234SOL    HW210602   6.553   2.064   4.528
 3235SOL     OW10603   5.629   0.631   2.586
 3235SOL    HW110604   5.604   0.665   2.676
 3235SOL    HW210605   5.714   0.674   2.556
 3236SOL     OW10606   0.602   2.958   1.514
 3236SOL    HW110607   0.676   2.920   1.458
 3236SOL    HW210608   0.517   2.955   1.463
 3237SOL     OW10609   3.462   6.237   4.721
 3237SOL    HW110610   3.414   6.220   4.635
 3237SOL    HW210611   3.439   6.328   4.754
 3238SOL     OW10612   6.021   6.531   6.344
 3238SOL    HW110613   6.015   6.482   6.257
 3238SOL    HW210614   5.938   6.515   6.397
 3239SOL     OW10615   0.689   5.461   5.869
 3239SOL    HW110616   0.622   5.449   5.796
 3239SOL    HW210617   0.781   5.462   5.831
 3240SOL     OW10618   0.176   1.819   5.090
 3240SOL    HW110619   0.112   1.840   5.015
 3240SOL    HW210620   0.208   1.904   5.130
 3241SOL     OW10621   4.829   0.290   5.314
 3241SOL    HW110622   4.773   0.368   5.339
 3241SOL    HW210623   4.827   0.222   5.387
 3242SOL     OW10624   3.138   6.423   0.372
 3242SOL    HW110625   3.182   6.476   0.444
 3242SOL    HW210626   3.046   6.458   0.355
 3243SOL     OW10627   3.557   5.095   0.463
 3243SOL    HW110628   3.496   5.084   0.541
 3243SOL    HW210629   3.646   5.056   0.484
 3244SOL     OW10630   1.743   6.131   5.385
 3244SOL    HW110631   1.818   6.152   5.447
 3244SOL    HW210632   1.691   6.053   5.419
 3245SOL     OW10633   2.338   2.170   5.620
 3245SOL    HW110634   2.422   2.132   5.582
 3245SOL    HW210635   2.304   2.111   5.694
 3246SOL     OW10636   5.451   6.391   3.922
 3246SOL    HW110637   5.433   6.406   3.825
 3246SOL    HW210638   5.545   6.418   3.943
 3247SOL     OW10639   6.673   1.481   5.447
 3247SOL    HW110640   6.628   1.567   5.426
 3247SOL    HW210641   6.737   1.494   5.523
 3248SOL     OW10642   5.249   3.799   2.434
 3248SOL    HW110643   5.155   3.821   2.408
 3248SOL    HW210644   5.288   3.735   2.368
 3249SOL     OW10645   3.143   4.264   5.204
 3249SOL    HW110646   3.077   4.194   5.232
 3249SOL    HW210647   3.097   4.353   5.201
 3250SOL     OW10648   4.767   5.862   1.525
 3250SOL    HW110649   4.836   5.874   1.597
 3250SOL    HW210650   4.685   5.820   1.564
 3251SOL     OW10651   3.451   1.060   3.724
 3251SOL    HW110652   3.358   1.026   3.740
 3251SOL    HW210653   3.516   0.986   3.744
 3252SOL     OW10654   3.160   2.114   3.861
 3252SOL    HW110655   3.164   2.186   3.930
 3252SOL    HW210656   3.081   2.127   3.803
 3253SOL     OW10657   4.392   3.735   1.037
 3253SOL    HW110658   4.487   3.707   1.023
 3253SOL    HW210659   4.369   3.728   1.134
 3254SOL     OW10660   5.186   4.541   2.549
 3254SOL    HW110661   5.205   4.452   2.590
 3254SOL    HW210662   5.087   4.558   2.549
 3255SOL     OW10663   4.255   4.768   1.243
 3255SOL    HW110664   4.302   4.821   1.314
 3255SOL    HW210665   4.170   4.729   1.281
 3256SOL     OW10666   6.063   6.668   5.791
 3256SOL    HW110667   6.001   6.606   5.743
 3256SOL    HW210668   6.124   6.712   5.725
 3257SOL     OW10669   2.452   1.793   0.977
 3257SOL    HW110670   2.376   1.850   0.944
 3257SOL    HW210671   2.512   1.848   1.035
 3258SOL     OW10672   5.176   7.006   1.597
 3258SOL    HW110673   5.141   6.944   1.526
 3258SOL    HW210674   5.271   6.984   1.617
 3259SOL     OW10675   6.067   6.276   3.120
 3259SOL    HW110676   6.044   6.373   3.134
 3259SOL    HW210677   6.115   6.242   3.200
 3260SOL     OW10678   1.656   2.727   0.516
 3260SOL    HW110679   1.589   2.654   0.532
 3260SOL    HW210680   1.726   2.725   0.588
 3261SOL     OW10681   4.329   0.248   3.731
 3261SOL    HW110682   4.401   0.275   3.668
 3261SOL    HW210683   4.305   0.325   3.789
 3262SOL     OW10684   3.926   1.473   4.796
 3262SOL    HW110685   3.921   1.502   4.700
 3262SOL    HW210686   3.856   1.521   4.849
 3263SOL     OW10687   3.267   5.299   2.715
 3263SOL    HW110688   3.288   5.286   2.812
 3263SOL    HW210689   3.179   5.344   2.706
 3264SOL     OW10690   5.006   4.433   5.463
 3264SOL    HW110691   5.029   4.522   5.424
 3264SOL    HW210692   5.070   4.412   5.537
 3265SOL     OW10693   5.191   0.524   6.552
 3265SOL    HW110694   5.258   0.581   6.599
 3265SOL    HW210695   5.148   0.576   6.478
 3266SOL     OW10696   0.590   2.578   7.015
 3266SOL    HW110697   0.681   2.541   7.000
 3266SOL    HW210698   0.528   2.504   0.014
 3267SOL     OW10699   4.925   2.719   1.572
 3267SOL    HW110700   4.883   2.686   1.657
 3267SOL    HW210701   4.916   2.819   1.568
 3268SOL     OW10702   1.866   4.810   6.700
 3268SOL    HW110703   1.908   4.794   6.611
 3268SOL    HW210704   1.809   4.732   6.724
 3269SOL     OW10705   4.636   3.634   0.967
 3269SOL    HW110706   4.613   3.539   0.988
 3269SOL    HW210707   4.731   3.651   0.992
 3270SOL     OW10708   0.416   5.357   4.326
 3270SOL    HW110709   0.434   5.275   4.381
 3270SOL    HW210710   0.351   5.335   4.253
 3271SOL     OW10711   4.867   0.889   1.786
 3271SOL    HW110712   4.933   0.884   1.860
 3271SOL    HW210713   4.874   0.978   1.741
 3272SOL     OW10714   4.880   0.009   6.795
 3272SOL    HW110715   4.920   6.947   6.771
 3272SOL    HW210716   4.933   0.050   6.869
 3273SOL     OW10717   1.179   0.641   3.097
 3273SOL    HW110718   1.247   0.569   3.107
 3273SOL    HW210719   1.090   0.601   3.075
 3274SOL     OW10720   3.158   2.043   6.903
 3274SOL    HW110721   3.208   2.097   6.970
 3274SOL    HW210722   3.098   1.979   6.950
 3275SOL     OW10723   4.280   0.658   0.596
 3275SOL    HW110724   4.261   0.751   0.629
 3275SOL    HW210725   4.271   0.656   0.497
 3276SOL     OW10726   2.244   6.369   0.325
 3276SOL    HW110727   2.293   6.383   0.411
 3276SOL    HW210728   2.308   6.339   0.254
 3277SOL     OW10729   0.535   5.446   5.653
 3277SOL    HW110730   0.463   5.429   5.586
 3277SOL    HW210731   0.619   5.472   5.606
 3278SOL     OW10732   0.993   1.082   0.639
 3278SOL    HW110733   0.925   1.153   0.621
 3278SOL    HW210734   1.079   1.105   0.592
 3279SOL     OW10735   2.383   5.896   1.569
 3279SOL    HW110736   2.315   5.964   1.541
 3279SOL    HW210737   2.352   5.851   1.653
 3280SOL     OW10738   3.033   6.037   4.408
 3280SOL    HW110739   3.004   6.128   4.380
 3280SOL    HW210740   2.977   5.968   4.362
 3281SOL     OW10741   2.604   6.299   0.835
 3281SOL    HW110742   2.523   6.243   0.814
 3281SOL    HW210743   2.681   6.239   0.856
 3282SOL     OW10744   2.335   6.000   2.546
 3282SOL    HW110745   2.326   5.908   2.506
 3282SOL    HW210746   2.432   6.018   2.566
 3283SOL     OW10747   2.122   0.151   4.224
 3283SOL    HW110748   2.038   0.102   4.248
 3283SOL    HW210749   2.162   0.192   4.306
 3284SOL     OW10750   0.871   4.585   5.840
 3284SOL    HW110751   0.873   4.534   5.754
 3284SOL    HW210752   0.954   4.566   5.892
 3285SOL     OW10753   0.331   2.578   4.685
 3285SOL    HW110754   0.363   2.664   4.646
 3285SOL    HW210755   0.392   2.551   4.759
 3286SOL     OW10756   4.376   4.883   5.867
 3286SOL    HW110757   4.344   4.855   5.777
 3286SOL    HW210758   4.321   4.960   5.900
 3287SOL     OW10759   0.345   4.136   1.632
 3287SOL    HW110760   0.412   4.075   1.589
 3287SOL    HW210761   0.294   4.185   1.561
 3288SOL     OW10762   1.298   6.370   6.392
 3288SOL    HW110763   1.270   6.276   6.413
 3288SOL    HW210764   1.302   6.424   6.476
 3289SOL     OW10765   1.309   5.280   4.727
 3289SOL    HW110766   1.377   5.212   4.700
 3289SOL    HW210767   1.337   5.323   4.813
 3290SOL     OW10768   6.973   4.254   3.028
 3290SOL    HW110769   6.890   4.261   2.973
 3290SOL    HW210770   7.002   4.345   3.057
 3291SOL     OW10771   1.736   0.361   1.765
 3291SOL    HW110772   1.799   0.373   1.689
 3291SOL    HW210773   1.788   0.345   1.849
 3292SOL     OW10774   0.533   5.264   4.925
 3292SOL    HW110775   0.552   5.300   5.017
 3292SOL    HW210776   0.524   5.339   4.860
 3293SOL     OW10777   5.907   0.719   2.558
 3293SOL    HW110778   5.922   0.818   2.558
 3293SOL    HW210779   5.966   0.676   2.627
 3294SOL     OW10780   1.130   6.806   0.669
 3294SOL    HW110781   1.176   6.892   0.646
 3294SOL    HW210782   1.148   6.738   0.597
 3295SOL     OW10783   1.603   2.251   6.206
 3295SOL    HW110784   1.656   2.275   6.287
 3295SOL    HW210785   1.665   2.245   6.127
 3296SOL     OW10786   0.805   6.545   2.264
 3296SOL    HW110787   0.897   6.509   2.250
 3296SOL    HW210788   0.775   6.592   2.181
 3297SOL     OW10789   2.853   1.688   6.204
 3297SOL    HW110790   2.894   1.659   6.290
 3297SOL    HW210791   2.814   1.609   6.157
 3298SOL     OW10792   6.502   3.960   2.590
 3298SOL    HW110793   6.490   3.923   2.682
 3298SOL    HW210794   6.566   4.037   2.593
 3299SOL     OW10795   0.866   0.999   5.034
 3299SOL    HW110796   0.836   1.035   5.122
 3299SOL    HW210797   0.964   1.015   5.022
 3300SOL     OW10798   0.060   0.243   4.700
 3300SOL    HW110799   0.002   0.268   4.777
 3300SOL    HW210800   0.091   0.148   4.709
 3301SOL     OW10801   0.250   3.646   2.564
 3301SOL    HW110802   0.232   3.615   2.470
 3301SOL    HW210803   0.182   3.715   2.590
 3302SOL     OW10804   1.170   5.752   5.321
 3302SOL    HW110805   1.196   5.738   5.417
 3302SOL    HW210806   1.187   5.847   5.296
 3303SOL     OW10807   3.241   3.492   3.482
 3303SOL    HW110808   3.301   3.525   3.410
 3303SOL    HW210809   3.176   3.564   3.507
 3304SOL     OW10810   1.806   1.032   2.874
 3304SOL    HW110811   1.806   0.942   2.830
 3304SOL    HW210812   1.850   1.026   2.964
 3305SOL     OW10813   0.263   2.558   0.629
 3305SOL    HW110814   0.361   2.536   0.634
 3305SOL    HW210815   0.252   2.649   0.588
 3306SOL     OW10816   1.175   3.548   2.088
 3306SOL    HW110817   1.228   3.517   2.167
 3306SOL    HW210818   1.120   3.627   2.113
 3307SOL     OW10819   0.693   6.486   0.476
 3307SOL    HW110820   0.763   6.552   0.500
 3307SOL    HW210821   0.652   6.511   0.388
 3308SOL     OW10822   5.708   6.477   0.571
 3308SOL    HW110823   5.799   6.483   0.532
 3308SOL    HW210824   5.713   6.436   0.662
 3309SOL     OW10825   1.447   5.536   2.353
 3309SOL    HW110826   1.361   5.502   2.316
 3309SOL    HW210827   1.498   5.460   2.393
 3310SOL     OW10828   1.252   6.640   1.939
 3310SOL    HW110829   1.276   6.636   1.842
 3310SOL    HW210830   1.153   6.628   1.949
 3311SOL     OW10831   4.128   6.445   0.958
 3311SOL    HW110832   4.039   6.453   1.003
 3311SOL    HW210833   4.115   6.443   0.859
 3312SOL     OW10834   2.181   3.098   6.863
 3312SOL    HW110835   2.261   3.062   6.814
 3312SOL    HW210836   2.133   3.023   6.907
 3313SOL     OW10837   6.233   6.146   5.004
 3313SOL    HW110838   6.276   6.121   5.091
 3313SOL    HW210839   6.172   6.224   5.018
 3314SOL     OW10840   0.607   4.051   6.525
 3314SOL    HW110841   0.632   4.142   6.493
 3314SOL    HW210842   0.682   4.013   6.580
 3315SOL     OW10843   6.360   3.841   3.541
 3315SOL    HW110844   6.449   3.861   3.501
 3315SOL    HW210845   6.320   3.760   3.498
 3316SOL     OW10846   4.270   1.923   0.342
 3316SOL    HW110847   4.284   1.936   0.440
 3316SOL    HW210848   4.229   1.834   0.325
 3317SOL     OW10849   4.199   2.646   1.752
 3317SOL    HW110850   4.238   2.718   1.696
 3317SOL    HW210851   4.244   2.559   1.730
 3318SOL     OW10852   2.782   5.362   5.100
 3318SOL    HW110853   2.737   5.282   5.140
 3318SOL    HW210854   2.795   5.347   5.002
 3319SOL     OW10855   6.686   6.575   6.398
 3319SOL    HW110856   6.782   6.602   6.398
 3319SOL    HW210857   6.664   6.532   6.485
 3320SOL     OW10858   0.733   0.578   0.186
 3320SOL    HW110859   0.664   0.552   0.119
 3320SOL    HW210860   0.823   0.579   0.142
 3321SOL     OW10861   3.940   3.459   4.226
 3321SOL    HW110862   3.931   3.464   4.326
 3321SOL    HW210863   3.850   3.448   4.184
 3322SOL     OW10864   4.149   2.328   1.511
 3322SOL    HW110865   4.203   2.285   1.439
 3322SOL    HW210866   4.054   2.335   1.483
 3323SOL     OW10867   2.862   4.842   6.967
 3323SOL    HW110868   2.919   4.909   7.013
 3323SOL    HW210869   2.794   4.888   6.910
 3324SOL     OW10870   6.071   2.795   1.771
 3324SOL    HW110871   5.981   2.766   1.737
 3324SOL    HW210872   6.067   2.805   1.870
 3325SOL     OW10873   1.167   3.948   6.676
 3325SOL    HW110874   1.263   3.975   6.689
 3325SOL    HW210875   1.149   3.864   6.727
 3326SOL     OW10876   6.281   0.978   1.876
 3326SOL    HW110877   6.332   1.054   1.917
 3326SOL    HW210878   6.231   1.011   1.796
 3327SOL     OW10879   4.205   6.066   1.505
 3327SOL    HW110880   4.243   6.135   1.444
 3327SOL    HW210881   4.153   5.999   1.452
 3328SOL     OW10882   5.856   6.985   3.924
 3328SOL    HW110883   5.899   6.968   3.835
 3328SOL    HW210884   5.790   6.911   3.943
 3329SOL     OW10885   4.973   0.926   6.587
 3329SOL    HW110886   5.072   0.913   6.589
 3329SOL    HW210887   4.943   0.973   6.670
 3330SOL     OW10888   6.877   6.527   3.415
 3330SOL    HW110889   6.867   6.583   3.497
 3330SOL    HW210890   6.873   6.586   3.334
 3331SOL     OW10891   1.673   3.580   2.896
 3331SOL    HW110892   1.690   3.545   2.988
 3331SOL    HW210893   1.638   3.506   2.838
 3332SOL     OW10894   3.144   5.157   0.123
 3332SOL    HW110895   3.130   5.246   0.166
 3332SOL    HW210896   3.188   5.095   0.188
 3333SOL     OW10897   2.400   3.245   1.482
 3333SOL    HW110898   2.317   3.276   1.527
 3333SOL    HW210899   2.380   3.163   1.428
 3334SOL     OW10900   1.739   2.375   1.931
 3334SOL    HW110901   1.682   2.410   1.856
 3334SOL    HW210902   1.680   2.341   2.004
 3335SOL     OW10903   3.423   4.249   5.165
 3335SOL    HW110904   3.325   4.262   5.176
 3335SOL    HW210905   3.440   4.164   5.115
 3336SOL     OW10906   4.294   5.999   4.939
 3336SOL    HW110907   4.331   6.004   4.846
 3336SOL    HW210908   4.357   5.949   4.998
 3337SOL     OW10909   3.953   3.028   3.150
 3337SOL    HW110910   3.936   2.999   3.056
 3337SOL    HW210911   3.870   3.012   3.204
 3338SOL     OW10912   2.994   2.787   1.263
 3338SOL    HW110913   2.924   2.859   1.271
 3338SOL    HW210914   2.959   2.702   1.302
 3339SOL     OW10915   1.070   0.215   6.989
 3339SOL    HW110916   1.156   0.262   6.966
 3339SOL    HW210917   1.090   0.132   0.015
 3340SOL     OW10918   3.601   1.044   5.667
 3340SOL    HW110919   3.660   1.101   5.611
 3340SOL    HW210920   3.510   1.037   5.625
 3341SOL     OW10921   0.772   4.581   1.618
 3341SOL    HW110922   0.870   4.578   1.595
 3341SOL    HW210923   0.730   4.493   1.595
 3342SOL     OW10924   6.558   0.807   2.558
 3342SOL    HW110925   6.532   0.862   2.479
 3342SOL    HW210926   6.497   0.829   2.635
 3343SOL     OW10927   3.739   5.722   0.555
 3343SOL    HW110928   3.676   5.644   0.550
 3343SOL    HW210929   3.818   5.705   0.497
 3344SOL     OW10930   0.762   3.469   1.784
 3344SOL    HW110931   0.830   3.535   1.814
 3344SOL    HW210932   0.804   3.379   1.777
 3345SOL     OW10933   5.913   5.282   1.438
 3345SOL    HW110934   5.816   5.258   1.428
 3345SOL    HW210935   5.923   5.381   1.438
 3346SOL     OW10936   1.105   0.723   0.334
 3346SOL    HW110937   1.050   0.693   0.256
 3346SOL    HW210938   1.199   0.740   0.305
 3347SOL     OW10939   0.888   3.759   5.807
 3347SOL    HW110940   0.820   3.833   5.815
 3347SOL    HW210941   0.892   3.727   5.713
 3348SOL     OW10942   3.723   4.292   6.158
 3348SOL    HW110943   3.719   4.223   6.230
 3348SOL    HW210944   3.750   4.380   6.197
 3349SOL     OW10945   2.009   5.036   2.241
 3349SOL    HW110946   2.087   5.093   2.214
 3349SOL    HW210947   2.015   4.948   2.194
 3350SOL     OW10948   1.849   4.735   4.917
 3350SOL    HW110949   1.942   4.731   4.881
 3350SOL    HW210950   1.785   4.702   4.848
 3351SOL     OW10951   5.575   1.106   1.919
 3351SOL    HW110952   5.592   1.007   1.919
 3351SOL    HW210953   5.596   1.144   2.009
 3352SOL     OW10954   5.345   1.603   0.138
 3352SOL    HW110955   5.404   1.544   0.194
 3352SOL    HW210956   5.278   1.649   0.196
 3353SOL     OW10957   3.875   0.549   6.879
 3353SOL    HW110958   3.830   0.590   6.958
 3353SOL    HW210959   3.914   0.460   6.904
 3354SOL     OW10960   2.420   3.474   0.709
 3354SOL    HW110961   2.445   3.569   0.691
 3354SOL    HW210962   2.491   3.414   0.673
 3355SOL     OW10963   0.917   0.359   4.423
 3355SOL    HW110964   0.858   0.387   4.498
 3355SOL    HW210965   0.868   0.366   4.336
 3356SOL     OW10966   2.265   0.800   6.605
 3356SOL    HW110967   2.195   0.869   6.588
 3356SOL    HW210968   2.281   0.793   6.704
 3357SOL     OW10969   3.132   2.982   3.070
 3357SOL    HW110970   3.210   2.979   3.132
 3357SOL    HW210971   3.092   2.890   3.062
 3358SOL     OW10972   0.680   1.596   1.580
 3358SOL    HW110973   0.675   1.687   1.622
 3358SOL    HW210974   0.766   1.552   1.607
 3359SOL     OW10975   1.010   6.891   4.661
 3359SOL    HW110976   1.029   6.984   4.691
 3359SOL    HW210977   1.061   6.871   4.577
 3360SOL     OW10978   2.287   5.051   4.488
 3360SOL    HW110979   2.327   5.070   4.399
 3360SOL    HW210980   2.323   4.964   4.522
 3361SOL     OW10981   6.703   6.582   4.913
 3361SOL    HW110982   6.711   6.520   4.834
 3361SOL    HW210983   6.663   6.669   4.883
 3362SOL     OW10984   3.745   0.500   3.938
 3362SOL    HW110985   3.683   0.468   3.867
 3362SOL    HW210986   3.828   0.444   3.937
 3363SOL     OW10987   5.583   4.260   0.262
 3363SOL    HW110988   5.563   4.358   0.261
 3363SOL    HW210989   5.652   4.241   0.331
 3364SOL     OW10990   1.288   3.521   1.809
 3364SOL    HW110991   1.204   3.536   1.861
 3364SOL    HW210992   1.366   3.516   1.872
 3365SOL     OW10993   1.276   3.096   2.477
 3365SOL    HW110994   1.236   3.011   2.511
 3365SOL    HW210995   1.205   3.152   2.434
 3366SOL     OW10996   6.215   2.943   4.566
 3366SOL    HW110997   6.211   2.900   4.476
 3366SOL    HW210998   6.140   3.009   4.575
 3367SOL     OW10999   3.525   3.075   3.859
 3367SOL    HW111000   3.457   3.003   3.850
 3367SOL    HW211001   3.479   3.162   3.878
 3368SOL     OW11002   2.567   0.961   3.188
 3368SOL    HW111003   2.622   0.898   3.243
 3368SOL    HW211004   2.576   0.938   3.091
 3369SOL     OW11005   4.771   2.850   0.875
 3369SOL    HW111006   4.841   2.782   0.852
 3369SOL    HW211007   4.815   2.936   0.898
 3370SOL     OW11008   0.788   5.679   2.733
 3370SOL    HW111009   0.725   5.756   2.739
 3370SOL    HW211010   0.835   5.681   2.645
 3371SOL     OW11011   2.351   2.390   1.346
 3371SOL    HW111012   2.395   2.375   1.435
 3371SOL    HW211013   2.265   2.339   1.342
 3372SOL     OW11014   5.687   3.169   3.548
 3372SOL    HW111015   5.625   3.099   3.513
 3372SOL    HW211016   5.635   3.239   3.597
 3373SOL     OW11017   0.222   4.025   1.124
 3373SOL    HW111018   0.166   4.093   1.076
 3373SOL    HW211019   0.163   3.954   1.162
 3374SOL     OW11020   0.650   6.361   4.245
 3374SOL    HW111021   0.640   6.358   4.145
 3374SOL    HW211022   0.591   6.433   4.281
 3375SOL     OW11023   0.717   6.253   5.661
 3375SOL    HW111024   0.671   6.277   5.747
 3375SOL    HW211025   0.807   6.296   5.659
 3376SOL     OW11026   3.060   3.313   4.755
 3376SOL    HW111027   3.129   3.370   4.799
 3376SOL    HW211028   3.059   3.223   4.797
 3377SOL     OW11029   7.024   5.133   4.568
 3377SOL    HW111030   7.015   5.058   4.633
 3377SOL    HW211031   0.021   5.217   4.616
 3378SOL     OW11032   1.223   5.944   0.383
 3378SOL    HW111033   1.309   5.981   0.349
 3378SOL    HW211034   1.241   5.870   0.448
 3379SOL     OW11035   5.769   3.923   4.226
 3379SOL    HW111036   5.795   4.019   4.212
 3379SOL    HW211037   5.726   3.913   4.316
 3380SOL     OW11038   2.412   5.198   1.308
 3380SOL    HW111039   2.418   5.102   1.336
 3380SOL    HW211040   2.496   5.224   1.262
 3381SOL     OW11041   2.909   4.029   6.304
 3381SOL    HW111042   2.822   4.036   6.255
 3381SOL    HW211043   2.932   4.118   6.343
 3382SOL     OW11044   6.682   4.139   6.895
 3382SOL    HW111045   6.637   4.123   6.807
 3382SOL    HW211046   6.697   4.051   6.941
 3383SOL     OW11047   3.593   5.341   0.552
 3383SOL    HW111048   3.669   5.364   0.612
 3383SOL    HW211049   3.606   5.250   0.513
 3384SOL     OW11050   2.669   2.811   6.410
 3384SOL    HW111051   2.572   2.788   6.400
 3384SOL    HW211052   2.719   2.779   6.329
 3385SOL     OW11053   6.519   2.383   4.269
 3385SOL    HW111054   6.428   2.420   4.291
 3385SOL    HW211055   6.573   2.378   4.353
 3386SOL     OW11056   0.755   5.804   4.297
 3386SOL    HW111057   0.706   5.719   4.281
 3386SOL    HW211058   0.817   5.794   4.375
 3387SOL     OW11059   6.199   1.067   2.879
 3387SOL    HW111060   6.167   1.135   2.813
 3387SOL    HW211061   6.139   0.987   2.875
 3388SOL     OW11062   6.804   3.780   0.660
 3388SOL    HW111063   6.774   3.871   0.688
 3388SOL    HW211064   6.774   3.763   0.566
 3389SOL     OW11065   6.548   5.409   6.522
 3389SOL    HW111066   6.456   5.405   6.482
 3389SOL    HW211067   6.540   5.408   6.622
 3390SOL     OW11068   2.879   5.704   0.529
 3390SOL    HW111069   2.893   5.799   0.501
 3390SOL    HW211070   2.807   5.663   0.474
 3391SOL     OW11071   4.934   3.962   5.090
 3391SOL    HW111072   4.887   3.996   5.009
 3391SOL    HW211073   5.009   4.025   5.114
 3392SOL     OW11074   4.631   6.308   6.128
 3392SOL    HW111075   4.674   6.390   6.167
 3392SOL    HW211076   4.662   6.227   6.178
 3393SOL     OW11077   3.714   6.358   0.404
 3393SOL    HW111078   3.761   6.349   0.316
 3393SOL    HW211079   3.616   6.343   0.391
 3394SOL     OW11080   3.143   5.088   1.278
 3394SOL    HW111081   3.062   5.135   1.313
 3394SOL    HW211082   3.161   5.007   1.334
 3395SOL     OW11083   2.132   6.541   2.840
 3395SOL    HW111084   2.149   6.619   2.780
 3395SOL    HW211085   2.195   6.545   2.918
 3396SOL     OW11086   4.475   0.275   4.351
 3396SOL    HW111087   4.534   0.203   4.389
 3396SOL    HW211088   4.411   0.305   4.422
 3397SOL     OW11089   2.475   6.295   0.487
 3397SOL    HW111090   2.476   6.366   0.557
 3397SOL    HW211091   2.528   6.326   0.407
 3398SOL     OW11092   6.467   1.289   6.201
 3398SOL    HW111093   6.481   1.236   6.285
 3398SOL    HW211094   6.382   1.261   6.157
 3399SOL     OW11095   6.549   6.171   2.260
 3399SOL    HW111096   6.561   6.267   2.284
 3399SOL    HW211097   6.639   6.128   2.247
 3400SOL     OW11098   3.734   2.860   5.136
 3400SOL    HW111099   3.780   2.772   5.123
 3400SOL    HW211100   3.692   2.889   5.051
 3401SOL     OW11101   0.215   3.391   4.060
 3401SOL    HW111102   0.265   3.305   4.055
 3401SOL    HW211103   0.278   3.467   4.046
 3402SOL     OW11104   5.757   3.477   0.281
 3402SOL    HW111105   5.702   3.471   0.364
 3402SOL    HW211106   5.708   3.436   0.205
 3403SOL     OW11107   4.986   6.476   6.110
 3403SOL    HW111108   4.914   6.449   6.174
 3403SOL    HW211109   5.020   6.567   6.135
 3404SOL     OW11110   5.008   5.519   2.956
 3404SOL    HW111111   4.968   5.520   2.864
 3404SOL    HW211112   5.065   5.438   2.966
 3405SOL     OW11113   3.893   5.857   0.137
 3405SOL    HW111114   3.936   5.774   0.099
 3405SOL    HW211115   3.896   5.930   0.068
 3406SOL     OW11116   3.662   5.252   1.445
 3406SOL    HW111117   3.728   5.319   1.478
 3406SOL    HW211118   3.569   5.284   1.464
 3407SOL     OW11119   1.061   3.346   0.021
 3407SOL    HW111120   1.090   3.305   0.107
 3407SOL    HW211121   1.016   3.434   0.040
 3408SOL     OW11122   4.479   6.932   3.979
 3408SOL    HW111123   4.513   6.912   3.887
 3408SOL    HW211124   4.530   7.008   4.017
 3409SOL     OW11125   3.900   1.967   0.042
 3409SOL    HW111126   3.926   2.064   0.039
 3409SOL    HW211127   3.918   1.931   0.134
 3410SOL     OW11128   6.267   0.745   2.989
 3410SOL    HW111129   6.353   0.786   3.019
 3410SOL    HW211130   6.222   0.805   2.923
 3411SOL     OW11131   6.030   3.162   5.863
 3411SOL    HW111132   5.955   3.209   5.910
 3411SOL    HW211133   5.995   3.122   5.778
 3412SOL     OW11134   5.641   2.936   3.380
 3412SOL    HW111135   5.739   2.951   3.366
 3412SOL    HW211136   5.600   2.906   3.293
 3413SOL     OW11137   6.793   2.115   0.965
 3413SOL    HW111138   6.742   2.050   1.021
 3413SOL    HW211139   6.887   2.083   0.954
 3414SOL     OW11140   3.379   3.173   2.098
 3414SOL    HW111141   3.387   3.268   2.127
 3414SOL    HW211142   3.390   3.167   1.999
 3415SOL     OW11143   2.278   1.314   6.122
 3415SOL    HW111144   2.242   1.397   6.164
 3415SOL    HW211145   2.224   1.292   6.041
 3416SOL     OW11146   6.437   6.782   6.085
 3416SOL    HW111147   6.511   6.716   6.069
 3416SOL    HW211148   6.349   6.735   6.080
 3417SOL     OW11149   5.876   0.329   2.495
 3417SOL    HW111150   5.871   0.240   2.541
 3417SOL    HW211151   5.971   0.362   2.499
 3418SOL     OW11152   4.253   5.715   0.708
 3418SOL    HW111153   4.315   5.749   0.779
 3418SOL    HW211154   4.304   5.701   0.623
 3419SOL     OW11155   2.839   4.747   5.329
 3419SOL    HW111156   2.782   4.797   5.264
 3419SOL    HW211157   2.878   4.667   5.284
 3420SOL     OW11158   4.336   1.055   2.547
 3420SOL    HW111159   4.357   0.973   2.602
 3420SOL    HW211160   4.360   1.037   2.452
 3421SOL     OW11161   6.957   1.920   4.978
 3421SOL    HW111162   7.006   1.987   4.921
 3421SOL    HW211163   6.888   1.874   4.922
 3422SOL     OW11164   3.416   5.922   1.497
 3422SOL    HW111165   3.471   6.004   1.479
 3422SOL    HW211166   3.466   5.841   1.467
 3423SOL     OW11167   2.863   4.300   5.628
 3423SOL    HW111168   2.873   4.399   5.623
 3423SOL    HW211169   2.794   4.271   5.561
 3424SOL     OW11170   5.029   0.826   2.170
 3424SOL    HW111171   5.021   0.891   2.094
 3424SOL    HW211172   4.946   0.769   2.174
 3425SOL     OW11173   6.557   2.930   6.181
 3425SOL    HW111174   6.490   2.975   6.123
 3425SOL    HW211175   6.518   2.844   6.216
 3426SOL     OW11176   6.089   4.857   0.092
 3426SOL    HW111177   6.089   4.856   7.018
 3426SOL    HW211178   6.137   4.776   0.126
 3427SOL     OW11179   1.688   1.473   6.429
 3427SOL    HW111180   1.707   1.460   6.526
 3427SOL    HW211181   1.710   1.390   6.378
 3428SOL     OW11182   5.090   0.350   4.671
 3428SOL    HW111183   5.066   0.361   4.574
 3428SOL    HW211184   5.189   0.339   4.679
 3429SOL     OW11185   4.244   6.678   0.631
 3429SOL    HW111186   4.175   6.606   0.637
 3429SOL    HW211187   4.221   6.740   0.556
 3430SOL     OW11188   2.682   4.239   6.395
 3430SOL    HW111189   2.753   4.259   6.463
 3430SOL    HW211190   2.638   4.153   6.418
 3431SOL     OW11191   0.491   4.769   2.945
 3431SOL    HW111192   0.444   4.687   2.977
 3431SOL    HW211193   0.575   4.742   2.898
 3432SOL     OW11194   0.628   4.612   0.080
 3432SOL    HW111195   0.570   4.680   0.035
 3432SOL    HW211196   0.599   4.520   0.054
 3433SOL     OW11197   0.709   0.930   0.431
 3433SOL    HW111198   0.666   0.857   0.379
 3433SOL    HW211199   0.783   0.893   0.487
 3434SOL     OW11200   3.671   2.623   1.781
 3434SOL    HW111201   3.745   2.624   1.714
 3434SOL    HW211202   3.656   2.530   1.815
 3435SOL     OW11203   1.782   2.307   1.205
 3435SOL    HW111204   1.687   2.302   1.236
 3435SOL    HW211205   1.787   2.359   1.120
 3436SOL     OW11206   3.999   6.427   6.103
 3436SOL    HW111207   3.991   6.521   6.136
 3436SOL    HW211208   4.076   6.421   6.039
 3437SOL     OW11209   1.173   6.540   0.006
 3437SOL    HW111210   1.250   6.490   6.993
 3437SOL    HW211211   1.177   6.534   0.106
 3438SOL     OW11212   2.669   4.331   0.898
 3438SOL    HW111213   2.640   4.300   0.808
 3438SOL    HW211214   2.607   4.294   0.967
 3439SOL     OW11215   3.412   6.022   0.232
 3439SOL    HW111216   3.464   5.954   0.284
 3439SOL    HW211217   3.341   6.062   0.291
 3440SOL     OW11218   3.988   3.764   5.662
 3440SOL    HW111219   4.014   3.860   5.650
 3440SOL    HW211220   3.916   3.741   5.597
 3441SOL     OW11221   6.930   4.939   4.385
 3441SOL    HW111222   6.944   5.027   4.430
 3441SOL    HW211223   6.843   4.899   4.416
 3442SOL     OW11224   0.955   2.740   0.798
 3442SOL    HW111225   0.929   2.762   0.704
 3442SOL    HW211226   1.049   2.706   0.799
 3443SOL     OW11227   0.479   6.157   2.905
 3443SOL    HW111228   0.502   6.239   2.853
 3443SOL    HW211229   0.516   6.164   2.997
 3444SOL     OW11230   6.983   3.654   5.917
 3444SOL    HW111231   6.998   3.560   5.947
 3444SOL    HW211232   6.893   3.661   5.873
 3445SOL     OW11233   6.502   5.010   4.676
 3445SOL    HW111234   6.586   5.051   4.712
 3445SOL    HW211235   6.481   4.927   4.727
 3446SOL     OW11236   4.408   1.721   0.630
 3446SOL    HW111237   4.469   1.652   0.592
 3446SOL    HW211238   4.315   1.704   0.599
 3447SOL     OW11239   4.974   1.320   6.246
 3447SOL    HW111240   5.006   1.226   6.233
 3447SOL    HW211241   4.898   1.339   6.183
 3448SOL     OW11242   0.700   5.185   5.453
 3448SOL    HW111243   0.716   5.281   5.431
 3448SOL    HW211244   0.725   5.168   5.549
 3449SOL     OW11245   0.836   3.672   5.554
 3449SOL    HW111246   0.880   3.738   5.494
 3449SOL    HW211247   0.737   3.680   5.545
 3450SOL     OW11248   2.809   6.821   2.376
 3450SOL    HW111249   2.778   6.895   2.317
 3450SOL    HW211250   2.754   6.739   2.358
 3451SOL     OW11251   2.131   2.412   0.941
 3451SOL    HW111252   2.128   2.360   0.856
 3451SOL    HW211253   2.216   2.465   0.946
 3452SOL     OW11254   4.506   1.382   5.821
 3452SOL    HW111255   4.455   1.353   5.740
 3452SOL    HW211256   4.444   1.426   5.886
 3453SOL     OW11257   4.372   6.155   6.151
 3453SOL    HW111258   4.435   6.233   6.154
 3453SOL    HW211259   4.278   6.189   6.163
 3454SOL     OW11260   0.923   3.471   2.498
 3454SOL    HW111261   0.868   3.529   2.438
 3454SOL    HW211262   0.887   3.475   2.591
 3455SOL     OW11263   0.723   3.683   6.394
 3455SOL    HW111264   0.793   3.742   6.355
 3455SOL    HW211265   0.756   3.645   6.480
 3456SOL     OW11266   4.361   5.528   3.200
 3456SOL    HW111267   4.352   5.431   3.219
 3456SOL    HW211268   4.441   5.544   3.142
 3457SOL     OW11269   4.209   4.523   0.695
 3457SOL    HW111270   4.220   4.501   0.598
 3457SOL    HW211271   4.194   4.439   0.746
 3458SOL     OW11272   4.562   1.557   1.969
 3458SOL    HW111273   4.657   1.584   1.983
 3458SOL    HW211274   4.516   1.625   1.912
 3459SOL     OW11275   6.157   6.166   2.082
 3459SOL    HW111276   6.179   6.260   2.108
 3459SOL    HW211277   6.067   6.163   2.038
 3460SOL     OW11278   3.458   1.821   5.335
 3460SOL    HW111279   3.469   1.725   5.308
 3460SOL    HW211280   3.481   1.881   5.258
 3461SOL     OW11281   4.798   4.858   4.015
 3461SOL    HW111282   4.850   4.924   4.069
 3461SOL    HW211283   4.707   4.848   4.055
 3462SOL     OW11284   0.680   4.618   6.545
 3462SOL    HW111285   0.661   4.524   6.574
 3462SOL    HW211286   0.661   4.626   6.447
 3463SOL     OW11287   5.654   3.641   7.009
 3463SOL    HW111288   5.670   3.551   0.024
 3463SOL    HW211289   5.579   3.687   0.029
 3464SOL     OW11290   0.086   4.458   3.513
 3464SOL    HW111291   0.021   4.475   3.438
 3464SOL    HW211292   0.090   4.538   3.572
 3465SOL     OW11293   0.584   2.802   2.701
 3465SOL    HW111294   0.676   2.766   2.715
 3465SOL    HW211295   0.541   2.818   2.790
 3466SOL     OW11296   6.516   3.489   3.779
 3466SOL    HW111297   6.456   3.560   3.741
 3466SOL    HW211298   6.569   3.447   3.705
 3467SOL     OW11299   1.612   2.538   6.077
 3467SOL    HW111300   1.600   2.439   6.067
 3467SOL    HW211301   1.622   2.579   5.986
 3468SOL     OW11302   5.151   6.273   2.181
 3468SOL    HW111303   5.055   6.300   2.170
 3468SOL    HW211304   5.207   6.322   2.114
 3469SOL     OW11305   5.560   3.978   0.542
 3469SOL    HW111306   5.602   3.982   0.451
 3469SOL    HW211307   5.537   4.070   0.572
 3470SOL     OW11308   6.397   5.053   1.386
 3470SOL    HW111309   6.425   5.120   1.454
 3470SOL    HW211310   6.298   5.061   1.370
 3471SOL     OW11311   4.580   6.843   4.356
 3471SOL    HW111312   4.605   6.781   4.430
 3471SOL    HW211313   4.486   6.874   4.368
 3472SOL     OW11314   3.957   1.080   5.025
 3472SOL    HW111315   4.003   1.169   5.022
 3472SOL    HW211316   4.021   1.008   4.998
 3473SOL     OW11317   4.565   0.135   4.105
 3473SOL    HW111318   4.631   0.083   4.159
 3473SOL    HW211319   4.510   0.193   4.165
 3474SOL     OW11320   4.883   4.120   0.621
 3474SOL    HW111321   4.886   4.201   0.679
 3474SOL    HW211322   4.840   4.143   0.534
 3475SOL     OW11323   1.816   5.670   5.141
 3475SOL    HW111324   1.786   5.622   5.224
 3475SOL    HW211325   1.749   5.656   5.068
 3476SOL     OW11326   4.138   1.962   4.557
 3476SOL    HW111327   4.119   1.907   4.475
 3476SOL    HW211328   4.057   1.963   4.616
 3477SOL     OW11329   4.487   5.321   1.801
 3477SOL    HW111330   4.523   5.395   1.857
 3477SOL    HW211331   4.562   5.268   1.761
 3478SOL     OW11332   4.311   4.033   0.438
 3478SOL    HW111333   4.313   3.971   0.360
 3478SOL    HW211334   4.389   4.095   0.434
 3479SOL     OW11335   1.410   0.347   0.848
 3479SOL    HW111336   1.495   0.379   0.889
 3479SOL    HW211337   1.349   0.313   0.920
 3480SOL     OW11338   1.318   0.064   4.299
 3480SOL    HW111339   1.369   7.004   4.293
 3480SOL    HW211340   1.248   0.066   4.227
 3481SOL     OW11341   1.930   6.293   6.714
 3481SOL    HW111342   1.846   6.341   6.689
 3481SOL    HW211343   1.917   6.249   6.803
 3482SOL     OW11344   0.727   2.390   2.048
 3482SOL    HW111345   0.640   2.440   2.053
 3482SOL    HW211346   0.709   2.294   2.029
 3483SOL     OW11347   3.625   1.594   0.356
 3483SOL    HW111348   3.568   1.566   0.279
 3483SOL    HW211349   3.695   1.524   0.372
 3484SOL     OW11350   4.007   3.939   3.770
 3484SOL    HW111351   3.926   3.974   3.818
 3484SOL    HW211352   4.024   3.845   3.798
 3485SOL     OW11353   5.814   1.304   5.094
 3485SOL    HW111354   5.814   1.233   5.164
 3485SOL    HW211355   5.891   1.290   5.032
 3486SOL     OW11356   5.263   0.890   2.918
 3486SOL    HW111357   5.272   0.868   3.015
 3486SOL    HW211358   5.325   0.965   2.896
 3487SOL     OW11359   0.400   0.457   0.494
 3487SOL    HW111360   0.469   0.397   0.455
 3487SOL    HW211361   0.431   0.490   0.583
 3488SOL     OW11362   6.067   4.009   4.178
 3488SOL    HW111363   6.098   4.043   4.266
 3488SOL    HW211364   6.046   4.085   4.118
 3489SOL     OW11365   2.744   5.264   6.875
 3489SOL    HW111366   2.672   5.198   6.854
 3489SOL    HW211367   2.707   5.338   6.931
 3490SOL     OW11368   4.403   3.462   0.767
 3490SOL    HW111369   4.449   3.505   0.845
 3490SOL    HW211370   4.346   3.387   0.800
 3491SOL     OW11371   6.756   3.129   5.811
 3491SOL    HW111372   6.656   3.126   5.804
 3491SOL    HW211373   6.787   3.222   5.793
 3492SOL     OW11374   6.099   4.852   6.842
 3492SOL    HW111375   6.139   4.765   6.812
 3492SOL    HW211376   6.120   4.923   6.775
 3493SOL     OW11377   0.021   4.911   1.826
 3493SOL    HW111378   6.991   4.993   1.822
 3493SOL    HW211379   0.116   4.935   1.807
 3494SOL     OW11380   3.298   6.554   1.117
 3494SOL    HW111381   3.294   6.472   1.061
 3494SOL    HW211382   3.278   6.634   1.060
 3495SOL     OW11383   5.828   4.007   6.690
 3495SOL    HW111384   5.779   4.012   6.777
 3495SOL    HW211385   5.913   4.058   6.697
 3496SOL     OW11386   0.652   4.935   0.974
 3496SOL    HW111387   0.657   4.874   0.895
 3496SOL    HW211388   0.725   5.003   0.969
 3497SOL     OW11389   4.436   0.082   4.788
 3497SOL    HW111390   4.534   0.069   4.781
 3497SOL    HW211391   4.389   0.025   4.721
 3498SOL     OW11392   0.916   1.912   0.453
 3498SOL    HW111393   0.941   1.976   0.526
 3498SOL    HW211394   0.871   1.832   0.493
 3499SOL     OW11395   0.058   4.298   4.574
 3499SOL    HW111396   0.117   4.378   4.572
 3499SOL    HW211397   7.020   4.301   4.498
 3500SOL     OW11398   5.793   3.274   0.855
 3500SOL    HW111399   5.787   3.234   0.946
 3500SOL    HW211400   5.734   3.223   0.792
 3501SOL     OW11401   0.492   4.761   3.359
 3501SOL    HW111402   0.395   4.780   3.340
 3501SOL    HW211403   0.500   4.711   3.445
 3502SOL     OW11404   0.852   4.970   1.787
 3502SOL    HW111405   0.779   5.036   1.805
 3502SOL    HW211406   0.839   4.890   1.847
 3503SOL     OW11407   3.416   6.961   3.305
 3503SOL    HW111408   3.474   6.920   3.375
 3503SOL    HW211409   3.334   6.906   3.292
 3504SOL     OW11410   2.010   2.824   2.935
 3504SOL    HW111411   2.068   2.824   3.016
 3504SOL    HW211412   1.953   2.742   2.934
 3505SOL     OW11413   4.823   6.747   4.974
 3505SOL    HW111414   4.847   6.657   5.009
 3505SOL    HW211415   4.812   6.743   4.874
 3506SOL     OW11416   6.234   4.985   2.070
 3506SOL    HW111417   6.241   4.906   2.010
 3506SOL    HW211418   6.204   5.065   2.018
 3507SOL     OW11419   6.708   0.458   5.771
 3507SOL    HW111420   6.626   0.425   5.816
 3507SOL    HW211421   6.695   0.457   5.672
 3508SOL     OW11422   6.464   4.148   0.384
 3508SOL    HW111423   6.544   4.190   0.426
 3508SOL    HW211424   6.417   4.091   0.451
 3509SOL     OW11425   5.856   0.332   6.727
 3509SOL    HW111426   5.917   0.407   6.753
 3509SOL    HW211427   5.895   0.283   6.649
 3510SOL     OW11428   1.701   1.853   2.329
 3510SOL    HW111429   1.700   1.950   2.352
 3510SOL    HW211430   1.672   1.800   2.408
 3511SOL     OW11431   0.726   1.047   4.577
 3511SOL    HW111432   0.739   1.058   4.675
 3511SOL    HW211433   0.639   1.002   4.559
 3512SOL     OW11434   3.723   3.093   1.103
 3512SOL    HW111435   3.733   3.021   1.172
 3512SOL    HW211436   3.668   3.058   1.027
 3513SOL     OW11437   5.469   4.068   1.048
 3513SOL    HW111438   5.438   4.022   0.965
 3513SOL    HW211439   5.467   4.167   1.035
 3514SOL     OW11440   2.301   6.628   1.885
 3514SOL    HW111441   2.276   6.586   1.797
 3514SOL    HW211442   2.259   6.576   1.959
 3515SOL     OW11443   4.057   6.080   3.243
 3515SOL    HW111444   4.057   6.003   3.306
 3515SOL    HW211445   4.112   6.154   3.280
 3516SOL     OW11446   2.008   1.343   0.288
 3516SOL    HW111447   2.096   1.373   0.253
 3516SOL    HW211448   1.991   1.249   0.258
 3517SOL     OW11449   0.499   0.602   6.345
 3517SOL    HW111450   0.425   0.598   6.412
 3517SOL    HW211451   0.575   0.545   6.377
 3518SOL     OW11452   4.213   3.605   5.987
 3518SOL    HW111453   4.182   3.561   5.903
 3518SOL    HW211454   4.229   3.702   5.971
 3519SOL     OW11455   3.505   6.643   0.242
 3519SOL    HW111456   3.473   6.643   0.337
 3519SOL    HW211457   3.454   6.574   0.190
 3520SOL     OW11458   3.381   5.332   1.434
 3520SOL    HW111459   3.384   5.287   1.345
 3520SOL    HW211460   3.333   5.420   1.425
 3521SOL     OW11461   6.614   2.352   6.507
 3521SOL    HW111462   6.657   2.432   6.548
 3521SOL    HW211463   6.684   2.291   6.471
 3522SOL     OW11464   2.802   0.646   0.748
 3522SOL    HW111465   2.851   0.580   0.691
 3522SOL    HW211466   2.771   0.722   0.692
 3523SOL     OW11467   2.694   4.399   5.293
 3523SOL    HW111468   2.724   4.311   5.329
 3523SOL    HW211469   2.773   4.450   5.259
 3524SOL     OW11470   2.342   0.696   2.707
 3524SOL    HW111471   2.252   0.712   2.667
 3524SOL    HW211472   2.360   0.764   2.778
 3525SOL     OW11473   1.308   3.636   2.728
 3525SOL    HW111474   1.381   3.702   2.710
 3525SOL    HW211475   1.274   3.599   2.642
 3526SOL     OW11476   3.732   6.648   3.533
 3526SOL    HW111477   3.688   6.561   3.555
 3526SOL    HW211478   3.774   6.686   3.616
 3527SOL     OW11479   5.315   3.496   6.474
 3527SOL    HW111480   5.353   3.467   6.386
 3527SOL    HW211481   5.389   3.524   6.535
 3528SOL     OW11482   1.765   6.383   4.829
 3528SOL    HW111483   1.739   6.447   4.901
 3528SOL    HW211484   1.796   6.297   4.870
 3529SOL     OW11485   3.629   6.169   0.181
 3529SOL    HW111486   3.698   6.146   0.249
 3529SOL    HW211487   3.553   6.104   0.186
 3530SOL     OW11488   1.768   6.631   3.032
 3530SOL    HW111489   1.806   6.583   2.953
 3530SOL    HW211490   1.737   6.722   3.003
 3531SOL     OW11491   5.164   4.400   6.884
 3531SOL    HW111492   5.082   4.413   6.829
 3531SOL    HW211493   5.229   4.343   6.834
 3532SOL     OW11494   2.204   6.449   0.632
 3532SOL    HW111495   2.169   6.543   0.622
 3532SOL    HW211496   2.275   6.447   0.703
 3533SOL     OW11497   1.594   0.890   3.682
 3533SOL    HW111498   1.634   0.838   3.757
 3533SOL    HW211499   1.507   0.931   3.711
 3534SOL     OW11500   5.219   0.597   5.106
 3534SOL    HW111501   5.296   0.558   5.156
 3534SOL    HW211502   5.174   0.525   5.053
 3535SOL     OW11503   4.980   6.415   0.054
 3535SOL    HW111504   4.911   6.392   0.122
 3535SOL    HW211505   5.048   6.342   0.049
 3536SOL     OW11506   0.856   3.516   2.751
 3536SOL    HW111507   0.902   3.429   2.769
 3536SOL    HW211508   0.810   3.546   2.835
 3537SOL     OW11509   2.805   4.953   1.373
 3537SOL    HW111510   2.735   5.008   1.419
 3537SOL    HW211511   2.852   4.896   1.441
 3538SOL     OW11512   3.978   0.842   3.609
 3538SOL    HW111513   3.942   0.819   3.699
 3538SOL    HW211514   3.905   0.879   3.552
 3539SOL     OW11515   4.775   5.737   5.967
 3539SOL    HW111516   4.762   5.664   6.034
 3539SOL    HW211517   4.792   5.696   5.877
 3540SOL     OW11518   3.439   4.677   6.280
 3540SOL    HW111519   3.491   4.591   6.281
 3540SOL    HW211520   3.480   4.741   6.346
 3541SOL     OW11521   1.310   2.476   2.123
 3541SOL    HW111522   1.238   2.410   2.145
 3541SOL    HW211523   1.269   2.564   2.102
 3542SOL     OW11524   5.865   1.652   6.922
 3542SOL    HW111525   5.910   1.617   6.839
 3542SOL    HW211526   5.935   1.675   6.990
 3543SOL     OW11527   0.690   2.068   3.547
 3543SOL    HW111528   0.726   2.080   3.454
 3543SOL    HW211529   0.594   2.096   3.550
 3544SOL     OW11530   2.831   4.512   0.508
 3544SOL    HW111531   2.798   4.563   0.587
 3544SOL    HW211532   2.819   4.414   0.524
 3545SOL     OW11533   3.932   6.518   0.484
 3545SOL    HW111534   3.977   6.547   0.399
 3545SOL    HW211535   3.845   6.473   0.462
 3546SOL     OW11536   6.546   4.879   1.237
 3546SOL    HW111537   6.483   4.936   1.289
 3546SOL    HW211538   6.577   4.930   1.156
 3547SOL     OW11539   0.951   3.994   4.844
 3547SOL    HW111540   0.860   4.030   4.863
 3547SOL    HW211541   0.973   3.922   4.910
 3548SOL     OW11542   6.412   0.323   6.209
 3548SOL    HW111543   6.372   0.255   6.148
 3548SOL    HW211544   6.351   0.340   6.286
 3549SOL     OW11545   2.201   6.461   6.904
 3549SOL    HW111546   2.201   6.508   6.816
 3549SOL    HW211547   2.278   6.494   6.959
 3550SOL     OW11548   5.660   1.324   5.640
 3550SOL    HW111549   5.627   1.264   5.566
 3550SOL    HW211550   5.736   1.379   5.606
 3551SOL     OW11551   5.674   1.778   5.068
 3551SOL    HW111552   5.634   1.711   5.130
 3551SOL    HW211553   5.771   1.760   5.056
 3552SOL     OW11554   6.753   6.930   3.191
 3552SOL    HW111555   6.792   6.867   3.124
 3552SOL    HW211556   6.726   6.880   3.273
 3553SOL     OW11557   6.414   5.802   6.356
 3553SOL    HW111558   6.414   5.774   6.260
 3553SOL    HW211559   6.396   5.901   6.362
 3554SOL     OW11560   4.692   4.227   6.763
 3554SOL    HW111561   4.688   4.240   6.862
 3554SOL    HW211562   4.776   4.266   6.727
 3555SOL     OW11563   2.341   1.953   5.213
 3555SOL    HW111564   2.430   1.920   5.181
 3555SOL    HW211565   2.268   1.902   5.165
 3556SOL     OW11566   5.896   1.280   0.209
 3556SOL    HW111567   5.928   1.205   0.267
 3556SOL    HW211568   5.842   1.344   0.264
 3557SOL     OW11569   5.704   6.376   1.867
 3557SOL    HW111570   5.800   6.353   1.857
 3557SOL    HW211571   5.649   6.313   1.812
 3558SOL     OW11572   3.345   5.680   2.135
 3558SOL    HW111573   3.300   5.732   2.063
 3558SOL    HW211574   3.378   5.742   2.206
 3559SOL     OW11575   3.913   6.496   6.414
 3559SOL    HW111576   3.915   6.396   6.412
 3559SOL    HW211577   3.834   6.529   6.363
 3560SOL     OW11578   2.176   5.389   4.452
 3560SOL    HW111579   2.224   5.436   4.379
 3560SOL    HW211580   2.241   5.335   4.506
 3561SOL     OW11581   4.750   3.451   5.396
 3561SOL    HW111582   4.717   3.516   5.328
 3561SOL    HW211583   4.677   3.434   5.463
 3562SOL     OW11584   2.647   1.303   0.443
 3562SOL    HW111585   2.742   1.276   0.459
 3562SOL    HW211586   2.639   1.340   0.350
 3563SOL     OW11587   0.295   2.434   6.643
 3563SOL    HW111588   0.278   2.336   6.656
 3563SOL    HW211589   0.391   2.454   6.665
 3564SOL     OW11590   6.221   3.496   2.759
 3564SOL    HW111591   6.229   3.424   2.828
 3564SOL    HW211592   6.311   3.537   2.744
 3565SOL     OW11593   5.077   6.781   5.754
 3565SOL    HW111594   5.170   6.749   5.772
 3565SOL    HW211595   5.012   6.713   5.787
 3566SOL     OW11596   1.316   1.160   5.322
 3566SOL    HW111597   1.259   1.177   5.403
 3566SOL    HW211598   1.258   1.127   5.247
 3567SOL     OW11599   6.669   3.906   0.009
 3567SOL    HW111600   6.579   3.911   0.052
 3567SOL    HW211601   6.733   3.862   0.073
 3568SOL     OW11602   4.579   3.309   5.575
 3568SOL    HW111603   4.550   3.254   5.653
 3568SOL    HW211604   4.629   3.251   5.511
 3569SOL     OW11605   1.864   0.577   3.571
 3569SOL    HW111606   1.819   0.558   3.658
 3569SOL    HW211607   1.912   0.495   3.539
 3570SOL     OW11608   6.277   1.387   4.670
 3570SOL    HW111609   6.346   1.328   4.709
 3570SOL    HW211610   6.221   1.427   4.743
 3571SOL     OW11611   6.460   5.514   4.749
 3571SOL    HW111612   6.478   5.595   4.692
 3571SOL    HW211613   6.520   5.514   4.828
 3572SOL     OW11614   6.275   6.207   5.436
 3572SOL    HW111615   6.268   6.258   5.350
 3572SOL    HW211616   6.218   6.125   5.431
 3573SOL     OW11617   0.362   1.753   1.389
 3573SOL    HW111618   0.383   1.719   1.297
 3573SOL    HW211619   0.427   1.825   1.413
 3574SOL     OW11620   6.098   3.794   0.605
 3574SOL    HW111621   6.028   3.747   0.553
 3574SOL    HW211622   6.056   3.855   0.672
 3575SOL     OW11623   6.229   6.432   2.158
 3575SOL    HW111624   6.264   6.481   2.078
 3575SOL    HW211625   6.209   6.498   2.231
 3576SOL     OW11626   6.454   0.829   6.950
 3576SOL    HW111627   6.420   0.846   0.016
 3576SOL    HW211628   6.453   0.730   6.933
 3577SOL     OW11629   2.889   3.919   0.283
 3577SOL    HW111630   2.851   3.999   0.329
 3577SOL    HW211631   2.986   3.936   0.261
 3578SOL     OW11632   3.550   4.375   1.687
 3578SOL    HW111633   3.629   4.316   1.703
 3578SOL    HW211634   3.568   4.465   1.727
 3579SOL     OW11635   1.779   4.273   5.335
 3579SOL    HW111636   1.839   4.341   5.293
 3579SOL    HW211637   1.829   4.224   5.407
 3580SOL     OW11638   6.507   3.240   1.048
 3580SOL    HW111639   6.499   3.338   1.033
 3580SOL    HW211640   6.561   3.223   1.131
 3581SOL     OW11641   6.060   1.178   3.571
 3581SOL    HW111642   6.068   1.109   3.498
 3581SOL    HW211643   6.027   1.134   3.655
 3582SOL     OW11644   0.056   0.197   5.007
 3582SOL    HW111645   0.054   0.151   5.096
 3582SOL    HW211646   6.989   0.207   4.973
 3583SOL     OW11647   1.610   5.162   1.386
 3583SOL    HW111648   1.661   5.077   1.401
 3583SOL    HW211649   1.580   5.199   1.474
 3584SOL     OW11650   5.834   0.139   5.514
 3584SOL    HW111651   5.922   0.132   5.468
 3584SOL    HW211652   5.765   0.174   5.451
 3585SOL     OW11653   2.286   4.903   3.457
 3585SOL    HW111654   2.322   4.935   3.369
 3585SOL    HW211655   2.186   4.905   3.454
 3586SOL     OW11656   1.032   0.735   5.877
 3586SOL    HW111657   1.121   0.726   5.921
 3586SOL    HW211658   0.992   0.644   5.863
 3587SOL     OW11659   3.866   6.271   6.761
 3587SOL    HW111660   3.804   6.228   6.696
 3587SOL    HW211661   3.821   6.348   6.805
 3588SOL     OW11662   1.903   1.776   5.317
 3588SOL    HW111663   1.862   1.826   5.393
 3588SOL    HW211664   1.851   1.794   5.233
 3589SOL     OW11665   3.728   0.289   4.595
 3589SOL    HW111666   3.765   0.214   4.650
 3589SOL    HW211667   3.695   0.362   4.655
 3590SOL     OW11668   1.597   5.071   6.894
 3590SOL    HW111669   1.541   5.119   6.961
 3590SOL    HW211670   1.562   4.979   6.880
 3591SOL     OW11671   5.576   2.296   5.204
 3591SOL    HW111672   5.653   2.332   5.257
 3591SOL    HW211673   5.513   2.371   5.183
 3592SOL     OW11674   5.137   2.373   1.836
 3592SOL    HW111675   5.047   2.337   1.813
 3592SOL    HW211676   5.160   2.347   1.930
 3593SOL     OW11677   1.336   5.216   4.388
 3593SOL    HW111678   1.256   5.190   4.334
 3593SOL    HW211679   1.419   5.184   4.343
 3594SOL     OW11680   3.835   1.808   4.488
 3594SOL    HW111681   3.760   1.797   4.423
 3594SOL    HW211682   3.922   1.801   4.439
 3595SOL     OW11683   2.350   6.563   5.887
 3595SOL    HW111684   2.301   6.526   5.966
 3595SOL    HW211685   2.326   6.510   5.805
 3596SOL     OW11686   0.295   4.003   3.698
 3596SOL    HW111687   0.203   3.966   3.685
 3596SOL    HW211688   0.292   4.103   3.695
 3597SOL     OW11689   3.519   0.398   3.813
 3597SOL    HW111690   3.496   0.303   3.793
 3597SOL    HW211691   3.457   0.458   3.762
 3598SOL     OW11692   1.573   0.594   0.229
 3598SOL    HW111693   1.578   0.505   0.276
 3598SOL    HW211694   1.666   0.623   0.203
 3599SOL     OW11695   6.610   1.465   4.471
 3599SOL    HW111696   6.653   1.518   4.545
 3599SOL    HW211697   6.538   1.520   4.429
 3600SOL     OW11698   6.957   0.185   1.364
 3600SOL    HW111699   6.960   0.088   1.389
 3600SOL    HW211700   6.867   0.207   1.325
 3601SOL     OW11701   6.263   3.630   5.581
 3601SOL    HW111702   6.191   3.688   5.544
 3601SOL    HW211703   6.230   3.584   5.664
 3602SOL     OW11704   2.829   1.556   1.033
 3602SOL    HW111705   2.858   1.625   0.967
 3602SOL    HW211706   2.896   1.549   1.106
 3603SOL     OW11707   4.295   5.522   4.351
 3603SOL    HW111708   4.307   5.606   4.403
 3603SOL    HW211709   4.300   5.542   4.253
 3604SOL     OW11710   6.604   4.055   3.501
 3604SOL    HW111711   6.537   4.091   3.436
 3604SOL    HW211712   6.637   4.130   3.559
 3605SOL     OW11713   6.207   2.869   6.523
 3605SOL    HW111714   6.300   2.838   6.542
 3605SOL    HW211715   6.172   2.824   6.442
 3606SOL     OW11716   1.766   4.400   3.114
 3606SOL    HW111717   1.799   4.306   3.112
 3606SOL    HW211718   1.781   4.439   3.204
 3607SOL     OW11719   4.433   0.011   7.011
 3607SOL    HW111720   4.361   0.012   6.942
 3607SOL    HW211721   4.399   0.050   0.070
 3608SOL     OW11722   0.495   3.256   2.767
 3608SOL    HW111723   0.397   3.252   2.747
 3608SOL    HW211724   0.547   3.256   2.681
 3609SOL     OW11725   6.334   0.028   4.755
 3609SOL    HW111726   6.401   6.990   4.793
 3609SOL    HW211727   6.341   0.028   4.655
 3610SOL     OW11728   1.890   5.538   5.654
 3610SOL    HW111729   1.967   5.564   5.597
 3610SOL    HW211730   1.845   5.457   5.616
 3611SOL     OW11731   4.480   5.234   5.852
 3611SOL    HW111732   4.524   5.317   5.886
 3611SOL    HW211733   4.537   5.155   5.872
 3612SOL     OW11734   1.936   6.323   1.368
 3612SOL    HW111735   1.896   6.237   1.337
 3612SOL    HW211736   1.864   6.385   1.399
 3613SOL     OW11737   5.044   5.120   6.273
 3613SOL    HW111738   4.972   5.132   6.342
 3613SOL    HW211739   5.004   5.078   6.191
 3614SOL     OW11740   3.680   3.507   4.431
 3614SOL    HW111741   3.655   3.526   4.526
 3614SOL    HW211742   3.598   3.499   4.375
 3615SOL     OW11743   6.048   6.398   6.106
 3615SOL    HW111744   5.985   6.372   6.032
 3615SOL    HW211745   6.123   6.332   6.110
 3616SOL     OW11746   6.031   0.692   4.883
 3616SOL    HW111747   6.011   0.723   4.976
 3616SOL    HW211748   5.956   0.719   4.822
 3617SOL     OW11749   6.736   0.615   0.233
 3617SOL    HW111750   6.776   0.699   0.196
 3617SOL    HW211751   6.748   0.541   0.167
 3618SOL     OW11752   2.938   0.004   6.516
 3618SOL    HW111753   2.857   0.062   6.517
 3618SOL    HW211754   2.955   6.994   6.608
 3619SOL     OW11755   5.149   4.240   4.180
 3619SOL    HW111756   5.207   4.320   4.170
 3619SOL    HW211757   5.155   4.206   4.274
 3620SOL     OW11758   6.104   1.551   4.882
 3620SOL    HW111759   6.188   1.606   4.883
 3620SOL    HW211760   6.041   1.585   4.951
 3621SOL     OW11761   1.573   3.639   6.126
 3621SOL    HW111762   1.550   3.578   6.202
 3621SOL    HW211763   1.513   3.621   6.048
 3622SOL     OW11764   0.506   3.586   0.833
 3622SOL    HW111765   0.470   3.554   0.745
 3622SOL    HW211766   0.438   3.645   0.877
 3623SOL     OW11767   6.937   5.223   3.785
 3623SOL    HW111768   6.878   5.215   3.865
 3623SOL    HW211769   6.898   5.171   3.709
 3624SOL     OW11770   1.772   1.174   1.789
 3624SOL    HW111771   1.713   1.102   1.752
 3624SOL    HW211772   1.757   1.259   1.739
 3625SOL     OW11773   0.731   3.440   4.416
 3625SOL    HW111774   0.775   3.527   4.394
 3625SOL    HW211775   0.754   3.373   4.345
 3626SOL     OW11776   2.725   3.913   5.258
 3626SOL    HW111777   2.625   3.919   5.248
 3626SOL    HW211778   2.753   3.818   5.246
 3627SOL     OW11779   3.399   3.298   3.626
 3627SOL    HW111780   3.378   3.289   3.724
 3627SOL    HW211781   3.327   3.352   3.582
 3628SOL     OW11782   3.050   5.396   2.867
 3628SOL    HW111783   3.036   5.453   2.787
 3628SOL    HW211784   3.085   5.452   2.942
 3629SOL     OW11785   5.561   2.939   5.196
 3629SOL    HW111786   5.489   2.993   5.153
 3629SOL    HW211787   5.525   2.898   5.280
 3630SOL     OW11788   5.399   1.201   4.822
 3630SOL    HW111789   5.476   1.144   4.794
 3630SOL    HW211790   5.360   1.245   4.741
 3631SOL     OW11791   2.051   0.800   3.695
 3631SOL    HW111792   2.097   0.730   3.751
 3631SOL    HW211793   1.988   0.755   3.632
 3632SOL     OW11794   3.872   6.935   6.334
 3632SOL    HW111795   3.894   6.896   6.423
 3632SOL    HW211796   3.953   6.934   6.275
 3633SOL     OW11797   1.516   3.287   5.786
 3633SOL    HW111798   1.577   3.212   5.814
 3633SOL    HW211799   1.448   3.251   5.722
 3634SOL     OW11800   3.116   6.058   6.037
 3634SOL    HW111801   3.194   6.101   5.992
 3634SOL    HW211802   3.065   6.004   5.970
 3635SOL     OW11803   1.885   1.220   4.881
 3635SOL    HW111804   1.977   1.216   4.843
 3635SOL    HW211805   1.872   1.308   4.928
 3636SOL     OW11806   1.606   5.605   6.703
 3636SOL    HW111807   1.673   5.618   6.631
 3636SOL    HW211808   1.538   5.679   6.700
 3637SOL     OW11809   5.418   1.618   1.785
 3637SOL    HW111810   5.340   1.680   1.797
 3637SOL    HW211811   5.503   1.671   1.782
 3638SOL     OW11812   6.027   4.646   3.320
 3638SOL    HW111813   6.117   4.637   3.363
 3638SOL    HW211814   6.021   4.734   3.273
 3639SOL     OW11815   2.715   5.740   6.763
 3639SOL    HW111816   2.780   5.760   6.690
 3639SOL    HW211817   2.761   5.688   6.836
 3640SOL     OW11818   3.291   6.525   1.661
 3640SOL    HW111819   3.377   6.474   1.652
 3640SOL    HW211820   3.229   6.474   1.721
 3641SOL     OW11821   2.120   0.419   4.565
 3641SOL    HW111822   2.077   0.478   4.634
 3641SOL    HW211823   2.165   0.477   4.496
 3642SOL     OW11824   6.076   0.003   2.389
 3642SOL    HW111825   5.996   6.972   2.374
 3642SOL    HW211826   6.047   0.091   2.427
 3643SOL     OW11827   3.601   4.866   5.972
 3643SOL    HW111828   3.543   4.787   5.990
 3643SOL    HW211829   3.626   4.867   5.875
 3644SOL     OW11830   6.878   0.164   0.363
 3644SOL    HW111831   6.823   0.167   0.447
 3644SOL    HW211832   6.906   0.257   0.339
 3645SOL     OW11833   3.782   6.406   2.578
 3645SOL    HW111834   3.695   6.430   2.621
 3645SOL    HW211835   3.856   6.454   2.624
 3646SOL     OW11836   6.448   5.631   3.737
 3646SOL    HW111837   6.433   5.608   3.641
 3646SOL    HW211838   6.370   5.683   3.772
 3647SOL     OW11839   2.154   2.570   1.525
 3647SOL    HW111840   2.197   2.480   1.526
 3647SOL    HW211841   2.070   2.567   1.580
 3648SOL     OW11842   3.210   5.843   3.520
 3648SOL    HW111843   3.200   5.844   3.620
 3648SOL    HW211844   3.292   5.895   3.494
 3649SOL     OW11845   3.648   3.217   2.448
 3649SOL    HW111846   3.571   3.209   2.512
 3649SOL    HW211847   3.655   3.134   2.393
 3650SOL     OW11848   5.829   6.743   1.496
 3650SOL    HW111849   5.848   6.645   1.498
 3650SOL    HW211850   5.901   6.791   1.445
 3651SOL     OW11851   1.218   6.145   2.229
 3651SOL    HW111852   1.230   6.163   2.132
 3651SOL    HW211853   1.196   6.048   2.243
 3652SOL     OW11854   4.417   5.132   2.470
 3652SOL    HW111855   4.354   5.192   2.519
 3652SOL    HW211856   4.379   5.040   2.466
 3653SOL     OW11857   0.079   2.823   4.358
 3653SOL    HW111858   0.075   2.871   4.446
 3653SOL    HW211859   0.174   2.801   4.336
 3654SOL     OW11860   1.259   5.500   1.221
 3654SOL    HW111861   1.296   5.592   1.208
 3654SOL    HW211862   1.177   5.488   1.166
 3655SOL     OW11863   0.574   0.810   3.664
 3655SOL    HW111864   0.592   0.723   3.710
 3655SOL    HW211865   0.658   0.864   3.661
 3656SOL     OW11866   2.884   1.265   2.833
 3656SOL    HW111867   2.808   1.329   2.835
 3656SOL    HW211868   2.912   1.250   2.738
 3657SOL     OW11869   3.912   5.090   1.915
 3657SOL    HW111870   3.993   5.032   1.921
 3657SOL    HW211871   3.846   5.062   1.984
 3658SOL     OW11872   2.072   5.623   5.866
 3658SOL    HW111873   1.998   5.676   5.908
 3658SOL    HW211874   2.038   5.579   5.783
 3659SOL     OW11875   1.082   4.423   0.457
 3659SOL    HW111876   1.033   4.347   0.501
 3659SOL    HW211877   1.158   4.387   0.403
 3660SOL     OW11878   4.643   5.302   1.125
 3660SOL    HW111879   4.715   5.279   1.059
 3660SOL    HW211880   4.577   5.364   1.082
 3661SOL     OW11881   4.753   1.802   1.031
 3661SOL    HW111882   4.743   1.766   0.938
 3661SOL    HW211883   4.663   1.819   1.071
 3662SOL     OW11884   2.765   6.447   5.056
 3662SOL    HW111885   2.770   6.543   5.085
 3662SOL    HW211886   2.853   6.421   5.016
 3663SOL     OW11887   1.329   3.673   6.394
 3663SOL    HW111888   1.393   3.644   6.464
 3663SOL    HW211889   1.300   3.594   6.340
 3664SOL     OW11890   4.299   0.499   0.823
 3664SOL    HW111891   4.308   0.527   0.727
 3664SOL    HW211892   4.264   0.576   0.877
 3665SOL     OW11893   1.335   6.527   5.354
 3665SOL    HW111894   1.328   6.509   5.256
 3665SOL    HW211895   1.291   6.615   5.375
 3666SOL     OW11896   0.869   4.819   4.084
 3666SOL    HW111897   0.786   4.771   4.058
 3666SOL    HW211898   0.847   4.913   4.110
 3667SOL     OW11899   0.267   1.519   6.679
 3667SOL    HW111900   0.294   1.607   6.718
 3667SOL    HW211901   0.344   1.481   6.628
 3668SOL     OW11902   1.675   6.150   1.923
 3668SOL    HW111903   1.602   6.114   1.981
 3668SOL    HW211904   1.717   6.075   1.872
 3669SOL     OW11905   5.878   2.032   3.809
 3669SOL    HW111906   5.826   2.075   3.735
 3669SOL    HW211907   5.838   2.059   3.897
 3670SOL     OW11908   2.417   5.392   6.197
 3670SOL    HW111909   2.390   5.353   6.109
 3670SOL    HW211910   2.402   5.491   6.196
 3671SOL     OW11911   1.411   0.926   2.657
 3671SOL    HW111912   1.447   0.833   2.644
 3671SOL    HW211913   1.313   0.922   2.675
 3672SOL     OW11914   6.856   6.940   0.606
 3672SOL    HW111915   6.803   7.022   0.585
 3672SOL    HW211916   6.952   6.956   0.583
 3673SOL     OW11917   4.144   0.491   6.673
 3673SOL    HW111918   4.205   0.555   6.719
 3673SOL    HW211919   4.079   0.542   6.616
 3674SOL     OW11920   1.665   6.363   0.883
 3674SOL    HW111921   1.735   6.389   0.951
 3674SOL    HW211922   1.684   6.410   0.797
 3675SOL     OW11923   1.724   1.622   4.578
 3675SOL    HW111924   1.736   1.549   4.511
 3675SOL    HW211925   1.677   1.587   4.659
 3676SOL     OW11926   2.215   4.961   2.939
 3676SOL    HW111927   2.125   4.968   2.895
 3676SOL    HW211928   2.271   5.039   2.911
 3677SOL     OW11929   6.464   6.740   3.605
 3677SOL    HW111930   6.432   6.810   3.669
 3677SOL    HW211931   6.518   6.672   3.654
 3678SOL     OW11932   0.836   1.561   3.524
 3678SOL    HW111933   0.862   1.473   3.563
 3678SOL    HW211934   0.823   1.628   3.597
 3679SOL     OW11935   0.183   1.019   1.403
 3679SOL    HW111936   0.183   0.924   1.373
 3679SOL    HW211937   0.250   1.071   1.350
 3680SOL     OW11938   6.759   4.064   4.524
 3680SOL    HW111939   6.686   4.002   4.552
 3680SOL    HW211940   6.847   4.018   4.528
 3681SOL     OW11941   5.366   6.191   4.893
 3681SOL    HW111942   5.276   6.219   4.926
 3681SOL    HW211943   5.410   6.133   4.962
 3682SOL     OW11944   0.309   2.461   6.366
 3682SOL    HW111945   0.275   2.458   6.460
 3682SOL    HW211946   0.409   2.453   6.367
 3683SOL     OW11947   5.110   5.809   3.487
 3683SOL    HW111948   5.193   5.830   3.539
 3683SOL    HW211949   5.111   5.860   3.400
 3684SOL     OW11950   1.923   2.882   0.680
 3684SOL    HW111951   1.868   2.829   0.745
 3684SOL    HW211952   1.890   2.976   0.678
 3685SOL     OW11953   6.520   6.791   6.383
 3685SOL    HW111954   6.460   6.776   6.304
 3685SOL    HW211955   6.580   6.712   6.394
 3686SOL     OW11956   5.782   4.282   1.302
 3686SOL    HW111957   5.840   4.359   1.330
 3686SOL    HW211958   5.767   4.287   1.203
 3687SOL     OW11959   2.855   1.049   6.715
 3687SOL    HW111960   2.764   1.065   6.754
 3687SOL    HW211961   2.921   1.106   6.764
 3688SOL     OW11962   0.038   3.523   6.902
 3688SOL    HW111963   0.036   3.443   6.963
 3688SOL    HW211964   0.100   3.505   6.826
 3689SOL     OW11965   2.914   0.611   3.715
 3689SOL    HW111966   2.904   0.650   3.806
 3689SOL    HW211967   2.830   0.562   3.690
 3690SOL     OW11968   4.587   6.483   5.433
 3690SOL    HW111969   4.663   6.421   5.412
 3690SOL    HW211970   4.503   6.429   5.442
 3691SOL     OW11971   3.792   2.783   0.217
 3691SOL    HW111972   3.750   2.708   0.270
 3691SOL    HW211973   3.892   2.774   0.221
 3692SOL     OW11974   1.340   0.173   6.719
 3692SOL    HW111975   1.391   0.183   6.634
 3692SOL    HW211976   1.311   0.078   6.730
 3693SOL     OW11977   2.508   1.818   3.089
 3693SOL    HW111978   2.540   1.912   3.077
 3693SOL    HW211979   2.519   1.768   3.003
 3694SOL     OW11980   2.053   6.008   2.994
 3694SOL    HW111981   2.141   5.991   2.951
 3694SOL    HW211982   2.065   6.069   3.072
 3695SOL     OW11983   1.860   2.646   1.609
 3695SOL    HW111984   1.858   2.602   1.519
 3695SOL    HW211985   1.873   2.576   1.680
 3696SOL     OW11986   3.126   6.359   5.810
 3696SOL    HW111987   3.199   6.306   5.853
 3696SOL    HW211988   3.120   6.449   5.854
 3697SOL     OW11989   5.175   0.208   3.976
 3697SOL    HW111990   5.220   0.295   3.995
 3697SOL    HW211991   5.185   0.186   3.879
 3698SOL     OW11992   3.059   0.404   5.731
 3698SOL    HW111993   2.982   0.467   5.744
 3698SOL    HW211994   3.027   0.310   5.741
 3699SOL     OW11995   1.496   3.811   2.124
 3699SOL    HW111996   1.470   3.856   2.210
 3699SOL    HW211997   1.430   3.738   2.105
 3700SOL     OW11998   0.417   0.161   4.236
 3700SOL    HW111999   0.401   0.257   4.258
 3700SOL    HW212000   0.372   0.139   4.149
 3701SOL     OW12001   5.517   0.515   3.448
 3701SOL    HW112002   5.464   0.573   3.385
 3701SOL    HW212003   5.540   0.567   3.530
 3702SOL     OW12004   4.060   0.918   7.007
 3702SOL    HW112005   4.087   0.851   0.050
 3702SOL    HW212006   4.035   0.870   6.923
 3703SOL     OW12007   4.504   4.369   0.242
 3703SOL    HW112008   4.492   4.375   0.143
 3703SOL    HW212009   4.433   4.422   0.288
 3704SOL     OW12010   2.483   0.361   2.251
 3704SOL    HW112011   2.463   0.268   2.221
 3704SOL    HW212012   2.576   0.386   2.222
 3705SOL     OW12013   5.273   1.151   4.198
 3705SOL    HW112014   5.317   1.061   4.193
 3705SOL    HW212015   5.199   1.156   4.132
 3706SOL     OW12016   2.262   2.043   3.846
 3706SOL    HW112017   2.192   2.099   3.803
 3706SOL    HW212018   2.231   1.948   3.853
 3707SOL     OW12019   4.345   2.718   5.252
 3707SOL    HW112020   4.388   2.632   5.222
 3707SOL    HW212021   4.247   2.713   5.235
 3708SOL     OW12022   6.115   0.031   5.824
 3708SOL    HW112023   6.017   0.036   5.807
 3708SOL    HW212024   6.150   6.969   5.794
 3709SOL     OW12025   4.525   0.304   0.067
 3709SOL    HW112026   4.590   0.344   0.132
 3709SOL    HW212027   4.435   0.346   0.081
 3710SOL     OW12028   7.017   5.015   0.495
 3710SOL    HW112029   6.984   5.016   0.589
 3710SOL    HW212030   6.996   5.102   0.451
 3711SOL     OW12031   6.625   5.016   2.973
 3711SOL    HW112032   6.530   5.019   2.942
 3711SOL    HW212033   6.650   5.104   3.014
 3712SOL     OW12034   1.907   0.087   0.394
 3712SOL    HW112035   1.875   0.056   0.305
 3712SOL    HW212036   1.828   0.115   0.449
 3713SOL     OW12037   4.342   5.965   6.365
 3713SOL    HW112038   4.394   6.019   6.300
 3713SOL    HW212039   4.246   5.962   6.337
 3714SOL     OW12040   3.737   1.200   5.492
 3714SOL    HW112041   3.769   1.187   5.398
 3714SOL    HW212042   3.815   1.219   5.551
 3715SOL     OW12043   5.196   3.770   4.167
 3715SOL    HW112044   5.235   3.790   4.077
 3715SOL    HW212045   5.250   3.816   4.237
 3716SOL     OW12046   0.331   1.581   4.585
 3716SOL    HW112047   0.257   1.527   4.544
 3716SOL    HW212048   0.396   1.520   4.631
 3717SOL     OW12049   5.826   0.137   0.294
 3717SOL    HW112050   5.826   0.227   0.337
 3717SOL    HW212051   5.880   0.139   0.211
 3718SOL     OW12052   0.643   5.221   0.182
 3718SOL    HW112053   0.637   5.205   0.084
 3718SOL    HW212054   0.556   5.259   0.215
 3719SOL     OW12055   3.861   4.813   6.374
 3719SOL    HW112056   3.956   4.828   6.402
 3719SOL    HW212057   3.836   4.879   6.303
 3720SOL     OW12058   0.398   1.714   6.034
 3720SOL    HW112059   0.479   1.709   5.975
 3720SOL    HW212060   0.359   1.805   6.030
 3721SOL     OW12061   4.506   3.274   0.538
 3721SOL    HW112062   4.435   3.264   0.469
 3721SOL    HW212063   4.471   3.329   0.614
 3722SOL     OW12064   6.086   5.906   1.580
 3722SOL    HW112065   6.026   5.899   1.659
 3722SOL    HW212066   6.134   5.819   1.565
 3723SOL     OW12067   4.381   1.324   0.714
 3723SOL    HW112068   4.333   1.370   0.640
 3723SOL    HW212069   4.403   1.390   0.786
 3724SOL     OW12070   0.140   4.995   5.672
 3724SOL    HW112071   0.045   5.018   5.693
 3724SOL    HW212072   0.166   5.037   5.585
 3725SOL     OW12073   6.713   0.375   0.819
 3725SOL    HW112074   6.732   0.432   0.900
 3725SOL    HW212075   6.621   0.338   0.826
 3726SOL     OW12076   5.863   2.983   1.604
 3726SOL    HW112077   5.824   3.044   1.672
 3726SOL    HW212078   5.962   2.977   1.618
 3727SOL     OW12079   2.521   2.849   5.317
 3727SOL    HW112080   2.462   2.770   5.302
 3727SOL    HW212081   2.482   2.929   5.271
 3728SOL     OW12082   0.583   3.462   6.806
 3728SOL    HW112083   0.574   3.549   6.757
 3728SOL    HW212084   0.511   3.400   6.776
 3729SOL     OW12085   0.175   2.708   3.048
 3729SOL    HW112086   0.266   2.690   3.084
 3729SOL    HW212087   0.110   2.716   3.123
 3730SOL     OW12088   2.596   0.750   0.560
 3730SOL    HW112089   2.551   0.799   0.486
 3730SOL    HW212090   2.539   0.753   0.642
 3731SOL     OW12091   2.899   6.627   6.516
 3731SOL    HW112092   2.975   6.637   6.452
 3731SOL    HW212093   2.813   6.626   6.465
 3732SOL     OW12094   2.145   3.661   4.488
 3732SOL    HW112095   2.133   3.759   4.505
 3732SOL    HW212096   2.180   3.617   4.571
 3733SOL     OW12097   2.700   3.441   1.187
 3733SOL    HW112098   2.728   3.345   1.177
 3733SOL    HW212099   2.781   3.499   1.187
 3734SOL     OW12100   5.311   0.101   2.869
 3734SOL    HW112101   5.233   0.094   2.807
 3734SOL    HW212102   5.295   0.041   2.948
 3735SOL     OW12103   3.453   1.677   1.739
 3735SOL    HW112104   3.440   1.594   1.793
 3735SOL    HW212105   3.395   1.673   1.657
 3736SOL     OW12106   4.701   1.350   6.094
 3736SOL    HW112107   4.667   1.267   6.050
 3736SOL    HW212108   4.661   1.430   6.049
 3737SOL     OW12109   4.045   6.676   3.337
 3737SOL    HW112110   4.062   6.756   3.279
 3737SOL    HW212111   3.973   6.698   3.404
 3738SOL     OW12112   6.813   6.924   3.833
 3738SOL    HW112113   6.904   6.960   3.855
 3738SOL    HW212114   6.806   6.908   3.735
 3739SOL     OW12115   0.467   3.777   1.834
 3739SOL    HW112116   0.507   3.696   1.878
 3739SOL    HW212117   0.384   3.750   1.783
 3740SOL     OW12118   5.511   1.069   0.173
 3740SOL    HW112119   5.480   1.108   0.259
 3740SOL    HW212120   5.597   1.111   0.146
 3741SOL     OW12121   3.622   2.097   0.043
 3741SOL    HW112122   3.689   2.118   6.999
 3741SOL    HW212123   3.668   2.082   0.130
 3742SOL     OW12124   2.926   3.600   5.616
 3742SOL    HW112125   2.996   3.616   5.685
 3742SOL    HW212126   2.846   3.658   5.634
 3743SOL     OW12127   0.739   6.080   5.962
 3743SOL    HW112128   0.675   6.007   5.984
 3743SOL    HW212129   0.691   6.168   5.959
 3744SOL     OW12130   0.021   5.436   3.095
 3744SOL    HW112131   6.966   5.433   3.038
 3744SOL    HW212132   0.012   5.508   3.164
 3745SOL     OW12133   5.122   5.927   1.842
 3745SOL    HW112134   5.098   5.892   1.932
 3745SOL    HW212135   5.075   6.014   1.827
 3746SOL     OW12136   3.929   1.817   2.470
 3746SOL    HW112137   3.948   1.850   2.377
 3746SOL    HW212138   4.004   1.841   2.530
 3747SOL     OW12139   2.661   0.166   0.793
 3747SOL    HW112140   2.674   0.108   0.873
 3747SOL    HW212141   2.565   0.165   0.766
 3748SOL     OW12142   5.803   0.710   2.295
 3748SOL    HW112143   5.778   0.807   2.287
 3748SOL    HW212144   5.840   0.692   2.386
 3749SOL     OW12145   1.457   0.563   4.800
 3749SOL    HW112146   1.508   0.596   4.880
 3749SOL    HW212147   1.431   0.467   4.815
 3750SOL     OW12148   0.125   4.810   0.127
 3750SOL    HW112149   0.172   4.727   0.100
 3750SOL    HW212150   0.034   4.813   0.084
 3751SOL     OW12151   1.668   4.154   1.302
 3751SOL    HW112152   1.656   4.056   1.282
 3751SOL    HW212153   1.759   4.169   1.340
 3752SOL     OW12154   5.674   6.373   6.927
 3752SOL    HW112155   5.721   6.406   7.009
 3752SOL    HW212156   5.633   6.284   6.946
 3753SOL     OW12157   6.656   0.079   3.631
 3753SOL    HW112158   6.704   0.023   3.699
 3753SOL    HW212159   6.719   0.101   3.557
 3754SOL     OW12160   1.968   1.220   1.024
 3754SOL    HW112161   1.911   1.270   1.090
 3754SOL    HW212162   2.008   1.285   0.960
 3755SOL     OW12163   3.025   5.324   4.358
 3755SOL    HW112164   3.111   5.326   4.409
 3755SOL    HW212165   2.977   5.238   4.378
 3756SOL     OW12166   1.995   6.288   0.675
 3756SOL    HW112167   1.946   6.252   0.595
 3756SOL    HW212168   2.054   6.363   0.647
 3757SOL     OW12169   0.110   4.599   1.213
 3757SOL    HW112170   0.163   4.584   1.129
 3757SOL    HW212171   0.040   4.668   1.197
 3758SOL     OW12172   2.084   0.145   3.953
 3758SOL    HW112173   2.151   0.118   3.883
 3758SOL    HW212174   2.121   0.123   4.044
 3759SOL     OW12175   5.228   0.473   4.002
 3759SOL    HW112176   5.139   0.461   3.959
 3759SOL    HW212177   5.298   0.484   3.931
 3760SOL     OW12178   1.228   1.062   3.040
 3760SOL    HW112179   1.181   1.092   3.124
 3760SOL    HW212180   1.269   1.142   2.995
 3761SOL     OW12181   4.794   1.667   5.226
 3761SOL    HW112182   4.869   1.674   5.159
 3761SOL    HW212183   4.820   1.713   5.310
 3762SOL     OW12184   0.035   2.938   3.651
 3762SOL    HW112185   0.026   2.930   3.750
 3762SOL    HW212186   0.120   2.894   3.622
 3763SOL     OW12187   0.829   4.426   6.702
 3763SOL    HW112188   0.899   4.360   6.732
 3763SOL    HW212189   0.872   4.515   6.687
 3764SOL     OW12190   2.589   0.578   2.732
 3764SOL    HW112191   2.497   0.617   2.732
 3764SOL    HW212192   2.655   0.647   2.705
 3765SOL     OW12193   5.655   2.576   3.084
 3765SOL    HW112194   5.724   2.611   3.021
 3765SOL    HW212195   5.643   2.478   3.069
 3766SOL     OW12196   1.554   3.465   1.926
 3766SOL    HW112197   1.513   3.374   1.922
 3766SOL    HW212198   1.570   3.490   2.021
 3767SOL     OW12199   1.599   5.573   6.384
 3767SOL    HW112200   1.608   5.474   6.397
 3767SOL    HW212201   1.513   5.604   6.424
 3768SOL     OW12202   1.323   7.012   2.845
 3768SOL    HW112203   1.311   6.989   2.748
 3768SOL    HW212204   1.274   0.070   2.866
 3769SOL     OW12205   5.178   5.564   4.064
 3769SOL    HW112206   5.090   5.585   4.107
 3769SOL    HW212207   5.248   5.625   4.100
 3770SOL     OW12208   2.284   0.908   1.160
 3770SOL    HW112209   2.311   0.916   1.064
 3770SOL    HW212210   2.286   0.999   1.203
 3771SOL     OW12211   6.434   5.399   5.643
 3771SOL    HW112212   6.512   5.403   5.705
 3771SOL    HW212213   6.375   5.323   5.669
 3772SOL     OW12214   1.402   5.827   1.416
 3772SOL    HW112215   1.318   5.801   1.465
 3772SOL    HW212216   1.450   5.898   1.467
 3773SOL     OW12217   5.067   5.102   6.799
 3773SOL    HW112218   4.982   5.115   6.849
 3773SOL    HW212219   5.060   5.022   6.740
 3774SOL     OW12220   6.397   5.172   1.830
 3774SOL    HW112221   6.354   5.262   1.822
 3774SOL    HW212222   6.446   5.150   1.745
 3775SOL     OW12223   4.676   5.247   4.898
 3775SOL    HW112224   4.625   5.181   4.953
 3775SOL    HW212225   4.760   5.273   4.946
 3776SOL     OW12226   4.210   2.876   6.101
 3776SOL    HW112227   4.174   2.832   6.183
 3776SOL    HW212228   4.212   2.810   6.025
 3777SOL     OW12229   2.930   4.782   4.519
 3777SOL    HW112230   2.850   4.734   4.556
 3777SOL    HW212231   2.919   4.796   4.421
 3778SOL     OW12232   3.553   5.610   6.570
 3778SOL    HW112233   3.482   5.648   6.629
 3778SOL    HW212234   3.635   5.590   6.625
 3779SOL     OW12235   6.716   4.812   6.806
 3779SOL    HW112236   6.690   4.796   6.711
 3779SOL    HW212237   6.815   4.828   6.811
 3780SOL     OW12238   5.626   3.557   2.108
 3780SOL    HW112239   5.691   3.534   2.035
 3780SOL    HW212240   5.674   3.562   2.195
 3781SOL     OW12241   1.875   5.938   5.067
 3781SOL    HW112242   1.789   5.987   5.053
 3781SOL    HW212243   1.858   5.857   5.124
 3782SOL     OW12244   4.362   5.160   0.966
 3782SOL    HW112245   4.281   5.119   0.924
 3782SOL    HW212246   4.358   5.150   1.065
 3783SOL     OW12247   4.639   5.108   4.528
 3783SOL    HW112248   4.668   5.014   4.542
 3783SOL    HW212249   4.542   5.118   4.553
 3784SOL     OW12250   6.145   2.960   5.095
 3784SOL    HW112251   6.165   3.057   5.080
 3784SOL    HW212252   6.053   2.950   5.133
 3785SOL     OW12253   1.549   2.483   3.262
 3785SOL    HW112254   1.478   2.520   3.202
 3785SOL    HW212255   1.558   2.542   3.342
 3786SOL     OW12256   2.115   3.303   4.662
 3786SOL    HW112257   2.127   3.223   4.721
 3786SOL    HW212258   2.049   3.366   4.704
 3787SOL     OW12259   4.938   6.678   4.248
 3787SOL    HW112260   5.002   6.602   4.252
 3787SOL    HW212261   4.987   6.762   4.229
 3788SOL     OW12262   5.088   2.922   5.874
 3788SOL    HW112263   5.062   2.866   5.795
 3788SOL    HW212264   5.139   2.865   5.939
 3789SOL     OW12265   2.802   2.411   1.189
 3789SOL    HW112266   2.867   2.385   1.118
 3789SOL    HW212267   2.719   2.446   1.147
 3790SOL     OW12268   0.954   6.527   1.267
 3790SOL    HW112269   0.988   6.470   1.192
 3790SOL    HW212270   0.861   6.499   1.291
 3791SOL     OW12271   4.956   0.623   5.684
 3791SOL    HW112272   4.872   0.582   5.720
 3791SOL    HW212273   4.945   0.722   5.678
 3792SOL     OW12274   6.865   0.256   4.431
 3792SOL    HW112275   6.803   0.262   4.353
 3792SOL    HW212276   6.898   0.162   4.440
 3793SOL     OW12277   4.103   4.981   0.485
 3793SOL    HW112278   4.052   5.061   0.453
 3793SOL    HW212279   4.042   4.902   0.487
 3794SOL     OW12280   1.044   4.852   6.149
 3794SOL    HW112281   1.042   4.913   6.069
 3794SOL    HW212282   1.069   4.904   6.230
 3795SOL     OW12283   2.810   6.312   1.247
 3795SOL    HW112284   2.722   6.358   1.255
 3795SOL    HW212285   2.867   6.335   1.325
 3796SOL     OW12286   4.493   1.085   0.609
 3796SOL    HW112287   4.439   1.001   0.602
 3796SOL    HW212288   4.443   1.152   0.663
 3797SOL     OW12289   0.145   3.488   1.522
 3797SOL    HW112290   0.210   3.416   1.549
 3797SOL    HW212291   0.088   3.455   1.447
 3798SOL     OW12292   1.493   5.302   3.847
 3798SOL    HW112293   1.537   5.372   3.904
 3798SOL    HW212294   1.555   5.224   3.836
 3799SOL     OW12295   6.985   0.898   3.435
 3799SOL    HW112296   6.895   0.933   3.459
 3799SOL    HW212297   0.009   0.968   3.384
 3800SOL     OW12298   5.825   2.327   3.081
 3800SOL    HW112299   5.848   2.395   3.151
 3800SOL    HW212300   5.864   2.239   3.107
 3801SOL     OW12301   6.097   0.835   1.441
 3801SOL    HW112302   6.179   0.780   1.428
 3801SOL    HW212303   6.016   0.777   1.431
 3802SOL     OW12304   6.208   3.677   1.802
 3802SOL    HW112305   6.230   3.715   1.892
 3802SOL    HW212306   6.161   3.746   1.747
 3803SOL     OW12307   3.431   4.037   4.665
 3803SOL    HW112308   3.444   3.941   4.685
 3803SOL    HW212309   3.334   4.055   4.648
 3804SOL     OW12310   3.818   6.104   3.534
 3804SOL    HW112311   3.908   6.145   3.520
 3804SOL    HW212312   3.827   6.019   3.586
 3805SOL     OW12313   2.263   2.618   6.707
 3805SOL    HW112314   2.183   2.577   6.750
 3805SOL    HW212315   2.235   2.698   6.654
 3806SOL     OW12316   2.412   4.966   1.431
 3806SOL    HW112317   2.416   4.867   1.416
 3806SOL    HW212318   2.499   4.997   1.469
 3807SOL     OW12319   1.482   4.057   3.735
 3807SOL    HW112320   1.429   4.000   3.798
 3807SOL    HW212321   1.570   4.080   3.778
 3808SOL     OW12322   2.748   6.529   5.441
 3808SOL    HW112323   2.824   6.579   5.398
 3808SOL    HW212324   2.662   6.556   5.397
 3809SOL     OW12325   5.385   1.802   2.149
 3809SOL    HW112326   5.375   1.704   2.128
 3809SOL    HW212327   5.330   1.824   2.229
 3810SOL     OW12328   4.802   2.013   3.086
 3810SOL    HW112329   4.858   2.096   3.073
 3810SOL    HW212330   4.789   1.968   2.998
 3811SOL     OW12331   0.208   5.343   5.245
 3811SOL    HW112332   0.172   5.262   5.199
 3811SOL    HW212333   0.287   5.378   5.194
 3812SOL     OW12334   4.965   5.364   0.597
 3812SOL    HW112335   4.882   5.310   0.582
 3812SOL    HW212336   4.973   5.387   0.693
 3813SOL     OW12337   6.381   4.432   0.329
 3813SOL    HW112338   6.433   4.438   0.244
 3813SOL    HW212339   6.398   4.343   0.373
 3814SOL     OW12340   6.986   0.582   4.716
 3814SOL    HW112341   0.007   0.540   4.794
 3814SOL    HW212342   6.991   0.681   4.723
 3815SOL     OW12343   6.293   3.717   6.320
 3815SOL    HW112344   6.331   3.803   6.354
 3815SOL    HW212345   6.353   3.641   6.346
 3816SOL     OW12346   6.664   6.154   1.574
 3816SOL    HW112347   6.601   6.099   1.519
 3816SOL    HW212348   6.633   6.249   1.574
 3817SOL     OW12349   4.553   3.461   1.702
 3817SOL    HW112350   4.623   3.533   1.707
 3817SOL    HW212351   4.550   3.424   1.609
 3818SOL     OW12352   6.025   6.236   2.529
 3818SOL    HW112353   6.092   6.261   2.459
 3818SOL    HW212354   6.039   6.141   2.556
 3819SOL     OW12355   5.977   3.617   3.736
 3819SOL    HW112356   5.946   3.685   3.802
 3819SOL    HW212357   6.049   3.561   3.777
 3820SOL     OW12358   3.404   6.334   5.033
 3820SOL    HW112359   3.464   6.273   4.980
 3820SOL    HW212360   3.380   6.413   4.977
 3821SOL     OW12361   1.373   0.218   0.330
 3821SOL    HW112362   1.428   0.293   0.367
 3821SOL    HW212363   1.379   0.220   0.230
 3822SOL     OW12364   4.679   0.543   1.998
 3822SOL    HW112365   4.585   0.510   1.987
 3822SOL    HW212366   4.741   0.487   1.943
 3823SOL     OW12367   5.731   5.786   5.725
 3823SOL    HW112368   5.726   5.828   5.634
 3823SOL    HW212369   5.683   5.698   5.723
 3824SOL     OW12370   2.271   2.915   0.548
 3824SOL    HW112371   2.183   2.959   0.529
 3824SOL    HW212372   2.338   2.944   0.479
 3825SOL     OW12373   0.734   4.791   5.739
 3825SOL    HW112374   0.773   4.715   5.791
 3825SOL    HW212375   0.800   4.821   5.670
 3826SOL     OW12376   5.538   4.135   3.945
 3826SOL    HW112377   5.600   4.104   3.873
 3826SOL    HW212378   5.485   4.058   3.980
 3827SOL     OW12379   0.437   2.022   0.297
 3827SOL    HW112380   0.443   2.107   0.245
 3827SOL    HW212381   0.529   1.996   0.328
 3828SOL     OW12382   4.143   3.428   3.570
 3828SOL    HW112383   4.142   3.527   3.560
 3828SOL    HW212384   4.217   3.401   3.633
 3829SOL     OW12385   0.967   3.656   1.829
 3829SOL    HW112386   1.019   3.706   1.760
 3829SOL    HW212387   0.969   3.705   1.915
 3830SOL     OW12388   5.800   0.841   3.686
 3830SOL    HW112389   5.806   0.929   3.640
 3830SOL    HW212390   5.842   0.770   3.629
 3831SOL     OW12391   4.873   2.185   3.647
 3831SOL    HW112392   4.932   2.110   3.616
 3831SOL    HW212393   4.799   2.199   3.581
 3832SOL     OW12394   6.696   0.897   3.489
 3832SOL    HW112395   6.630   0.956   3.536
 3832SOL    HW212396   6.668   0.885   3.394
 3833SOL     OW12397   1.513   2.539   5.156
 3833SOL    HW112398   1.436   2.541   5.091
 3833SOL    HW212399   1.479   2.563   5.247
 3834SOL     OW12400   4.928   3.813   0.690
 3834SOL    HW112401   4.974   3.813   0.779
 3834SOL    HW212402   4.896   3.906   0.669
 3835SOL     OW12403   4.077   5.917   5.130
 3835SOL    HW112404   4.115   5.828   5.156
 3835SOL    HW212405   4.149   5.974   5.089
 3836SOL     OW12406   0.197   6.333   5.542
 3836SOL    HW112407   0.264   6.308   5.472
 3836SOL    HW212408   0.236   6.401   5.604
 3837SOL     OW12409   4.663   4.428   5.986
 3837SOL    HW112410   4.583   4.483   5.962
 3837SOL    HW212411   4.739   4.452   5.925
 3838SOL     OW12412   0.786   0.549   4.100
 3838SOL    HW112413   0.843   0.545   4.018
 3838SOL    HW212414   0.812   0.628   4.155
 3839SOL     OW12415   5.283   0.835   3.588
 3839SOL    HW112416   5.311   0.875   3.675
 3839SOL    HW212417   5.313   0.740   3.584
 3840SOL     OW12418   2.843   1.303   6.426
 3840SOL    HW112419   2.759   1.357   6.420
 3840SOL    HW212420   2.820   1.206   6.435
 3841SOL     OW12421   6.196   4.502   4.562
 3841SOL    HW112422   6.132   4.563   4.607
 3841SOL    HW212423   6.154   4.464   4.479
 3842SOL     OW12424   1.761   3.821   5.281
 3842SOL    HW112425   1.805   3.821   5.371
 3842SOL    HW212426   1.738   3.915   5.256
 3843SOL     OW12427   5.063   2.375   6.946
 3843SOL    HW112428   5.160   2.354   6.955
 3843SOL    HW212429   5.039   2.380   6.849
 3844SOL     OW12430   0.486   6.697   1.436
 3844SOL    HW112431   0.440   6.784   1.454
 3844SOL    HW212432   0.558   6.682   1.504
 3845SOL     OW12433   2.193   5.249   0.527
 3845SOL    HW112434   2.239   5.223   0.442
 3845SOL    HW212435   2.094   5.242   0.515
 3846SOL     OW12436   0.276   3.094   3.130
 3846SOL    HW112437   0.283   3.114   3.228
 3846SOL    HW212438   0.257   3.179   3.080
 3847SOL     OW12439   6.823   1.914   0.015
 3847SOL    HW112440   6.816   1.814   0.009
 3847SOL    HW212441   6.733   1.955   7.026
 3848SOL     OW12442   5.583   3.951   2.470
 3848SOL    HW112443   5.518   4.026   2.480
 3848SOL    HW212444   5.614   3.946   2.375
 3849SOL     OW12445   0.017   4.731   6.336
 3849SOL    HW112446   0.061   4.707   6.249
 3849SOL    HW212447   0.033   4.828   6.356
 3850SOL     OW12448   3.053   2.202   1.532
 3850SOL    HW112449   3.116   2.131   1.564
 3850SOL    HW212450   3.045   2.197   1.433
 3851SOL     OW12451   0.315   6.356   2.570
 3851SOL    HW112452   0.333   6.452   2.550
 3851SOL    HW212453   0.238   6.349   2.633
 3852SOL     OW12454   2.074   6.677   5.404
 3852SOL    HW112455   2.133   6.679   5.324
 3852SOL    HW212456   2.106   6.744   5.471
 3853SOL     OW12457   2.927   6.753   3.169
 3853SOL    HW112458   2.874   6.782   3.249
 3853SOL    HW212459   2.923   6.824   3.099
 3854SOL     OW12460   1.091   2.304   2.200
 3854SOL    HW112461   1.008   2.347   2.237
 3854SOL    HW212462   1.087   2.205   2.217
 3855SOL     OW12463   3.773   6.726   0.259
 3855SOL    HW112464   3.809   6.637   0.232
 3855SOL    HW212465   3.674   6.728   0.244
 3856SOL     OW12466   0.511   2.987   6.868
 3856SOL    HW112467   0.529   3.075   6.911
 3856SOL    HW212468   0.480   2.922   6.937
 3857SOL     OW12469   2.087   0.397   6.329
 3857SOL    HW112470   2.102   0.314   6.383
 3857SOL    HW212471   2.098   0.477   6.389
 3858SOL     OW12472   5.054   0.739   3.741
 3858SOL    HW112473   5.129   0.673   3.731
 3858SOL    HW212474   4.992   0.732   3.663
 3859SOL     OW12475   6.449   6.867   2.119
 3859SOL    HW112476   6.486   6.902   2.033
 3859SOL    HW212477   6.519   6.812   2.165
 3860SOL     OW12478   1.417   6.875   4.044
 3860SOL    HW112479   1.421   6.806   3.972
 3860SOL    HW212480   1.387   6.833   4.129
 3861SOL     OW12481   2.841   5.731   1.522
 3861SOL    HW112482   2.820   5.681   1.607
 3861SOL    HW212483   2.925   5.694   1.482
 3862SOL     OW12484   1.682   0.068   3.701
 3862SOL    HW112485   1.612   0.076   3.771
 3862SOL    HW212486   1.740   0.149   3.702
 3863SOL     OW12487   3.655   0.196   0.496
 3863SOL    HW112488   3.655   0.180   0.595
 3863SOL    HW212489   3.592   0.271   0.475
 3864SOL     OW12490   2.063   0.629   5.028
 3864SOL    HW112491   2.042   0.710   5.083
 3864SOL    HW212492   2.161   0.608   5.035
 3865SOL     OW12493   3.474   0.877   0.703
 3865SOL    HW112494   3.560   0.827   0.706
 3865SOL    HW212495   3.435   0.871   0.610
 3866SOL     OW12496   2.683   2.070   6.615
 3866SOL    HW112497   2.743   2.110   6.683
 3866SOL    HW212498   2.600   2.035   6.659
 3867SOL     OW12499   0.718   3.090   2.094
 3867SOL    HW112500   0.735   3.189   2.095
 3867SOL    HW212501   0.621   3.073   2.112
 3868SOL     OW12502   4.683   0.808   0.295
 3868SOL    HW112503   4.693   0.791   0.393
 3868SOL    HW212504   4.748   0.751   0.245
 3869SOL     OW12505   5.521   2.290   3.726
 3869SOL    HW112506   5.589   2.248   3.667
 3869SOL    HW212507   5.449   2.331   3.670
 3870SOL     OW12508   0.381   0.683   4.681
 3870SOL    HW112509   0.295   0.728   4.659
 3870SOL    HW212510   0.451   0.708   4.615
 3871SOL     OW12511   2.654   4.986   4.888
 3871SOL    HW112512   2.699   4.980   4.799
 3871SOL    HW212513   2.586   5.060   4.886
 3872SOL     OW12514   2.862   3.543   5.351
 3872SOL    HW112515   2.787   3.477   5.354
 3872SOL    HW212516   2.896   3.558   5.443
 3873SOL     OW12517   4.439   1.987   0.589
 3873SOL    HW112518   4.504   1.957   0.519
 3873SOL    HW212519   4.409   1.907   0.642
 3874SOL     OW12520   2.671   1.062   6.937
 3874SOL    HW112521   2.574   1.059   6.914
 3874SOL    HW212522   2.695   0.981   6.990
 3875SOL     OW12523   1.081   2.304   6.310
 3875SOL    HW112524   1.153   2.234   6.308
 3875SOL    HW212525   1.117   2.387   6.352
 3876SOL     OW12526   3.935   5.084   1.418
 3876SOL    HW112527   3.915   5.153   1.349
 3876SOL    HW212528   3.882   5.104   1.501
 3877SOL     OW12529   6.362   1.361   6.974
 3877SOL    HW112530   6.284   1.321   7.022
 3877SOL    HW212531   6.411   1.289   6.924
 3878SOL     OW12532   4.830   0.863   4.361
 3878SOL    HW112533   4.789   0.789   4.307
 3878SOL    HW212534   4.771   0.943   4.359
 3879SOL     OW12535   5.980   5.641   0.688
 3879SOL    HW112536   6.077   5.640   0.666
 3879SOL    HW212537   5.931   5.580   0.626
 3880SOL     OW12538   4.523   4.885   4.088
 3880SOL    HW112539   4.510   4.950   4.163
 3880SOL    HW212540   4.492   4.795   4.117
 3881SOL     OW12541   0.993   3.850   0.563
 3881SOL    HW112542   1.078   3.823   0.516
 3881SOL    HW212543   0.916   3.802   0.521
 3882SOL     OW12544   0.682   1.774   6.859
 3882SOL    HW112545   0.680   1.743   6.764
 3882SOL    HW212546   0.744   1.716   6.912
 3883SOL     OW12547   5.045   5.758   2.844
 3883SOL    HW112548   4.972   5.827   2.841
 3883SOL    HW212549   5.024   5.691   2.915
 3884SOL     OW12550   0.839   4.785   2.047
 3884SOL    HW112551   0.820   4.703   2.100
 3884SOL    HW212552   0.787   4.862   2.086
 3885SOL     OW12553   5.347   5.873   2.835
 3885SOL    HW112554   5.412   5.942   2.865
 3885SOL    HW212555   5.256   5.892   2.873
 3886SOL     OW12556   3.488   6.553   5.586
 3886SOL    HW112557   3.526   6.507   5.506
 3886SOL    HW212558   3.544   6.532   5.666
 3887SOL     OW12559   0.433   6.578   2.257
 3887SOL    HW112560   0.485   6.596   2.341
 3887SOL    HW212561   0.450   6.650   2.191
 3888SOL     OW12562   6.103   5.579   4.209
 3888SOL    HW112563   6.058   5.499   4.249
 3888SOL    HW212564   6.194   5.589   4.249
 3889SOL     OW12565   4.847   3.403   6.481
 3889SOL    HW112566   4.863   3.476   6.414
 3889SOL    HW212567   4.749   3.383   6.486
 3890SOL     OW12568   5.703   2.938   4.389
 3890SOL    HW112569   5.612   2.899   4.374
 3890SOL    HW212570   5.708   3.029   4.348
 3891SOL     OW12571   6.407   5.332   3.044
 3891SOL    HW112572   6.331   5.267   3.049
 3891SOL    HW212573   6.401   5.384   2.959
 3892SOL     OW12574   0.092   1.654   1.300
 3892SOL    HW112575   0.166   1.720   1.312
 3892SOL    HW212576   0.019   1.674   1.365
 3893SOL     OW12577   4.112   3.308   1.929
 3893SOL    HW112578   4.072   3.322   2.020
 3893SOL    HW212579   4.164   3.389   1.903
 3894SOL     OW12580   4.005   1.023   5.986
 3894SOL    HW112581   4.070   1.095   5.962
 3894SOL    HW212582   4.040   0.935   5.954
 3895SOL     OW12583   1.905   0.311   4.446
 3895SOL    HW112584   1.981   0.354   4.494
 3895SOL    HW212585   1.834   0.285   4.512
 3896SOL     OW12586   0.604   0.478   6.954
 3896SOL    HW112587   0.591   0.379   6.965
 3896SOL    HW212588   0.628   0.498   6.860
 3897SOL     OW12589   4.590   6.453   1.690
 3897SOL    HW112590   4.686   6.452   1.719
 3897SOL    HW212591   4.548   6.539   1.720
 3898SOL     OW12592   3.955   2.977   0.416
 3898SOL    HW112593   3.910   2.971   0.505
 3898SOL    HW212594   3.984   2.885   0.388
 3899SOL     OW12595   3.282   6.448   6.435
 3899SOL    HW112596   3.282   6.456   6.335
 3899SOL    HW212597   3.226   6.369   6.462
 3900SOL     OW12598   4.875   3.688   3.397
 3900SOL    HW112599   4.866   3.718   3.302
 3900SOL    HW212600   4.860   3.766   3.458
 3901SOL     OW12601   2.791   0.200   0.060
 3901SOL    HW112602   2.809   0.140   7.009
 3901SOL    HW212603   2.716   0.163   0.115
 3902SOL     OW12604   5.795   3.204   2.646
 3902SOL    HW112605   5.818   3.259   2.565
 3902SOL    HW212606   5.708   3.157   2.631
 3903SOL     OW12607   3.222   5.337   6.693
 3903SOL    HW112608   3.238   5.434   6.710
 3903SOL    HW212609   3.125   5.316   6.709
 3904SOL     OW12610   1.003   0.617   0.092
 3904SOL    HW112611   0.993   0.675   0.012
 3904SOL    HW212612   1.095   0.576   0.093
 3905SOL     OW12613   6.830   6.014   5.112
 3905SOL    HW112614   6.889   6.083   5.070
 3905SOL    HW212615   6.862   5.995   5.205
 3906SOL     OW12616   6.379   6.442   5.315
 3906SOL    HW112617   6.343   6.486   5.233
 3906SOL    HW212618   6.348   6.492   5.396
 3907SOL     OW12619   6.552   0.813   4.088
 3907SOL    HW112620   6.611   0.781   4.013
 3907SOL    HW212621   6.466   0.847   4.050
 3908SOL     OW12622   1.370   3.024   5.890
 3908SOL    HW112623   1.407   2.938   5.856
 3908SOL    HW212624   1.344   3.082   5.812
 3909SOL     OW12625   5.863   5.225   4.173
 3909SOL    HW112626   5.919   5.278   4.238
 3909SOL    HW212627   5.922   5.179   4.108
 3910SOL     OW12628   4.093   3.776   2.851
 3910SOL    HW112629   4.090   3.770   2.951
 3910SOL    HW212630   4.171   3.724   2.817
 3911SOL     OW12631   6.407   2.200   5.538
 3911SOL    HW112632   6.498   2.176   5.503
 3911SOL    HW212633   6.337   2.156   5.482
 3912SOL     OW12634   5.342   2.745   6.559
 3912SOL    HW112635   5.312   2.726   6.652
 3912SOL    HW212636   5.403   2.671   6.529
 3913SOL     OW12637   1.319   6.743   0.323
 3913SOL    HW112638   1.383   6.678   0.365
 3913SOL    HW212639   1.311   6.824   0.381
 3914SOL     OW12640   3.157   5.728   5.943
 3914SOL    HW112641   3.148   5.781   6.026
 3914SOL    HW212642   3.245   5.681   5.943
 3915SOL     OW12643   6.510   5.819   1.220
 3915SOL    HW112644   6.545   5.898   1.168
 3915SOL    HW212645   6.587   5.765   1.253
 3916SOL     OW12646   0.973   6.993   3.473
 3916SOL    HW112647   1.067   6.957   3.469
 3916SOL    HW212648   0.976   0.066   3.476
 3917SOL     OW12649   2.013   0.004   6.511
 3917SOL    HW112650   2.052   7.017   6.602
 3917SOL    HW212651   2.005   6.942   6.465
 3918SOL     OW12652   5.846   3.770   0.908
 3918SOL    HW112653   5.821   3.854   0.860
 3918SOL    HW212654   5.778   3.750   0.978
 3919SOL     OW12655   2.995   6.469   0.001
 3919SOL    HW112656   2.958   6.391   0.052
 3919SOL    HW212657   2.944   6.481   6.943
 3920SOL     OW12658   2.005   1.646   6.594
 3920SOL    HW112659   1.910   1.674   6.608
 3920SOL    HW212660   2.038   1.599   6.676
 3921SOL     OW12661   1.377   3.754   1.598
 3921SOL    HW112662   1.348   3.700   1.677
 3921SOL    HW212663   1.444   3.823   1.627
 3922SOL     OW12664   0.986   4.824   1.031
 3922SOL    HW112665   1.021   4.842   1.123
 3922SOL    HW212666   0.976   4.725   1.018
 3923SOL     OW12667   6.768   0.338   0.124
 3923SOL    HW112668   6.784   0.259   0.064
 3923SOL    HW212669   6.826   0.331   0.205
 3924SOL     OW12670   0.134   4.813   4.560
 3924SOL    HW112671   0.063   4.828   4.628
 3924SOL    HW212672   0.114   4.867   4.478
 3925SOL     OW12673   1.936   5.391   2.531
 3925SOL    HW112674   1.964   5.364   2.623
 3925SOL    HW212675   1.883   5.476   2.537
 3926SOL     OW12676   4.562   4.494   2.210
 3926SOL    HW112677   4.616   4.555   2.151
 3926SOL    HW212678   4.488   4.453   2.157
 3927SOL     OW12679   0.517   3.302   6.495
 3927SOL    HW112680   0.481   3.253   6.575
 3927SOL    HW212681   0.554   3.391   6.524
 3928SOL     OW12682   5.334   6.006   6.207
 3928SOL    HW112683   5.283   5.978   6.288
 3928SOL    HW212684   5.335   5.931   6.141
 3929SOL     OW12685   1.086   1.723   4.890
 3929SOL    HW112686   1.175   1.678   4.888
 3929SOL    HW212687   1.076   1.773   4.976
 3930SOL     OW12688   2.444   1.419   3.259
 3930SOL    HW112689   2.529   1.367   3.248
 3930SOL    HW212690   2.367   1.367   3.223
 3931SOL     OW12691   6.143   1.032   1.647
 3931SOL    HW112692   6.063   0.976   1.624
 3931SOL    HW212693   6.212   1.024   1.575
 3932SOL     OW12694   1.846   2.439   3.972
 3932SOL    HW112695   1.788   2.476   4.044
 3932SOL    HW212696   1.941   2.469   3.986
 3933SOL     OW12697   1.230   6.788   5.402
 3933SOL    HW112698   1.203   6.822   5.492
 3933SOL    HW212699   1.153   6.796   5.339
 3934SOL     OW12700   5.375   0.310   6.524
 3934SOL    HW112701   5.315   0.237   6.557
 3934SOL    HW212702   5.330   0.398   6.536
 3935SOL     OW12703   4.719   0.771   0.552
 3935SOL    HW112704   4.655   0.757   0.627
 3935SOL    HW212705   4.781   0.847   0.574
 3936SOL     OW12706   0.132   4.966   3.490
 3936SOL    HW112707   0.144   5.043   3.428
 3936SOL    HW212708   0.034   4.949   3.503
 3937SOL     OW12709   0.383   1.320   2.635
 3937SOL    HW112710   0.389   1.251   2.707
 3937SOL    HW212711   0.366   1.409   2.676
 3938SOL     OW12712   0.445   1.983   2.380
 3938SOL    HW112713   0.398   1.899   2.352
 3938SOL    HW212714   0.382   2.060   2.376
 3939SOL     OW12715   2.913   1.724   1.865
 3939SOL    HW112716   2.861   1.809   1.879
 3939SOL    HW212717   2.984   1.717   1.936
 3940SOL     OW12718   3.562   3.594   1.319
 3940SOL    HW112719   3.644   3.626   1.367
 3940SOL    HW212720   3.524   3.515   1.367
 3941SOL     OW12721   4.089   4.170   6.278
 3941SOL    HW112722   3.990   4.160   6.289
 3941SOL    HW212723   4.110   4.263   6.250
 3942SOL     OW12724   6.778   6.383   5.815
 3942SOL    HW112725   6.768   6.392   5.914
 3942SOL    HW212726   6.746   6.467   5.771
 3943SOL     OW12727   0.243   3.827   4.275
 3943SOL    HW112728   0.237   3.926   4.287
 3943SOL    HW212729   0.339   3.800   4.270
 3944SOL     OW12730   5.304   2.589   4.607
 3944SOL    HW112731   5.402   2.570   4.599
 3944SOL    HW212732   5.287   2.642   4.690
 3945SOL     OW12733   6.785   0.583   1.016
 3945SOL    HW112734   6.713   0.535   1.066
 3945SOL    HW212735   6.872   0.570   1.063
 3946SOL     OW12736   4.324   4.976   3.140
 3946SOL    HW112737   4.244   4.917   3.134
 3946SOL    HW212738   4.307   5.050   3.204
 3947SOL     OW12739   6.030   5.916   6.666
 3947SOL    HW112740   6.119   5.880   6.694
 3947SOL    HW212741   6.044   5.994   6.604
 3948SOL     OW12742   6.003   4.557   1.193
 3948SOL    HW112743   6.016   4.504   1.277
 3948SOL    HW212744   5.911   4.596   1.192
 3949SOL     OW12745   5.014   6.686   3.361
 3949SOL    HW112746   5.082   6.636   3.414
 3949SOL    HW212747   4.954   6.737   3.422
 3950SOL     OW12748   1.295   5.743   0.591
 3950SOL    HW112749   1.266   5.720   0.684
 3950SOL    HW212750   1.368   5.681   0.562
 3951SOL     OW12751   5.683   0.233   2.105
 3951SOL    HW112752   5.738   0.307   2.143
 3951SOL    HW212753   5.741   0.155   2.084
 3952SOL     OW12754   6.022   2.459   0.614
 3952SOL    HW112755   6.060   2.548   0.641
 3952SOL    HW212756   6.084   2.414   0.549
 3953SOL     OW12757   3.807   4.077   2.242
 3953SOL    HW112758   3.849   4.164   2.217
 3953SOL    HW212759   3.820   4.060   2.340
 3954SOL     OW12760   3.972   4.781   5.651
 3954SOL    HW112761   3.983   4.683   5.633
 3954SOL    HW212762   4.059   4.828   5.639
 3955SOL     OW12763   3.594   1.008   5.240
 3955SOL    HW112764   3.675   0.995   5.298
 3955SOL    HW212765   3.532   1.073   5.283
 3956SOL     OW12766   2.112   1.073   1.568
 3956SOL    HW112767   2.081   1.056   1.662
 3956SOL    HW212768   2.177   1.002   1.541
 3957SOL     OW12769   3.454   0.840   4.592
 3957SOL    HW112770   3.419   0.878   4.507
 3957SOL    HW212771   3.465   0.741   4.583
 3958SOL     OW12772   5.599   0.819   5.446
 3958SOL    HW112773   5.567   0.755   5.515
 3958SOL    HW212774   5.695   0.799   5.424
 3959SOL     OW12775   5.016   4.987   0.772
 3959SOL    HW112776   4.954   5.007   0.696
 3959SOL    HW212777   4.972   4.922   0.834
 3960SOL     OW12778   5.450   2.474   4.167
 3960SOL    HW112779   5.384   2.497   4.239
 3960SOL    HW212780   5.529   2.428   4.208
 3961SOL     OW12781   5.721   6.425   3.925
 3961SOL    HW112782   5.775   6.354   3.881
 3961SOL    HW212783   5.775   6.509   3.932
 3962SOL     OW12784   0.154   5.023   5.370
 3962SOL    HW112785   0.246   5.063   5.367
 3962SOL    HW212786   0.156   4.932   5.328
 3963SOL     OW12787   4.634   6.674   2.085
 3963SOL    HW112788   4.626   6.722   2.172
 3963SOL    HW212789   4.640   6.741   2.011
 3964SOL     OW12790   5.114   3.792   3.557
 3964SOL    HW112791   5.183   3.723   3.535
 3964SOL    HW212792   5.027   3.748   3.578
 3965SOL     OW12793   4.934   3.912   4.616
 3965SOL    HW112794   4.893   3.886   4.704
 3965SOL    HW212795   5.032   3.923   4.627
 3966SOL     OW12796   2.586   6.194   6.420
 3966SOL    HW112797   2.614   6.105   6.455
 3966SOL    HW212798   2.607   6.199   6.322
 3967SOL     OW12799   2.264   4.720   3.056
 3967SOL    HW112800   2.363   4.705   3.055
 3967SOL    HW212801   2.241   4.794   2.993
 3968SOL     OW12802   4.188   6.900   0.865
 3968SOL    HW112803   4.166   6.974   0.802
 3968SOL    HW212804   4.174   6.812   0.820
 3969SOL     OW12805   1.716   5.525   1.782
 3969SOL    HW112806   1.781   5.472   1.835
 3969SOL    HW212807   1.730   5.508   1.684
 3970SOL     OW12808   5.430   6.242   2.415
 3970SOL    HW112809   5.369   6.178   2.368
 3970SOL    HW212810   5.500   6.274   2.351
 3971SOL     OW12811   2.559   5.654   4.045
 3971SOL    HW112812   2.489   5.658   3.974
 3971SOL    HW212813   2.524   5.698   4.128
 3972SOL     OW12814   2.375   4.097   0.301
 3972SOL    HW112815   2.355   4.136   0.391
 3972SOL    HW212816   2.450   4.148   0.259
 3973SOL     OW12817   1.102   5.442   0.338
 3973SOL    HW112818   1.076   5.347   0.318
 3973SOL    HW212819   1.202   5.449   0.341
 3974SOL     OW12820   2.121   0.857   5.402
 3974SOL    HW112821   2.121   0.812   5.492
 3974SOL    HW212822   2.209   0.902   5.387
 3975SOL     OW12823   5.766   2.060   6.248
 3975SOL    HW112824   5.809   2.094   6.164
 3975SOL    HW212825   5.678   2.106   6.261
 3976SOL     OW12826   2.326   5.573   2.141
 3976SOL    HW112827   2.232   5.541   2.134
 3976SOL    HW212828   2.383   5.500   2.178
 3977SOL     OW12829   0.535   3.680   6.649
 3977SOL    HW112830   0.520   3.729   6.563
 3977SOL    HW212831   0.547   3.745   6.723
 3978SOL     OW12832   6.635   4.241   3.716
 3978SOL    HW112833   6.640   4.158   3.772
 3978SOL    HW212834   6.551   4.290   3.737
 3979SOL     OW12835   3.623   0.259   6.354
 3979SOL    HW112836   3.643   0.162   6.360
 3979SOL    HW212837   3.525   0.271   6.338
 3980SOL     OW12838   5.898   6.139   5.747
 3980SOL    HW112839   5.813   6.162   5.699
 3980SOL    HW212840   5.951   6.076   5.690
 3981SOL     OW12841   4.777   6.599   0.317
 3981SOL    HW112842   4.722   6.554   0.388
 3981SOL    HW212843   4.874   6.596   0.343
 3982SOL     OW12844   2.719   6.265   2.803
 3982SOL    HW112845   2.630   6.261   2.848
 3982SOL    HW212846   2.792   6.261   2.872
 3983SOL     OW12847   3.829   5.502   3.536
 3983SOL    HW112848   3.880   5.498   3.450
 3983SOL    HW212849   3.893   5.515   3.612
 3984SOL     OW12850   6.506   2.513   2.807
 3984SOL    HW112851   6.472   2.512   2.901
 3984SOL    HW212852   6.450   2.575   2.752
 3985SOL     OW12853   3.885   5.486   6.253
 3985SOL    HW112854   3.872   5.400   6.204
 3985SOL    HW212855   3.875   5.470   6.351
 3986SOL     OW12856   5.191   0.886   1.834
 3986SOL    HW112857   5.285   0.889   1.802
 3986SOL    HW212858   5.174   0.961   1.898
 3987SOL     OW12859   2.972   5.102   5.531
 3987SOL    HW112860   2.975   5.162   5.451
 3987SOL    HW212861   3.055   5.046   5.534
 3988SOL     OW12862   4.500   5.279   0.300
 3988SOL    HW112863   4.544   5.336   0.369
 3988SOL    HW212864   4.473   5.191   0.341
 3989SOL     OW12865   6.210   2.092   0.082
 3989SOL    HW112866   6.276   2.062   0.151
 3989SOL    HW212867   6.163   2.174   0.114
 3990SOL     OW12868   6.139   2.323   2.499
 3990SOL    HW112869   6.120   2.304   2.402
 3990SOL    HW212870   6.070   2.385   2.535
 3991SOL     OW12871   6.802   0.506   3.296
 3991SOL    HW112872   6.795   0.557   3.382
 3991SOL    HW212873   6.898   0.499   3.269
 3992SOL     OW12874   3.313   2.447   0.869
 3992SOL    HW112875   3.334   2.352   0.888
 3992SOL    HW212876   3.289   2.495   0.953
 3993SOL     OW12877   1.420   3.201   1.546
 3993SOL    HW112878   1.348   3.271   1.549
 3993SOL    HW212879   1.484   3.222   1.472
 3994SOL     OW12880   2.518   6.437   4.924
 3994SOL    HW112881   2.515   6.464   4.828
 3994SOL    HW212882   2.613   6.424   4.952
 3995SOL     OW12883   1.757   2.874   5.269
 3995SOL    HW112884   1.729   2.880   5.365
 3995SOL    HW212885   1.790   2.781   5.249
 3996SOL     OW12886   0.067   6.170   4.719
 3996SOL    HW112887   0.125   6.093   4.745
 3996SOL    HW212888   0.117   6.256   4.733
 3997SOL     OW12889   5.557   0.187   4.574
 3997SOL    HW112890   5.457   0.190   4.581
 3997SOL    HW212891   5.584   0.105   4.525
 3998SOL     OW12892   4.481   2.269   3.727
 3998SOL    HW112893   4.482   2.326   3.809
 3998SOL    HW212894   4.432   2.183   3.746
 3999SOL     OW12895   5.559   2.048   5.071
 3999SOL    HW112896   5.577   1.959   5.112
 3999SOL    HW212897   5.585   2.121   5.134
 4000SOL     OW12898   3.938   0.193   3.717
 4000SOL    HW112899   4.019   0.138   3.740
 4000SOL    HW212900   3.965   0.288   3.705
 4001SOL     OW12901   0.951   2.279   3.507
 4001SOL    HW112902   0.869   2.324   3.544
 4001SOL    HW212903   0.943   2.274   3.407
 4002SOL     OW12904   2.019   3.573   1.815
 4002SOL    HW112905   2.037   3.517   1.734
 4002SOL    HW212906   2.090   3.557   1.883
 4003SOL     OW12907   3.220   1.144   4.724
 4003SOL    HW112908   3.273   1.221   4.758
 4003SOL    HW212909   3.176   1.168   4.638
 4004SOL     OW12910   6.916   1.723   5.175
 4004SOL    HW112911   6.965   1.772   5.103
 4004SOL    HW212912   6.846   1.665   5.135
 4005SOL     OW12913   5.153   5.118   5.751
 4005SOL    HW112914   5.210   5.065   5.689
 4005SOL    HW212915   5.207   5.146   5.830
 4006SOL     OW12916   3.430   6.124   2.227
 4006SOL    HW112917   3.519   6.152   2.261
 4006SOL    HW212918   3.419   6.025   2.240
 4007SOL     OW12919   6.778   2.123   6.455
 4007SOL    HW112920   6.856   2.127   6.393
 4007SOL    HW212921   6.810   2.110   6.549
 4008SOL     OW12922   2.635   2.333   5.394
 4008SOL    HW112923   2.551   2.325   5.341
 4008SOL    HW212924   2.674   2.424   5.380
 4009SOL     OW12925   3.824   2.957   2.585
 4009SOL    HW112926   3.802   2.884   2.651
 4009SOL    HW212927   3.775   2.940   2.499
 4010SOL     OW12928   2.031   3.039   6.547
 4010SOL    HW112929   2.058   3.135   6.551
 4010SOL    HW212930   1.963   3.021   6.618
 4011SOL     OW12931   0.655   2.408   1.272
 4011SOL    HW112932   0.615   2.474   1.335
 4011SOL    HW212933   0.736   2.447   1.229
 4012SOL     OW12934   6.661   3.330   3.618
 4012SOL    HW112935   6.588   3.312   3.552
 4012SOL    HW212936   6.638   3.286   3.705
 4013SOL     OW12937   4.593   2.566   3.360
 4013SOL    HW112938   4.527   2.506   3.315
 4013SOL    HW212939   4.609   2.646   3.302
 4014SOL     OW12940   5.676   5.713   2.379
 4014SOL    HW112941   5.636   5.654   2.449
 4014SOL    HW212942   5.748   5.663   2.331
 4015SOL     OW12943   4.669   3.430   6.845
 4015SOL    HW112944   4.720   3.371   6.907
 4015SOL    HW212945   4.732   3.490   6.796
 4016SOL     OW12946   3.146   6.713   5.077
 4016SOL    HW112947   3.070   6.706   5.012
 4016SOL    HW212948   3.139   6.639   5.144
 4017SOL     OW12949   6.783   6.348   6.585
 4017SOL    HW112950   6.818   6.366   6.677
 4017SOL    HW212951   6.704   6.286   6.591
 4018SOL     OW12952   2.638   6.048   0.513
 4018SOL    HW112953   2.718   6.102   0.541
 4018SOL    HW212954   2.558   6.106   0.508
 4019SOL     OW12955   5.281   5.225   3.262
 4019SOL    HW112956   5.343   5.156   3.299
 4019SOL    HW212957   5.219   5.257   3.334
 4020SOL     OW12958   5.367   2.511   5.095
 4020SOL    HW112959   5.292   2.460   5.052
 4020SOL    HW212960   5.329   2.581   5.156
 4021SOL     OW12961   4.068   4.499   6.830
 4021SOL    HW112962   4.032   4.570   6.769
 4021SOL    HW212963   3.994   4.460   6.884
 4022SOL     OW12964   5.069   0.273   1.468
 4022SOL    HW112965   5.018   0.250   1.384
 4022SOL    HW212966   5.093   0.188   1.516
 4023SOL     OW12967   6.715   0.494   5.485
 4023SOL    HW112968   6.770   0.428   5.434
 4023SOL    HW212969   6.622   0.459   5.498
 4024SOL     OW12970   3.851   5.049   4.208
 4024SOL    HW112971   3.787   5.073   4.282
 4024SOL    HW212972   3.911   5.127   4.189
 4025SOL     OW12973   1.296   3.990   2.692
 4025SOL    HW112974   1.216   3.930   2.699
 4025SOL    HW212975   1.379   3.936   2.703
 4026SOL     OW12976   5.340   0.241   4.823
 4026SOL    HW112977   5.263   0.177   4.828
 4026SOL    HW212978   5.412   0.211   4.885
 4027SOL     OW12979   4.580   5.246   1.406
 4027SOL    HW112980   4.596   5.257   1.308
 4027SOL    HW212981   4.542   5.331   1.443
 4028SOL     OW12982   2.673   6.744   4.087
 4028SOL    HW112983   2.739   6.812   4.054
 4028SOL    HW212984   2.589   6.750   4.033
 4029SOL     OW12985   2.179   4.292   3.794
 4029SOL    HW112986   2.093   4.310   3.842
 4029SOL    HW212987   2.208   4.198   3.812
 4030SOL     OW12988   1.463   1.417   6.236
 4030SOL    HW112989   1.395   1.344   6.239
 4030SOL    HW212990   1.526   1.407   6.312
 4031SOL     OW12991   4.911   5.736   4.132
 4031SOL    HW112992   4.914   5.644   4.171
 4031SOL    HW212993   4.864   5.733   4.044
 4032SOL     OW12994   5.145   6.939   4.536
 4032SOL    HW112995   5.070   6.977   4.589
 4032SOL    HW212996   5.191   6.867   4.589
 4033SOL     OW12997   3.155   3.924   5.439
 4033SOL    HW112998   3.200   3.835   5.446
 4033SOL    HW212999   3.163   3.973   5.526
 4034SOL     OW13000   6.491   2.671   4.082
 4034SOL    HW113001   6.541   2.697   4.165
 4034SOL    HW213002   6.553   2.628   4.018
 4035SOL     OW13003   0.439   5.707   0.939
 4035SOL    HW113004   0.488   5.740   0.859
 4035SOL    HW213005   0.505   5.675   1.007
 4036SOL     OW13006   6.339   6.141   2.779
 4036SOL    HW113007   6.388   6.193   2.709
 4036SOL    HW213008   6.325   6.047   2.748
 4037SOL     OW13009   6.438   4.243   6.199
 4037SOL    HW113010   6.512   4.309   6.189
 4037SOL    HW213011   6.381   4.244   6.117
 4038SOL     OW13012   6.529   4.829   3.541
 4038SOL    HW113013   6.547   4.892   3.466
 4038SOL    HW213014   6.523   4.880   3.627
 4039SOL     OW13015   4.363   5.744   0.949
 4039SOL    HW113016   4.432   5.673   0.957
 4039SOL    HW213017   4.394   5.827   0.995
 4040SOL     OW13018   3.539   6.525   0.904
 4040SOL    HW113019   3.472   6.452   0.888
 4040SOL    HW213020   3.621   6.507   0.851
 4041SOL     OW13021   1.248   6.989   3.838
 4041SOL    HW113022   1.289   6.980   3.928
 4041SOL    HW213023   1.262   0.056   3.804
 4042SOL     OW13024   5.877   5.072   2.141
 4042SOL    HW113025   5.943   5.074   2.066
 4042SOL    HW213026   5.789   5.039   2.108
 4043SOL     OW13027   5.875   3.999   2.124
 4043SOL    HW113028   5.784   4.027   2.156
 4043SOL    HW213029   5.906   3.921   2.178
 4044SOL     OW13030   6.818   5.440   2.941
 4044SOL    HW113031   6.754   5.366   2.965
 4044SOL    HW213032   6.784   5.527   2.976
 4045SOL     OW13033   2.121   4.747   5.807
 4045SOL    HW113034   2.033   4.791   5.786
 4045SOL    HW213035   2.192   4.817   5.812
 4046SOL     OW13036   0.085   2.963   1.036
 4046SOL    HW113037   0.027   3.030   1.083
 4046SOL    HW213038   0.119   3.003   0.951
 4047SOL     OW13039   3.019   4.038   1.943
 4047SOL    HW113040   3.055   4.018   2.034
 4047SOL    HW213041   3.006   3.953   1.893
 4048SOL     OW13042   4.888   2.350   1.197
 4048SOL    HW113043   4.823   2.275   1.181
 4048SOL    HW213044   4.946   2.361   1.116
 4049SOL     OW13045   6.798   0.727   5.768
 4049SOL    HW113046   6.887   0.737   5.812
 4049SOL    HW213047   6.760   0.638   5.790
 4050SOL     OW13048   2.369   0.576   1.456
 4050SOL    HW113049   2.373   0.485   1.414
 4050SOL    HW213050   2.355   0.568   1.554
 4051SOL     OW13051   1.705   4.209   1.036
 4051SOL    HW113052   1.672   4.202   1.130
 4051SOL    HW213053   1.688   4.301   1.002
 4052SOL     OW13054   1.632   6.374   1.602
 4052SOL    HW113055   1.558   6.380   1.669
 4052SOL    HW213056   1.718   6.398   1.645
 4053SOL     OW13057   2.956   4.886   3.362
 4053SOL    HW113058   2.862   4.867   3.333
 4053SOL    HW213059   2.972   4.842   3.450
 4054SOL     OW13060   5.259   1.783   6.729
 4054SOL    HW113061   5.166   1.778   6.765
 4054SOL    HW213062   5.277   1.877   6.698
 4055SOL     OW13063   4.206   2.972   0.672
 4055SOL    HW113064   4.240   2.880   0.690
 4055SOL    HW213065   4.224   2.995   0.576
 4056SOL     OW13066   3.734   3.370   1.088
 4056SOL    HW113067   3.714   3.272   1.086
 4056SOL    HW213068   3.663   3.420   1.038
 4057SOL     OW13069   6.372   2.139   0.605
 4057SOL    HW113070   6.421   2.176   0.684
 4057SOL    HW213071   6.312   2.209   0.567
 4058SOL     OW13072   1.580   1.473   4.821
 4058SOL    HW113073   1.591   1.468   4.920
 4058SOL    HW213074   1.639   1.405   4.778
 4059SOL     OW13075   6.069   1.642   5.295
 4059SOL    HW113076   6.145   1.703   5.313
 4059SOL    HW213077   6.080   1.558   5.348
 4060SOL     OW13078   3.897   6.026   4.883
 4060SOL    HW113079   3.987   6.054   4.849
 4060SOL    HW213080   3.889   5.926   4.879
 4061SOL     OW13081   2.626   3.063   1.363
 4061SOL    HW113082   2.649   2.970   1.338
 4061SOL    HW213083   2.527   3.072   1.371
 4062SOL     OW13084   3.842   6.074   2.689
 4062SOL    HW113085   3.851   6.157   2.633
 4062SOL    HW213086   3.762   6.023   2.660
 4063SOL     OW13087   2.703   5.157   6.202
 4063SOL    HW113088   2.612   5.135   6.236
 4063SOL    HW213089   2.751   5.073   6.179
 4064SOL     OW13090   5.919   0.043   4.176
 4064SOL    HW113091   5.890   0.030   4.081
 4064SOL    HW213092   5.912   0.140   4.199
 4065SOL     OW13093   6.413   4.905   0.082
 4065SOL    HW113094   6.330   4.877   0.131
 4065SOL    HW213095   6.461   4.824   0.049
 4066SOL     OW13096   6.232   5.345   1.515
 4066SOL    HW113097   6.206   5.273   1.451
 4066SOL    HW213098   6.321   5.383   1.488
 4067SOL     OW13099   5.846   0.650   1.505
 4067SOL    HW113100   5.789   0.718   1.551
 4067SOL    HW213101   5.803   0.624   1.419
 4068SOL     OW13102   6.012   1.290   4.900
 4068SOL    HW113103   6.016   1.241   4.813
 4068SOL    HW213104   6.024   1.388   4.883
 4069SOL     OW13105   6.609   6.054   1.136
 4069SOL    HW113106   6.651   6.091   1.053
 4069SOL    HW213107   6.681   6.019   1.196
 4070SOL     OW13108   6.918   3.574   2.810
 4070SOL    HW113109   6.902   3.564   2.909
 4070SOL    HW213110   6.973   3.655   2.793
 4071SOL     OW13111   2.200   0.496   3.335
 4071SOL    HW113112   2.194   0.494   3.235
 4071SOL    HW213113   2.120   0.450   3.374
 4072SOL     OW13114   0.987   0.238   4.011
 4072SOL    HW113115   0.966   0.245   3.913
 4072SOL    HW213116   0.902   0.232   4.063
 4073SOL     OW13117   2.699   5.360   1.457
 4073SOL    HW113118   2.676   5.403   1.370
 4073SOL    HW213119   2.678   5.424   1.532
 4074SOL     OW13120   0.440   3.205   0.762
 4074SOL    HW113121   0.392   3.289   0.785
 4074SOL    HW213122   0.524   3.199   0.817
 4075SOL     OW13123   5.251   0.566   3.660
 4075SOL    HW113124   5.319   0.504   3.699
 4075SOL    HW213125   5.217   0.529   3.573
 4076SOL     OW13126   1.989   2.255   3.270
 4076SOL    HW113127   1.928   2.329   3.299
 4076SOL    HW213128   1.965   2.171   3.319
 4077SOL     OW13129   3.300   0.950   0.904
 4077SOL    HW113130   3.310   1.044   0.936
 4077SOL    HW213131   3.374   0.930   0.839
 4078SOL     OW13132   4.917   4.004   2.800
 4078SOL    HW113133   5.002   4.028   2.754
 4078SOL    HW213134   4.845   3.989   2.732
 4079SOL     OW13135   6.005   0.318   4.365
 4079SOL    HW113136   6.074   0.324   4.437
 4079SOL    HW213137   5.914   0.310   4.406
 4080SOL     OW13138   3.595   3.041   3.037
 4080SOL    HW113139   3.505   3.022   2.999
 4080SOL    HW213140   3.650   3.090   2.968
 4081SOL     OW13141   2.732   2.555   6.649
 4081SOL    HW113142   2.702   2.514   6.563
 4081SOL    HW213143   2.652   2.582   6.703
 4082SOL     OW13144   1.342   2.552   5.417
 4082SOL    HW113145   1.344   2.647   5.448
 4082SOL    HW213146   1.249   2.529   5.387
 4083SOL     OW13147   5.966   5.280   2.940
 4083SOL    HW113148   5.950   5.187   2.975
 4083SOL    HW213149   5.927   5.346   3.004
 4084SOL     OW13150   4.532   0.831   2.501
 4084SOL    HW113151   4.517   0.919   2.456
 4084SOL    HW213152   4.471   0.762   2.461
 4085SOL     OW13153   2.626   4.608   2.461
 4085SOL    HW113154   2.572   4.527   2.439
 4085SOL    HW213155   2.644   4.660   2.377
 4086SOL     OW13156   6.427   4.746   4.717
 4086SOL    HW113157   6.359   4.745   4.644
 4086SOL    HW213158   6.413   4.666   4.776
 4087SOL     OW13159   2.090   0.726   1.796
 4087SOL    HW113160   1.996   0.756   1.809
 4087SOL    HW213161   2.152   0.799   1.825
 4088SOL     OW13162   0.263   1.918   5.742
 4088SOL    HW113163   0.265   1.818   5.734
 4088SOL    HW213164   0.201   1.956   5.673
 4089SOL     OW13165   0.985   0.950   2.413
 4089SOL    HW113166   0.900   0.923   2.458
 4089SOL    HW213167   1.015   0.877   2.351
 4090SOL     OW13168   2.319   2.748   5.894
 4090SOL    HW113169   2.339   2.662   5.941
 4090SOL    HW213170   2.378   2.757   5.814
 4091SOL     OW13171   3.241   5.812   1.921
 4091SOL    HW113172   3.172   5.881   1.899
 4091SOL    HW213173   3.226   5.731   1.864
 4092SOL     OW13174   5.353   2.183   5.993
 4092SOL    HW113175   5.287   2.196   5.919
 4092SOL    HW213176   5.366   2.269   6.042
 4093SOL     OW13177   5.266   4.295   3.477
 4093SOL    HW113178   5.213   4.373   3.511
 4093SOL    HW213179   5.236   4.212   3.522
 4094SOL     OW13180   0.081   6.570   0.256
 4094SOL    HW113181   0.072   6.644   0.190
 4094SOL    HW213182   0.035   6.595   0.341
 4095SOL     OW13183   1.606   4.878   0.575
 4095SOL    HW113184   1.631   4.863   0.671
 4095SOL    HW213185   1.534   4.948   0.571
 4096SOL     OW13186   0.702   0.250   6.193
 4096SOL    HW113187   0.710   0.160   6.237
 4096SOL    HW213188   0.609   0.284   6.204
 4097SOL     OW13189   0.251   3.883   4.683
 4097SOL    HW113190   0.321   3.839   4.738
 4097SOL    HW213191   0.200   3.814   4.632
 4098SOL     OW13192   1.009   5.163   1.480
 4098SOL    HW113193   0.920   5.167   1.526
 4098SOL    HW213194   1.003   5.207   1.391
 4099SOL     OW13195   6.482   3.530   5.836
 4099SOL    HW113196   6.388   3.551   5.811
 4099SOL    HW213197   6.531   3.493   5.757
 4100SOL     OW13198   2.032   1.669   2.641
 4100SOL    HW113199   2.020   1.761   2.676
 4100SOL    HW213200   2.103   1.622   2.694
 4101SOL     OW13201   6.713   6.031   6.807
 4101SOL    HW113202   6.653   6.104   6.776
 4101SOL    HW213203   6.808   6.053   6.784
 4102SOL     OW13204   1.346   5.737   0.201
 4102SOL    HW113205   1.403   5.819   0.207
 4102SOL    HW213206   1.250   5.764   0.200
 4103SOL     OW13207   2.125   6.118   3.241
 4103SOL    HW113208   2.212   6.074   3.263
 4103SOL    HW213209   2.126   6.212   3.275
 4104SOL     OW13210   1.967   5.847   5.359
 4104SOL    HW113211   1.999   5.927   5.308
 4104SOL    HW213212   1.874   5.863   5.391
 4105SOL     OW13213   4.294   0.491   2.533
 4105SOL    HW113214   4.362   0.496   2.607
 4105SOL    HW213215   4.307   0.569   2.471
 4106SOL     OW13216   1.450   0.127   1.919
 4106SOL    HW113217   1.536   0.093   1.955
 4106SOL    HW213218   1.375   0.099   1.979
 4107SOL     OW13219   1.276   0.952   1.026
 4107SOL    HW113220   1.370   0.988   1.026
 4107SOL    HW213221   1.275   0.862   1.068
 4108SOL     OW13222   6.634   6.025   5.530
 4108SOL    HW113223   6.603   6.092   5.462
 4108SOL    HW213224   6.732   6.008   5.519
 4109SOL     OW13225   5.377   6.339   4.618
 4109SOL    HW113226   5.408   6.275   4.687
 4109SOL    HW213227   5.454   6.393   4.584
 4110SOL     OW13228   4.738   3.010   0.550
 4110SOL    HW113229   4.816   2.958   0.513
 4110SOL    HW213230   4.671   3.026   0.478
 4111SOL     OW13231   5.774   4.975   4.286
 4111SOL    HW113232   5.675   4.984   4.300
 4111SOL    HW213233   5.810   5.060   4.249
 4112SOL     OW13234   4.214   6.163   4.331
 4112SOL    HW113235   4.195   6.070   4.301
 4112SOL    HW213236   4.130   6.217   4.327
 4113SOL     OW13237   4.353   5.675   4.878
 4113SOL    HW113238   4.379   5.582   4.853
 4113SOL    HW213239   4.399   5.740   4.818
 4114SOL     OW13240   0.527   1.085   1.434
 4114SOL    HW113241   0.457   1.054   1.499
 4114SOL    HW213242   0.483   1.133   1.358
 4115SOL     OW13243   4.478   5.806   3.663
 4115SOL    HW113244   4.392   5.796   3.713
 4115SOL    HW213245   4.524   5.717   3.659
 4116SOL     OW13246   5.536   3.384   3.376
 4116SOL    HW113247   5.630   3.351   3.373
 4116SOL    HW213248   5.532   3.467   3.432
 4117SOL     OW13249   1.014   1.159   3.710
 4117SOL    HW113250   0.944   1.226   3.687
 4117SOL    HW213251   1.044   1.173   3.804
 4118SOL     OW13252   1.413   6.732   0.765
 4118SOL    HW113253   1.357   6.789   0.826
 4118SOL    HW213254   1.507   6.732   0.798
 4119SOL     OW13255   6.989   0.494   4.473
 4119SOL    HW113256   6.976   0.521   4.569
 4119SOL    HW213257   6.955   0.401   4.461
 4120SOL     OW13258   2.391   0.599   6.267
 4120SOL    HW113259   2.370   0.530   6.198
 4120SOL    HW213260   2.311   0.658   6.279
 4121SOL     OW13261   6.868   0.842   2.315
 4121SOL    HW113262   6.872   0.747   2.346
 4121SOL    HW213263   6.779   0.858   2.272
 4122SOL     OW13264   0.757   5.340   3.214
 4122SOL    HW113265   0.658   5.334   3.205
 4122SOL    HW213266   0.786   5.290   3.296
 4123SOL     OW13267   5.152   4.111   1.256
 4123SOL    HW113268   5.123   4.109   1.160
 4123SOL    HW213269   5.185   4.020   1.283
 4124SOL     OW13270   6.515   6.367   6.888
 4124SOL    HW113271   6.564   6.309   6.954
 4124SOL    HW213272   6.466   6.439   6.937
 4125SOL     OW13273   6.385   2.587   0.485
 4125SOL    HW113274   6.419   2.548   0.571
 4125SOL    HW213275   6.309   2.532   0.450
 4126SOL     OW13276   0.922   3.710   3.934
 4126SOL    HW113277   0.985   3.728   4.009
 4126SOL    HW213278   0.851   3.646   3.965
 4127SOL     OW13279   5.324   2.509   3.913
 4127SOL    HW113280   5.351   2.501   4.009
 4127SOL    HW213281   5.402   2.539   3.858
 4128SOL     OW13282   6.736   2.587   6.547
 4128SOL    HW113283   6.835   2.600   6.558
 4128SOL    HW213284   6.707   2.628   6.460
 4129SOL     OW13285   2.996   1.798   1.038
 4129SOL    HW113286   3.005   1.747   0.953
 4129SOL    HW213287   3.032   1.743   1.114
 4130SOL     OW13288   6.271   2.763   0.149
 4130SOL    HW113289   6.286   2.822   0.228
 4130SOL    HW213290   6.242   2.672   0.181
 4131SOL     OW13291   4.836   6.764   3.185
 4131SOL    HW113292   4.878   6.705   3.254
 4131SOL    HW213293   4.809   6.710   3.106
 4132SOL     OW13294   6.436   4.580   3.164
 4132SOL    HW113295   6.456   4.482   3.167
 4132SOL    HW213296   6.481   4.621   3.085
 4133SOL     OW13297   5.478   6.551   2.788
 4133SOL    HW113298   5.489   6.624   2.856
 4133SOL    HW213299   5.548   6.561   2.717
 4134SOL     OW13300   1.956   3.275   1.351
 4134SOL    HW113301   1.874   3.282   1.407
 4134SOL    HW213302   1.993   3.367   1.334
 4135SOL     OW13303   5.995   1.036   1.235
 4135SOL    HW113304   6.055   0.980   1.293
 4135SOL    HW213305   5.925   0.977   1.193
 4136SOL     OW13306   0.279   4.558   0.949
 4136SOL    HW113307   0.212   4.540   0.877
 4136SOL    HW213308   0.368   4.522   0.922
 4137SOL     OW13309   0.538   2.901   6.384
 4137SOL    HW113310   0.495   2.823   6.341
 4137SOL    HW213311   0.542   2.887   6.483
 4138SOL     OW13312   4.168   6.990   6.603
 4138SOL    HW113313   4.241   6.947   6.549
 4138SOL    HW213314   4.137   0.046   6.557
 4139SOL     OW13315   1.941   4.091   2.646
 4139SOL    HW113316   2.035   4.095   2.613
 4139SOL    HW213317   1.932   4.146   2.729
 4140SOL     OW13318   2.136   0.415   6.730
 4140SOL    HW113319   2.215   0.377   6.777
 4140SOL    HW213320   2.155   0.423   6.632
 4141SOL     OW13321   4.961   1.483   6.500
 4141SOL    HW113322   4.963   1.395   6.547
 4141SOL    HW213323   4.986   1.469   6.404
 4142SOL     OW13324   6.236   5.409   1.781
 4142SOL    HW113325   6.223   5.364   1.692
 4142SOL    HW213326   6.150   5.410   1.831
 4143SOL     OW13327   6.418   3.973   6.354
 4143SOL    HW113328   6.393   4.062   6.393
 4143SOL    HW213329   6.499   3.938   6.401
 4144SOL     OW13330   4.308   1.140   1.593
 4144SOL    HW113331   4.245   1.105   1.663
 4144SOL    HW213332   4.369   1.208   1.633
 4145SOL     OW13333   6.465   0.318   1.665
 4145SOL    HW113334   6.513   0.234   1.639
 4145SOL    HW213335   6.389   0.296   1.725
 4146SOL     OW13336   4.514   6.983   1.528
 4146SOL    HW113337   4.471   6.985   1.618
 4146SOL    HW213338   4.583   0.028   1.523
 4147SOL     OW13339   4.915   4.778   6.722
 4147SOL    HW113340   4.915   4.693   6.670
 4147SOL    HW213341   4.985   4.839   6.685
 4148SOL     OW13342   2.496   1.355   5.510
 4148SOL    HW113343   2.475   1.261   5.482
 4148SOL    HW213344   2.411   1.406   5.519
 4149SOL     OW13345   1.378   3.834   6.992
 4149SOL    HW113346   1.313   3.798   6.926
 4149SOL    HW213347   1.421   3.917   6.955
 4150SOL     OW13348   5.645   2.007   0.320
 4150SOL    HW113349   5.591   2.062   0.384
 4150SOL    HW213350   5.592   1.927   0.292
 4151SOL     OW13351   2.585   6.013   4.763
 4151SOL    HW113352   2.575   6.000   4.665
 4151SOL    HW213353   2.502   6.055   4.800
 4152SOL     OW13354   2.547   4.370   1.380
 4152SOL    HW113355   2.591   4.284   1.355
 4152SOL    HW213356   2.452   4.353   1.406
 4153SOL     OW13357   6.760   6.020   2.155
 4153SOL    HW113358   6.843   6.074   2.142
 4153SOL    HW213359   6.784   5.931   2.193
 4154SOL     OW13360   0.555   0.032   3.682
 4154SOL    HW113361   0.612   7.006   3.745
 4154SOL    HW213362   0.612   0.073   3.611
 4155SOL     OW13363   0.120   0.587   1.884
 4155SOL    HW113364   0.157   0.638   1.963
 4155SOL    HW213365   0.042   0.636   1.847
 4156SOL     OW13366   0.399   5.093   5.454
 4156SOL    HW113367   0.431   5.043   5.534
 4156SOL    HW213368   0.476   5.112   5.394
 4157SOL     OW13369   5.787   6.187   0.494
 4157SOL    HW113370   5.690   6.166   0.491
 4157SOL    HW213371   5.800   6.283   0.519
 4158SOL     OW13372   0.217   3.169   1.360
 4158SOL    HW113373   0.273   3.088   1.380
 4158SOL    HW213374   0.121   3.143   1.359
 4159SOL     OW13375   3.143   0.758   4.384
 4159SOL    HW113376   3.225   0.815   4.382
 4159SOL    HW213377   3.076   0.799   4.447
 4160SOL     OW13378   0.672   6.534   6.164
 4160SOL    HW113379   0.701   6.439   6.173
 4160SOL    HW213380   0.733   6.593   6.217
 4161SOL     OW13381   3.094   3.440   2.911
 4161SOL    HW113382   3.025   3.446   2.838
 4161SOL    HW213383   3.064   3.376   2.980
 4162SOL     OW13384   5.624   5.465   1.383
 4162SOL    HW113385   5.701   5.505   1.433
 4162SOL    HW213386   5.615   5.369   1.408
 4163SOL     OW13387   3.939   6.177   1.523
 4163SOL    HW113388   3.899   6.085   1.533
 4163SOL    HW213389   4.038   6.169   1.520
 4164SOL     OW13390   5.778   1.650   6.332
 4164SOL    HW113391   5.833   1.672   6.412
 4164SOL    HW213392   5.715   1.725   6.313
 4165SOL     OW13393   3.890   1.515   4.523
 4165SOL    HW113394   3.902   1.471   4.434
 4165SOL    HW213395   3.931   1.606   4.522
 4166SOL     OW13396   6.225   1.711   1.332
 4166SOL    HW113397   6.127   1.695   1.345
 4166SOL    HW213398   6.258   1.656   1.255
 4167SOL     OW13399   4.229   5.282   4.904
 4167SOL    HW113400   4.237   5.188   4.871
 4167SOL    HW213401   4.320   5.320   4.920
 4168SOL     OW13402   5.249   4.112   0.052
 4168SOL    HW113403   5.291   4.201   0.068
 4168SOL    HW213404   5.306   4.040   0.090
 4169SOL     OW13405   5.364   2.951   6.755
 4169SOL    HW113406   5.405   2.937   6.665
 4169SOL    HW213407   5.329   2.864   6.790
 4170SOL     OW13408   0.642   2.390   5.247
 4170SOL    HW113409   0.661   2.313   5.186
 4170SOL    HW213410   0.716   2.399   5.314
 4171SOL     OW13411   0.583   1.508   6.706
 4171SOL    HW113412   0.645   1.456   6.765
 4171SOL    HW213413   0.505   1.540   6.760
 4172SOL     OW13414   3.000   3.309   0.023
 4172SOL    HW113415   3.018   3.407   0.031
 4172SOL    HW213416   3.080   3.265   7.009
 4173SOL     OW13417   4.710   1.639   6.050
 4173SOL    HW113418   4.678   1.617   5.958
 4173SOL    HW213419   4.632   1.646   6.112
 4174SOL     OW13420   4.692   0.124   4.659
 4174SOL    HW113421   4.723   0.209   4.701
 4174SOL    HW213422   4.685   0.135   4.560
 4175SOL     OW13423   1.363   4.715   6.263
 4175SOL    HW113424   1.328   4.627   6.294
 4175SOL    HW213425   1.317   4.789   6.313
 4176SOL     OW13426   5.118   6.722   6.178
 4176SOL    HW113427   5.159   6.680   6.258
 4176SOL    HW213428   5.189   6.751   6.114
 4177SOL     OW13429   3.869   4.843   3.273
 4177SOL    HW113430   3.775   4.815   3.293
 4177SOL    HW213431   3.889   4.827   3.176
 4178SOL     OW13432   4.211   6.274   1.285
 4178SOL    HW113433   4.148   6.217   1.233
 4178SOL    HW213434   4.204   6.369   1.254
 4179SOL     OW13435   4.009   2.292   7.002
 4179SOL    HW113436   4.030   2.225   6.932
 4179SOL    HW213437   4.067   2.276   0.056
 4180SOL     OW13438   4.215   3.511   0.568
 4180SOL    HW113439   4.135   3.556   0.607
 4180SOL    HW213440   4.276   3.479   0.641
 4181SOL     OW13441   5.345   6.817   6.094
 4181SOL    HW113442   5.394   6.767   6.166
 4181SOL    HW213443   5.368   6.914   6.100
 4182SOL     OW13444   0.835   5.830   4.968
 4182SOL    HW113445   0.881   5.905   5.016
 4182SOL    HW213446   0.903   5.765   4.934
 4183SOL     OW13447   4.116   1.803   1.062
 4183SOL    HW113448   4.130   1.709   1.031
 4183SOL    HW213449   4.033   1.807   1.117
 4184SOL     OW13450   3.962   5.495   3.241
 4184SOL    HW113451   4.024   5.418   3.248
 4184SOL    HW213452   3.898   5.480   3.166
 4185SOL     OW13453   4.652   4.280   3.362
 4185SOL    HW113454   4.633   4.183   3.372
 4185SOL    HW213455   4.719   4.294   3.289
 4186SOL     OW13456   2.035   5.695   0.190
 4186SOL    HW113457   2.061   5.687   0.094
 4186SOL    HW213458   2.061   5.612   0.239
 4187SOL     OW13459   2.022   3.466   6.104
 4187SOL    HW113460   2.037   3.534   6.032
 4187SOL    HW213461   1.934   3.421   6.090
 4188SOL     OW13462   4.450   6.659   6.903
 4188SOL    HW113463   4.417   6.571   6.939
 4188SOL    HW213464   4.419   6.670   6.809
 4189SOL     OW13465   4.272   5.144   3.424
 4189SOL    HW113466   4.348   5.196   3.384
 4189SOL    HW213467   4.304   5.054   3.452
 4190SOL     OW13468   6.294   6.491   1.464
 4190SOL    HW113469   6.276   6.524   1.371
 4190SOL    HW213470   6.392   6.495   1.482
 4191SOL     OW13471   4.598   3.253   6.472
 4191SOL    HW113472   4.629   3.165   6.507
 4191SOL    HW213473   4.501   3.265   6.493
 4192SOL     OW13474   1.710   3.732   0.162
 4192SOL    HW113475   1.668   3.819   0.186
 4192SOL    HW213476   1.640   3.670   0.126
 4193SOL     OW13477   0.378   0.575   0.039
 4193SOL    HW113478   0.304   0.513   0.010
 4193SOL    HW213479   0.456   0.565   7.004
 4194SOL     OW13480   5.345   1.790   5.877
 4194SOL    HW113481   5.438   1.761   5.859
 4194SOL    HW213482   5.328   1.787   5.976
 4195SOL     OW13483   3.449   6.969   0.956
 4195SOL    HW113484   3.523   6.904   0.974
 4195SOL    HW213485   3.460   7.006   0.864
 4196SOL     OW13486   6.350   2.986   2.415
 4196SOL    HW113487   6.438   3.009   2.457
 4196SOL    HW213488   6.365   2.958   2.320
 4197SOL     OW13489   3.101   0.763   6.817
 4197SOL    HW113490   3.195   0.792   6.839
 4197SOL    HW213491   3.100   0.720   6.727
 4198SOL     OW13492   6.688   2.576   2.439
 4198SOL    HW113493   6.666   2.507   2.370
 4198SOL    HW213494   6.716   2.531   2.523
 4199SOL     OW13495   0.411   3.995   6.326
 4199SOL    HW113496   0.500   4.002   6.371
 4199SOL    HW213497   0.354   4.073   6.354
 4200SOL     OW13498   4.398   1.983   4.001
 4200SOL    HW113499   4.409   2.074   4.040
 4200SOL    HW213500   4.424   1.985   3.904
 4201SOL     OW13501   5.730   6.958   3.651
 4201SOL    HW113502   5.704   6.866   3.679
 4201SOL    HW213503   5.829   6.961   3.635
 4202SOL     OW13504   4.707   3.731   1.482
 4202SOL    HW113505   4.620   3.765   1.517
 4202SOL    HW213506   4.737   3.790   1.407
 4203SOL     OW13507   6.522   4.480   5.344
 4203SOL    HW113508   6.516   4.394   5.293
 4203SOL    HW213509   6.513   4.462   5.442
 4204SOL     OW13510   1.734   4.252   6.860
 4204SOL    HW113511   1.732   4.283   6.765
 4204SOL    HW213512   1.829   4.251   6.892
 4205SOL     OW13513   4.275   6.438   6.192
 4205SOL    HW113514   4.336   6.508   6.155
 4205SOL    HW213515   4.210   6.481   6.254
 4206SOL     OW13516   1.950   2.201   3.897
 4206SOL    HW113517   1.928   2.291   3.935
 4206SOL    HW213518   2.012   2.212   3.819
 4207SOL     OW13519   0.678   2.056   2.255
 4207SOL    HW113520   0.731   2.112   2.317
 4207SOL    HW213521   0.591   2.032   2.298
 4208SOL     OW13522   2.092   2.189   3.675
 4208SOL    HW113523   2.113   2.127   3.601
 4208SOL    HW213524   2.149   2.271   3.668
 4209SOL     OW13525   6.877   6.490   2.065
 4209SOL    HW113526   6.886   6.391   2.080
 4209SOL    HW213527   6.835   6.506   1.975
 4210SOL     OW13528   2.870   3.870   5.014
 4210SOL    HW113529   2.877   3.786   5.067
 4210SOL    HW213530   2.778   3.908   5.024
 4211SOL     OW13531   4.058   2.905   5.324
 4211SOL    HW113532   4.083   2.816   5.286
 4211SOL    HW213533   4.021   2.892   5.417
 4212SOL     OW13534   0.040   2.028   3.096
 4212SOL    HW113535   6.997   1.958   3.079
 4212SOL    HW213536   0.068   2.070   3.009
 4213SOL     OW13537   2.960   0.171   4.087
 4213SOL    HW113538   3.057   0.166   4.064
 4213SOL    HW213539   2.949   0.212   4.178
 4214SOL     OW13540   6.848   6.008   3.048
 4214SOL    HW113541   6.756   6.023   3.014
 4214SOL    HW213542   6.907   5.975   2.974
 4215SOL     OW13543   5.633   6.957   5.846
 4215SOL    HW113544   5.538   6.982   5.865
 4215SOL    HW213545   5.670   6.907   5.924
 4216SOL     OW13546   2.323   5.504   1.835
 4216SOL    HW113547   2.401   5.441   1.839
 4216SOL    HW213548   2.311   5.548   1.924
 4217SOL     OW13549   1.058   0.132   2.886
 4217SOL    HW113550   1.103   0.136   2.975
 4217SOL    HW213551   0.960   0.121   2.899
 4218SOL     OW13552   2.891   0.905   0.452
 4218SOL    HW113553   2.908   0.958   0.535
 4218SOL    HW213554   2.795   0.877   0.449
 4219SOL     OW13555   3.874   5.572   2.807
 4219SOL    HW113556   3.901   5.667   2.791
 4219SOL    HW213557   3.863   5.526   2.719
 4220SOL     OW13558   5.465   1.528   1.232
 4220SOL    HW113559   5.370   1.540   1.202
 4220SOL    HW213560   5.485   1.593   1.305
 4221SOL     OW13561   1.283   6.534   0.587
 4221SOL    HW113562   1.341   6.482   0.524
 4221SOL    HW213563   1.340   6.573   0.660
 4222SOL     OW13564   4.845   3.343   3.891
 4222SOL    HW113565   4.848   3.428   3.943
 4222SOL    HW213566   4.761   3.293   3.913
 4223SOL     OW13567   4.088   3.665   2.295
 4223SOL    HW113568   4.123   3.588   2.350
 4223SOL    HW213569   4.056   3.737   2.357
 4224SOL     OW13570   4.380   5.063   4.573
 4224SOL    HW113571   4.327   4.979   4.584
 4224SOL    HW213572   4.317   5.140   4.565
 4225SOL     OW13573   1.073   1.579   6.302
 4225SOL    HW113574   1.167   1.610   6.283
 4225SOL    HW213575   1.076   1.490   6.347
 4226SOL     OW13576   0.810   5.245   4.830
 4226SOL    HW113577   0.728   5.290   4.865
 4226SOL    HW213578   0.879   5.242   4.902
 4227SOL     OW13579   5.043   5.488   1.725
 4227SOL    HW113580   5.048   5.467   1.823
 4227SOL    HW213581   5.042   5.403   1.673
 4228SOL     OW13582   1.698   4.778   4.211
 4228SOL    HW113583   1.673   4.848   4.278
 4228SOL    HW213584   1.623   4.713   4.201
 4229SOL     OW13585   5.682   5.573   5.527
 4229SOL    HW113586   5.624   5.495   5.549
 4229SOL    HW213587   5.777   5.543   5.517
 4230SOL     OW13588   0.101   1.153   1.669
 4230SOL    HW113589   0.104   1.109   1.759
 4230SOL    HW213590   0.115   1.085   1.598
 4231SOL     OW13591   0.233   1.856   6.524
 4231SOL    HW113592   0.203   1.950   6.512
 4231SOL    HW213593   0.244   1.813   6.434
 4232SOL     OW13594   1.740   5.160   3.965
 4232SOL    HW113595   1.828   5.164   4.012
 4232SOL    HW213596   1.755   5.169   3.866
 4233SOL     OW13597   4.563   5.787   2.091
 4233SOL    HW113598   4.514   5.774   2.177
 4233SOL    HW213599   4.497   5.797   2.017
 4234SOL     OW13600   3.536   5.282   6.021
 4234SOL    HW113601   3.581   5.247   5.939
 4234SOL    HW213602   3.438   5.292   6.003
 4235SOL     OW13603   0.070   5.974   6.267
 4235SOL    HW113604   7.012   6.013   6.303
 4235SOL    HW213605   0.073   5.988   6.168
 4236SOL     OW13606   0.450   5.608   2.631
 4236SOL    HW113607   0.373   5.551   2.602
 4236SOL    HW213608   0.448   5.620   2.730
 4237SOL     OW13609   0.442   4.505   4.249
 4237SOL    HW113610   0.410   4.594   4.280
 4237SOL    HW213611   0.370   4.461   4.195
 4238SOL     OW13612   3.454   6.479   2.345
 4238SOL    HW113613   3.418   6.550   2.405
 4238SOL    HW213614   3.410   6.392   2.366
 4239SOL     OW13615   4.487   1.423   3.964
 4239SOL    HW113616   4.492   1.478   4.047
 4239SOL    HW213617   4.473   1.482   3.884
 4240SOL     OW13618   5.990   6.787   2.198
 4240SOL    HW113619   5.945   6.809   2.285
 4240SOL    HW213620   5.921   6.780   2.126
 4241SOL     OW13621   6.081   4.296   0.649
 4241SOL    HW113622   6.168   4.335   0.678
 4241SOL    HW213623   6.046   4.235   0.720
 4242SOL     OW13624   3.159   1.935   3.563
 4242SOL    HW113625   3.219   2.002   3.518
 4242SOL    HW213626   3.184   1.843   3.533
 4243SOL     OW13627   4.764   0.924   3.083
 4243SOL    HW113628   4.712   0.888   3.006
 4243SOL    HW213629   4.727   1.013   3.110
 4244SOL     OW13630   3.299   2.919   4.311
 4244SOL    HW113631   3.275   2.823   4.323
 4244SOL    HW213632   3.396   2.932   4.327
 4245SOL     OW13633   5.453   0.544   6.940
 4245SOL    HW113634   5.498   0.498   6.864
 4245SOL    HW213635   5.513   0.615   6.976
 4246SOL     OW13636   0.189   3.759   6.958
 4246SOL    HW113637   0.143   3.672   6.972
 4246SOL    HW213638   0.287   3.749   6.973
 4247SOL     OW13639   0.445   5.809   4.878
 4247SOL    HW113640   0.445   5.864   4.962
 4247SOL    HW213641   0.538   5.805   4.842
 4248SOL     OW13642   2.305   3.832   5.824
 4248SOL    HW113643   2.291   3.917   5.875
 4248SOL    HW213644   2.263   3.839   5.734
 4249SOL     OW13645   5.543   4.376   5.797
 4249SOL    HW113646   5.557   4.429   5.880
 4249SOL    HW213647   5.462   4.409   5.749
 4250SOL     OW13648   0.955   4.926   2.927
 4250SOL    HW113649   1.010   5.009   2.917
 4250SOL    HW213650   0.911   4.926   3.017
 4251SOL     OW13651   5.516   3.760   0.203
 4251SOL    HW113652   5.504   3.856   0.179
 4251SOL    HW213653   5.448   3.733   0.271
 4252SOL     OW13654   0.464   5.964   5.119
 4252SOL    HW113655   0.365   5.955   5.132
 4252SOL    HW213656   0.509   5.965   5.208
 4253SOL     OW13657   4.286   6.492   2.912
 4253SOL    HW113658   4.199   6.464   2.953
 4253SOL    HW213659   4.320   6.419   2.853
 4254SOL     OW13660   2.815   4.386   1.563
 4254SOL    HW113661   2.848   4.333   1.641
 4254SOL    HW213662   2.756   4.461   1.595
 4255SOL     OW13663   0.193   2.057   4.380
 4255SOL    HW113664   0.157   2.145   4.412
 4255SOL    HW213665   0.220   2.002   4.459
 4256SOL     OW13666   2.081   0.775   1.500
 4256SOL    HW113667   2.064   0.735   1.590
 4256SOL    HW213668   2.173   0.816   1.498
 4257SOL     OW13669   4.151   2.219   4.796
 4257SOL    HW113670   4.202   2.289   4.846
 4257SOL    HW213671   4.095   2.263   4.725
 4258SOL     OW13672   5.112   6.904   2.147
 4258SOL    HW113673   5.082   6.816   2.185
 4258SOL    HW213674   5.160   6.888   2.060
 4259SOL     OW13675   1.820   2.473   0.987
 4259SOL    HW113676   1.788   2.564   1.013
 4259SOL    HW213677   1.920   2.472   0.984
 4260SOL     OW13678   4.409   5.831   3.326
 4260SOL    HW113679   4.406   5.736   3.297
 4260SOL    HW213680   4.361   5.842   3.413
 4261SOL     OW13681   2.107   1.485   3.012
 4261SOL    HW113682   2.018   1.465   2.971
 4261SOL    HW213683   2.140   1.403   3.060
 4262SOL     OW13684   6.966   6.016   6.691
 4262SOL    HW113685   6.979   5.958   6.610
 4262SOL    HW213686   7.006   6.106   6.675
 4263SOL     OW13687   3.948   5.293   5.881
 4263SOL    HW113688   3.889   5.310   5.959
 4263SOL    HW213689   3.969   5.195   5.874
 4264SOL     OW13690   0.324   6.894   0.660
 4264SOL    HW113691   0.339   6.856   0.752
 4264SOL    HW213692   0.405   6.944   0.631
 4265SOL     OW13693   0.181   2.491   0.344
 4265SOL    HW113694   0.280   2.493   0.339
 4265SOL    HW213695   0.150   2.539   0.426
 4266SOL     OW13696   3.423   4.822   1.197
 4266SOL    HW113697   3.413   4.884   1.275
 4266SOL    HW213698   3.421   4.727   1.229
 4267SOL     OW13699   2.130   4.265   6.074
 4267SOL    HW113700   2.139   4.350   6.023
 4267SOL    HW213701   2.113   4.286   6.170
 4268SOL     OW13702   1.517   1.117   0.412
 4268SOL    HW113703   1.465   1.201   0.395
 4268SOL    HW213704   1.596   1.138   0.471
 4269SOL     OW13705   3.018   3.780   0.781
 4269SOL    HW113706   3.018   3.862   0.723
 4269SOL    HW213707   3.049   3.701   0.729
 4270SOL     OW13708   3.624   2.930   5.676
 4270SOL    HW113709   3.678   2.996   5.729
 4270SOL    HW213710   3.659   2.927   5.583
 4271SOL     OW13711   1.191   6.825   6.978
 4271SOL    HW113712   1.168   6.893   0.021
 4271SOL    HW213713   1.176   6.733   7.014
 4272SOL     OW13714   6.809   4.162   3.346
 4272SOL    HW113715   6.760   4.103   3.410
 4272SOL    HW213716   6.776   4.256   3.355
 4273SOL     OW13717   5.673   6.063   4.699
 4273SOL    HW113718   5.657   6.103   4.609
 4273SOL    HW213719   5.771   6.047   4.712
 4274SOL     OW13720   1.887   0.239   3.760
 4274SOL    HW113721   1.930   0.219   3.848
 4274SOL    HW213722   1.873   0.337   3.751
 4275SOL     OW13723   1.112   6.700   6.563
 4275SOL    HW113724   1.091   6.619   6.617
 4275SOL    HW213725   1.046   6.708   6.488
 4276SOL     OW13726   1.661   4.140   2.576
 4276SOL    HW113727   1.604   4.061   2.555
 4276SOL    HW213728   1.743   4.110   2.624
 4277SOL     OW13729   0.887   5.149   4.204
 4277SOL    HW113730   0.809   5.192   4.250
 4277SOL    HW213731   0.864   5.132   4.108
 4278SOL     OW13732   0.618   6.403   5.312
 4278SOL    HW113733   0.636   6.312   5.349
 4278SOL    HW213734   0.670   6.416   5.228
 4279SOL     OW13735   3.491   5.628   4.248
 4279SOL    HW113736   3.409   5.668   4.209
 4279SOL    HW213737   3.468   5.543   4.296
 4280SOL     OW13738   4.946   3.442   3.344
 4280SOL    HW113739   4.981   3.435   3.250
 4280SOL    HW213740   4.907   3.533   3.359
 4281SOL     OW13741   2.516   3.733   5.475
 4281SOL    HW113742   2.452   3.808   5.496
 4281SOL    HW213743   2.502   3.703   5.381
 4282SOL     OW13744   0.752   2.717   0.972
 4282SOL    HW113745   0.749   2.785   1.046
 4282SOL    HW213746   0.830   2.736   0.912
 4283SOL     OW13747   2.099   0.427   4.044
 4283SOL    HW113748   2.170   0.446   4.112
 4283SOL    HW213749   2.093   0.329   4.029
 4284SOL     OW13750   6.211   1.937   3.024
 4284SOL    HW113751   6.133   1.884   2.991
 4284SOL    HW213752   6.296   1.898   2.989
 4285SOL     OW13753   1.085   6.161   5.427
 4285SOL    HW113754   1.096   6.218   5.508
 4285SOL    HW213755   0.994   6.119   5.427
 4286SOL     OW13756   5.661   5.610   6.881
 4286SOL    HW113757   5.700   5.576   6.795
 4286SOL    HW213758   5.733   5.621   6.949
 4287SOL     OW13759   4.164   6.708   4.897
 4287SOL    HW113760   4.227   6.631   4.902
 4287SOL    HW213761   4.083   6.682   4.844
 4288SOL     OW13762   1.516   6.540   2.752
 4288SOL    HW113763   1.578   6.618   2.758
 4288SOL    HW213764   1.515   6.492   2.840
 4289SOL     OW13765   5.721   3.578   0.716
 4289SOL    HW113766   5.784   3.607   0.788
 4289SOL    HW213767   5.645   3.642   0.711
 4290SOL     OW13768   2.197   1.181   2.249
 4290SOL    HW113769   2.144   1.153   2.169
 4290SOL    HW213770   2.261   1.109   2.274
 4291SOL     OW13771   6.103   4.957   1.167
 4291SOL    HW113772   6.020   4.922   1.124
 4291SOL    HW213773   6.176   4.889   1.159
 4292SOL     OW13774   5.835   5.545   5.906
 4292SOL    HW113775   5.831   5.618   5.974
 4292SOL    HW213776   5.881   5.579   5.824
 4293SOL     OW13777   0.122   2.613   6.788
 4293SOL    HW113778   0.201   2.555   6.768
 4293SOL    HW213779   0.109   2.618   6.887
 4294SOL     OW13780   4.959   2.754   6.151
 4294SOL    HW113781   4.976   2.849   6.124
 4294SOL    HW213782   5.030   2.695   6.113
 4295SOL     OW13783   3.932   6.720   4.721
 4295SOL    HW113784   3.949   6.631   4.679
 4295SOL    HW213785   3.838   6.748   4.705
 4296SOL     OW13786   2.059   1.403   0.846
 4296SOL    HW113787   2.151   1.380   0.812
 4296SOL    HW213788   2.024   1.482   0.794
 4297SOL     OW13789   5.824   0.835   6.159
 4297SOL    HW113790   5.836   0.774   6.081
 4297SOL    HW213791   5.900   0.822   6.223
 4298SOL     OW13792   3.096   5.434   1.283
 4298SOL    HW113793   3.054   5.361   1.337
 4298SOL    HW213794   3.122   5.397   1.193
 4299SOL     OW13795   0.934   4.012   6.571
 4299SOL    HW113796   1.029   3.989   6.591
 4299SOL    HW213797   0.928   4.055   6.481
 4300SOL     OW13798   5.946   0.339   6.270
 4300SOL    HW113799   5.853   0.360   6.299
 4300SOL    HW213800   5.944   0.265   6.202
 4301SOL     OW13801   2.413   1.429   0.523
 4301SOL    HW113802   2.375   1.382   0.602
 4301SOL    HW213803   2.507   1.397   0.506
 4302SOL     OW13804   0.880   6.572   0.232
 4302SOL    HW113805   0.946   6.643   0.257
 4302SOL    HW213806   0.811   6.610   0.171
 4303SOL     OW13807   0.293   3.416   1.912
 4303SOL    HW113808   0.271   3.509   1.879
 4303SOL    HW213809   0.244   3.399   1.997
 4304SOL     OW13810   3.046   3.120   4.960
 4304SOL    HW113811   3.136   3.154   4.987
 4304SOL    HW213812   3.054   3.024   4.930
 4305SOL     OW13813   6.512   1.276   4.276
 4305SOL    HW113814   6.442   1.298   4.208
 4305SOL    HW213815   6.547   1.361   4.316
 4306SOL     OW13816   6.423   5.931   5.691
 4306SOL    HW113817   6.470   6.005   5.644
 4306SOL    HW213818   6.381   5.870   5.623
 4307SOL     OW13819   4.998   3.176   6.513
 4307SOL    HW113820   4.941   3.111   6.462
 4307SOL    HW213821   4.955   3.266   6.513
 4308SOL     OW13822   4.401   6.560   5.008
 4308SOL    HW113823   4.322   6.566   5.070
 4308SOL    HW213824   4.478   6.519   5.057
 4309SOL     OW13825   1.326   1.376   0.665
 4309SOL    HW113826   1.332   1.476   0.663
 4309SOL    HW213827   1.236   1.348   0.700
 4310SOL     OW13828   1.323   0.948   2.348
 4310SOL    HW113829   1.379   0.875   2.309
 4310SOL    HW213830   1.329   0.945   2.448
 4311SOL     OW13831   1.546   6.089   4.161
 4311SOL    HW113832   1.644   6.097   4.143
 4311SOL    HW213833   1.503   6.033   4.090
 4312SOL     OW13834   2.129   5.442   2.333
 4312SOL    HW113835   2.063   5.415   2.403
 4312SOL    HW213836   2.085   5.438   2.243
 4313SOL     OW13837   4.879   0.468   1.813
 4313SOL    HW113838   4.891   0.506   1.722
 4313SOL    HW213839   4.952   0.502   1.873
 4314SOL     OW13840   4.897   3.512   2.819
 4314SOL    HW113841   4.799   3.531   2.814
 4314SOL    HW213842   4.945   3.566   2.750
 4315SOL     OW13843   2.480   1.851   1.938
 4315SOL    HW113844   2.436   1.762   1.932
 4315SOL    HW213845   2.463   1.891   2.028
 4316SOL     OW13846   7.000   0.304   2.336
 4316SOL    HW113847   6.993   0.392   2.289
 4316SOL    HW213848   7.001   0.230   2.268
 4317SOL     OW13849   3.994   0.849   3.213
 4317SOL    HW113850   4.011   0.888   3.123
 4317SOL    HW213851   4.076   0.801   3.244
 4318SOL     OW13852   0.327   2.819   4.024
 4318SOL    HW113853   0.354   2.893   4.086
 4318SOL    HW213854   0.239   2.842   3.981
 4319SOL     OW13855   2.565   3.484   5.630
 4319SOL    HW113856   2.519   3.489   5.718
 4319SOL    HW213857   2.563   3.573   5.586
 4320SOL     OW13858   0.358   6.421   2.897
 4320SOL    HW113859   0.347   6.484   2.821
 4320SOL    HW213860   0.283   6.354   2.897
 4321SOL     OW13861   0.843   0.460   4.990
 4321SOL    HW113862   0.865   0.557   4.991
 4321SOL    HW213863   0.751   0.446   5.027
 4322SOL     OW13864   5.524   1.161   0.447
 4322SOL    HW113865   5.605   1.102   0.441
 4322SOL    HW213866   5.448   1.108   0.485
 4323SOL     OW13867   6.661   2.544   3.893
 4323SOL    HW113868   6.723   2.594   3.833
 4323SOL    HW213869   6.710   2.516   3.976
 4324SOL     OW13870   6.267   3.815   5.886
 4324SOL    HW113871   6.202   3.831   5.960
 4324SOL    HW213872   6.320   3.898   5.869
 4325SOL     OW13873   1.789   1.918   5.796
 4325SOL    HW113874   1.868   1.973   5.770
 4325SOL    HW213875   1.798   1.889   5.891
 4326SOL     OW13876   6.186   2.038   5.759
 4326SOL    HW113877   6.146   2.010   5.846
 4326SOL    HW213878   6.178   1.963   5.693
 4327SOL     OW13879   5.316   0.305   3.244
 4327SOL    HW113880   5.363   0.217   3.258
 4327SOL    HW213881   5.300   0.349   3.332
 4328SOL     OW13882   5.281   5.211   0.647
 4328SOL    HW113883   5.271   5.232   0.744
 4328SOL    HW213884   5.195   5.174   0.612
 4329SOL     OW13885   3.697   1.391   5.834
 4329SOL    HW113886   3.684   1.295   5.859
 4329SOL    HW213887   3.608   1.437   5.829
 4330SOL     OW13888   0.875   0.240   6.497
 4330SOL    HW113889   0.952   0.272   6.442
 4330SOL    HW213890   0.854   0.145   6.474
 4331SOL     OW13891   5.767   2.838   0.787
 4331SOL    HW113892   5.830   2.882   0.723
 4331SOL    HW213893   5.754   2.742   0.761
 4332SOL     OW13894   5.482   3.601   1.343
 4332SOL    HW113895   5.573   3.587   1.306
 4332SOL    HW213896   5.429   3.659   1.281
 4333SOL     OW13897   5.549   1.918   5.404
 4333SOL    HW113898   5.471   1.856   5.404
 4333SOL    HW213899   5.519   2.009   5.432
 4334SOL     OW13900   4.429   0.917   1.887
 4334SOL    HW113901   4.511   0.957   1.847
 4334SOL    HW213902   4.446   0.895   1.983
 4335SOL     OW13903   3.719   3.948   5.379
 4335SOL    HW113904   3.673   3.870   5.420
 4335SOL    HW213905   3.754   4.008   5.451
 4336SOL     OW13906   1.740   6.486   4.457
 4336SOL    HW113907   1.658   6.498   4.401
 4336SOL    HW213908   1.720   6.511   4.552
 4337SOL     OW13909   0.438   5.017   0.781
 4337SOL    HW113910   0.361   4.955   0.768
 4337SOL    HW213911   0.501   4.979   0.848
 4338SOL     OW13912   6.467   6.303   3.653
 4338SOL    HW113913   6.443   6.210   3.625
 4338SOL    HW213914   6.534   6.341   3.589
 4339SOL     OW13915   6.051   1.159   6.445
 4339SOL    HW113916   6.078   1.071   6.405
 4339SOL    HW213917   5.992   1.208   6.382
 4340SOL     OW13918   4.886   2.865   1.833
 4340SOL    HW113919   4.825   2.937   1.867
 4340SOL    HW213920   4.969   2.906   1.795
 4341SOL     OW13921   0.585   4.173   0.172
 4341SOL    HW113922   0.485   4.172   0.170
 4341SOL    HW213923   0.616   4.178   0.267
 4342SOL     OW13924   0.021   3.080   2.984
 4342SOL    HW113925   0.089   3.060   3.054
 4342SOL    HW213926   6.957   3.057   3.018
 4343SOL     OW13927   2.407   1.906   1.486
 4343SOL    HW113928   2.373   1.868   1.400
 4343SOL    HW213929   2.329   1.939   1.540
 4344SOL     OW13930   2.230   4.072   2.936
 4344SOL    HW113931   2.255   4.112   2.848
 4344SOL    HW213932   2.204   3.976   2.923
 4345SOL     OW13933   2.010   1.758   6.098
 4345SOL    HW113934   1.944   1.810   6.153
 4345SOL    HW213935   2.067   1.822   6.045
 4346SOL     OW13936   0.795   2.745   1.385
 4346SOL    HW113937   0.865   2.721   1.318
 4346SOL    HW213938   0.835   2.746   1.476
 4347SOL     OW13939   6.456   5.712   2.812
 4347SOL    HW113940   6.519   5.724   2.889
 4347SOL    HW213941   6.466   5.789   2.749
 4348SOL     OW13942   0.910   3.819   0.003
 4348SOL    HW113943   0.906   3.887   6.957
 4348SOL    HW213944   0.873   3.858   0.087
 4349SOL     OW13945   6.854   0.152   3.451
 4349SOL    HW113946   6.918   0.228   3.455
 4349SOL    HW213947   6.783   0.170   3.383
 4350SOL     OW13948   5.451   1.535   4.202
 4350SOL    HW113949   5.362   1.526   4.246
 4350SOL    HW213950   5.476   1.632   4.197
 4351SOL     OW13951   3.279   6.466   0.620
 4351SOL    HW113952   3.267   6.448   0.718
 4351SOL    HW213953   3.332   6.550   0.608
 4352SOL     OW13954   6.342   1.514   1.900
 4352SOL    HW113955   6.432   1.471   1.895
 4352SOL    HW213956   6.281   1.471   1.833
 4353SOL     OW13957   3.423   5.532   0.640
 4353SOL    HW113958   3.483   5.458   0.611
 4353SOL    HW213959   3.387   5.513   0.731
 4354SOL     OW13960   1.428   0.175   1.294
 4354SOL    HW113961   1.459   0.144   1.384
 4354SOL    HW213962   1.503   0.222   1.247
 4355SOL     OW13963   4.957   1.034   0.982
 4355SOL    HW113964   5.044   1.080   1.001
 4355SOL    HW213965   4.883   1.101   0.987
 4356SOL     OW13966   4.103   4.221   0.390
 4356SOL    HW113967   4.005   4.213   0.412
 4356SOL    HW213968   4.146   4.131   0.399
 4357SOL     OW13969   6.461   1.059   6.776
 4357SOL    HW113970   6.443   0.978   6.831
 4357SOL    HW213971   6.559   1.063   6.753
 4358SOL     OW13972   0.361   0.148   1.547
 4358SOL    HW113973   0.454   0.137   1.582
 4358SOL    HW213974   0.295   0.128   1.619
 4359SOL     OW13975   6.254   2.546   4.263
 4359SOL    HW113976   6.310   2.622   4.230
 4359SOL    HW213977   6.197   2.577   4.339
 4360SOL     OW13978   2.388   3.167   1.005
 4360SOL    HW113979   2.455   3.159   0.932
 4360SOL    HW213980   2.363   3.076   1.039
 4361SOL     OW13981   5.002   1.738   2.150
 4361SOL    HW113982   4.949   1.657   2.176
 4361SOL    HW213983   5.079   1.749   2.213
 4362SOL     OW13984   5.674   4.625   3.978
 4362SOL    HW113985   5.702   4.715   4.012
 4362SOL    HW213986   5.754   4.565   3.973
 4363SOL     OW13987   5.207   1.659   5.693
 4363SOL    HW113988   5.278   1.702   5.749
 4363SOL    HW213989   5.134   1.626   5.752
 4364SOL     OW13990   3.478   3.483   5.120
 4364SOL    HW113991   3.393   3.535   5.116
 4364SOL    HW213992   3.459   3.389   5.148
 4365SOL     OW13993   2.774   1.459   1.345
 4365SOL    HW113994   2.719   1.451   1.261
 4365SOL    HW213995   2.783   1.369   1.388
 4366SOL     OW13996   5.426   5.387   1.185
 4366SOL    HW113997   5.513   5.413   1.226
 4366SOL    HW213998   5.356   5.379   1.256
 4367SOL     OW13999   0.467   6.321   0.139
 4367SOL    HW114000   0.451   6.293   0.044
 4367SOL    HW214001   0.564   6.339   0.152
 4368SOL     OW14002   5.178   3.511   1.817
 4368SOL    HW114003   5.092   3.514   1.869
 4368SOL    HW214004   5.253   3.489   1.880
 4369SOL     OW14005   3.182   5.886   1.636
 4369SOL    HW114006   3.276   5.889   1.602
 4369SOL    HW214007   3.153   5.791   1.645
 4370SOL     OW14008   5.376   5.140   2.901
 4370SOL    HW114009   5.441   5.084   2.851
 4370SOL    HW214010   5.423   5.188   2.975
 4371SOL     OW14011   0.068   1.788   2.243
 4371SOL    HW114012   7.018   1.842   2.277
 4371SOL    HW214013   0.073   1.797   2.143
 4372SOL     OW14014   4.756   6.781   3.482
 4372SOL    HW114015   4.709   6.737   3.405
 4372SOL    HW214016   4.730   6.736   3.567
 4373SOL     OW14017   0.282   1.694   6.298
 4373SOL    HW114018   0.238   1.609   6.327
 4373SOL    HW214019   0.338   1.676   6.217
 4374SOL     OW14020   2.964   2.067   0.994
 4374SOL    HW114021   2.971   1.971   1.021
 4374SOL    HW214022   2.883   2.080   0.937
 4375SOL     OW14023   3.249   6.888   4.022
 4375SOL    HW114024   3.243   6.963   3.956
 4375SOL    HW214025   3.225   6.921   4.113
 4376SOL     OW14026   6.274   1.733   4.087
 4376SOL    HW114027   6.244   1.827   4.072
 4376SOL    HW214028   6.303   1.693   3.999
 4377SOL     OW14029   6.070   5.312   6.601
 4377SOL    HW114030   6.135   5.351   6.536
 4377SOL    HW214031   5.978   5.345   6.581
 4378SOL     OW14032   2.290   1.237   3.653
 4378SOL    HW114033   2.281   1.305   3.725
 4378SOL    HW214034   2.384   1.238   3.617
 4379SOL     OW14035   2.624   2.122   5.040
 4379SOL    HW114036   2.654   2.045   4.984
 4379SOL    HW214037   2.537   2.157   5.006
 4380SOL     OW14038   0.585   1.322   1.993
 4380SOL    HW114039   0.647   1.251   2.026
 4380SOL    HW214040   0.491   1.292   2.005
 4381SOL     OW14041   1.829   5.965   6.454
 4381SOL    HW114042   1.848   5.867   6.447
 4381SOL    HW214043   1.907   6.016   6.417
 4382SOL     OW14044   0.287   3.778   5.255
 4382SOL    HW114045   0.215   3.730   5.204
 4382SOL    HW214046   0.363   3.716   5.272
 4383SOL     OW14047   6.685   3.442   6.901
 4383SOL    HW114048   6.752   3.388   6.850
 4383SOL    HW214049   6.657   3.521   6.846
 4384SOL     OW14050   5.669   6.699   3.748
 4384SOL    HW114051   5.735   6.631   3.716
 4384SOL    HW214052   5.668   6.701   3.848
 4385SOL     OW14053   4.200   1.414   5.207
 4385SOL    HW114054   4.192   1.386   5.111
 4385SOL    HW214055   4.111   1.446   5.240
 4386SOL     OW14056   1.977   3.704   5.109
 4386SOL    HW114057   2.008   3.777   5.048
 4386SOL    HW214058   1.897   3.735   5.160
 4387SOL     OW14059   6.566   1.855   0.323
 4387SOL    HW114060   6.555   1.767   0.370
 4387SOL    HW214061   6.660   1.887   0.333
 4388SOL     OW14062   5.081   3.480   6.663
 4388SOL    HW114063   5.158   3.503   6.604
 4388SOL    HW214064   5.022   3.413   6.617
 4389SOL     OW14065   0.858   3.342   0.917
 4389SOL    HW114066   0.769   3.355   0.961
 4389SOL    HW214067   0.881   3.422   0.862
 4390SOL     OW14068   6.775   1.238   0.615
 4390SOL    HW114069   6.754   1.163   0.554
 4390SOL    HW214070   6.768   1.207   0.710
 4391SOL     OW14071   1.444   5.967   0.710
 4391SOL    HW114072   1.491   5.935   0.792
 4391SOL    HW214073   1.383   5.895   0.677
 4392SOL     OW14074   1.329   2.844   5.579
 4392SOL    HW114075   1.392   2.820   5.653
 4392SOL    HW214076   1.239   2.864   5.618
 4393SOL     OW14077   5.100   0.578   1.995
 4393SOL    HW114078   5.187   0.567   1.945
 4393SOL    HW214079   5.106   0.659   2.053
 4394SOL     OW14080   1.381   0.434   2.085
 4394SOL    HW114081   1.315   0.411   2.013
 4394SOL    HW214082   1.350   0.397   2.172
 4395SOL     OW14083   2.625   5.087   1.535
 4395SOL    HW114084   2.644   5.058   1.629
 4395SOL    HW214085   2.622   5.187   1.530
 4396SOL     OW14086   3.049   0.519   3.018
 4396SOL    HW114087   2.985   0.458   3.065
 4396SOL    HW214088   3.141   0.503   3.053
 4397SOL     OW14089   3.215   1.690   4.397
 4397SOL    HW114090   3.184   1.614   4.341
 4397SOL    HW214091   3.274   1.656   4.470
 4398SOL     OW14092   1.941   3.051   5.374
 4398SOL    HW114093   1.881   2.979   5.339
 4398SOL    HW214094   2.032   3.041   5.333
 4399SOL     OW14095   2.594   6.334   1.891
 4399SOL    HW114096   2.627   6.264   1.954
 4399SOL    HW214097   2.655   6.338   1.811
 4400SOL     OW14098   1.930   5.550   4.494
 4400SOL    HW114099   2.017   5.529   4.448
 4400SOL    HW214100   1.931   5.513   4.587
 4401SOL     OW14101   3.252   6.398   6.982
 4401SOL    HW114102   3.156   6.424   6.992
 4401SOL    HW214103   3.261   6.329   6.911
 4402SOL     OW14104   1.654   0.488   3.106
 4402SOL    HW114105   1.605   0.545   3.039
 4402SOL    HW214106   1.746   0.526   3.120
 4403SOL     OW14107   0.991   5.107   2.054
 4403SOL    HW114108   0.932   5.058   2.118
 4403SOL    HW214109   0.937   5.174   2.003
 4404SOL     OW14110   0.267   6.761   6.052
 4404SOL    HW114111   0.296   6.689   6.115
 4404SOL    HW214112   0.345   6.817   6.026
 4405SOL     OW14113   2.048   5.845   2.550
 4405SOL    HW114114   2.076   5.855   2.455
 4405SOL    HW214115   2.120   5.797   2.601
 4406SOL     OW14116   5.622   4.061   2.186
 4406SOL    HW114117   5.595   4.155   2.205
 4406SOL    HW214118   5.545   4.011   2.146
 4407SOL     OW14119   6.187   6.745   2.034
 4407SOL    HW114120   6.272   6.792   2.060
 4407SOL    HW214121   6.113   6.772   2.096
 4408SOL     OW14122   4.059   1.106   0.579
 4408SOL    HW114123   3.980   1.045   0.570
 4408SOL    HW214124   4.106   1.112   0.491
 4409SOL     OW14125   2.723   0.502   3.388
 4409SOL    HW114126   2.739   0.600   3.381
 4409SOL    HW214127   2.747   0.458   3.302
 4410SOL     OW14128   0.513   6.443   1.094
 4410SOL    HW114129   0.578   6.465   1.021
 4410SOL    HW214130   0.456   6.523   1.113
 4411SOL     OW14131   3.683   4.662   5.307
 4411SOL    HW114132   3.720   4.581   5.352
 4411SOL    HW214133   3.584   4.664   5.317
 4412SOL     OW14134   4.685   6.325   2.606
 4412SOL    HW114135   4.642   6.304   2.519
 4412SOL    HW214136   4.644   6.408   2.644
 4413SOL     OW14137   4.680   6.203   3.907
 4413SOL    HW114138   4.603   6.267   3.902
 4413SOL    HW214139   4.655   6.118   3.862
 4414SOL     OW14140   5.014   3.792   1.484
 4414SOL    HW114141   4.915   3.799   1.470
 4414SOL    HW214142   5.039   3.839   1.568
 4415SOL     OW14143   2.369   2.809   1.901
 4415SOL    HW114144   2.308   2.884   1.874
 4415SOL    HW214145   2.449   2.808   1.841
 4416SOL     OW14146   4.847   2.425   3.422
 4416SOL    HW114147   4.797   2.339   3.431
 4416SOL    HW214148   4.785   2.501   3.442
 4417SOL     OW14149   6.708   4.400   2.279
 4417SOL    HW114150   6.690   4.395   2.181
 4417SOL    HW214151   6.772   4.328   2.306
 4418SOL     OW14152   6.269   6.799   5.650
 4418SOL    HW114153   6.318   6.724   5.606
 4418SOL    HW214154   6.316   6.885   5.631
 4419SOL     OW14155   6.698   5.637   6.598
 4419SOL    HW114156   6.682   5.549   6.553
 4419SOL    HW214157   6.732   5.621   6.691
 4420SOL     OW14158   3.620   2.250   0.845
 4420SOL    HW114159   3.530   2.227   0.883
 4420SOL    HW214160   3.690   2.193   0.886
 4421SOL     OW14161   1.857   2.474   0.247
 4421SOL    HW114162   1.828   2.427   0.163
 4421SOL    HW214163   1.828   2.421   0.327
 4422SOL     OW14164   6.590   3.653   6.353
 4422SOL    HW114165   6.688   3.647   6.371
 4422SOL    HW214166   6.566   3.591   6.279
 4423SOL     OW14167   6.198   4.297   5.051
 4423SOL    HW114168   6.178   4.388   5.087
 4423SOL    HW214169   6.151   4.284   4.964
 4424SOL     OW14170   4.876   5.874   2.316
 4424SOL    HW114171   4.968   5.837   2.331
 4424SOL    HW214172   4.879   5.974   2.325
 4425SOL     OW14173   1.426   5.392   1.027
 4425SOL    HW114174   1.366   5.450   1.080
 4425SOL    HW214175   1.374   5.314   0.990
 4426SOL     OW14176   0.722   0.396   4.605
 4426SOL    HW114177   0.711   0.463   4.679
 4426SOL    HW214178   0.639   0.341   4.597
 4427SOL     OW14179   2.574   5.691   2.028
 4427SOL    HW114180   2.487   5.680   2.076
 4427SOL    HW214181   2.596   5.789   2.021
 4428SOL     OW14182   5.884   5.877   3.913
 4428SOL    HW114183   5.926   5.793   3.947
 4428SOL    HW214184   5.801   5.897   3.966
 4429SOL     OW14185   2.878   6.201   3.453
 4429SOL    HW114186   2.903   6.131   3.385
 4429SOL    HW214187   2.795   6.173   3.500
 4430SOL     OW14188   5.352   3.634   5.043
 4430SOL    HW114189   5.414   3.673   5.111
 4430SOL    HW214190   5.386   3.545   5.014
 4431SOL     OW14191   3.764   6.666   4.311
 4431SOL    HW114192   3.855   6.634   4.284
 4431SOL    HW214193   3.700   6.654   4.235
 4432SOL     OW14194   0.629   3.746   6.104
 4432SOL    HW114195   0.686   3.683   6.051
 4432SOL    HW214196   0.649   3.736   6.201
 4433SOL     OW14197   1.306   0.986   5.871
 4433SOL    HW114198   1.212   1.018   5.881
 4433SOL    HW214199   1.314   0.894   5.908
 4434SOL     OW14200   0.387   0.332   2.657
 4434SOL    HW114201   0.377   0.273   2.737
 4434SOL    HW214202   0.351   0.285   2.577
 4435SOL     OW14203   2.554   4.233   0.646
 4435SOL    HW114204   2.458   4.216   0.625
 4435SOL    HW214205   2.600   4.146   0.662
 4436SOL     OW14206   4.617   1.851   1.623
 4436SOL    HW114207   4.631   1.795   1.705
 4436SOL    HW214208   4.679   1.930   1.626
 4437SOL     OW14209   6.670   4.489   0.127
 4437SOL    HW114210   6.689   4.521   0.220
 4437SOL    HW214211   6.633   4.396   0.131
 4438SOL     OW14212   3.730   0.846   5.482
 4438SOL    HW114213   3.770   0.892   5.561
 4438SOL    HW214214   3.646   0.800   5.509
 4439SOL     OW14215   2.714   6.518   2.692
 4439SOL    HW114216   2.699   6.423   2.720
 4439SOL    HW214217   2.808   6.528   2.658
 4440SOL     OW14218   1.710   4.602   6.787
 4440SOL    HW114219   1.658   4.602   6.702
 4440SOL    HW214220   1.654   4.562   6.860
 4441SOL     OW14221   0.085   1.956   1.097
 4441SOL    HW114222   0.110   2.053   1.091
 4441SOL    HW214223   0.019   1.943   1.171
 4442SOL     OW14224   2.401   5.521   0.014
 4442SOL    HW114225   2.441   5.612   0.026
 4442SOL    HW214226   2.440   5.478   6.960
 4443SOL     OW14227   0.930   5.686   6.012
 4443SOL    HW114228   0.948   5.623   6.087
 4443SOL    HW214229   1.016   5.705   5.963
 4444SOL     OW14230   6.071   5.363   0.010
 4444SOL    HW114231   6.121   5.357   0.096
 4444SOL    HW214232   6.026   5.275   7.019
 4445SOL     OW14233   0.749   4.734   0.782
 4445SOL    HW114234   0.834   4.713   0.829
 4445SOL    HW214235   0.762   4.724   0.683
 4446SOL     OW14236   4.773   1.653   1.270
 4446SOL    HW114237   4.677   1.631   1.288
 4446SOL    HW214238   4.780   1.700   1.182
 4447SOL     OW14239   4.282   5.660   5.367
 4447SOL    HW114240   4.235   5.578   5.334
 4447SOL    HW214241   4.226   5.741   5.349
 4448SOL     OW14242   3.759   6.355   1.372
 4448SOL    HW114243   3.805   6.298   1.440
 4448SOL    HW214244   3.743   6.446   1.411
 4449SOL     OW14245   3.460   1.512   5.845
 4449SOL    HW114246   3.368   1.488   5.878
 4449SOL    HW214247   3.507   1.567   5.914
 4450SOL     OW14248   2.678   6.832   0.049
 4450SOL    HW114249   2.614   6.805   0.121
 4450SOL    HW214250   2.654   6.922   0.014
 4451SOL     OW14251   4.776   5.309   3.310
 4451SOL    HW114252   4.770   5.391   3.253
 4451SOL    HW214253   4.844   5.246   3.273
 4452SOL     OW14254   4.751   6.250   4.185
 4452SOL    HW114255   4.687   6.312   4.140
 4452SOL    HW214256   4.808   6.206   4.116
 4453SOL     OW14257   6.652   4.335   0.480
 4453SOL    HW114258   6.689   4.325   0.573
 4453SOL    HW214259   6.632   4.431   0.462
 4454SOL     OW14260   1.431   2.906   0.736
 4454SOL    HW114261   1.441   2.974   0.809
 4454SOL    HW214262   1.439   2.952   0.647
 4455SOL     OW14263   1.167   6.961   5.129
 4455SOL    HW114264   1.083   7.001   5.165
 4455SOL    HW214265   1.148   6.873   5.087
 4456SOL     OW14266   2.460   6.800   4.791
 4456SOL    HW114267   2.362   6.808   4.775
 4456SOL    HW214268   2.508   6.869   4.737
 4457SOL     OW14269   1.724   1.769   4.199
 4457SOL    HW114270   1.759   1.768   4.293
 4457SOL    HW214271   1.764   1.847   4.150
 4458SOL     OW14272   1.132   3.705   6.927
 4458SOL    HW114273   1.080   3.652   6.860
 4458SOL    HW214274   1.070   3.741   6.997
 4459SOL     OW14275   0.436   2.760   3.153
 4459SOL    HW114276   0.446   2.808   3.066
 4459SOL    HW214277   0.376   2.811   3.213
 4460SOL     OW14278   0.175   2.389   4.890
 4460SOL    HW114279   0.191   2.465   4.827
 4460SOL    HW214280   0.078   2.386   4.914
 4461SOL     OW14281   1.845   0.503   0.642
 4461SOL    HW114282   1.927   0.450   0.662
 4461SOL    HW214283   1.869   0.580   0.583
 4462SOL     OW14284   6.517   3.932   3.200
 4462SOL    HW114285   6.461   4.000   3.247
 4462SOL    HW214286   6.547   3.969   3.112
 4463SOL     OW14287   5.496   1.820   0.589
 4463SOL    HW114288   5.433   1.896   0.576
 4463SOL    HW214289   5.582   1.840   0.542
 4464SOL     OW14290   0.177   4.283   1.362
 4464SOL    HW114291   0.101   4.338   1.327
 4464SOL    HW214292   0.187   4.201   1.306
 4465SOL     OW14293   3.478   5.633   1.666
 4465SOL    HW114294   3.476   5.641   1.567
 4465SOL    HW214295   3.468   5.537   1.692
 4466SOL     OW14296   1.424   2.276   1.992
 4466SOL    HW114297   1.371   2.194   2.015
 4466SOL    HW214298   1.391   2.353   2.047
 4467SOL     OW14299   5.196   5.246   2.688
 4467SOL    HW114300   5.215   5.343   2.699
 4467SOL    HW214301   5.256   5.193   2.748
 4468SOL     OW14302   2.037   3.021   1.434
 4468SOL    HW114303   1.955   2.980   1.474
 4468SOL    HW214304   2.015   3.112   1.399
 4469SOL     OW14305   2.604   6.081   1.589
 4469SOL    HW114306   2.541   6.004   1.595
 4469SOL    HW214307   2.694   6.047   1.561
 4470SOL     OW14308   1.723   6.941   3.079
 4470SOL    HW114309   1.725   0.013   3.094
 4470SOL    HW214310   1.662   6.920   3.002
 4471SOL     OW14311   0.905   6.967   6.558
 4471SOL    HW114312   0.829   6.903   6.563
 4471SOL    HW214313   0.932   6.994   6.650
 4472SOL     OW14314   1.744   2.711   0.782
 4472SOL    HW114315   1.672   2.643   0.769
 4472SOL    HW214316   1.780   2.705   0.875
 4473SOL     OW14317   0.443   2.870   4.572
 4473SOL    HW114318   0.498   2.929   4.631
 4473SOL    HW214319   0.504   2.813   4.516
 4474SOL     OW14320   3.268   5.896   0.935
 4474SOL    HW114321   3.281   5.844   0.850
 4474SOL    HW214322   3.170   5.908   0.951
 4475SOL     OW14323   1.008   3.915   1.025
 4475SOL    HW114324   1.079   3.906   0.956
 4475SOL    HW214325   0.948   3.835   1.022
 4476SOL     OW14326   5.338   0.874   4.110
 4476SOL    HW114327   5.254   0.880   4.056
 4476SOL    HW214328   5.417   0.873   4.048
 4477SOL     OW14329   0.964   0.726   5.024
 4477SOL    HW114330   1.019   0.738   4.942
 4477SOL    HW214331   0.907   0.806   5.038
 4478SOL     OW14332   1.604   6.830   1.318
 4478SOL    HW114333   1.681   6.866   1.264
 4478SOL    HW214334   1.575   6.900   1.384
 4479SOL     OW14335   1.724   2.055   6.905
 4479SOL    HW114336   1.821   2.049   6.926
 4479SOL    HW214337   1.707   2.021   6.813
 4480SOL     OW14338   1.076   6.610   3.915
 4480SOL    HW114339   0.980   6.629   3.896
 4480SOL    HW214340   1.132   6.643   3.839
 4481SOL     OW14341   2.132   3.909   6.219
 4481SOL    HW114342   2.048   3.940   6.262
 4481SOL    HW214343   2.155   3.818   6.253
 4482SOL     OW14344   2.234   6.929   1.562
 4482SOL    HW114345   2.258   6.834   1.538
 4482SOL    HW214346   2.240   6.941   1.661
 4483SOL     OW14347   1.517   3.636   0.848
 4483SOL    HW114348   1.472   3.662   0.762
 4483SOL    HW214349   1.606   3.682   0.854
 4484SOL     OW14350   2.400   1.129   0.023
 4484SOL    HW114351   2.331   1.070   0.064
 4484SOL    HW214352   2.473   1.145   0.089
 4485SOL     OW14353   6.511   2.370   5.133
 4485SOL    HW114354   6.545   2.417   5.215
 4485SOL    HW214355   6.526   2.428   5.053
 4486SOL     OW14356   4.775   4.886   4.579
 4486SOL    HW114357   4.873   4.900   4.568
 4486SOL    HW214358   4.748   4.799   4.537
 4487SOL     OW14359   0.499   2.773   6.643
 4487SOL    HW114360   0.491   2.837   6.720
 4487SOL    HW214361   0.583   2.719   6.653
 4488SOL     OW14362   6.883   3.961   3.161
 4488SOL    HW114363   6.814   3.997   3.224
 4488SOL    HW214364   6.958   4.026   3.152
 4489SOL     OW14365   4.211   6.339   5.968
 4489SOL    HW114366   4.251   6.364   6.056
 4489SOL    HW214367   4.260   6.386   5.895
 4490SOL     OW14368   5.197   1.262   1.805
 4490SOL    HW114369   5.296   1.266   1.794
 4490SOL    HW214370   5.154   1.332   1.747
 4491SOL     OW14371   0.691   3.076   2.897
 4491SOL    HW114372   0.679   3.169   2.861
 4491SOL    HW214373   0.602   3.039   2.924
 4492SOL     OW14374   0.253   0.743   2.618
 4492SOL    HW114375   0.285   0.735   2.712
 4492SOL    HW214376   0.184   0.815   2.613
 4493SOL     OW14377   5.429   1.335   5.826
 4493SOL    HW114378   5.493   1.289   5.765
 4493SOL    HW214379   5.453   1.317   5.921
 4494SOL     OW14380   1.489   0.221   1.656
 4494SOL    HW114381   1.537   0.308   1.650
 4494SOL    HW214382   1.474   0.198   1.752
 4495SOL     OW14383   4.395   6.527   0.997
 4495SOL    HW114384   4.296   6.526   0.994
 4495SOL    HW214385   4.432   6.492   0.911
 4496SOL     OW14386   2.846   6.330   5.717
 4496SOL    HW114387   2.844   6.269   5.638
 4496SOL    HW214388   2.941   6.343   5.747
 4497SOL     OW14389   3.610   1.159   5.922
 4497SOL    HW114390   3.592   1.109   5.838
 4497SOL    HW214391   3.537   1.140   5.988
 4498SOL     OW14392   0.408   4.855   4.562
 4498SOL    HW114393   0.458   4.892   4.641
 4498SOL    HW214394   0.310   4.857   4.581
 4499SOL     OW14395   5.688   1.241   2.177
 4499SOL    HW114396   5.619   1.247   2.249
 4499SOL    HW214397   5.761   1.308   2.195
 4500SOL     OW14398   4.084   5.917   0.426
 4500SOL    HW114399   4.028   5.838   0.400
 4500SOL    HW214400   4.170   5.884   0.465
 4501SOL     OW14401   6.139   0.663   2.683
 4501SOL    HW114402   6.172   0.659   2.589
 4501SOL    HW214403   6.166   0.579   2.731
 4502SOL     OW14404   0.209   3.724   6.574
 4502SOL    HW114405   0.241   3.793   6.638
 4502SOL    HW214406   0.237   3.748   6.482
 4503SOL     OW14407   3.467   1.679   2.870
 4503SOL    HW114408   3.385   1.624   2.855
 4503SOL    HW214409   3.546   1.618   2.881
 4504SOL     OW14410   0.771   2.680   2.441
 4504SOL    HW114411   0.711   2.626   2.499
 4504SOL    HW214412   0.717   2.750   2.393
 4505SOL     OW14413   5.649   3.617   3.636
 4505SOL    HW114414   5.721   3.547   3.644
 4505SOL    HW214415   5.621   3.646   3.727
 4506SOL     OW14416   5.106   3.002   6.212
 4506SOL    HW114417   5.132   2.965   6.123
 4506SOL    HW214418   5.171   2.970   6.281
 4507SOL     OW14419   6.222   1.898   3.579
 4507SOL    HW114420   6.179   1.965   3.519
 4507SOL    HW214421   6.264   1.826   3.523
 4508SOL     OW14422   0.095   4.694   0.496
 4508SOL    HW114423   0.045   4.779   0.483
 4508SOL    HW214424   0.130   4.662   0.408
 4509SOL     OW14425   5.058   2.439   2.322
 4509SOL    HW114426   5.124   2.436   2.248
 4509SOL    HW214427   5.006   2.525   2.318
 4510SOL     OW14428   4.124   1.315   4.978
 4510SOL    HW114429   4.199   1.328   4.913
 4510SOL    HW214430   4.037   1.308   4.928
 4511SOL     OW14431   6.833   5.017   6.550
 4511SOL    HW114432   6.766   5.027   6.623
 4511SOL    HW214433   6.898   5.093   6.553
 4512SOL     OW14434   3.179   3.200   5.403
 4512SOL    HW114435   3.117   3.256   5.459
 4512SOL    HW214436   3.124   3.140   5.344
 4513SOL     OW14437   0.369   6.520   0.578
 4513SOL    HW114438   0.449   6.573   0.607
 4513SOL    HW214439   0.287   6.576   0.587
 4514SOL     OW14440   4.224   4.861   7.022
 4514SOL    HW114441   4.241   4.952   0.033
 4514SOL    HW214442   4.133   4.830   0.023
 4515SOL     OW14443   3.460   0.964   6.581
 4515SOL    HW114444   3.527   0.954   6.654
 4515SOL    HW214445   3.503   0.940   6.493
 4516SOL     OW14446   3.016   2.504   5.598
 4516SOL    HW114447   2.982   2.411   5.612
 4516SOL    HW214448   3.074   2.507   5.518
 4517SOL     OW14449   4.411   1.051   5.438
 4517SOL    HW114450   4.393   1.102   5.355
 4517SOL    HW214451   4.328   1.003   5.467
 4518SOL     OW14452   0.582   6.409   0.772
 4518SOL    HW114453   0.537   6.398   0.683
 4518SOL    HW214454   0.680   6.388   0.762
 4519SOL     OW14455   4.734   6.713   0.060
 4519SOL    HW114456   4.735   6.672   0.151
 4519SOL    HW214457   4.765   6.646   7.019
 4520SOL     OW14458   4.468   5.525   5.204
 4520SOL    HW114459   4.406   5.573   5.265
 4520SOL    HW214460   4.555   5.574   5.199
 4521SOL     OW14461   4.188   2.309   4.300
 4521SOL    HW114462   4.103   2.276   4.340
 4521SOL    HW214463   4.190   2.288   4.203
 4522SOL     OW14464   5.587   3.926   3.438
 4522SOL    HW114465   5.658   3.945   3.370
 4522SOL    HW214466   5.624   3.865   3.509
 4523SOL     OW14467   6.972   2.967   5.760
 4523SOL    HW114468   6.906   3.040   5.780
 4523SOL    HW214469   0.026   2.979   5.817
 4524SOL     OW14470   1.891   3.679   2.256
 4524SOL    HW114471   1.920   3.757   2.311
 4524SOL    HW214472   1.929   3.595   2.293
 4525SOL     OW14473   3.536   2.614   5.600
 4525SOL    HW114474   3.596   2.554   5.547
 4525SOL    HW214475   3.592   2.670   5.662
 4526SOL     OW14476   1.240   0.093   5.374
 4526SOL    HW114477   1.186   0.057   5.449
 4526SOL    HW214478   1.241   0.028   5.298
 4527SOL     OW14479   0.654   1.532   2.685
 4527SOL    HW114480   0.696   1.527   2.595
 4527SOL    HW214481   0.669   1.624   2.724
 4528SOL     OW14482   4.983   0.800   4.820
 4528SOL    HW114483   4.958   0.889   4.782
 4528SOL    HW214484   5.014   0.812   4.915
 4529SOL     OW14485   2.256   1.759   3.901
 4529SOL    HW114486   2.188   1.715   3.842
 4529SOL    HW214487   2.246   1.724   3.994
 4530SOL     OW14488   4.382   5.972   6.654
 4530SOL    HW114489   4.365   5.950   6.558
 4530SOL    HW214490   4.427   6.061   6.659
 4531SOL     OW14491   1.765   6.203   5.127
 4531SOL    HW114492   1.848   6.258   5.124
 4531SOL    HW214493   1.759   6.157   5.215
 4532SOL     OW14494   6.485   1.406   2.856
 4532SOL    HW114495   6.389   1.421   2.877
 4532SOL    HW214496   6.493   1.363   2.766
 4533SOL     OW14497   2.811   0.615   1.311
 4533SOL    HW114498   2.793   0.574   1.400
 4533SOL    HW214499   2.849   0.546   1.249
 4534SOL     OW14500   4.794   1.775   4.330
 4534SOL    HW114501   4.709   1.768   4.277
 4534SOL    HW214502   4.835   1.865   4.315
 4535SOL     OW14503   1.656   0.355   0.329
 4535SOL    HW114504   1.697   0.312   0.410
 4535SOL    HW214505   1.700   0.319   0.247
 4536SOL     OW14506   3.605   0.175   5.946
 4536SOL    HW114507   3.506   0.167   5.943
 4536SOL    HW214508   3.631   0.246   6.011
 4537SOL     OW14509   3.031   3.307   3.522
 4537SOL    HW114510   3.091   3.382   3.495
 4537SOL    HW214511   2.961   3.342   3.584
 4538SOL     OW14512   0.156   2.320   0.731
 4538SOL    HW114513   0.094   2.363   0.797
 4538SOL    HW214514   0.203   2.392   0.679
 4539SOL     OW14515   1.525   5.820   5.133
 4539SOL    HW114516   1.444   5.797   5.079
 4539SOL    HW214517   1.533   5.920   5.139
 4540SOL     OW14518   1.482   1.959   0.426
 4540SOL    HW114519   1.414   1.913   0.369
 4540SOL    HW214520   1.450   1.962   0.521
 4541SOL     OW14521   4.333   3.336   6.521
 4541SOL    HW114522   4.262   3.400   6.551
 4541SOL    HW214523   4.307   3.243   6.545
 4542SOL     OW14524   0.425   1.332   6.283
 4542SOL    HW114525   0.425   1.330   6.383
 4542SOL    HW214526   0.336   1.362   6.249
 4543SOL     OW14527   3.696   2.001   0.656
 4543SOL    HW114528   3.618   2.061   0.675
 4543SOL    HW214529   3.671   1.907   0.677
 4544SOL     OW14530   4.694   6.739   0.849
 4544SOL    HW114531   4.747   6.702   0.926
 4544SOL    HW214532   4.609   6.779   0.883
 4545SOL     OW14533   2.217   2.926   5.652
 4545SOL    HW114534   2.242   3.021   5.637
 4545SOL    HW214535   2.283   2.866   5.607
 4546SOL     OW14536   3.212   0.811   5.452
 4546SOL    HW114537   3.113   0.824   5.457
 4546SOL    HW214538   3.242   0.818   5.356
 4547SOL     OW14539   0.340   0.040   6.920
 4547SOL    HW114540   0.431   7.026   6.912
 4547SOL    HW214541   0.320   0.058   7.016
 4548SOL     OW14542   3.154   1.796   2.009
 4548SOL    HW114543   3.234   1.784   1.950
 4548SOL    HW214544   3.127   1.893   2.009
 4549SOL     OW14545   0.594   3.690   4.215
 4549SOL    HW114546   0.619   3.735   4.301
 4549SOL    HW214547   0.649   3.608   4.203
 4550SOL     OW14548   2.346   5.272   4.656
 4550SOL    HW114549   2.359   5.179   4.622
 4550SOL    HW214550   2.282   5.271   4.733
 4551SOL     OW14551   2.412   2.641   5.617
 4551SOL    HW114552   2.483   2.677   5.556
 4551SOL    HW214553   2.452   2.570   5.675
 4552SOL     OW14554   4.679   0.975   0.891
 4552SOL    HW114555   4.671   0.981   0.990
 4552SOL    HW214556   4.729   0.892   0.866
 4553SOL     OW14557   0.343   5.998   0.282
 4553SOL    HW114558   0.410   6.071   0.268
 4553SOL    HW214559   0.331   5.947   0.197
 4554SOL     OW14560   5.986   6.964   2.836
 4554SOL    HW114561   6.074   7.006   2.861
 4554SOL    HW214562   5.941   6.931   2.918
 4555SOL     OW14563   0.542   0.816   1.191
 4555SOL    HW114564   0.593   0.735   1.161
 4555SOL    HW214565   0.605   0.880   1.235
 4556SOL     OW14566   5.138   4.698   4.219
 4556SOL    HW114567   5.171   4.767   4.154
 4556SOL    HW214568   5.044   4.719   4.245
 4557SOL     OW14569   0.294   4.717   4.322
 4557SOL    HW114570   0.216   4.745   4.266
 4557SOL    HW214571   0.319   4.792   4.383
 4558SOL     OW14572   1.415   4.329   4.935
 4558SOL    HW114573   1.333   4.303   4.985
 4558SOL    HW214574   1.427   4.428   4.939
 4559SOL     OW14575   0.073   2.865   3.936
 4559SOL    HW114576   0.063   2.961   3.962
 4559SOL    HW214577   7.025   2.811   3.976
 4560SOL     OW14578   5.325   4.524   2.854
 4560SOL    HW114579   5.401   4.580   2.888
 4560SOL    HW214580   5.251   4.525   2.921
 4561SOL     OW14581   5.005   2.764   4.312
 4561SOL    HW114582   5.046   2.816   4.236
 4561SOL    HW214583   4.992   2.669   4.284
 4562SOL     OW14584   3.432   1.047   0.237
 4562SOL    HW114585   3.366   1.109   0.279
 4562SOL    HW214586   3.488   1.098   0.171
 4563SOL     OW14587   0.757   4.574   2.181
 4563SOL    HW114588   0.679   4.570   2.243
 4563SOL    HW214589   0.769   4.486   2.136
 4564SOL     OW14590   2.207   3.859   2.560
 4564SOL    HW114591   2.291   3.892   2.603
 4564SOL    HW214592   2.192   3.763   2.584
 4565SOL     OW14593   1.532   6.846   5.850
 4565SOL    HW114594   1.608   6.907   5.826
 4565SOL    HW214595   1.514   6.852   5.948
 4566SOL     OW14596   6.482   4.314   3.153
 4566SOL    HW114597   6.447   4.234   3.201
 4566SOL    HW214598   6.547   4.286   3.083
 4567SOL     OW14599   0.052   0.011   6.591
 4567SOL    HW114600   0.099   6.953   6.617
 4567SOL    HW214601   6.988   7.015   6.555
 4568SOL     OW14602   1.421   5.276   3.574
 4568SOL    HW114603   1.469   5.296   3.659
 4568SOL    HW214604   1.417   5.177   3.561
 4569SOL     OW14605   2.070   1.716   3.181
 4569SOL    HW114606   2.074   1.625   3.140
 4569SOL    HW214607   1.975   1.740   3.202
 4570SOL     OW14608   5.305   5.499   1.413
 4570SOL    HW114609   5.390   5.552   1.421
 4570SOL    HW214610   5.229   5.555   1.445
 4571SOL     OW14611   2.541   3.536   6.185
 4571SOL    HW114612   2.488   3.518   6.102
 4571SOL    HW214613   2.575   3.630   6.182
 4572SOL     OW14614   3.299   2.920   2.379
 4572SOL    HW114615   3.218   2.912   2.321
 4572SOL    HW214616   3.381   2.902   2.325
 4573SOL     OW14617   3.064   5.374   0.292
 4573SOL    HW114618   2.972   5.395   0.261
 4573SOL    HW214619   3.066   5.283   0.333
 4574SOL     OW14620   4.671   0.897   2.040
 4574SOL    HW114621   4.743   0.912   1.972
 4574SOL    HW214622   4.697   0.821   2.099
 4575SOL     OW14623   0.671   0.180   5.238
 4575SOL    HW114624   0.659   0.249   5.167
 4575SOL    HW214625   0.673   0.089   5.197
 4576SOL     OW14626   3.362   4.428   6.673
 4576SOL    HW114627   3.308   4.499   6.719
 4576SOL    HW214628   3.305   4.382   6.605
 4577SOL     OW14629   0.949   1.862   2.145
 4577SOL    HW114630   0.862   1.887   2.103
 4577SOL    HW214631   0.969   1.925   2.220
 4578SOL     OW14632   1.458   1.504   2.064
 4578SOL    HW114633   1.535   1.492   2.127
 4578SOL    HW214634   1.405   1.419   2.060
 4579SOL     OW14635   4.815   0.738   3.591
 4579SOL    HW114636   4.808   0.759   3.493
 4579SOL    HW214637   4.737   0.778   3.639
 4580SOL     OW14638   0.240   1.375   0.685
 4580SOL    HW114639   0.245   1.362   0.784
 4580SOL    HW214640   0.176   1.309   0.645
 4581SOL     OW14641   2.633   0.539   0.925
 4581SOL    HW114642   2.687   0.577   0.850
 4581SOL    HW214643   2.628   0.606   0.999
 4582SOL     OW14644   6.779   0.497   3.886
 4582SOL    HW114645   6.852   0.525   3.824
 4582SOL    HW214646   6.790   0.401   3.910
 4583SOL     OW14647   1.992   0.522   6.973
 4583SOL    HW114648   1.996   0.461   0.025
 4583SOL    HW214649   2.014   0.471   6.890
 4584SOL     OW14650   0.252   1.766   4.275
 4584SOL    HW114651   0.239   1.819   4.191
 4584SOL    HW214652   0.247   1.827   4.354
 4585SOL     OW14653   1.366   2.705   3.169
 4585SOL    HW114654   1.391   2.786   3.222
 4585SOL    HW214655   1.301   2.650   3.221
 4586SOL     OW14656   6.285   4.885   6.556
 4586SOL    HW114657   6.248   4.945   6.626
 4586SOL    HW214658   6.375   4.917   6.527
 4587SOL     OW14659   3.962   4.049   5.706
 4587SOL    HW114660   3.940   3.980   5.774
 4587SOL    HW214661   3.878   4.094   5.675
 4588SOL     OW14662   3.256   3.883   6.246
 4588SOL    HW114663   3.254   3.900   6.147
 4588SOL    HW214664   3.210   3.797   6.266
 4589SOL     OW14665   5.777   6.371   2.429
 4589SOL    HW114666   5.799   6.274   2.430
 4589SOL    HW214667   5.861   6.424   2.415
 4590SOL     OW14668   4.037   5.787   1.628
 4590SOL    HW114669   4.091   5.719   1.579
 4590SOL    HW214670   4.057   5.781   1.726
 4591SOL     OW14671   2.571   0.767   5.065
 4591SOL    HW114672   2.502   0.766   4.993
 4591SOL    HW214673   2.595   0.862   5.086
 4592SOL     OW14674   2.265   1.398   3.874
 4592SOL    HW114675   2.193   1.463   3.850
 4592SOL    HW214676   2.342   1.448   3.915
 4593SOL     OW14677   1.224   5.698   4.425
 4593SOL    HW114678   1.291   5.649   4.370
 4593SOL    HW214679   1.267   5.779   4.466
 4594SOL     OW14680   2.423   6.943   3.225
 4594SOL    HW114681   2.474   6.874   3.275
 4594SOL    HW214682   2.384   6.902   3.142
 4595SOL     OW14683   5.572   2.373   6.003
 4595SOL    HW114684   5.575   2.316   5.921
 4595SOL    HW214685   5.665   2.396   6.032
 4596SOL     OW14686   0.971   0.590   2.079
 4596SOL    HW114687   1.013   0.505   2.113
 4596SOL    HW214688   0.978   0.661   2.148
 4597SOL     OW14689   2.510   5.836   0.822
 4597SOL    HW114690   2.537   5.842   0.918
 4597SOL    HW214691   2.482   5.926   0.790
 4598SOL     OW14692   0.675   4.460   0.344
 4598SOL    HW114693   0.585   4.461   0.388
 4598SOL    HW214694   0.670   4.402   0.262
 4599SOL     OW14695   4.000   6.713   1.964
 4599SOL    HW114696   4.005   6.752   1.872
 4599SOL    HW214697   4.093   6.699   1.999
 4600SOL     OW14698   0.543   6.708   6.358
 4600SOL    HW114699   0.449   6.702   6.391
 4600SOL    HW214700   0.558   6.638   6.288
 4601SOL     OW14701   1.950   0.443   5.354
 4601SOL    HW114702   1.975   0.468   5.448
 4601SOL    HW214703   2.033   0.433   5.299
 4602SOL     OW14704   2.747   1.983   5.936
 4602SOL    HW114705   2.682   2.059   5.930
 4602SOL    HW214706   2.784   1.964   5.845
 4603SOL     OW14707   4.194   0.044   1.085
 4603SOL    HW114708   4.179   7.020   1.000
 4603SOL    HW214709   4.292   0.043   1.107
 4604SOL     OW14710   6.871   7.013   4.511
 4604SOL    HW114711   6.815   7.003   4.593
 4604SOL    HW214712   6.828   6.966   4.434
 4605SOL     OW14713   3.560   0.304   1.486
 4605SOL    HW114714   3.522   0.342   1.402
 4605SOL    HW214715   3.493   0.311   1.559
 4606SOL     OW14716   0.051   6.256   5.061
 4606SOL    HW114717   0.114   6.328   5.033
 4606SOL    HW214718   6.986   6.275   5.024
 4607SOL     OW14719   1.828   1.807   0.798
 4607SOL    HW114720   1.891   1.851   0.861
 4607SOL    HW214721   1.734   1.833   0.821
 4608SOL     OW14722   0.283   2.911   4.899
 4608SOL    HW114723   0.202   2.959   4.932
 4608SOL    HW214724   0.306   2.837   4.962
 4609SOL     OW14725   5.138   5.274   7.012
 4609SOL    HW114726   5.107   5.227   6.930
 4609SOL    HW214727   5.237   5.289   7.007
 4610SOL     OW14728   5.363   4.910   0.259
 4610SOL    HW114729   5.350   4.845   0.334
 4610SOL    HW214730   5.281   4.910   0.200
 4611SOL     OW14731   0.147   1.274   6.637
 4611SOL    HW114732   0.177   1.367   6.656
 4611SOL    HW214733   0.077   1.247   6.703
 4612SOL     OW14734   2.007   1.393   2.046
 4612SOL    HW114735   1.945   1.317   2.066
 4612SOL    HW214736   1.968   1.449   1.973
 4613SOL     OW14737   1.452   5.017   1.732
 4613SOL    HW114738   1.490   4.933   1.694
 4613SOL    HW214739   1.405   5.068   1.660
 4614SOL     OW14740   6.750   4.301   3.973
 4614SOL    HW114741   6.726   4.391   4.010
 4614SOL    HW214742   6.741   4.302   3.874
 4615SOL     OW14743   1.806   4.243   6.595
 4615SOL    HW114744   1.821   4.330   6.548
 4615SOL    HW214745   1.862   4.172   6.553
 4616SOL     OW14746   0.858   3.422   6.295
 4616SOL    HW114747   0.806   3.483   6.355
 4616SOL    HW214748   0.797   3.357   6.251
 4617SOL     OW14749   0.265   2.767   3.635
 4617SOL    HW114750   0.288   2.786   3.730
 4617SOL    HW214751   0.240   2.670   3.625
 4618SOL     OW14752   1.916   4.312   5.836
 4618SOL    HW114753   1.824   4.332   5.870
 4618SOL    HW214754   1.974   4.281   5.911
 4619SOL     OW14755   4.758   6.494   6.292
 4619SOL    HW114756   4.794   6.587   6.298
 4619SOL    HW214757   4.705   6.473   6.375
 4620SOL     OW14758   0.664   5.034   2.056
 4620SOL    HW114759   0.591   5.022   2.123
 4620SOL    HW214760   0.644   5.114   2.000
 4621SOL     OW14761   3.357   0.105   2.755
 4621SOL    HW114762   3.297   0.137   2.829
 4621SOL    HW214763   3.453   0.121   2.781
 4622SOL     OW14764   5.498   6.866   0.254
 4622SOL    HW114765   5.448   6.780   0.263
 4622SOL    HW214766   5.461   6.933   0.319
 4623SOL     OW14767   3.210   4.878   1.854
 4623SOL    HW114768   3.252   4.816   1.787
 4623SOL    HW214769   3.126   4.837   1.889
 4624SOL     OW14770   4.370   1.376   2.109
 4624SOL    HW114771   4.323   1.427   2.181
 4624SOL    HW214772   4.426   1.439   2.055
 4625SOL     OW14773   1.802   5.915   1.731
 4625SOL    HW114774   1.830   6.004   1.696
 4625SOL    HW214775   1.809   5.847   1.657
 4626SOL     OW14776   4.015   2.984   1.670
 4626SOL    HW114777   4.063   3.064   1.633
 4626SOL    HW214778   3.965   3.010   1.752
 4627SOL     OW14779   5.479   0.099   5.308
 4627SOL    HW114780   5.563   0.154   5.307
 4627SOL    HW214781   5.498   0.012   5.354
 4628SOL     OW14782   5.446   4.548   3.652
 4628SOL    HW114783   5.492   4.496   3.580
 4628SOL    HW214784   5.419   4.638   3.617
 4629SOL     OW14785   1.942   5.312   0.365
 4629SOL    HW114786   1.978   5.401   0.393
 4629SOL    HW214787   1.887   5.323   0.282
 4630SOL     OW14788   2.174   3.765   1.463
 4630SOL    HW114789   2.226   3.722   1.537
 4630SOL    HW214790   2.090   3.805   1.500
 4631SOL     OW14791   6.735   0.800   2.749
 4631SOL    HW114792   6.730   0.722   2.812
 4631SOL    HW214793   6.664   0.792   2.680
 4632SOL     OW14794   3.327   5.125   2.964
 4632SOL    HW114795   3.332   5.071   3.048
 4632SOL    HW214796   3.336   5.065   2.885
 4633SOL     OW14797   5.126   2.080   4.746
 4633SOL    HW114798   5.206   2.118   4.791
 4633SOL    HW214799   5.140   2.079   4.647
 4634SOL     OW14800   4.265   3.543   5.175
 4634SOL    HW114801   4.254   3.608   5.100
 4634SOL    HW214802   4.197   3.471   5.168
 4635SOL     OW14803   4.166   6.029   1.783
 4635SOL    HW114804   4.187   6.123   1.810
 4635SOL    HW214805   4.161   6.023   1.683
 4636SOL     OW14806   1.652   5.274   6.703
 4636SOL    HW114807   1.571   5.331   6.712
 4636SOL    HW214808   1.639   5.188   6.752
 4637SOL     OW14809   3.203   1.647   3.493
 4637SOL    HW114810   3.119   1.643   3.546
 4637SOL    HW214811   3.203   1.574   3.424
 4638SOL     OW14812   4.260   4.551   0.170
 4638SOL    HW114813   4.327   4.511   0.107
 4638SOL    HW214814   4.172   4.562   0.124
 4639SOL     OW14815   3.949   2.303   1.760
 4639SOL    HW114816   3.864   2.332   1.803
 4639SOL    HW214817   3.931   2.270   1.668
 4640SOL     OW14818   6.281   3.707   0.051
 4640SOL    HW114819   6.210   3.694   7.008
 4640SOL    HW214820   6.342   3.629   0.051
 4641SOL     OW14821   1.644   5.573   4.511
 4641SOL    HW114822   1.739   5.574   4.481
 4641SOL    HW214823   1.627   5.491   4.566
 4642SOL     OW14824   6.510   1.234   4.752
 4642SOL    HW114825   6.540   1.329   4.756
 4642SOL    HW214826   6.564   1.180   4.817
 4643SOL     OW14827   0.720   1.980   0.015
 4643SOL    HW114828   0.653   2.054   0.019
 4643SOL    HW214829   0.694   1.914   6.972
 4644SOL     OW14830   1.729   0.252   0.579
 4644SOL    HW114831   1.706   0.188   0.652
 4644SOL    HW214832   1.761   0.338   0.619
 4645SOL     OW14833   6.390   1.411   5.063
 4645SOL    HW114834   6.476   1.382   5.105
 4645SOL    HW214835   6.409   1.466   4.981
 4646SOL     OW14836   2.463   4.417   3.812
 4646SOL    HW114837   2.445   4.458   3.723
 4646SOL    HW214838   2.382   4.368   3.844
 4647SOL     OW14839   1.623   6.635   1.535
 4647SOL    HW114840   1.607   6.659   1.440
 4647SOL    HW214841   1.623   6.536   1.546
 4648SOL     OW14842   2.688   1.473   4.820
 4648SOL    HW114843   2.699   1.432   4.730
 4648SOL    HW214844   2.611   1.537   4.818
 4649SOL     OW14845   5.796   1.666   0.513
 4649SOL    HW114846   5.769   1.613   0.432
 4649SOL    HW214847   5.762   1.621   0.595
 4650SOL     OW14848   5.163   6.136   0.842
 4650SOL    HW114849   5.180   6.210   0.906
 4650SOL    HW214850   5.155   6.050   0.892
 4651SOL     OW14851   0.009   3.393   6.020
 4651SOL    HW114852   6.985   3.379   6.105
 4651SOL    HW214853   0.100   3.353   6.029
 4652SOL     OW14854   0.219   6.456   4.970
 4652SOL    HW114855   0.211   6.552   4.998
 4652SOL    HW214856   0.256   6.451   4.877
 4653SOL     OW14857   6.781   5.663   1.043
 4653SOL    HW114858   6.830   5.688   0.959
 4653SOL    HW214859   6.686   5.643   1.022
 4654SOL     OW14860   0.481   0.297   5.771
 4654SOL    HW114861   0.561   0.251   5.733
 4654SOL    HW214862   0.469   0.386   5.727
 4655SOL     OW14863   5.241   3.172   2.103
 4655SOL    HW114864   5.265   3.078   2.126
 4655SOL    HW214865   5.149   3.174   2.063
 4656SOL     OW14866   7.021   0.950   2.129
 4656SOL    HW114867   0.000   1.047   2.152
 4656SOL    HW214868   6.953   0.906   2.188
 4657SOL     OW14869   3.412   1.034   3.197
 4657SOL    HW114870   3.389   0.994   3.286
 4657SOL    HW214871   3.333   1.085   3.162
 4658SOL     OW14872   1.351   2.173   6.323
 4658SOL    HW114873   1.447   2.177   6.296
 4658SOL    HW214874   1.323   2.078   6.334
 4659SOL     OW14875   1.915   4.229   0.396
 4659SOL    HW114876   1.843   4.258   0.334
 4659SOL    HW214877   1.888   4.250   0.490
 4660SOL     OW14878   0.932   5.266   3.454
 4660SOL    HW114879   1.003   5.311   3.507
 4660SOL    HW214880   0.973   5.209   3.383
 4661SOL     OW14881   0.977   1.536   6.040
 4661SOL    HW114882   0.985   1.564   6.136
 4661SOL    HW214883   1.068   1.536   5.998
 4662SOL     OW14884   1.780   0.155   5.515
 4662SOL    HW114885   1.739   0.212   5.444
 4662SOL    HW214886   1.869   0.193   5.539
 4663SOL     OW14887   1.425   0.149   0.058
 4663SOL    HW114888   1.516   0.108   0.060
 4663SOL    HW214889   1.419   0.215   7.009
 4664SOL     OW14890   5.893   0.172   6.038
 4664SOL    HW114891   5.894   0.149   5.940
 4664SOL    HW214892   5.871   0.090   6.091
 4665SOL     OW14893   0.810   0.657   3.479
 4665SOL    HW114894   0.726   0.653   3.425
 4665SOL    HW214895   0.814   0.743   3.529
 4666SOL     OW14896   1.713   2.331   5.606
 4666SOL    HW114897   1.686   2.262   5.674
 4666SOL    HW214898   1.808   2.357   5.621
 4667SOL     OW14899   6.643   3.777   1.125
 4667SOL    HW114900   6.568   3.835   1.158
 4667SOL    HW214901   6.716   3.835   1.089
 4668SOL     OW14902   4.862   2.106   4.661
 4668SOL    HW114903   4.813   2.020   4.679
 4668SOL    HW214904   4.951   2.102   4.705
 4669SOL     OW14905   5.083   7.011   6.189
 4669SOL    HW114906   5.066   6.913   6.195
 4669SOL    HW214907   5.119   0.018   6.277
 4670SOL     OW14908   0.255   3.010   6.733
 4670SOL    HW114909   0.329   2.973   6.788
 4670SOL    HW214910   0.241   2.953   6.652
 4671SOL     OW14911   0.789   3.103   1.338
 4671SOL    HW114912   0.741   3.113   1.426
 4671SOL    HW214913   0.877   3.150   1.343
 4672SOL     OW14914   3.353   4.138   6.978
 4672SOL    HW114915   3.279   4.094   6.928
 4672SOL    HW214916   3.322   4.225   7.016
 4673SOL     OW14917   6.255   0.923   0.799
 4673SOL    HW114918   6.278   1.013   0.761
 4673SOL    HW214919   6.188   0.878   0.739
 4674SOL     OW14920   0.613   2.653   0.750
 4674SOL    HW114921   0.528   2.693   0.787
 4674SOL    HW214922   0.689   2.673   0.812
 4675SOL     OW14923   1.847   5.432   6.888
 4675SOL    HW114924   1.778   5.387   6.831
 4675SOL    HW214925   1.935   5.386   6.876
 4676SOL     OW14926   0.732   6.233   3.954
 4676SOL    HW114927   0.827   6.257   3.936
 4676SOL    HW214928   0.707   6.151   3.902
 4677SOL     OW14929   3.911   7.014   6.862
 4677SOL    HW114930   3.847   0.025   6.930
 4677SOL    HW214931   3.901   0.037   6.776
 4678SOL     OW14932   2.522   4.446   6.871
 4678SOL    HW114933   2.508   4.354   6.835
 4678SOL    HW214934   2.589   4.444   6.945
 4679SOL     OW14935   2.589   6.694   5.930
 4679SOL    HW114936   2.502   6.644   5.931
 4679SOL    HW214937   2.645   6.662   5.854
 4680SOL     OW14938   1.742   4.468   0.290
 4680SOL    HW114939   1.786   4.493   0.376
 4680SOL    HW214940   1.792   4.508   0.214
 4681SOL     OW14941   6.782   5.662   4.598
 4681SOL    HW114942   6.748   5.642   4.506
 4681SOL    HW214943   6.881   5.651   4.600
 4682SOL     OW14944   3.295   6.101   0.760
 4682SOL    HW114945   3.266   6.029   0.822
 4682SOL    HW214946   3.384   6.079   0.721
 4683SOL     OW14947   6.732   4.280   2.871
 4683SOL    HW114948   6.695   4.368   2.901
 4683SOL    HW214949   6.728   4.274   2.772
 4684SOL     OW14950   1.222   1.363   4.932
 4684SOL    HW114951   1.314   1.399   4.917
 4684SOL    HW214952   1.181   1.339   4.844
 4685SOL     OW14953   5.028   4.299   4.953
 4685SOL    HW114954   4.931   4.317   4.968
 4685SOL    HW214955   5.072   4.280   5.040
 4686SOL     OW14956   5.643   5.902   0.464
 4686SOL    HW114957   5.574   5.969   0.488
 4686SOL    HW214958   5.732   5.947   0.456
 4687SOL     OW14959   5.588   6.485   4.478
 4687SOL    HW114960   5.518   6.552   4.504
 4687SOL    HW214961   5.678   6.516   4.511
 4688SOL     OW14962   1.024   2.070   0.654
 4688SOL    HW114963   0.971   2.148   0.687
 4688SOL    HW214964   1.119   2.098   0.637
 4689SOL     OW14965   1.758   5.276   4.861
 4689SOL    HW114966   1.827   5.204   4.866
 4689SOL    HW214967   1.677   5.249   4.912
 4690SOL     OW14968   1.637   1.731   0.489
 4690SOL    HW114969   1.579   1.810   0.473
 4690SOL    HW214970   1.630   1.668   0.412
 4691SOL     OW14971   3.932   4.420   0.616
 4691SOL    HW114972   3.976   4.488   0.557
 4691SOL    HW214973   4.001   4.354   0.648
 4692SOL     OW14974   0.232   6.032   2.929
 4692SOL    HW114975   0.221   5.946   2.880
 4692SOL    HW214976   0.326   6.065   2.917
 4693SOL     OW14977   0.704   1.022   3.870
 4693SOL    HW114978   0.680   1.000   3.965
 4693SOL    HW214979   0.802   1.010   3.857
 4694SOL     OW14980   1.085   1.139   6.137
 4694SOL    HW114981   1.133   1.056   6.165
 4694SOL    HW214982   1.025   1.119   6.060
 4695SOL     OW14983   2.888   3.058   1.681
 4695SOL    HW114984   2.924   3.095   1.766
 4695SOL    HW214985   2.890   2.958   1.684
 4696SOL     OW14986   5.649   3.380   0.059
 4696SOL    HW114987   5.700   3.309   0.011
 4696SOL    HW214988   5.552   3.376   0.033
 4697SOL     OW14989   1.020   4.920   0.211
 4697SOL    HW114990   0.953   4.849   0.232
 4697SOL    HW214991   0.978   5.010   0.227
 4698SOL     OW14992   6.101   3.433   1.904
 4698SOL    HW114993   6.150   3.518   1.884
 4698SOL    HW214994   6.153   3.379   1.970
 4699SOL     OW14995   6.461   0.021   3.367
 4699SOL    HW114996   6.414   0.109   3.359
 4699SOL    HW214997   6.393   6.974   3.369
 4700SOL     OW14998   5.341   6.807   7.007
 4700SOL    HW114999   5.248   6.770   7.006
 4700SOL    HW215000   5.398   6.753   0.042
 4701SOL     OW15001   0.135   0.657   0.613
 4701SOL    HW115002   0.083   0.655   0.527
 4701SOL    HW215003   0.224   0.700   0.597
 4702SOL     OW15004   2.750   3.127   0.007
 4702SOL    HW115005   2.700   3.074   6.965
 4702SOL    HW215006   2.727   3.224   7.024
 4703SOL     OW15007   1.782   1.275   1.309
 4703SOL    HW115008   1.823   1.185   1.294
 4703SOL    HW215009   1.793   1.301   1.405
 4704SOL     OW15010   4.644   0.004   0.177
 4704SOL    HW115011   4.713   0.073   0.155
 4704SOL    HW215012   4.561   0.048   0.210
 4705SOL     OW15013   3.153   4.072   3.723
 4705SOL    HW115014   3.208   3.998   3.762
 4705SOL    HW215015   3.145   4.146   3.790
 4706SOL     OW15016   4.815   5.544   1.079
 4706SOL    HW115017   4.772   5.505   1.160
 4706SOL    HW215018   4.749   5.601   1.030
 4707SOL     OW15019   3.590   6.117   1.452
 4707SOL    HW115020   3.662   6.070   1.502
 4707SOL    HW215021   3.629   6.195   1.403
 4708SOL     OW15022   1.458   2.776   2.693
 4708SOL    HW115023   1.533   2.743   2.636
 4708SOL    HW215024   1.440   2.872   2.673
 4709SOL     OW15025   3.064   3.558   7.021
 4709SOL    HW115026   2.993   3.627   7.010
 4709SOL    HW215027   3.153   3.598   6.999
 4710SOL     OW15028   5.060   2.377   0.977
 4710SOL    HW115029   5.007   2.293   0.962
 4710SOL    HW215030   5.152   2.353   1.009
 4711SOL     OW15031   3.112   6.561   3.171
 4711SOL    HW115032   3.106   6.504   3.253
 4711SOL    HW215033   3.053   6.641   3.181
 4712SOL     OW15034   1.602   4.195   0.391
 4712SOL    HW115035   1.596   4.166   0.486
 4712SOL    HW215036   1.581   4.293   0.384
 4713SOL     OW15037   2.388   6.283   1.155
 4713SOL    HW115038   2.437   6.198   1.172
 4713SOL    HW215039   2.294   6.263   1.126
 4714SOL     OW15040   3.284   2.127   0.557
 4714SOL    HW115041   3.214   2.140   0.487
 4714SOL    HW215042   3.375   2.140   0.518
 4715SOL     OW15043   5.532   4.257   4.681
 4715SOL    HW115044   5.580   4.203   4.612
 4715SOL    HW215045   5.470   4.321   4.636
 4716SOL     OW15046   3.134   5.260   0.779
 4716SOL    HW115047   3.060   5.202   0.745
 4716SOL    HW215048   3.111   5.356   0.762
 4717SOL     OW15049   1.643   5.367   4.325
 4717SOL    HW115050   1.678   5.326   4.409
 4717SOL    HW215051   1.595   5.297   4.272
 4718SOL     OW15052   5.064   1.223   6.595
 4718SOL    HW115053   5.066   1.238   6.496
 4718SOL    HW215054   5.155   1.197   6.627
 4719SOL     OW15055   4.346   3.047   1.743
 4719SOL    HW115056   4.437   3.045   1.784
 4719SOL    HW215057   4.288   3.111   1.794
 4720SOL     OW15058   2.929   0.748   3.956
 4720SOL    HW115059   2.986   0.827   3.977
 4720SOL    HW215060   2.833   0.774   3.960
 4721SOL     OW15061   1.046   1.767   0.807
 4721SOL    HW115062   1.114   1.696   0.789
 4721SOL    HW215063   0.954   1.732   0.786
 4722SOL     OW15064   2.828   0.563   2.216
 4722SOL    HW115065   2.905   0.598   2.164
 4722SOL    HW215066   2.751   0.627   2.211
 4723SOL     OW15067   2.507   6.745   6.224
 4723SOL    HW115068   2.549   6.769   6.137
 4723SOL    HW215069   2.565   6.681   6.273
 4724SOL     OW15070   4.201   5.120   1.557
 4724SOL    HW115071   4.121   5.117   1.497
 4724SOL    HW215072   4.284   5.122   1.503
 4725SOL     OW15073   5.565   5.522   3.427
 4725SOL    HW115074   5.467   5.543   3.439
 4725SOL    HW215075   5.593   5.544   3.334
 4726SOL     OW15076   0.630   6.157   5.430
 4726SOL    HW115077   0.566   6.080   5.430
 4726SOL    HW215078   0.650   6.183   5.525
 4727SOL     OW15079   6.522   6.563   0.715
 4727SOL    HW115080   6.540   6.487   0.778
 4727SOL    HW215081   6.528   6.650   0.764
 4728SOL     OW15082   0.184   1.019   0.151
 4728SOL    HW115083   0.199   1.086   0.224
 4728SOL    HW215084   0.221   0.931   0.178
 4729SOL     OW15085   2.879   0.080   0.644
 4729SOL    HW115086   2.890   0.141   0.566
 4729SOL    HW215087   2.817   0.122   0.711
 4730SOL     OW15088   2.153   0.702   5.642
 4730SOL    HW115089   2.248   0.679   5.622
 4730SOL    HW215090   2.097   0.619   5.642
 4731SOL     OW15091   5.727   2.135   6.585
 4731SOL    HW115092   5.647   2.108   6.638
 4731SOL    HW215093   5.706   2.130   6.487
 4732SOL     OW15094   0.339   1.631   0.712
 4732SOL    HW115095   0.256   1.654   0.763
 4732SOL    HW215096   0.323   1.548   0.658
 4733SOL     OW15097   6.758   3.454   4.256
 4733SOL    HW115098   6.667   3.486   4.281
 4733SOL    HW215099   6.792   3.507   4.178
 4734SOL     OW15100   5.099   4.374   5.937
 4734SOL    HW115101   5.079   4.312   6.012
 4734SOL    HW215102   5.023   4.439   5.927
 4735SOL     OW15103   6.814   4.588   3.817
 4735SOL    HW115104   6.903   4.625   3.846
 4735SOL    HW215105   6.743   4.622   3.879
 4736SOL     OW15106   2.069   0.172   1.111
 4736SOL    HW115107   2.112   0.082   1.113
 4736SOL    HW215108   2.118   0.234   1.171
 4737SOL     OW15109   3.391   5.356   1.740
 4737SOL    HW115110   3.481   5.346   1.781
 4737SOL    HW215111   3.384   5.294   1.661
 4738SOL     OW15112   7.010   6.299   3.354
 4738SOL    HW115113   0.057   6.324   3.291
 4738SOL    HW215114   6.951   6.379   3.369
 4739SOL     OW15115   4.565   0.469   1.247
 4739SOL    HW115116   4.524   0.538   1.187
 4739SOL    HW215117   4.554   0.497   1.343
 4740SOL     OW15118   1.141   2.257   3.692
 4740SOL    HW115119   1.088   2.256   3.607
 4740SOL    HW215120   1.093   2.204   3.762
 4741SOL     OW15121   3.895   3.741   1.167
 4741SOL    HW115122   3.829   3.754   1.092
 4741SOL    HW215123   3.890   3.647   1.200
 4742SOL     OW15124   3.611   1.171   0.460
 4742SOL    HW115125   3.579   1.097   0.401
 4742SOL    HW215126   3.543   1.189   0.531
 4743SOL     OW15127   1.796   5.407   0.679
 4743SOL    HW115128   1.723   5.387   0.613
 4743SOL    HW215129   1.787   5.347   0.758
 4744SOL     OW15130   2.301   5.892   1.101
 4744SOL    HW115131   2.221   5.838   1.128
 4744SOL    HW215132   2.309   5.893   1.002
 4745SOL     OW15133   1.143   3.282   0.289
 4745SOL    HW115134   1.128   3.184   0.302
 4745SOL    HW215135   1.212   3.314   0.354
 4746SOL     OW15136   4.736   5.438   4.233
 4746SOL    HW115137   4.802   5.373   4.270
 4746SOL    HW215138   4.689   5.484   4.309
 4747SOL     OW15139   2.207   0.950   0.167
 4747SOL    HW115140   2.180   0.896   0.087
 4747SOL    HW215141   2.227   0.889   0.244
 4748SOL     OW15142   1.933   6.727   1.514
 4748SOL    HW115143   1.972   6.672   1.439
 4748SOL    HW215144   1.838   6.702   1.528
 4749SOL     OW15145   2.229   1.608   0.401
 4749SOL    HW115146   2.217   1.571   0.308
 4749SOL    HW215147   2.316   1.575   0.439
 4750SOL     OW15148   5.013   2.863   5.541
 4750SOL    HW115149   4.981   2.812   5.461
 4750SOL    HW215150   4.946   2.933   5.566
 4751SOL     OW15151   4.719   1.050   3.446
 4751SOL    HW115152   4.649   1.114   3.414
 4751SOL    HW215153   4.809   1.082   3.416
 4752SOL     OW15154   5.324   1.543   6.610
 4752SOL    HW115155   5.420   1.567   6.598
 4752SOL    HW215156   5.279   1.610   6.668
 4753SOL     OW15157   3.321   6.515   4.846
 4753SOL    HW115158   3.274   6.483   4.764
 4753SOL    HW215159   3.260   6.573   4.899
 4754SOL     OW15160   4.663   4.611   6.452
 4754SOL    HW115161   4.583   4.631   6.508
 4754SOL    HW215162   4.665   4.671   6.372
 4755SOL     OW15163   0.815   1.009   1.252
 4755SOL    HW115164   0.789   1.105   1.263
 4755SOL    HW215165   0.853   0.975   1.338
 4756SOL     OW15166   6.695   4.203   5.421
 4756SOL    HW115167   6.726   4.248   5.338
 4756SOL    HW215168   6.621   4.140   5.399
 4757SOL     OW15169   1.905   3.671   0.383
 4757SOL    HW115170   1.830   3.662   0.318
 4757SOL    HW215171   1.989   3.696   0.334
 4758SOL     OW15172   2.303   5.824   3.511
 4758SOL    HW115173   2.263   5.732   3.518
 4758SOL    HW215174   2.402   5.817   3.498
 4759SOL     OW15175   0.599   6.639   1.714
 4759SOL    HW115176   0.568   6.706   1.782
 4759SOL    HW215177   0.569   6.548   1.742
 4760SOL     OW15178   1.729   5.734   0.664
 4760SOL    HW115179   1.666   5.778   0.726
 4760SOL    HW215180   1.702   5.638   0.650
 4761SOL     OW15181   5.560   6.809   1.552
 4761SOL    HW115182   5.655   6.776   1.547
 4761SOL    HW215183   5.532   6.844   1.463
 4762SOL     OW15184   1.991   0.227   2.327
 4762SOL    HW115185   1.896   0.205   2.307
 4762SOL    HW215186   2.037   0.257   2.244
 4763SOL     OW15187   5.879   5.338   2.536
 4763SOL    HW115188   5.823   5.279   2.479
 4763SOL    HW215189   5.970   5.297   2.548
 4764SOL     OW15190   5.444   2.993   0.470
 4764SOL    HW115191   5.414   3.029   0.558
 4764SOL    HW215192   5.371   2.938   0.429
 4765SOL     OW15193   3.887   1.829   5.857
 4765SOL    HW115194   3.924   1.911   5.814
 4765SOL    HW215195   3.939   1.749   5.826
 4766SOL     OW15196   0.958   0.816   4.766
 4766SOL    HW115197   1.012   0.736   4.742
 4766SOL    HW215198   0.930   0.864   4.682
 4767SOL     OW15199   2.084   4.116   3.184
 4767SOL    HW115200   2.142   4.177   3.238
 4767SOL    HW215201   2.136   4.080   3.107
 4768SOL     OW15202   4.434   2.396   6.466
 4768SOL    HW115203   4.500   2.436   6.403
 4768SOL    HW215204   4.428   2.451   6.549
 4769SOL     OW15205   1.670   3.028   0.183
 4769SOL    HW115206   1.593   3.089   0.200
 4769SOL    HW215207   1.731   3.028   0.262
 4770SOL     OW15208   0.266   1.575   4.026
 4770SOL    HW115209   0.252   1.593   4.123
 4770SOL    HW215210   0.201   1.630   3.972
 4771SOL     OW15211   1.795   6.984   4.129
 4771SOL    HW115212   1.873   6.975   4.191
 4771SOL    HW215213   1.793   6.907   4.065
 4772SOL     OW15214   3.254   5.681   2.499
 4772SOL    HW115215   3.173   5.663   2.444
 4772SOL    HW215216   3.300   5.763   2.465
 4773SOL     OW15217   2.914   4.840   4.909
 4773SOL    HW115218   2.900   4.756   4.962
 4773SOL    HW215219   2.834   4.899   4.919
 4774SOL     OW15220   0.791   4.333   0.759
 4774SOL    HW115221   0.781   4.388   0.842
 4774SOL    HW215222   0.814   4.393   0.683
 4775SOL     OW15223   5.901   5.794   5.251
 4775SOL    HW115224   5.996   5.763   5.261
 4775SOL    HW215225   5.892   5.846   5.166
 4776SOL     OW15226   0.458   1.171   5.556
 4776SOL    HW115227   0.384   1.123   5.603
 4776SOL    HW215228   0.515   1.219   5.624
 4777SOL     OW15229   1.988   6.995   2.851
 4777SOL    HW115230   1.987   7.001   2.951
 4777SOL    HW215231   1.939   0.048   2.813
 4778SOL     OW15232   1.796   1.403   0.462
 4778SOL    HW115233   1.774   1.320   0.513
 4778SOL    HW215234   1.843   1.378   0.377
 4779SOL     OW15235   4.928   0.659   4.544
 4779SOL    HW115236   4.900   0.733   4.483
 4779SOL    HW215237   4.985   0.696   4.618
 4780SOL     OW15238   4.789   2.891   4.676
 4780SOL    HW115239   4.841   2.912   4.759
 4780SOL    HW215240   4.813   2.799   4.645
 4781SOL     OW15241   1.521   5.305   1.620
 4781SOL    HW115242   1.475   5.374   1.677
 4781SOL    HW215243   1.551   5.229   1.677
 4782SOL     OW15244   6.634   6.695   4.187
 4782SOL    HW115245   6.540   6.730   4.183
 4782SOL    HW215246   6.635   6.599   4.158
 4783SOL     OW15247   0.282   3.981   6.062
 4783SOL    HW115248   0.296   3.964   6.160
 4783SOL    HW215249   0.349   4.049   6.031
 4784SOL     OW15250   5.076   3.425   0.001
 4784SOL    HW115251   5.118   3.415   6.937
 4784SOL    HW215252   5.081   3.520   0.030
 4785SOL     OW15253   0.690   0.293   4.075
 4785SOL    HW115254   0.666   0.289   3.978
 4785SOL    HW215255   0.707   0.388   4.101
 4786SOL     OW15256   0.571   5.715   0.053
 4786SOL    HW115257   0.651   5.774   0.064
 4786SOL    HW215258   0.526   5.703   0.142
 4787SOL     OW15259   4.655   1.106   4.766
 4787SOL    HW115260   4.558   1.121   4.751
 4787SOL    HW215261   4.669   1.060   4.854
 4788SOL     OW15262   0.189   5.874   0.878
 4788SOL    HW115263   0.191   5.799   0.812
 4788SOL    HW215264   0.199   5.961   0.829
 4789SOL     OW15265   6.440   0.969   2.762
 4789SOL    HW115266   6.352   1.008   2.788
 4789SOL    HW215267   6.504   0.977   2.839
 4790SOL     OW15268   6.768   1.864   4.767
 4790SOL    HW115269   6.696   1.834   4.830
 4790SOL    HW215270   6.727   1.904   4.685
 4791SOL     OW15271   0.745   0.177   0.243
 4791SOL    HW115272   0.705   0.212   0.328
 4791SOL    HW215273   0.825   0.231   0.219
 4792SOL     OW15274   1.804   3.297   2.328
 4792SOL    HW115275   1.900   3.303   2.304
 4792SOL    HW215276   1.791   3.329   2.422
 4793SOL     OW15277   1.326   3.854   5.942
 4793SOL    HW115278   1.354   3.795   5.866
 4793SOL    HW215279   1.407   3.880   5.995
 4794SOL     OW15280   4.781   1.841   4.735
 4794SOL    HW115281   4.835   1.761   4.709
 4794SOL    HW215282   4.693   1.838   4.689
 4795SOL     OW15283   0.255   1.016   6.234
 4795SOL    HW115284   0.315   1.080   6.186
 4795SOL    HW215285   0.255   0.928   6.186
 4796SOL     OW15286   4.359   1.544   5.423
 4796SOL    HW115287   4.282   1.509   5.369
 4796SOL    HW215288   4.445   1.512   5.383
 4797SOL     OW15289   2.113   4.992   6.515
 4797SOL    HW115290   2.135   4.916   6.576
 4797SOL    HW215291   2.017   5.015   6.523
 4798SOL     OW15292   4.001   5.671   0.351
 4798SOL    HW115293   3.998   5.716   0.263
 4798SOL    HW215294   4.033   5.577   0.339
 4799SOL     OW15295   4.246   2.791   0.223
 4799SOL    HW115296   4.276   2.761   0.133
 4799SOL    HW215297   4.277   2.725   0.292
 4800SOL     OW15298   0.179   4.351   6.907
 4800SOL    HW115299   0.224   4.278   6.959
 4800SOL    HW215300   0.082   4.329   6.898
 4801SOL     OW15301   5.743   2.307   2.589
 4801SOL    HW115302   5.681   2.365   2.642
 4801SOL    HW215303   5.785   2.239   2.649
 4802SOL     OW15304   6.479   0.030   4.480
 4802SOL    HW115305   6.537   6.978   4.462
 4802SOL    HW215306   6.535   0.106   4.514
 4803SOL     OW15307   5.254   3.930   5.309
 4803SOL    HW115308   5.266   3.967   5.402
 4803SOL    HW215309   5.187   3.986   5.260
 4804SOL     OW15310   5.188   1.980   0.760
 4804SOL    HW115311   5.102   2.024   0.731
 4804SOL    HW215312   5.226   2.031   0.837
 4805SOL     OW15313   5.648   1.516   0.016
 4805SOL    HW115314   5.558   1.529   7.002
 4805SOL    HW215315   5.719   1.550   6.981
 4806SOL     OW15316   1.406   1.527   3.369
 4806SOL    HW115317   1.407   1.429   3.347
 4806SOL    HW215318   1.392   1.539   3.467
 4807SOL     OW15319   0.081   4.427   6.251
 4807SOL    HW115320   0.054   4.331   6.262
 4807SOL    HW215321   0.072   4.454   6.156
 4808SOL     OW15322   3.503   5.853   1.821
 4808SOL    HW115323   3.411   5.856   1.860
 4808SOL    HW215324   3.504   5.789   1.744
 4809SOL     OW15325   3.242   3.848   1.645
 4809SOL    HW115326   3.329   3.815   1.608
 4809SOL    HW215327   3.253   3.941   1.679
 4810SOL     OW15328   1.912   5.712   4.187
 4810SOL    HW115329   2.005   5.749   4.181
 4810SOL    HW215330   1.856   5.772   4.243
 4811SOL     OW15331   3.419   3.508   4.338
 4811SOL    HW115332   3.413   3.580   4.269
 4811SOL    HW215333   3.357   3.528   4.413
 4812SOL     OW15334   1.572   6.602   3.242
 4812SOL    HW115335   1.647   6.610   3.177
 4812SOL    HW215336   1.601   6.637   3.332
 4813SOL     OW15337   0.769   1.887   5.237
 4813SOL    HW115338   0.687   1.910   5.289
 4813SOL    HW215339   0.751   1.809   5.177
 4814SOL     OW15340   6.415   3.930   1.213
 4814SOL    HW115341   6.407   4.020   1.256
 4814SOL    HW215342   6.365   3.862   1.267
 4815SOL     OW15343   6.153   4.648   2.575
 4815SOL    HW115344   6.063   4.605   2.586
 4815SOL    HW215345   6.159   4.693   2.487
 4816SOL     OW15346   3.283   0.693   2.675
 4816SOL    HW115347   3.279   0.766   2.606
 4816SOL    HW215348   3.306   0.733   2.764
 4817SOL     OW15349   3.923   1.852   1.236
 4817SOL    HW115350   3.941   1.934   1.290
 4817SOL    HW215351   3.935   1.771   1.293
 4818SOL     OW15352   3.837   0.100   4.778
 4818SOL    HW115353   3.849   0.016   4.831
 4818SOL    HW215354   3.913   0.162   4.796
 4819SOL     OW15355   3.005   0.854   0.195
 4819SOL    HW115356   2.965   0.902   0.273
 4819SOL    HW215357   3.105   0.859   0.202
 4820SOL     OW15358   5.938   4.386   1.746
 4820SOL    HW115359   5.855   4.442   1.745
 4820SOL    HW215360   6.014   4.437   1.785
 4821SOL     OW15361   0.373   5.928   1.924
 4821SOL    HW115362   0.370   6.028   1.933
 4821SOL    HW215363   0.349   5.903   1.830
 4822SOL     OW15364   0.875   3.992   1.722
 4822SOL    HW115365   0.790   3.951   1.688
 4822SOL    HW215366   0.953   3.946   1.680
 4823SOL     OW15367   1.143   1.136   3.284
 4823SOL    HW115368   1.103   1.046   3.297
 4823SOL    HW215369   1.094   1.203   3.340
 4824SOL     OW15370   5.558   2.645   1.945
 4824SOL    HW115371   5.575   2.624   1.849
 4824SOL    HW215372   5.644   2.668   1.990
 4825SOL     OW15373   0.069   3.116   3.985
 4825SOL    HW115374   0.133   3.192   3.969
 4825SOL    HW215375   7.014   3.151   4.030
 4826SOL     OW15376   6.978   6.655   6.847
 4826SOL    HW115377   6.928   6.696   6.771
 4826SOL    HW215378   6.944   6.693   6.933
 4827SOL     OW15379   5.058   1.384   0.508
 4827SOL    HW115380   5.079   1.480   0.526
 4827SOL    HW215381   4.971   1.377   0.459
 4828SOL     OW15382   5.203   3.158   6.832
 4828SOL    HW115383   5.244   3.249   6.834
 4828SOL    HW215384   5.251   3.102   6.764
 4829SOL     OW15385   3.977   0.421   5.142
 4829SOL    HW115386   3.895   0.398   5.195
 4829SOL    HW215387   4.038   0.478   5.198
 4830SOL     OW15388   4.655   6.080   5.208
 4830SOL    HW115389   4.560   6.103   5.231
 4830SOL    HW215390   4.658   6.033   5.120
 4831SOL     OW15391   5.856   3.329   6.295
 4831SOL    HW115392   5.787   3.262   6.266
 4831SOL    HW215393   5.947   3.295   6.272
 4832SOL     OW15394   1.800   2.712   6.496
 4832SOL    HW115395   1.705   2.730   6.472
 4832SOL    HW215396   1.852   2.689   6.413
 4833SOL     OW15397   6.402   1.737   3.408
 4833SOL    HW115398   6.431   1.662   3.468
 4833SOL    HW215399   6.461   1.816   3.422
 4834SOL     OW15400   5.671   0.787   3.177
 4834SOL    HW115401   5.578   0.753   3.193
 4834SOL    HW215402   5.737   0.726   3.220
 4835SOL     OW15403   1.438   1.148   6.060
 4835SOL    HW115404   1.479   1.229   6.019
 4835SOL    HW215405   1.382   1.100   5.992
 4836SOL     OW15406   5.692   2.962   1.854
 4836SOL    HW115407   5.629   2.953   1.777
 4836SOL    HW215408   5.718   3.057   1.865
 4837SOL     OW15409   0.046   3.791   1.051
 4837SOL    HW115410   0.036   3.796   1.151
 4837SOL    HW215411   7.000   3.733   1.013
 4838SOL     OW15412   2.680   5.223   2.311
 4838SOL    HW115413   2.653   5.135   2.271
 4838SOL    HW215414   2.778   5.236   2.298
 4839SOL     OW15415   0.682   6.758   6.783
 4839SOL    HW115416   0.731   6.743   6.697
 4839SOL    HW215417   0.698   6.851   6.815
 4840SOL     OW15418   6.145   6.738   6.576
 4840SOL    HW115419   6.185   6.825   6.548
 4840SOL    HW215420   6.103   6.694   6.497
 4841SOL     OW15421   2.539   5.996   2.141
 4841SOL    HW115422   2.619   6.010   2.083
 4841SOL    HW215423   2.457   6.027   2.093
 4842SOL     OW15424   3.668   6.515   1.684
 4842SOL    HW115425   3.694   6.556   1.597
 4842SOL    HW215426   3.692   6.576   1.759
 4843SOL     OW15427   0.956   2.787   6.406
 4843SOL    HW115428   0.939   2.717   6.337
 4843SOL    HW215429   0.888   2.859   6.397
 4844SOL     OW15430   0.840   1.610   5.402
 4844SOL    HW115431   0.890   1.695   5.415
 4844SOL    HW215432   0.788   1.613   5.317
 4845SOL     OW15433   5.639   5.169   3.715
 4845SOL    HW115434   5.708   5.227   3.758
 4845SOL    HW215435   5.570   5.144   3.783
 4846SOL     OW15436   0.353   5.231   6.912
 4846SOL    HW115437   0.321   5.240   6.817
 4846SOL    HW215438   0.280   5.189   6.967
 4847SOL     OW15439   4.905   2.643   4.568
 4847SOL    HW115440   4.846   2.565   4.545
 4847SOL    HW215441   4.945   2.680   4.484
 4848SOL     OW15442   2.211   2.158   1.985
 4848SOL    HW115443   2.267   2.110   2.053
 4848SOL    HW215444   2.135   2.099   1.958
 4849SOL     OW15445   0.995   6.469   6.128
 4849SOL    HW115446   1.001   6.499   6.223
 4849SOL    HW215447   0.974   6.547   6.069
 4850SOL     OW15448   4.263   0.587   3.710
 4850SOL    HW115449   4.286   0.642   3.630
 4850SOL    HW215450   4.346   0.559   3.757
 4851SOL     OW15451   5.310   1.056   5.112
 4851SOL    HW115452   5.405   1.079   5.134
 4851SOL    HW215453   5.308   0.981   5.046
 4852SOL     OW15454   1.740   1.931   1.797
 4852SOL    HW115455   1.685   2.015   1.788
 4852SOL    HW215456   1.716   1.885   1.883
 4853SOL     OW15457   3.446   1.919   1.412
 4853SOL    HW115458   3.367   1.859   1.426
 4853SOL    HW215459   3.521   1.867   1.371
 4854SOL     OW15460   3.775   0.040   0.077
 4854SOL    HW115461   3.868   0.039   0.113
 4854SOL    HW215462   3.710   0.034   0.153
 4855SOL     OW15463   6.820   2.807   2.417
 4855SOL    HW115464   6.786   2.712   2.418
 4855SOL    HW215465   6.918   2.807   2.438
 4856SOL     OW15466   1.865   3.880   3.494
 4856SOL    HW115467   1.926   3.944   3.539
 4856SOL    HW215468   1.772   3.916   3.494
 4857SOL     OW15469   0.756   1.108   6.096
 4857SOL    HW115470   0.751   1.183   6.030
 4857SOL    HW215471   0.690   1.123   6.169
 4858SOL     OW15472   1.392   0.725   3.921
 4858SOL    HW115473   1.380   0.720   4.020
 4858SOL    HW215474   1.454   0.653   3.891
 4859SOL     OW15475   3.392   5.618   5.910
 4859SOL    HW115476   3.385   5.519   5.908
 4859SOL    HW215477   3.485   5.646   5.885
 4860SOL     OW15478   4.387   3.966   0.708
 4860SOL    HW115479   4.304   3.940   0.757
 4860SOL    HW215480   4.366   3.985   0.613
 4861SOL     OW15481   5.163   3.584   5.899
 4861SOL    HW115482   5.113   3.507   5.860
 4861SOL    HW215483   5.165   3.659   5.833
 4862SOL     OW15484   1.015   6.383   0.823
 4862SOL    HW115485   0.967   6.295   0.825
 4862SOL    HW215486   1.009   6.422   0.731
 4863SOL     OW15487   5.056   3.929   6.401
 4863SOL    HW115488   4.982   3.898   6.342
 4863SOL    HW215489   5.138   3.875   6.382
 4864SOL     OW15490   3.106   0.922   4.091
 4864SOL    HW115491   3.167   0.872   4.153
 4864SOL    HW215492   3.059   0.994   4.142
 4865SOL     OW15493   2.010   6.367   5.240
 4865SOL    HW115494   1.941   6.412   5.297
 4865SOL    HW215495   2.041   6.429   5.169
 4866SOL     OW15496   6.557   4.054   6.673
 4866SOL    HW115497   6.548   3.958   6.648
 4866SOL    HW215498   6.513   4.111   6.603
 4867SOL     OW15499   4.736   0.645   2.839
 4867SOL    HW115500   4.781   0.621   2.926
 4867SOL    HW215501   4.803   0.639   2.765
 4868SOL     OW15502   0.080   4.571   0.751
 4868SOL    HW115503   0.077   4.547   0.654
 4868SOL    HW215504   7.023   4.620   0.776
 4869SOL     OW15505   0.546   1.031   0.900
 4869SOL    HW115506   0.485   1.111   0.902
 4869SOL    HW215507   0.637   1.058   0.932
 4870SOL     OW15508   0.484   6.823   2.087
 4870SOL    HW115509   0.415   6.835   2.016
 4870SOL    HW215510   0.499   6.909   2.135
 4871SOL     OW15511   1.641   1.443   3.695
 4871SOL    HW115512   1.619   1.517   3.758
 4871SOL    HW215513   1.563   1.381   3.687
 4872SOL     OW15514   5.960   6.108   2.939
 4872SOL    HW115515   5.999   6.164   3.013
 4872SOL    HW215516   5.917   6.168   2.872
 4873SOL     OW15517   6.313   5.271   4.717
 4873SOL    HW115518   6.361   5.358   4.730
 4873SOL    HW215519   6.379   5.196   4.722
 4874SOL     OW15520   4.983   3.105   3.043
 4874SOL    HW115521   4.982   3.132   3.139
 4874SOL    HW215522   5.052   3.034   3.028
 4875SOL     OW15523   5.560   6.270   5.206
 4875SOL    HW115524   5.571   6.283   5.304
 4875SOL    HW215525   5.485   6.207   5.188
 4876SOL     OW15526   0.804   0.835   1.942
 4876SOL    HW115527   0.793   0.794   2.032
 4876SOL    HW215528   0.876   0.787   1.891
 4877SOL     OW15529   6.938   1.581   5.988
 4877SOL    HW115530   7.002   1.601   6.063
 4877SOL    HW215531   6.938   1.658   5.924
 4878SOL     OW15532   0.190   3.366   2.162
 4878SOL    HW115533   0.261   3.352   2.231
 4878SOL    HW215534   0.112   3.308   2.183
 4879SOL     OW15535   6.045   0.830   2.858
 4879SOL    HW115536   6.098   0.782   2.788
 4879SOL    HW215537   5.956   0.785   2.869
 4880SOL     OW15538   6.432   2.927   6.822
 4880SOL    HW115539   6.380   3.002   6.782
 4880SOL    HW215540   6.437   2.852   6.756
 4881SOL     OW15541   1.705   2.914   1.685
 4881SOL    HW115542   1.713   2.814   1.686
 4881SOL    HW215543   1.768   2.953   1.753
 4882SOL     OW15544   4.551   2.508   4.401
 4882SOL    HW115545   4.635   2.455   4.388
 4882SOL    HW215546   4.494   2.462   4.469
 4883SOL     OW15547   6.239   4.574   0.516
 4883SOL    HW115548   6.279   4.507   0.453
 4883SOL    HW215549   6.258   4.667   0.482
 4884SOL     OW15550   1.582   0.692   1.634
 4884SOL    HW115551   1.602   0.610   1.581
 4884SOL    HW215552   1.547   0.667   1.724
 4885SOL     OW15553   1.207   4.107   0.481
 4885SOL    HW115554   1.247   4.020   0.450
 4885SOL    HW215555   1.197   4.168   0.403
 4886SOL     OW15556   2.533   1.110   2.167
 4886SOL    HW115557   2.508   1.205   2.188
 4886SOL    HW215558   2.457   1.050   2.193
 4887SOL     OW15559   5.712   6.604   0.116
 4887SOL    HW115560   5.635   6.647   0.163
 4887SOL    HW215561   5.775   6.566   0.184
 4888SOL     OW15562   4.191   0.576   2.783
 4888SOL    HW115563   4.207   0.547   2.688
 4888SOL    HW215564   4.168   0.496   2.839
 4889SOL     OW15565   6.855   3.258   4.073
 4889SOL    HW115566   6.864   3.353   4.103
 4889SOL    HW215567   6.761   3.227   4.085
 4890SOL     OW15568   6.807   1.292   4.557
 4890SOL    HW115569   6.728   1.348   4.532
 4890SOL    HW215570   6.889   1.328   4.512
 4891SOL     OW15571   3.007   5.184   6.332
 4891SOL    HW115572   2.929   5.180   6.394
 4891SOL    HW215573   3.079   5.123   6.366
 4892SOL     OW15574   5.092   5.273   2.272
 4892SOL    HW115575   5.033   5.352   2.285
 4892SOL    HW215576   5.042   5.202   2.223
 4893SOL     OW15577   1.107   3.249   1.033
 4893SOL    HW115578   1.040   3.312   0.994
 4893SOL    HW215579   1.199   3.276   1.006
 4894SOL     OW15580   5.366   6.680   1.759
 4894SOL    HW115581   5.465   6.664   1.765
 4894SOL    HW215582   5.341   6.752   1.824
 4895SOL     OW15583   6.848   4.635   5.054
 4895SOL    HW115584   6.918   4.704   5.065
 4895SOL    HW215585   6.886   4.556   5.006
 4896SOL     OW15586   2.437   4.836   4.743
 4896SOL    HW115587   2.449   4.738   4.758
 4896SOL    HW215588   2.526   4.879   4.727
 4897SOL     OW15589   1.682   0.204   4.989
 4897SOL    HW115590   1.707   0.260   5.068
 4897SOL    HW215591   1.588   0.171   5.000
 4898SOL     OW15592   5.142   1.707   3.463
 4898SOL    HW115593   5.097   1.697   3.375
 4898SOL    HW215594   5.138   1.802   3.493
 4899SOL     OW15595   6.306   6.795   1.243
 4899SOL    HW115596   6.281   6.833   1.332
 4899SOL    HW215597   6.228   6.747   1.203
 4900SOL     OW15598   3.726   6.265   5.743
 4900SOL    HW115599   3.806   6.225   5.698
 4900SOL    HW215600   3.668   6.192   5.778
 4901SOL     OW15601   0.724   0.521   6.719
 4901SOL    HW115602   0.811   0.476   6.739
 4901SOL    HW215603   0.679   0.475   6.643
 4902SOL     OW15604   2.432   0.390   5.452
 4902SOL    HW115605   2.501   0.459   5.433
 4902SOL    HW215606   2.344   0.420   5.418
 4903SOL     OW15607   4.927   3.706   3.113
 4903SOL    HW115608   4.976   3.679   3.030
 4903SOL    HW215609   4.985   3.767   3.167
 4904SOL     OW15610   1.682   0.067   0.775
 4904SOL    HW115611   1.693   0.017   0.689
 4904SOL    HW215612   1.588   0.097   0.784
 4905SOL     OW15613   2.751   6.859   3.365
 4905SOL    HW115614   2.676   6.794   3.348
 4905SOL    HW215615   2.768   6.865   3.463
 4906SOL     OW15616   4.887   3.751   4.839
 4906SOL    HW115617   4.892   3.673   4.776
 4906SOL    HW215618   4.840   3.722   4.923
 4907SOL     OW15619   4.234   2.040   0.112
 4907SOL    HW115620   4.279   1.990   0.037
 4907SOL    HW215621   4.260   1.998   0.199
 4908SOL     OW15622   3.612   0.046   0.280
 4908SOL    HW115623   3.619   0.109   0.357
 4908SOL    HW215624   3.516   0.023   0.264
 4909SOL     OW15625   5.326   4.829   4.777
 4909SOL    HW115626   5.332   4.867   4.869
 4909SOL    HW215627   5.377   4.743   4.773
 4910SOL     OW15628   4.715   2.318   6.049
 4910SOL    HW115629   4.624   2.311   6.009
 4910SOL    HW215630   4.750   2.411   6.039
 4911SOL     OW15631   6.473   3.588   2.699
 4911SOL    HW115632   6.540   3.587   2.773
 4911SOL    HW215633   6.506   3.647   2.625
 4912SOL     OW15634   5.622   2.354   3.985
 4912SOL    HW115635   5.552   2.413   4.026
 4912SOL    HW215636   5.591   2.325   3.894
 4913SOL     OW15637   0.753   4.160   5.339
 4913SOL    HW115638   0.756   4.186   5.243
 4913SOL    HW215639   0.842   4.124   5.367
 4914SOL     OW15640   4.165   0.733   3.925
 4914SOL    HW115641   4.202   0.703   4.013
 4914SOL    HW215642   4.201   0.676   3.852
 4915SOL     OW15643   3.717   5.445   5.622
 4915SOL    HW115644   3.722   5.423   5.525
 4915SOL    HW215645   3.808   5.438   5.663
 4916SOL     OW15646   5.716   2.061   4.046
 4916SOL    HW115647   5.721   2.151   4.090
 4916SOL    HW215648   5.621   2.035   4.035
 4917SOL     OW15649   4.115   6.643   6.906
 4917SOL    HW115650   4.029   6.683   6.876
 4917SOL    HW215651   4.112   6.544   6.891
 4918SOL     OW15652   5.590   4.889   3.640
 4918SOL    HW115653   5.638   4.899   3.553
 4918SOL    HW215654   5.630   4.950   3.708
 4919SOL     OW15655   3.335   3.704   1.940
 4919SOL    HW115656   3.417   3.711   1.883
 4919SOL    HW215657   3.359   3.718   2.036
 4920SOL     OW15658   5.854   1.809   6.098
 4920SOL    HW115659   5.868   1.723   6.147
 4920SOL    HW215660   5.812   1.876   6.160
 4921SOL     OW15661   7.013   0.140   2.069
 4921SOL    HW115662   7.026   0.187   1.981
 4921SOL    HW215663   0.054   0.068   2.078
 4922SOL     OW15664   3.182   1.472   6.052
 4922SOL    HW115665   3.181   1.388   5.999
 4922SOL    HW215666   3.132   1.543   6.002
 4923SOL     OW15667   3.591   1.068   1.921
 4923SOL    HW115668   3.493   1.083   1.909
 4923SOL    HW215669   3.609   0.970   1.922
 4924SOL     OW15670   2.504   0.661   5.312
 4924SOL    HW115671   2.548   0.677   5.224
 4924SOL    HW215672   2.545   0.720   5.381
 4925SOL     OW15673   5.723   5.765   3.707
 4925SOL    HW115674   5.700   5.671   3.729
 4925SOL    HW215675   5.800   5.795   3.765
 4926SOL     OW15676   5.058   2.648   0.934
 4926SOL    HW115677   5.042   2.552   0.958
 4926SOL    HW215678   5.052   2.705   1.016
 4927SOL     OW15679   2.795   1.297   6.960
 4927SOL    HW115680   2.754   1.376   6.914
 4927SOL    HW215681   2.733   1.219   6.953
 4928SOL     OW15682   6.449   2.193   0.887
 4928SOL    HW115683   6.524   2.248   0.923
 4928SOL    HW215684   6.364   2.244   0.892
 4929SOL     OW15685   0.985   6.314   4.885
 4929SOL    HW115686   0.976   6.333   4.982
 4929SOL    HW215687   0.895   6.291   4.847
 4930SOL     OW15688   5.260   5.988   2.594
 4930SOL    HW115689   5.331   6.051   2.562
 4930SOL    HW215690   5.292   5.939   2.675
 4931SOL     OW15691   6.980   6.411   0.606
 4931SOL    HW115692   6.919   6.349   0.558
 4931SOL    HW215693   6.942   6.504   0.602
 4932SOL     OW15694   3.834   3.371   2.572
 4932SOL    HW115695   3.772   3.307   2.526
 4932SOL    HW215696   3.913   3.389   2.513
 4933SOL     OW15697   1.577   0.442   5.961
 4933SOL    HW115698   1.632   0.416   5.882
 4933SOL    HW215699   1.490   0.481   5.931
 4934SOL     OW15700   4.194   6.328   2.407
 4934SOL    HW115701   4.210   6.238   2.448
 4934SOL    HW215702   4.227   6.327   2.312
 4935SOL     OW15703   0.206   0.866   5.420
 4935SOL    HW115704   0.186   0.819   5.506
 4935SOL    HW215705   0.209   0.798   5.346
 4936SOL     OW15706   4.248   2.454   1.204
 4936SOL    HW115707   4.209   2.438   1.295
 4936SOL    HW215708   4.348   2.459   1.211
 4937SOL     OW15709   4.591   2.826   5.251
 4937SOL    HW115710   4.500   2.785   5.260
 4937SOL    HW215711   4.613   2.837   5.154
 4938SOL     OW15712   3.891   4.676   6.685
 4938SOL    HW115713   3.928   4.760   6.646
 4938SOL    HW215714   3.793   4.687   6.701
 4939SOL     OW15715   4.635   3.427   5.885
 4939SOL    HW115716   4.568   3.452   5.955
 4939SOL    HW215717   4.689   3.507   5.860
 4940SOL     OW15718   2.394   6.251   3.838
 4940SOL    HW115719   2.360   6.335   3.796
 4940SOL    HW215720   2.464   6.273   3.905
 4941SOL     OW15721   5.661   0.386   1.079
 4941SOL    HW115722   5.583   0.369   1.138
 4941SOL    HW215723   5.645   0.468   1.024
 4942SOL     OW15724   4.690   2.725   6.136
 4942SOL    HW115725   4.652   2.660   6.202
 4942SOL    HW215726   4.787   2.737   6.153
 4943SOL     OW15727   5.298   2.482   1.277
 4943SOL    HW115728   5.369   2.497   1.345
 4943SOL    HW215729   5.314   2.540   1.198
 4944SOL     OW15730   2.228   4.192   2.407
 4944SOL    HW115731   2.213   4.108   2.355
 4944SOL    HW215732   2.170   4.265   2.370
 4945SOL     OW15733   6.885   6.603   4.631
 4945SOL    HW115734   6.895   6.629   4.534
 4945SOL    HW215735   6.806   6.542   4.641
 4946SOL     OW15736   0.438   4.193   2.108
 4946SOL    HW115737   0.466   4.129   2.036
 4946SOL    HW215738   0.394   4.273   2.066
 4947SOL     OW15739   6.302   0.100   1.450
 4947SOL    HW115740   6.329   0.022   1.506
 4947SOL    HW215741   6.230   0.152   1.496
 4948SOL     OW15742   2.356   1.316   1.929
 4948SOL    HW115743   2.385   1.390   1.868
 4948SOL    HW215744   2.369   1.344   2.024
 4949SOL     OW15745   5.341   2.165   4.890
 4949SOL    HW115746   5.433   2.170   4.928
 4949SOL    HW215747   5.288   2.245   4.920
 4950SOL     OW15748   3.422   5.005   5.212
 4950SOL    HW115749   3.351   4.939   5.190
 4950SOL    HW215750   3.504   4.957   5.244
 4951SOL     OW15751   4.467   2.233   4.082
 4951SOL    HW115752   4.530   2.300   4.121
 4951SOL    HW215753   4.382   2.279   4.055
 4952SOL     OW15754   7.008   4.867   4.961
 4952SOL    HW115755   0.078   4.879   4.986
 4952SOL    HW215756   6.951   4.926   5.017
 4953SOL     OW15757   1.626   5.291   2.087
 4953SOL    HW115758   1.532   5.320   2.068
 4953SOL    HW215759   1.639   5.284   2.186
 4954SOL     OW15760   6.910   6.390   6.832
 4954SOL    HW115761   6.860   6.381   6.918
 4954SOL    HW215762   6.932   6.486   6.816
 4955SOL     OW15763   1.037   0.838   0.824
 4955SOL    HW115764   1.037   0.908   0.752
 4955SOL    HW215765   0.990   0.872   0.905
 4956SOL     OW15766   6.096   6.893   4.294
 4956SOL    HW115767   6.098   6.930   4.387
 4956SOL    HW215768   6.033   6.947   4.238
 4957SOL     OW15769   2.145   6.260   3.600
 4957SOL    HW115770   2.140   6.279   3.698
 4957SOL    HW215771   2.135   6.162   3.584
 4958SOL     OW15772   0.302   6.621   6.458
 4958SOL    HW115773   0.248   6.681   6.516
 4958SOL    HW215774   0.313   6.532   6.503
 4959SOL     OW15775   0.335   1.404   6.966
 4959SOL    HW115776   0.263   1.378   0.004
 4959SOL    HW215777   0.370   1.495   6.990
 4960SOL     OW15778   3.793   6.745   5.178
 4960SOL    HW115779   3.889   6.746   5.205
 4960SOL    HW215780   3.748   6.666   5.220
 4961SOL     OW15781   4.409   0.690   6.032
 4961SOL    HW115782   4.431   0.617   6.096
 4961SOL    HW215783   4.460   0.772   6.056
 4962SOL     OW15784   6.411   2.364   2.213
 4962SOL    HW115785   6.394   2.438   2.278
 4962SOL    HW215786   6.336   2.360   2.148
 4963SOL     OW15787   6.903   4.720   0.872
 4963SOL    HW115788   6.908   4.638   0.929
 4963SOL    HW215789   6.875   4.798   0.928
 4964SOL     OW15790   3.903   6.538   2.790
 4964SOL    HW115791   3.951   6.522   2.876
 4964SOL    HW215792   3.826   6.599   2.805
 4965SOL     OW15793   0.125   6.466   4.541
 4965SOL    HW115794   0.045   6.526   4.547
 4965SOL    HW215795   0.191   6.490   4.613
 4966SOL     OW15796   4.147   5.631   5.079
 4966SOL    HW115797   4.216   5.644   5.007
 4966SOL    HW215798   4.169   5.549   5.132
 4967SOL     OW15799   5.146   2.116   6.535
 4967SOL    HW115800   5.052   2.144   6.514
 4967SOL    HW215801   5.154   2.097   6.633
 4968SOL     OW15802   5.762   4.191   6.484
 4968SOL    HW115803   5.750   4.287   6.509
 4968SOL    HW215804   5.787   4.138   6.565
 4969SOL     OW15805   0.470   2.030   1.092
 4969SOL    HW115806   0.465   2.006   0.995
 4969SOL    HW215807   0.378   2.047   1.126
 4970SOL     OW15808   1.210   2.809   6.043
 4970SOL    HW115809   1.291   2.781   6.094
 4970SOL    HW215810   1.203   2.909   6.041
 4971SOL     OW15811   0.234   5.538   3.860
 4971SOL    HW115812   0.283   5.562   3.944
 4971SOL    HW215813   0.135   5.549   3.875
 4972SOL     OW15814   1.626   2.094   5.452
 4972SOL    HW115815   1.650   2.183   5.492
 4972SOL    HW215816   1.536   2.100   5.410
 4973SOL     OW15817   5.779   5.890   2.969
 4973SOL    HW115818   5.689   5.928   2.951
 4973SOL    HW215819   5.849   5.949   2.928
 4974SOL     OW15820   4.445   6.456   0.570
 4974SOL    HW115821   4.375   6.524   0.588
 4974SOL    HW215822   4.536   6.496   0.587
 4975SOL     OW15823   4.364   5.878   0.080
 4975SOL    HW115824   4.418   5.902   0.000
 4975SOL    HW215825   4.418   5.820   0.142
 4976SOL     OW15826   2.999   1.040   4.304
 4976SOL    HW115827   2.965   0.965   4.360
 4976SOL    HW215828   3.060   1.098   4.358
 4977SOL     OW15829   3.341   3.041   0.003
 4977SOL    HW115830   3.280   2.990   0.063
 4977SOL    HW215831   3.425   3.064   0.053
 4978SOL     OW15832   6.235   4.012   6.697
 4978SOL    HW115833   6.311   4.072   6.724
 4978SOL    HW215834   6.217   4.025   6.600
 4979SOL     OW15835   1.493   3.006   3.775
 4979SOL    HW115836   1.394   3.008   3.763
 4979SOL    HW215837   1.529   3.099   3.776
 4980SOL     OW15838   2.901   5.326   3.493
 4980SOL    HW115839   2.958   5.262   3.442
 4980SOL    HW215840   2.958   5.382   3.552
 4981SOL     OW15841   4.780   6.690   5.662
 4981SOL    HW115842   4.814   6.661   5.751
 4981SOL    HW215843   4.736   6.612   5.617
 4982SOL     OW15844   2.581   2.333   0.134
 4982SOL    HW115845   2.656   2.270   0.154
 4982SOL    HW215846   2.561   2.388   0.215
 4983SOL     OW15847   6.442   3.038   4.664
 4983SOL    HW115848   6.357   3.002   4.626
 4983SOL    HW215849   6.434   3.043   4.764
 4984SOL     OW15850   4.682   4.250   2.911
 4984SOL    HW115851   4.661   4.313   2.985
 4984SOL    HW215852   4.692   4.158   2.947
 4985SOL     OW15853   5.388   4.345   2.145
 4985SOL    HW115854   5.444   4.337   2.063
 4985SOL    HW215855   5.396   4.438   2.182
 4986SOL     OW15856   4.524   4.755   3.193
 4986SOL    HW115857   4.424   4.754   3.191
 4986SOL    HW215858   4.556   4.848   3.212
 4987SOL     OW15859   0.474   4.106   1.176
 4987SOL    HW115860   0.376   4.087   1.173
 4987SOL    HW215861   0.495   4.181   1.113
 4988SOL     OW15862   1.422   2.208   4.874
 4988SOL    HW115863   1.359   2.272   4.917
 4988SOL    HW215864   1.498   2.259   4.832
 4989SOL     OW15865   6.820   0.770   0.477
 4989SOL    HW115866   6.851   0.721   0.558
 4989SOL    HW215867   6.783   0.706   0.410
 4990SOL     OW15868   0.942   2.348   6.085
 4990SOL    HW115869   0.957   2.271   6.023
 4990SOL    HW215870   0.967   2.321   6.178
 4991SOL     OW15871   2.445   2.296   4.763
 4991SOL    HW115872   2.375   2.367   4.767
 4991SOL    HW215873   2.420   2.221   4.825
 4992SOL     OW15874   4.251   0.719   4.205
 4992SOL    HW115875   4.268   0.623   4.226
 4992SOL    HW215876   4.272   0.775   4.285
 4993SOL     OW15877   2.106   6.344   3.866
 4993SOL    HW115878   2.014   6.384   3.860
 4993SOL    HW215879   2.129   6.328   3.962
 4994SOL     OW15880   0.516   0.051   2.752
 4994SOL    HW115881   0.453   0.093   2.816
 4994SOL    HW215882   0.608   0.049   2.791
 4995SOL     OW15883   6.451   3.120   5.749
 4995SOL    HW115884   6.368   3.175   5.738
 4995SOL    HW215885   6.470   3.071   5.664
 4996SOL     OW15886   0.538   1.549   3.937
 4996SOL    HW115887   0.465   1.538   4.004
 4996SOL    HW215888   0.500   1.585   3.852
 4997SOL     OW15889   0.178   1.996   4.118
 4997SOL    HW115890   0.081   1.973   4.107
 4997SOL    HW215891   0.193   2.031   4.210
 4998SOL     OW15892   0.907   5.601   5.292
 4998SOL    HW115893   0.976   5.668   5.322
 4998SOL    HW215894   0.946   5.509   5.296
 4999SOL     OW15895   6.179   5.193   1.069
 4999SOL    HW115896   6.165   5.102   1.108
 4999SOL    HW215897   6.246   5.189   0.995
 5000SOL     OW15898   6.974   5.584   3.915
 5000SOL    HW115899   6.967   5.680   3.939
 5000SOL    HW215900   6.903   5.560   3.849
 5001SOL     OW15901   4.559   4.448   5.327
 5001SOL    HW115902   4.591   4.385   5.257
 5001SOL    HW215903   4.626   4.452   5.401
 5002SOL     OW15904   1.954   2.483   1.788
 5002SOL    HW115905   1.888   2.428   1.840
 5002SOL    HW215906   1.978   2.565   1.841
 5003SOL     OW15907   6.850   4.900   3.977
 5003SOL    HW115908   6.948   4.888   3.963
 5003SOL    HW215909   6.817   4.974   3.918
 5004SOL     OW15910   3.008   4.403   6.296
 5004SOL    HW115911   3.048   4.495   6.297
 5004SOL    HW215912   2.916   4.407   6.256
 5005SOL     OW15913   4.624   1.963   0.033
 5005SOL    HW115914   4.569   2.046   0.043
 5005SOL    HW215915   4.601   1.898   0.106
 5006SOL     OW15916   5.856   4.534   2.577
 5006SOL    HW115917   5.772   4.482   2.567
 5006SOL    HW215918   5.855   4.612   2.514
 5007SOL     OW15919   3.861   1.778   5.100
 5007SOL    HW115920   3.811   1.865   5.098
 5007SOL    HW215921   3.957   1.794   5.080
 5008SOL     OW15922   6.210   0.594   3.875
 5008SOL    HW115923   6.134   0.646   3.915
 5008SOL    HW215924   6.248   0.644   3.798
 5009SOL     OW15925   1.937   5.758   2.146
 5009SOL    HW115926   1.910   5.767   2.051
 5009SOL    HW215927   1.856   5.757   2.205
 5010SOL     OW15928   3.320   3.198   5.012
 5010SOL    HW115929   3.342   3.212   5.109
 5010SOL    HW215930   3.403   3.204   4.958
 5011SOL     OW15931   1.265   2.521   3.347
 5011SOL    HW115932   1.240   2.429   3.317
 5011SOL    HW215933   1.342   2.515   3.411
 5012SOL     OW15934   6.135   2.839   6.920
 5012SOL    HW115935   6.177   2.812   7.006
 5012SOL    HW215936   6.077   2.920   6.934
 5013SOL     OW15937   4.972   2.265   5.409
 5013SOL    HW115938   4.919   2.187   5.374
 5013SOL    HW215939   5.069   2.250   5.389
 5014SOL     OW15940   6.261   6.246   6.087
 5014SOL    HW115941   6.301   6.307   6.019
 5014SOL    HW215942   6.328   6.175   6.110
 5015SOL     OW15943   5.437   1.940   3.719
 5015SOL    HW115944   5.497   1.880   3.666
 5015SOL    HW215945   5.462   1.935   3.816
 5016SOL     OW15946   2.323   6.743   2.308
 5016SOL    HW115947   2.292   6.656   2.270
 5016SOL    HW215948   2.402   6.727   2.368
 5017SOL     OW15949   1.839   1.980   2.073
 5017SOL    HW115950   1.752   1.933   2.059
 5017SOL    HW215951   1.829   2.048   2.146
 5018SOL     OW15952   0.146   5.147   3.838
 5018SOL    HW115953   0.061   5.186   3.801
 5018SOL    HW215954   0.126   5.061   3.885
 5019SOL     OW15955   2.797   5.403   5.624
 5019SOL    HW115956   2.797   5.304   5.636
 5019SOL    HW215957   2.738   5.445   5.693
 5020SOL     OW15958   4.223   5.469   6.742
 5020SOL    HW115959   4.153   5.404   6.772
 5020SOL    HW215960   4.262   5.514   6.823
 5021SOL     OW15961   2.499   4.493   5.742
 5021SOL    HW115962   2.460   4.503   5.833
 5021SOL    HW215963   2.511   4.583   5.700
 5022SOL     OW15964   2.110   4.106   1.217
 5022SOL    HW115965   2.064   4.073   1.134
 5022SOL    HW215966   2.134   4.028   1.275
 5023SOL     OW15967   6.495   2.919   3.940
 5023SOL    HW115968   6.460   2.828   3.964
 5023SOL    HW215969   6.492   2.930   3.840
 5024SOL     OW15970   5.320   3.580   5.535
 5024SOL    HW115971   5.266   3.558   5.454
 5024SOL    HW215972   5.336   3.497   5.588
 5025SOL     OW15973   6.603   1.366   3.261
 5025SOL    HW115974   6.572   1.354   3.355
 5025SOL    HW215975   6.672   1.297   3.239
 5026SOL     OW15976   0.858   6.006   2.893
 5026SOL    HW115977   0.873   6.068   2.970
 5026SOL    HW215978   0.854   5.912   2.927
 5027SOL     OW15979   0.669   6.064   3.756
 5027SOL    HW115980   0.579   6.103   3.736
 5027SOL    HW215981   0.729   6.076   3.677
 5028SOL     OW15982   0.707   0.200   3.231
 5028SOL    HW115983   0.656   0.286   3.233
 5028SOL    HW215984   0.792   0.213   3.181
 5029SOL     OW15985   6.838   1.190   3.303
 5029SOL    HW115986   6.859   1.271   3.359
 5029SOL    HW215987   6.923   1.153   3.265
 5030SOL     OW15988   2.497   5.732   0.236
 5030SOL    HW115989   2.420   5.793   0.257
 5030SOL    HW215990   2.495   5.654   0.298
 5031SOL     OW15991   5.397   1.187   6.354
 5031SOL    HW115992   5.364   1.281   6.348
 5031SOL    HW215993   5.320   1.124   6.356
 5032SOL     OW15994   1.530   6.016   2.136
 5032SOL    HW115995   1.470   5.949   2.092
 5032SOL    HW215996   1.530   6.001   2.235
 5033SOL     OW15997   0.064   3.986   5.277
 5033SOL    HW115998   0.136   3.923   5.306
 5033SOL    HW215999   0.027   4.033   5.357
 5034SOL     OW16000   0.041   3.765   6.174
 5034SOL    HW116001   0.135   3.801   6.180
 5034SOL    HW216002   0.027   3.724   6.084
 5035SOL     OW16003   5.996   4.435   1.430
 5035SOL    HW116004   6.011   4.530   1.457
 5035SOL    HW216005   5.979   4.380   1.512
 5036SOL     OW16006   1.706   0.031   1.945
 5036SOL    HW116007   1.730   7.023   1.854
 5036SOL    HW216008   1.734   6.991   2.015
 5037SOL     OW16009   4.763   2.807   2.977
 5037SOL    HW116010   4.794   2.830   3.069
 5037SOL    HW216011   4.804   2.871   2.911
 5038SOL     OW16012   3.276   5.666   5.109
 5038SOL    HW116013   3.216   5.654   5.188
 5038SOL    HW216014   3.241   5.740   5.051
 5039SOL     OW16015   1.592   2.473   2.962
 5039SOL    HW116016   1.497   2.457   2.935
 5039SOL    HW216017   1.616   2.414   3.039
 5040SOL     OW16018   3.082   3.665   5.817
 5040SOL    HW116019   3.114   3.758   5.836
 5040SOL    HW216020   3.048   3.624   5.902
 5041SOL     OW16021   0.681   5.428   0.590
 5041SOL    HW116022   0.769   5.383   0.607
 5041SOL    HW216023   0.609   5.359   0.588
 5042SOL     OW16024   5.933   1.648   5.780
 5042SOL    HW116025   5.893   1.599   5.857
 5042SOL    HW216026   5.910   1.601   5.695
 5043SOL     OW16027   4.784   0.133   3.741
 5043SOL    HW116028   4.818   0.217   3.699
 5043SOL    HW216029   4.832   0.118   3.827
 5044SOL     OW16030   5.693   4.533   2.126
 5044SOL    HW116031   5.687   4.614   2.185
 5044SOL    HW216032   5.659   4.556   2.035
 5045SOL     OW16033   5.658   3.311   5.280
 5045SOL    HW116034   5.704   3.394   5.311
 5045SOL    HW216035   5.588   3.334   5.213
 5046SOL     OW16036   3.756   3.355   5.638
 5046SOL    HW116037   3.741   3.291   5.714
 5046SOL    HW216038   3.854   3.360   5.618
 5047SOL     OW16039   0.899   1.506   2.300
 5047SOL    HW116040   0.880   1.441   2.374
 5047SOL    HW216041   0.817   1.515   2.243
 5048SOL     OW16042   5.984   3.718   1.419
 5048SOL    HW116043   5.896   3.762   1.397
 5048SOL    HW216044   5.970   3.620   1.431
 5049SOL     OW16045   0.917   2.249   1.541
 5049SOL    HW116046   0.866   2.212   1.463
 5049SOL    HW216047   0.854   2.268   1.617
 5050SOL     OW16048   1.170   3.416   0.756
 5050SOL    HW116049   1.113   3.428   0.837
 5050SOL    HW216050   1.139   3.337   0.704
 5051SOL     OW16051   1.959   3.193   6.950
 5051SOL    HW116052   1.945   3.241   0.010
 5051SOL    HW216053   2.056   3.194   6.926
 5052SOL     OW16054   5.648   3.396   0.513
 5052SOL    HW116055   5.636   3.460   0.589
 5052SOL    HW216056   5.687   3.311   0.548
 5053SOL     OW16057   2.221   4.351   1.206
 5053SOL    HW116058   2.245   4.382   1.298
 5053SOL    HW216059   2.178   4.261   1.211
 5054SOL     OW16060   4.102   6.301   5.261
 5054SOL    HW116061   4.062   6.214   5.289
 5054SOL    HW216062   4.110   6.303   5.161
 5055SOL     OW16063   1.567   1.662   3.830
 5055SOL    HW116064   1.536   1.714   3.910
 5055SOL    HW216065   1.580   1.723   3.753
 5056SOL     OW16066   2.824   2.328   5.131
 5056SOL    HW116067   2.767   2.253   5.099
 5056SOL    HW216068   2.920   2.306   5.115
 5057SOL     OW16069   0.355   4.024   2.716
 5057SOL    HW116070   0.416   4.097   2.683
 5057SOL    HW216071   0.260   4.056   2.712
 5058SOL     OW16072   3.613   2.602   0.360
 5058SOL    HW116073   3.605   2.686   0.414
 5058SOL    HW216074   3.548   2.534   0.394
 5059SOL     OW16075   4.460   1.934   2.970
 5059SOL    HW116076   4.447   1.997   2.893
 5059SOL    HW216077   4.385   1.868   2.972
 5060SOL     OW16078   0.337   3.406   5.676
 5060SOL    HW116079   0.308   3.492   5.718
 5060SOL    HW216080   0.278   3.332   5.707
 5061SOL     OW16081   4.460   2.337   5.943
 5061SOL    HW116082   4.445   2.435   5.958
 5061SOL    HW216083   4.373   2.288   5.953
 5062SOL     OW16084   5.278   1.063   3.399
 5062SOL    HW116085   5.330   1.058   3.485
 5062SOL    HW216086   5.183   1.085   3.419
 5063SOL     OW16087   1.316   1.104   1.526
 5063SOL    HW116088   1.290   1.180   1.466
 5063SOL    HW216089   1.309   1.133   1.622
 5064SOL     OW16090   5.588   4.857   0.860
 5064SOL    HW116091   5.558   4.898   0.946
 5064SOL    HW216092   5.593   4.927   0.789
 5065SOL     OW16093   2.395   1.363   2.191
 5065SOL    HW116094   2.418   1.431   2.260
 5065SOL    HW216095   2.318   1.307   2.223
 5066SOL     OW16096   2.035   5.207   2.716
 5066SOL    HW116097   1.974   5.156   2.777
 5066SOL    HW216098   2.042   5.159   2.628
 5067SOL     OW16099   5.979   2.644   1.405
 5067SOL    HW116100   6.012   2.731   1.368
 5067SOL    HW216101   5.886   2.655   1.440
 5068SOL     OW16102   2.012   5.726   0.569
 5068SOL    HW116103   2.064   5.707   0.652
 5068SOL    HW216104   1.919   5.690   0.580
 5069SOL     OW16105   4.249   5.254   5.454
 5069SOL    HW116106   4.188   5.210   5.520
 5069SOL    HW216107   4.344   5.246   5.486
 5070SOL     OW16108   6.060   3.514   5.204
 5070SOL    HW116109   6.135   3.571   5.239
 5070SOL    HW216110   6.033   3.448   5.275
 5071SOL     OW16111   2.644   6.562   3.623
 5071SOL    HW116112   2.544   6.559   3.631
 5071SOL    HW216113   2.683   6.474   3.650
 5072SOL     OW16114   0.796   1.352   1.746
 5072SOL    HW116115   0.726   1.341   1.816
 5072SOL    HW216116   0.886   1.355   1.788
 5073SOL     OW16117   2.118   0.923   3.382
 5073SOL    HW116118   2.085   0.992   3.317
 5073SOL    HW216119   2.055   0.846   3.385
 5074SOL     OW16120   3.420   2.215   1.756
 5074SOL    HW116121   3.502   2.242   1.807
 5074SOL    HW216122   3.377   2.296   1.717
 5075SOL     OW16123   6.604   3.152   0.821
 5075SOL    HW116124   6.569   3.188   0.907
 5075SOL    HW216125   6.580   3.214   0.746
 5076SOL     OW16126   0.267   0.520   5.921
 5076SOL    HW116127   0.264   0.525   6.021
 5076SOL    HW216128   0.354   0.556   5.889
 5077SOL     OW16129   0.746   4.394   4.005
 5077SOL    HW116130   0.664   4.351   3.967
 5077SOL    HW216131   0.722   4.482   4.045
 5078SOL     OW16132   6.528   2.125   3.662
 5078SOL    HW116133   6.459   2.122   3.734
 5078SOL    HW216134   6.483   2.145   3.575
 5079SOL     OW16135   1.738   3.474   5.667
 5079SOL    HW116136   1.745   3.528   5.751
 5079SOL    HW216137   1.674   3.398   5.681
 5080SOL     OW16138   6.251   5.426   6.802
 5080SOL    HW116139   6.211   5.458   6.888
 5080SOL    HW216140   6.184   5.373   6.752
 5081SOL     OW16141   2.388   4.287   5.306
 5081SOL    HW116142   2.418   4.191   5.312
 5081SOL    HW216143   2.450   4.345   5.358
 5082SOL     OW16144   6.046   5.896   1.123
 5082SOL    HW116145   6.105   5.824   1.160
 5082SOL    HW216146   5.974   5.916   1.190
 5083SOL     OW16147   2.589   0.030   3.980
 5083SOL    HW116148   2.563   7.021   3.891
 5083SOL    HW216149   2.518   0.007   4.047
 5084SOL     OW16150   3.185   4.074   5.660
 5084SOL    HW116151   3.120   4.048   5.731
 5084SOL    HW216152   3.200   4.173   5.663
 5085SOL     OW16153   0.426   4.593   5.338
 5085SOL    HW116154   0.349   4.599   5.401
 5085SOL    HW216155   0.435   4.499   5.304
 5086SOL     OW16156   1.328   5.089   2.469
 5086SOL    HW116157   1.356   5.003   2.511
 5086SOL    HW216158   1.316   5.076   2.370
 5087SOL     OW16159   6.862   4.831   2.516
 5087SOL    HW116160   6.816   4.879   2.443
 5087SOL    HW216161   6.798   4.812   2.590
 5088SOL     OW16162   4.429   5.472   2.268
 5088SOL    HW116163   4.451   5.401   2.200
 5088SOL    HW216164   4.460   5.442   2.358
 5089SOL     OW16165   4.634   5.953   6.071
 5089SOL    HW116166   4.549   5.974   6.022
 5089SOL    HW216167   4.683   5.880   6.024
 5090SOL     OW16168   2.391   6.482   5.160
 5090SOL    HW116169   2.391   6.390   5.197
 5090SOL    HW216170   2.408   6.479   5.062
 5091SOL     OW16171   6.914   6.522   6.057
 5091SOL    HW116172   6.943   6.592   5.991
 5091SOL    HW216173   6.960   6.538   6.144
 5092SOL     OW16174   3.986   3.755   4.172
 5092SOL    HW116175   4.007   3.657   4.172
 5092SOL    HW216176   3.930   3.777   4.092
 5093SOL     OW16177   2.840   2.355   2.966
 5093SOL    HW116178   2.896   2.283   2.925
 5093SOL    HW216179   2.894   2.439   2.975
 5094SOL     OW16180   1.530   5.749   4.678
 5094SOL    HW116181   1.473   5.808   4.620
 5094SOL    HW216182   1.598   5.703   4.620
 5095SOL     OW16183   0.059   1.054   2.667
 5095SOL    HW116184   0.082   1.150   2.683
 5095SOL    HW216185   0.020   1.043   2.576
 5096SOL     OW16186   6.829   3.103   5.375
 5096SOL    HW116187   6.747   3.110   5.431
 5096SOL    HW216188   6.895   3.041   5.418
 5097SOL     OW16189   1.048   0.446   5.850
 5097SOL    HW116190   0.983   0.401   5.910
 5097SOL    HW216191   1.026   0.425   5.755
 5098SOL     OW16192   3.534   2.657   6.814
 5098SOL    HW116193   3.449   2.710   6.807
 5098SOL    HW216194   3.566   2.633   6.723
 5099SOL     OW16195   1.592   6.497   2.010
 5099SOL    HW116196   1.573   6.415   2.064
 5099SOL    HW216197   1.681   6.534   2.035
 5100SOL     OW16198   5.180   3.225   1.773
 5100SOL    HW116199   5.171   3.313   1.726
 5100SOL    HW216200   5.125   3.225   1.856
 5101SOL     OW16201   3.272   0.237   5.472
 5101SOL    HW116202   3.222   0.324   5.463
 5101SOL    HW216203   3.324   0.220   5.388
 5102SOL     OW16204   5.091   5.105   4.446
 5102SOL    HW116205   5.090   5.027   4.509
 5102SOL    HW216206   5.146   5.081   4.366
 5103SOL     OW16207   1.082   0.456   6.199
 5103SOL    HW116208   1.100   0.377   6.258
 5103SOL    HW216209   1.167   0.505   6.183
 5104SOL     OW16210   3.847   3.320   2.876
 5104SOL    HW116211   3.924   3.375   2.910
 5104SOL    HW216212   3.834   3.339   2.778
 5105SOL     OW16213   4.107   2.778   6.857
 5105SOL    HW116214   4.160   2.696   6.880
 5105SOL    HW216215   4.083   2.775   6.760
 5106SOL     OW16216   3.646   1.745   1.272
 5106SOL    HW116217   3.663   1.670   1.336
 5106SOL    HW216218   3.734   1.778   1.236
 5107SOL     OW16219   5.837   4.963   0.471
 5107SOL    HW116220   5.741   4.973   0.496
 5107SOL    HW216221   5.862   5.030   0.401
 5108SOL     OW16222   3.588   5.034   1.336
 5108SOL    HW116223   3.643   4.964   1.291
 5108SOL    HW216224   3.647   5.108   1.367
 5109SOL     OW16225   1.465   2.837   2.337
 5109SOL    HW116226   1.424   2.910   2.393
 5109SOL    HW216227   1.522   2.780   2.395
 5110SOL     OW16228   4.917   0.140   5.580
 5110SOL    HW116229   4.857   0.060   5.568
 5110SOL    HW216230   4.964   0.133   5.668
 5111SOL     OW16231   1.257   5.312   5.385
 5111SOL    HW116232   1.316   5.245   5.430
 5111SOL    HW216233   1.265   5.302   5.285
 5112SOL     OW16234   1.071   6.095   3.419
 5112SOL    HW116235   1.108   6.187   3.423
 5112SOL    HW216236   1.111   6.046   3.342
 5113SOL     OW16237   2.168   4.304   6.865
 5113SOL    HW116238   2.199   4.273   6.775
 5113SOL    HW216239   2.246   4.306   6.928
 5114SOL     OW16240   4.538   4.688   1.430
 5114SOL    HW116241   4.454   4.644   1.462
 5114SOL    HW216242   4.533   4.786   1.447
 5115SOL     OW16243   1.910   3.616   0.816
 5115SOL    HW116244   2.008   3.603   0.825
 5115SOL    HW216245   1.876   3.669   0.894
 5116SOL     OW16246   0.877   0.185   5.419
 5116SOL    HW116247   0.870   0.120   5.344
 5116SOL    HW216248   0.809   0.257   5.407
 5117SOL     OW16249   0.218   1.953   3.768
 5117SOL    HW116250   0.280   2.014   3.818
 5117SOL    HW216251   0.248   1.946   3.673
 5118SOL     OW16252   4.308   5.473   0.288
 5118SOL    HW116253   4.296   5.519   0.200
 5118SOL    HW216254   4.376   5.400   0.279
 5119SOL     OW16255   5.752   1.501   0.740
 5119SOL    HW116256   5.850   1.496   0.722
 5119SOL    HW216257   5.737   1.514   0.838
 5120SOL     OW16258   5.108   6.709   0.102
 5120SOL    HW116259   5.077   6.614   0.103
 5120SOL    HW216260   5.028   6.770   0.099
 5121SOL     OW16261   1.000   3.448   6.035
 5121SOL    HW116262   1.041   3.458   6.126
 5121SOL    HW216263   0.908   3.486   6.035
 5122SOL     OW16264   4.769   4.823   3.743
 5122SOL    HW116265   4.670   4.807   3.735
 5122SOL    HW216266   4.791   4.850   3.836
 5123SOL     OW16267   4.904   2.660   2.322
 5123SOL    HW116268   4.839   2.691   2.253
 5123SOL    HW216269   4.994   2.701   2.305
 5124SOL     OW16270   1.483   6.191   5.410
 5124SOL    HW116271   1.582   6.194   5.395
 5124SOL    HW216272   1.455   6.265   5.471
 5125SOL     OW16273   6.406   1.714   3.789
 5125SOL    HW116274   6.374   1.773   3.715
 5125SOL    HW216275   6.506   1.703   3.781
 5126SOL     OW16276   1.808   0.760   1.801
 5126SOL    HW116277   1.740   0.739   1.731
 5126SOL    HW216278   1.786   0.849   1.843
 5127SOL     OW16279   2.560   6.341   0.242
 5127SOL    HW116280   2.529   6.264   0.186
 5127SOL    HW216281   2.617   6.402   0.187
 5128SOL     OW16282   6.013   6.928   1.695
 5128SOL    HW116283   5.942   6.976   1.643
 5128SOL    HW216284   6.014   6.963   1.789
 5129SOL     OW16285   6.642   6.526   0.242
 5129SOL    HW116286   6.670   6.517   0.337
 5129SOL    HW216287   6.545   6.505   0.234
 5130SOL     OW16288   6.355   4.736   2.815
 5130SOL    HW116289   6.305   4.695   2.890
 5130SOL    HW216290   6.328   4.693   2.729
 5131SOL     OW16291   1.777   2.481   2.685
 5131SOL    HW116292   1.717   2.418   2.735
 5131SOL    HW216293   1.766   2.573   2.721
 5132SOL     OW16294   2.798   6.119   4.896
 5132SOL    HW116295   2.840   6.035   4.930
 5132SOL    HW216296   2.714   6.098   4.848
 5133SOL     OW16297   3.775   6.460   5.262
 5133SOL    HW116298   3.778   6.480   5.164
 5133SOL    HW216299   3.739   6.368   5.277
 5134SOL     OW16300   6.087   3.750   6.075
 5134SOL    HW116301   5.991   3.767   6.097
 5134SOL    HW216302   6.144   3.775   6.153
 5135SOL     OW16303   5.723   1.329   4.427
 5135SOL    HW116304   5.747   1.426   4.424
 5135SOL    HW216305   5.626   1.318   4.405
 5136SOL     OW16306   3.788   1.722   5.524
 5136SOL    HW116307   3.730   1.767   5.592
 5136SOL    HW216308   3.810   1.630   5.555
 5137SOL     OW16309   3.518   4.039   6.774
 5137SOL    HW116310   3.465   4.094   6.839
 5137SOL    HW216311   3.606   4.083   6.756
 5138SOL     OW16312   2.603   2.917   6.071
 5138SOL    HW116313   2.560   2.845   6.124
 5138SOL    HW216314   2.557   3.004   6.089
 5139SOL     OW16315   0.331   0.265   3.858
 5139SOL    HW116316   0.322   0.167   3.872
 5139SOL    HW216317   0.427   0.292   3.866
 5140SOL     OW16318   3.518   2.825   1.922
 5140SOL    HW116319   3.573   2.753   1.878
 5140SOL    HW216320   3.427   2.789   1.942
 5141SOL     OW16321   0.444   3.896   5.812
 5141SOL    HW116322   0.432   3.860   5.904
 5141SOL    HW216323   0.356   3.923   5.774
 5142SOL     OW16324   5.691   2.922   2.847
 5142SOL    HW116325   5.779   2.939   2.802
 5142SOL    HW216326   5.676   2.991   2.918
 5143SOL     OW16327   6.749   5.265   5.157
 5143SOL    HW116328   6.770   5.362   5.172
 5143SOL    HW216329   6.796   5.210   5.225
 5144SOL     OW16330   1.871   1.687   4.865
 5144SOL    HW116331   1.798   1.676   4.797
 5144SOL    HW216332   1.928   1.765   4.839
 5145SOL     OW16333   3.653   5.665   5.777
 5145SOL    HW116334   3.723   5.702   5.840
 5145SOL    HW216335   3.696   5.599   5.716
 5146SOL     OW16336   3.003   5.104   6.939
 5146SOL    HW116337   3.063   5.116   7.018
 5146SOL    HW216338   2.926   5.167   6.945
 5147SOL     OW16339   6.711   5.363   6.267
 5147SOL    HW116340   6.739   5.268   6.259
 5147SOL    HW216341   6.637   5.371   6.334
 5148SOL     OW16342   1.072   0.169   1.399
 5148SOL    HW116343   1.131   0.109   1.345
 5148SOL    HW216344   1.129   0.232   1.453
 5149SOL     OW16345   7.001   0.263   5.481
 5149SOL    HW116346   6.957   0.306   5.402
 5149SOL    HW216347   6.975   0.312   5.564
 5150SOL     OW16348   2.036   5.057   4.342
 5150SOL    HW116349   2.126   5.060   4.386
 5150SOL    HW216350   1.965   5.071   4.410
 5151SOL     OW16351   4.564   0.896   6.084
 5151SOL    HW116352   4.510   0.931   6.160
 5151SOL    HW216353   4.559   0.960   6.007
 5152SOL     OW16354   0.661   4.851   0.500
 5152SOL    HW116355   0.720   4.818   0.426
 5152SOL    HW216356   0.701   4.932   0.542
 5153SOL     OW16357   1.971   2.006   0.970
 5153SOL    HW116358   2.057   1.960   0.948
 5153SOL    HW216359   1.965   2.021   1.069
 5154SOL     OW16360   1.435   3.923   5.596
 5154SOL    HW116361   1.434   3.845   5.533
 5154SOL    HW216362   1.505   3.908   5.666
 5155SOL     OW16363   3.325   0.855   2.472
 5155SOL    HW116364   3.328   0.786   2.400
 5155SOL    HW216365   3.405   0.914   2.465
 5156SOL     OW16366   5.916   2.648   6.110
 5156SOL    HW116367   5.995   2.605   6.065
 5156SOL    HW216368   5.860   2.577   6.152
 5157SOL     OW16369   5.758   2.596   4.113
 5157SOL    HW116370   5.690   2.588   4.186
 5157SOL    HW216371   5.723   2.655   4.041
 5158SOL     OW16372   3.896   0.528   0.688
 5158SOL    HW116373   3.921   0.482   0.604
 5158SOL    HW216374   3.932   0.477   0.767
 5159SOL     OW16375   2.061   3.459   5.019
 5159SOL    HW116376   2.115   3.418   5.093
 5159SOL    HW216377   2.015   3.541   5.053
 5160SOL     OW16378   1.641   3.134   4.300
 5160SOL    HW116379   1.735   3.161   4.276
 5160SOL    HW216380   1.601   3.083   4.224
 5161SOL     OW16381   1.710   3.623   6.720
 5161SOL    HW116382   1.738   3.701   6.777
 5161SOL    HW216383   1.761   3.542   6.748
 5162SOL     OW16384   6.531   5.393   4.448
 5162SOL    HW116385   6.613   5.339   4.464
 5162SOL    HW216386   6.517   5.457   4.524
 5163SOL     OW16387   5.385   4.025   0.780
 5163SOL    HW116388   5.481   4.009   0.758
 5163SOL    HW216389   5.331   4.026   0.695
 5164SOL     OW16390   5.585   5.353   5.642
 5164SOL    HW116391   5.635   5.297   5.708
 5164SOL    HW216392   5.561   5.297   5.563
 5165SOL     OW16393   6.142   3.350   4.307
 5165SOL    HW116394   6.127   3.296   4.225
 5165SOL    HW216395   6.214   3.309   4.362
 5166SOL     OW16396   1.585   7.021   1.526
 5166SOL    HW116397   1.638   6.965   1.589
 5166SOL    HW216398   1.544   0.071   1.575
 5167SOL     OW16399   1.497   0.160   5.482
 5167SOL    HW116400   1.532   0.253   5.479
 5167SOL    HW216401   1.417   0.151   5.423
 5168SOL     OW16402   4.229   1.762   2.949
 5168SOL    HW116403   4.177   1.803   3.023
 5168SOL    HW216404   4.178   1.684   2.912
 5169SOL     OW16405   3.976   4.374   6.601
 5169SOL    HW116406   4.015   4.421   6.680
 5169SOL    HW216407   3.928   4.292   6.631
 5170SOL     OW16408   4.019   4.901   4.407
 5170SOL    HW116409   4.039   4.991   4.367
 5170SOL    HW216410   3.947   4.911   4.476
 5171SOL     OW16411   2.688   4.826   5.119
 5171SOL    HW116412   2.750   4.758   5.081
 5171SOL    HW216413   2.670   4.896   5.050
 5172SOL     OW16414   2.393   4.698   6.863
 5172SOL    HW116415   2.346   4.691   6.951
 5172SOL    HW216416   2.438   4.612   6.842
 5173SOL     OW16417   6.658   3.200   6.294
 5173SOL    HW116418   6.674   3.141   6.373
 5173SOL    HW216419   6.600   3.152   6.228
 5174SOL     OW16420   1.598   4.786   6.141
 5174SOL    HW116421   1.609   4.879   6.106
 5174SOL    HW216422   1.501   4.768   6.158
 5175SOL     OW16423   0.510   5.150   5.904
 5175SOL    HW116424   0.492   5.078   5.837
 5175SOL    HW216425   0.523   5.237   5.857
 5176SOL     OW16426   5.537   4.120   6.070
 5176SOL    HW116427   5.462   4.158   6.124
 5176SOL    HW216428   5.619   4.176   6.082
 5177SOL     OW16429   5.119   5.807   6.399
 5177SOL    HW116430   5.125   5.808   6.499
 5177SOL    HW216431   5.110   5.713   6.367
 5178SOL     OW16432   2.842   2.195   1.774
 5178SOL    HW116433   2.849   2.244   1.861
 5178SOL    HW216434   2.924   2.140   1.760
 5179SOL     OW16435   3.687   6.190   4.989
 5179SOL    HW116436   3.781   6.160   4.972
 5179SOL    HW216437   3.661   6.169   5.084
 5180SOL     OW16438   2.937   1.939   0.127
 5180SOL    HW116439   2.950   1.915   0.031
 5180SOL    HW216440   3.018   1.916   0.179
 5181SOL     OW16441   2.614   5.599   2.669
 5181SOL    HW116442   2.580   5.621   2.761
 5181SOL    HW216443   2.538   5.603   2.604
 5182SOL     OW16444   4.975   4.294   1.634
 5182SOL    HW116445   4.915   4.367   1.668
 5182SOL    HW216446   4.945   4.207   1.672
 5183SOL     OW16447   3.732   0.826   3.467
 5183SOL    HW116448   3.745   0.748   3.405
 5183SOL    HW216449   3.652   0.878   3.437
 5184SOL     OW16450   1.055   1.905   3.017
 5184SOL    HW116451   1.111   1.972   2.968
 5184SOL    HW216452   1.048   1.932   3.113
 5185SOL     OW16453   3.832   0.484   1.755
 5185SOL    HW116454   3.875   0.449   1.672
 5185SOL    HW216455   3.764   0.419   1.788
 5186SOL     OW16456   5.530   4.602   0.060
 5186SOL    HW116457   5.507   4.583   0.155
 5186SOL    HW216458   5.602   4.539   0.029
 5187SOL     OW16459   5.224   1.770   4.406
 5187SOL    HW116460   5.228   1.684   4.357
 5187SOL    HW216461   5.278   1.764   4.490
 5188SOL     OW16462   1.249   3.073   4.161
 5188SOL    HW116463   1.309   3.035   4.091
 5188SOL    HW216464   1.266   3.026   4.248
 5189SOL     OW16465   4.441   5.306   6.957
 5189SOL    HW116466   4.382   5.387   6.956
 5189SOL    HW216467   4.519   5.323   7.018
 5190SOL     OW16468   2.058   3.179   3.104
 5190SOL    HW116469   1.969   3.144   3.077
 5190SOL    HW216470   2.130   3.123   3.063
 5191SOL     OW16471   4.790   0.688   2.192
 5191SOL    HW116472   4.759   0.674   2.286
 5191SOL    HW216473   4.723   0.649   2.129
 5192SOL     OW16474   6.332   4.657   2.002
 5192SOL    HW116475   6.380   4.599   2.069
 5192SOL    HW216476   6.248   4.611   1.973
 5193SOL     OW16477   4.982   3.835   2.302
 5193SOL    HW116478   4.963   3.754   2.248
 5193SOL    HW216479   5.071   3.873   2.275
 5194SOL     OW16480   5.112   1.472   0.064
 5194SOL    HW116481   5.196   1.521   0.088
 5194SOL    HW216482   5.034   1.534   0.073
 5195SOL     OW16483   6.046   6.363   5.131
 5195SOL    HW116484   6.044   6.399   5.225
 5195SOL    HW216485   5.963   6.391   5.083
 5196SOL     OW16486   0.823   3.366   2.130
 5196SOL    HW116487   0.899   3.331   2.075
 5196SOL    HW216488   0.806   3.461   2.105
 5197SOL     OW16489   3.589   6.046   5.542
 5197SOL    HW116490   3.513   5.990   5.574
 5197SOL    HW216491   3.674   6.014   5.584
 5198SOL     OW16492   4.154   0.977   5.469
 5198SOL    HW116493   4.163   0.952   5.565
 5198SOL    HW216494   4.157   0.894   5.412
 5199SOL     OW16495   0.364   5.468   1.738
 5199SOL    HW116496   0.371   5.498   1.833
 5199SOL    HW216497   0.452   5.482   1.692
 5200SOL     OW16498   0.155   6.754   4.998
 5200SOL    HW116499   0.159   6.822   5.071
 5200SOL    HW216500   0.086   6.781   4.931
 5201SOL     OW16501   6.021   4.949   5.057
 5201SOL    HW116502   6.055   5.037   5.022
 5201SOL    HW216503   5.943   4.920   5.001
 5202SOL     OW16504   3.539   3.071   5.998
 5202SOL    HW116505   3.590   3.006   6.055
 5202SOL    HW216506   3.445   3.037   5.985
 5203SOL     OW16507   1.132   0.273   6.389
 5203SOL    HW116508   1.205   0.321   6.437
 5203SOL    HW216509   1.125   0.179   6.424
 5204SOL     OW16510   2.392   0.643   0.764
 5204SOL    HW116511   2.425   0.573   0.701
 5204SOL    HW216512   2.384   0.604   0.856
 5205SOL     OW16513   6.852   6.952   1.386
 5205SOL    HW116514   6.822   6.857   1.388
 5205SOL    HW216515   6.781   7.010   1.426
 5206SOL     OW16516   1.076   4.086   3.885
 5206SOL    HW116517   1.119   4.096   3.974
 5206SOL    HW216518   1.095   4.167   3.829
 5207SOL     OW16519   5.692   6.881   5.144
 5207SOL    HW116520   5.698   6.795   5.195
 5207SOL    HW216521   5.597   6.911   5.139
 5208SOL     OW16522   6.504   1.612   0.527
 5208SOL    HW116523   6.566   1.547   0.570
 5208SOL    HW216524   6.420   1.564   0.499
 5209SOL     OW16525   5.499   6.675   3.455
 5209SOL    HW116526   5.511   6.740   3.380
 5209SOL    HW216527   5.581   6.618   3.464
 5210SOL     OW16528   5.438   4.359   1.022
 5210SOL    HW116529   5.520   4.409   0.993
 5210SOL    HW216530   5.421   4.377   1.119
 5211SOL     OW16531   5.618   2.772   4.930
 5211SOL    HW116532   5.545   2.807   4.989
 5211SOL    HW216533   5.583   2.759   4.838
 5212SOL     OW16534   0.010   3.692   0.517
 5212SOL    HW116535   0.008   3.716   0.420
 5212SOL    HW216536   6.958   3.733   0.563
 5213SOL     OW16537   4.074   3.487   2.661
 5213SOL    HW116538   4.090   3.449   2.570
 5213SOL    HW216539   4.002   3.557   2.656
 5214SOL     OW16540   5.886   3.000   5.687
 5214SOL    HW116541   5.864   3.036   5.596
 5214SOL    HW216542   5.937   2.914   5.678
 5215SOL     OW16543   0.240   5.212   4.973
 5215SOL    HW116544   0.156   5.248   4.933
 5215SOL    HW216545   0.315   5.224   4.907
 5216SOL     OW16546   5.693   4.656   1.227
 5216SOL    HW116547   5.683   4.648   1.128
 5216SOL    HW216548   5.645   4.581   1.272
 5217SOL     OW16549   4.800   6.641   2.947
 5217SOL    HW116550   4.734   6.615   2.877
 5217SOL    HW216551   4.855   6.718   2.915
 5218SOL     OW16552   6.201   6.874   0.138
 5218SOL    HW116553   6.208   6.914   0.230
 5218SOL    HW216554   6.106   6.850   0.119
 5219SOL     OW16555   3.392   1.204   5.383
 5219SOL    HW116556   3.346   1.216   5.295
 5219SOL    HW216557   3.431   1.291   5.413
 5220SOL     OW16558   2.061   4.925   4.696
 5220SOL    HW116559   2.104   4.855   4.754
 5220SOL    HW216560   2.050   4.890   4.604
 5221SOL     OW16561   5.439   6.128   1.480
 5221SOL    HW116562   5.451   6.107   1.383
 5221SOL    HW216563   5.370   6.067   1.519
 5222SOL     OW16564   6.968   3.392   1.889
 5222SOL    HW116565   7.002   3.432   1.804
 5222SOL    HW216566   6.947   3.295   1.875
 5223SOL     OW16567   6.275   3.134   0.590
 5223SOL    HW116568   6.303   3.174   0.677
 5223SOL    HW216569   6.305   3.192   0.514
 5224SOL     OW16570   1.078   1.416   5.166
 5224SOL    HW116571   1.138   1.407   5.086
 5224SOL    HW216572   0.987   1.381   5.143
 5225SOL     OW16573   6.739   1.589   4.679
 5225SOL    HW116574   6.798   1.529   4.733
 5225SOL    HW216575   6.775   1.682   4.680
 5226SOL     OW16576   0.469   6.174   4.373
 5226SOL    HW116577   0.522   6.104   4.420
 5226SOL    HW216578   0.531   6.237   4.326
 5227SOL     OW16579   0.764   3.565   5.961
 5227SOL    HW116580   0.827   3.593   5.889
 5227SOL    HW216581   0.688   3.514   5.921
 5228SOL     OW16582   0.848   2.041   5.540
 5228SOL    HW116583   0.832   2.043   5.441
 5228SOL    HW216584   0.937   2.081   5.560
 5229SOL     OW16585   3.350   1.939   5.869
 5229SOL    HW116586   3.403   1.991   5.937
 5229SOL    HW216587   3.306   1.861   5.914
 5230SOL     OW16588   6.535   0.180   2.857
 5230SOL    HW116589   6.480   0.254   2.894
 5230SOL    HW216590   6.620   0.172   2.909
 5231SOL     OW16591   6.074   3.371   2.550
 5231SOL    HW116592   6.132   3.397   2.628
 5231SOL    HW216593   6.030   3.452   2.512
 5232SOL     OW16594   1.530   2.507   5.764
 5232SOL    HW116595   1.458   2.460   5.814
 5232SOL    HW216596   1.582   2.440   5.710
 5233SOL     OW16597   3.777   6.822   2.926
 5233SOL    HW116598   3.716   6.843   2.850
 5233SOL    HW216599   3.871   6.848   2.901
 5234SOL     OW16600   2.988   2.516   6.044
 5234SOL    HW116601   2.977   2.448   6.115
 5234SOL    HW216602   2.948   2.603   6.074
 5235SOL     OW16603   2.560   1.754   1.641
 5235SOL    HW116604   2.488   1.801   1.590
 5235SOL    HW216605   2.561   1.786   1.735
 5236SOL     OW16606   2.902   5.104   1.656
 5236SOL    HW116607   2.988   5.134   1.695
 5236SOL    HW216608   2.893   5.005   1.665
 5237SOL     OW16609   1.703   1.563   1.866
 5237SOL    HW116610   1.669   1.562   1.960
 5237SOL    HW216611   1.661   1.488   1.814
 5238SOL     OW16612   0.011   0.526   3.178
 5238SOL    HW116613   0.076   0.601   3.165
 5238SOL    HW216614   7.012   0.487   3.089
 5239SOL     OW16615   2.726   4.566   0.766
 5239SOL    HW116616   2.656   4.625   0.807
 5239SOL    HW216617   2.720   4.475   0.807
 5240SOL     OW16618   2.229   4.027   5.995
 5240SOL    HW116619   2.181   4.114   5.990
 5240SOL    HW216620   2.203   3.979   6.079
 5241SOL     OW16621   2.067   6.089   2.706
 5241SOL    HW116622   2.016   6.012   2.668
 5241SOL    HW216623   2.164   6.067   2.707
 5242SOL     OW16624   3.648   6.574   6.335
 5242SOL    HW116625   3.669   6.643   6.267
 5242SOL    HW216626   3.581   6.509   6.298
 5243SOL     OW16627   2.456   6.259   3.077
 5243SOL    HW116628   2.424   6.237   2.985
 5243SOL    HW216629   2.492   6.176   3.120
 5244SOL     OW16630   4.399   1.188   0.334
 5244SOL    HW116631   4.453   1.162   0.414
 5244SOL    HW216632   4.341   1.266   0.358
 5245SOL     OW16633   3.097   4.283   1.520
 5245SOL    HW116634   3.039   4.270   1.440
 5245SOL    HW216635   3.050   4.250   1.601
 5246SOL     OW16636   5.933   4.268   6.272
 5246SOL    HW116637   5.878   4.231   6.346
 5246SOL    HW216638   5.986   4.346   6.306
 5247SOL     OW16639   4.798   1.887   6.736
 5247SOL    HW116640   4.816   1.961   6.800
 5247SOL    HW216641   4.768   1.925   6.648
 5248SOL     OW16642   5.188   1.499   4.345
 5248SOL    HW116643   5.157   1.526   4.436
 5248SOL    HW216644   5.141   1.415   4.316
 5249SOL     OW16645   6.930   5.022   0.810
 5249SOL    HW116646   6.906   5.115   0.838
 5249SOL    HW216647   7.011   4.991   0.860
 5250SOL     OW16648   2.625   5.537   1.246
 5250SOL    HW116649   2.591   5.556   1.154
 5250SOL    HW216650   2.589   5.605   1.310
 5251SOL     OW16651   0.353   4.950   0.245
 5251SOL    HW116652   0.445   4.911   0.242
 5251SOL    HW216653   0.291   4.894   0.190
 5252SOL     OW16654   3.837   5.717   2.472
 5252SOL    HW116655   3.848   5.622   2.500
 5252SOL    HW216656   3.754   5.726   2.416
 5253SOL     OW16657   0.171   5.709   4.842
 5253SOL    HW116658   0.255   5.763   4.839
 5253SOL    HW216659   0.125   5.725   4.930
 5254SOL     OW16660   4.802   5.754   2.570
 5254SOL    HW116661   4.861   5.813   2.626
 5254SOL    HW216662   4.798   5.789   2.477
 5255SOL     OW16663   6.880   1.556   5.638
 5255SOL    HW116664   6.941   1.617   5.588
 5255SOL    HW216665   6.921   1.465   5.644
 5256SOL     OW16666   6.214   1.938   2.714
 5256SOL    HW116667   6.248   1.948   2.807
 5256SOL    HW216668   6.218   1.842   2.687
 5257SOL     OW16669   4.392   1.924   6.105
 5257SOL    HW116670   4.345   1.975   6.033
 5257SOL    HW216671   4.344   1.937   6.192
 5258SOL     OW16672   4.726   1.499   4.983
 5258SOL    HW116673   4.627   1.506   4.980
 5258SOL    HW216674   4.766   1.571   4.927
 5259SOL     OW16675   5.462   5.102   3.944
 5259SOL    HW116676   5.508   5.150   4.019
 5259SOL    HW216677   5.381   5.153   3.916
 5260SOL     OW16678   2.185   6.129   1.590
 5260SOL    HW116679   2.209   6.114   1.494
 5260SOL    HW216680   2.264   6.163   1.640
 5261SOL     OW16681   5.824   4.445   6.717
 5261SOL    HW116682   5.858   4.482   6.803
 5261SOL    HW216683   5.821   4.517   6.648
 5262SOL     OW16684   1.650   0.908   1.503
 5262SOL    HW116685   1.724   0.894   1.438
 5262SOL    HW216686   1.631   0.823   1.552
 5263SOL     OW16687   1.448   6.343   3.156
 5263SOL    HW116688   1.504   6.420   3.188
 5263SOL    HW216689   1.502   6.289   3.091
 5264SOL     OW16690   6.773   2.253   1.854
 5264SOL    HW116691   6.708   2.238   1.928
 5264SOL    HW216692   6.808   2.164   1.823
 5265SOL     OW16693   6.857   5.701   5.598
 5265SOL    HW116694   6.826   5.652   5.679
 5265SOL    HW216695   6.910   5.781   5.625
 5266SOL     OW16696   1.336   6.817   6.468
 5266SOL    HW116697   1.357   6.901   6.518
 5266SOL    HW216698   1.253   6.776   6.504
 5267SOL     OW16699   5.294   1.721   3.944
 5267SOL    HW116700   5.264   1.763   3.858
 5267SOL    HW216701   5.237   1.754   4.019
 5268SOL     OW16702   5.572   0.387   6.738
 5268SOL    HW116703   5.520   0.376   6.653
 5268SOL    HW216704   5.669   0.370   6.720
 5269SOL     OW16705   1.298   0.234   3.707
 5269SOL    HW116706   1.341   0.312   3.753
 5269SOL    HW216707   1.337   0.222   3.616
 5270SOL     OW16708   0.240   1.988   6.183
 5270SOL    HW116709   0.317   2.014   6.125
 5270SOL    HW216710   0.272   1.933   6.260
 5271SOL     OW16711   1.369   4.750   3.501
 5271SOL    HW116712   1.391   4.681   3.569
 5271SOL    HW216713   1.442   4.754   3.432
 5272SOL     OW16714   3.983   1.002   6.576
 5272SOL    HW116715   4.078   0.996   6.547
 5272SOL    HW216716   3.955   0.916   6.619
 5273SOL     OW16717   3.127   1.763   2.974
 5273SOL    HW116718   3.057   1.822   3.014
 5273SOL    HW216719   3.158   1.802   2.887
 5274SOL     OW16720   5.358   5.223   1.452
 5274SOL    HW116721   5.289   5.154   1.476
 5274SOL    HW216722   5.322   5.314   1.471
 5275SOL     OW16723   4.851   2.228   6.798
 5275SOL    HW116724   4.924   2.285   6.760
 5275SOL    HW216725   4.769   2.236   6.741
 5276SOL     OW16726   4.129   6.493   1.782
 5276SOL    HW116727   4.046   6.467   1.830
 5276SOL    HW216728   4.179   6.560   1.836
 5277SOL     OW16729   2.050   2.445   2.115
 5277SOL    HW116730   2.130   2.491   2.076
 5277SOL    HW216731   1.976   2.444   2.047
 5278SOL     OW16732   4.078   3.387   2.418
 5278SOL    HW116733   4.111   3.298   2.449
 5278SOL    HW216734   4.050   3.381   2.322
 5279SOL     OW16735   1.528   5.997   2.410
 5279SOL    HW116736   1.470   5.977   2.489
 5279SOL    HW216737   1.584   6.077   2.429
 5280SOL     OW16738   3.734   0.863   4.468
 5280SOL    HW116739   3.803   0.857   4.540
 5280SOL    HW216740   3.683   0.778   4.463
 5281SOL     OW16741   0.031   2.382   3.574
 5281SOL    HW116742   6.997   2.309   3.607
 5281SOL    HW216743   0.100   2.402   3.643
 5282SOL     OW16744   4.644   1.377   1.400
 5282SOL    HW116745   4.658   1.280   1.422
 5282SOL    HW216746   4.653   1.432   1.483
 5283SOL     OW16747   4.961   4.793   6.125
 5283SOL    HW116748   4.991   4.870   6.068
 5283SOL    HW216749   4.865   4.804   6.148
 5284SOL     OW16750   4.972   2.968   3.654
 5284SOL    HW116751   4.938   3.061   3.641
 5284SOL    HW216752   4.950   2.937   3.747
 5285SOL     OW16753   4.355   6.359   2.649
 5285SOL    HW116754   4.281   6.406   2.601
 5285SOL    HW216755   4.348   6.260   2.633
 5286SOL     OW16756   2.243   5.146   2.135
 5286SOL    HW116757   2.299   5.145   2.052
 5286SOL    HW216758   2.256   5.233   2.183
 5287SOL     OW16759   0.359   1.470   2.258
 5287SOL    HW116760   0.313   1.463   2.170
 5287SOL    HW216761   0.320   1.404   2.322
 5288SOL     OW16762   4.422   0.255   0.770
 5288SOL    HW116763   4.391   0.337   0.818
 5288SOL    HW216764   4.479   0.200   0.830
 5289SOL     OW16765   1.407   5.829   1.119
 5289SOL    HW116766   1.442   5.813   1.211
 5289SOL    HW216767   1.370   5.922   1.113
 5290SOL     OW16768   5.923   6.111   7.003
 5290SOL    HW116769   5.921   6.202   6.962
 5290SOL    HW216770   5.888   6.044   6.938
 5291SOL     OW16771   1.254   5.476   6.702
 5291SOL    HW116772   1.295   5.495   6.791
 5291SOL    HW216773   1.249   5.561   6.649
 5292SOL     OW16774   5.463   1.419   0.778
 5292SOL    HW116775   5.456   1.447   0.682
 5292SOL    HW216776   5.557   1.435   0.810
 5293SOL     OW16777   1.351   1.589   3.668
 5293SOL    HW116778   1.298   1.524   3.722
 5293SOL    HW216779   1.426   1.626   3.723
 5294SOL     OW16780   4.653   2.732   5.684
 5294SOL    HW116781   4.708   2.814   5.668
 5294SOL    HW216782   4.622   2.695   5.597
 5295SOL     OW16783   6.263   1.286   2.481
 5295SOL    HW116784   6.227   1.244   2.398
 5295SOL    HW216785   6.274   1.384   2.467
 5296SOL     OW16786   0.602   3.237   7.024
 5296SOL    HW116787   0.653   3.266   0.079
 5296SOL    HW216788   0.623   3.299   6.948
 5297SOL     OW16789   1.558   3.034   2.061
 5297SOL    HW116790   1.602   3.086   1.988
 5297SOL    HW216791   1.536   2.942   2.027
 5298SOL     OW16792   1.052   4.565   1.704
 5298SOL    HW116793   1.031   4.531   1.796
 5298SOL    HW216794   1.060   4.488   1.641
 5299SOL     OW16795   3.082   0.295   1.166
 5299SOL    HW116796   3.120   0.387   1.177
 5299SOL    HW216797   3.087   0.246   1.253
 5300SOL     OW16798   0.474   4.746   3.680
 5300SOL    HW116799   0.433   4.836   3.695
 5300SOL    HW216800   0.573   4.753   3.686
 5301SOL     OW16801   4.484   0.533   0.461
 5301SOL    HW116802   4.441   0.581   0.537
 5301SOL    HW216803   4.458   0.577   0.375
 5302SOL     OW16804   6.385   4.287   3.511
 5302SOL    HW116805   6.360   4.209   3.569
 5302SOL    HW216806   6.370   4.372   3.562
 5303SOL     OW16807   1.789   5.119   2.852
 5303SOL    HW116808   1.691   5.118   2.833
 5303SOL    HW216809   1.814   5.207   2.892
 5304SOL     OW16810   4.957   2.694   5.317
 5304SOL    HW116811   4.869   2.650   5.333
 5304SOL    HW216812   4.963   2.722   5.221
 5305SOL     OW16813   2.873   1.325   4.133
 5305SOL    HW116814   2.893   1.412   4.089
 5305SOL    HW216815   2.958   1.276   4.152
 5306SOL     OW16816   2.809   6.555   4.704
 5306SOL    HW116817   2.815   6.564   4.605
 5306SOL    HW216818   2.863   6.477   4.734
 5307SOL     OW16819   4.074   0.099   0.159
 5307SOL    HW116820   4.090   0.134   0.251
 5307SOL    HW216821   4.112   0.007   0.151
 5308SOL     OW16822   0.325   1.199   2.033
 5308SOL    HW116823   0.236   1.208   1.989
 5308SOL    HW216824   0.358   1.105   2.023
 5309SOL     OW16825   3.439   3.791   4.736
 5309SOL    HW116826   3.518   3.738   4.766
 5309SOL    HW216827   3.357   3.761   4.785
 5310SOL     OW16828   5.683   3.110   0.630
 5310SOL    HW116829   5.620   3.067   0.565
 5310SOL    HW216830   5.777   3.089   0.604
 5311SOL     OW16831   0.759   6.308   6.319
 5311SOL    HW116832   0.853   6.334   6.341
 5311SOL    HW216833   0.747   6.211   6.337
 5312SOL     OW16834   0.892   2.955   1.917
 5312SOL    HW116835   0.822   3.000   1.973
 5312SOL    HW216836   0.971   2.933   1.974
 5313SOL     OW16837   1.008   6.485   0.571
 5313SOL    HW116838   0.952   6.567   0.558
 5313SOL    HW216839   1.105   6.508   0.563
 5314SOL     OW16840   3.763   5.542   1.340
 5314SOL    HW116841   3.771   5.495   1.428
 5314SOL    HW216842   3.774   5.475   1.266
 5315SOL     OW16843   5.545   2.406   2.100
 5315SOL    HW116844   5.531   2.478   2.033
 5315SOL    HW216845   5.564   2.320   2.053
 5316SOL     OW16846   5.624   5.249   4.465
 5316SOL    HW116847   5.614   5.151   4.484
 5316SOL    HW216848   5.574   5.272   4.382
 5317SOL     OW16849   6.659   5.338   2.676
 5317SOL    HW116850   6.566   5.373   2.662
 5317SOL    HW216851   6.723   5.391   2.621
 5318SOL     OW16852   0.212   2.388   4.049
 5318SOL    HW116853   0.146   2.328   4.006
 5318SOL    HW216854   0.179   2.416   4.139
 5319SOL     OW16855   3.623   6.889   2.198
 5319SOL    HW116856   3.615   6.954   2.123
 5319SOL    HW216857   3.537   6.885   2.249
 5320SOL     OW16858   6.552   3.506   6.100
 5320SOL    HW116859   6.525   3.530   6.006
 5320SOL    HW216860   6.651   3.518   6.110
 5321SOL     OW16861   2.187   4.484   5.897
 5321SOL    HW116862   2.280   4.494   5.931
 5321SOL    HW216863   2.154   4.572   5.863
 5322SOL     OW16864   2.789   6.104   0.854
 5322SOL    HW116865   2.808   6.057   0.768
 5322SOL    HW216866   2.745   6.041   0.918
 5323SOL     OW16867   5.106   2.993   0.229
 5323SOL    HW116868   5.158   3.077   0.214
 5323SOL    HW216869   5.133   2.952   0.316
 5324SOL     OW16870   3.783   3.378   1.525
 5324SOL    HW116871   3.723   3.306   1.492
 5324SOL    HW216872   3.781   3.380   1.625
 5325SOL     OW16873   4.245   6.528   4.463
 5325SOL    HW116874   4.319   6.505   4.526
 5325SOL    HW216875   4.232   6.453   4.399
 5326SOL     OW16876   0.058   0.297   2.722
 5326SOL    HW116877   0.090   0.202   2.715
 5326SOL    HW216878   6.994   0.304   2.682
 5327SOL     OW16879   0.105   0.463   3.942
 5327SOL    HW116880   0.188   0.420   3.907
 5327SOL    HW216881   0.051   0.498   3.865
 5328SOL     OW16882   3.855   5.056   0.103
 5328SOL    HW116883   3.805   5.071   0.018
 5328SOL    HW216884   3.886   4.961   0.108
 5329SOL     OW16885   0.595   5.427   6.486
 5329SOL    HW116886   0.607   5.471   6.397
 5329SOL    HW216887   0.682   5.387   6.515
 5330SOL     OW16888   3.634   4.146   0.464
 5330SOL    HW116889   3.535   4.131   0.469
 5330SOL    HW216890   3.655   4.207   0.388
 5331SOL     OW16891   5.128   1.252   6.961
 5331SOL    HW116892   5.186   1.273   6.883
 5331SOL    HW216893   5.124   1.331   7.022
 5332SOL     OW16894   5.858   3.141   6.568
 5332SOL    HW116895   5.919   3.072   6.607
 5332SOL    HW216896   5.766   3.129   6.604
 5333SOL     OW16897   1.428   0.737   4.231
 5333SOL    HW116898   1.456   0.668   4.298
 5333SOL    HW216899   1.509   0.783   4.195
 5334SOL     OW16900   3.141   6.138   2.167
 5334SOL    HW116901   3.089   6.114   2.249
 5334SOL    HW216902   3.234   6.101   2.174
 5335SOL     OW16903   0.311   4.407   1.982
 5335SOL    HW116904   0.359   4.477   1.928
 5335SOL    HW216905   0.221   4.441   2.009
 5336SOL     OW16906   2.115   3.359   5.667
 5336SOL    HW116907   2.079   3.448   5.696
 5336SOL    HW216908   2.186   3.373   5.598
 5337SOL     OW16909   6.597   3.688   1.546
 5337SOL    HW116910   6.599   3.600   1.593
 5337SOL    HW216911   6.518   3.740   1.576
 5338SOL     OW16912   6.900   3.375   0.847
 5338SOL    HW116913   6.847   3.356   0.764
 5338SOL    HW216914   6.948   3.292   0.875
 5339SOL     OW16915   5.524   2.873   3.135
 5339SOL    HW116916   5.559   2.780   3.117
 5339SOL    HW216917   5.584   2.940   3.090
 5340SOL     OW16918   4.719   3.186   1.680
 5340SOL    HW116919   4.630   3.230   1.670
 5340SOL    HW216920   4.718   3.125   1.759
 5341SOL     OW16921   4.915   4.905   3.280
 5341SOL    HW116922   4.876   4.814   3.269
 5341SOL    HW216923   4.933   4.945   3.190
 5342SOL     OW16924   6.064   5.456   4.719
 5342SOL    HW116925   6.138   5.389   4.717
 5342SOL    HW216926   5.990   5.426   4.660
 5343SOL     OW16927   3.849   3.395   6.575
 5343SOL    HW116928   3.829   3.446   6.491
 5343SOL    HW216929   3.780   3.323   6.587
 5344SOL     OW16930   7.024   1.606   6.650
 5344SOL    HW116931   0.092   1.578   6.666
 5344SOL    HW216932   6.963   1.552   6.708
 5345SOL     OW16933   3.801   1.320   6.950
 5345SOL    HW116934   3.820   1.418   6.954
 5345SOL    HW216935   3.787   1.291   6.855
 5346SOL     OW16936   3.092   6.358   3.387
 5346SOL    HW116937   3.006   6.313   3.415
 5346SOL    HW216938   3.168   6.297   3.407
 5347SOL     OW16939   5.252   1.349   5.080
 5347SOL    HW116940   5.303   1.268   5.051
 5347SOL    HW216941   5.163   1.350   5.034
 5348SOL     OW16942   4.944   2.986   4.888
 5348SOL    HW116943   5.013   2.940   4.944
 5348SOL    HW216944   4.918   3.072   4.931
 5349SOL     OW16945   0.749   4.450   1.071
 5349SOL    HW116946   0.676   4.516   1.088
 5349SOL    HW216947   0.718   4.359   1.099
 5350SOL     OW16948   0.735   6.943   5.903
 5350SOL    HW116949   0.739   6.924   5.805
 5350SOL    HW216950   0.795   7.020   5.924
 5351SOL     OW16951   0.450   6.278   3.659
 5351SOL    HW116952   0.413   6.218   3.589
 5351SOL    HW216953   0.528   6.329   3.622
 5352SOL     OW16954   1.389   2.641   6.228
 5352SOL    HW116955   1.456   2.590   6.174
 5352SOL    HW216956   1.328   2.577   6.274
 5353SOL     OW16957   3.565   5.511   3.498
 5353SOL    HW116958   3.560   5.607   3.472
 5353SOL    HW216959   3.643   5.468   3.452
 5354SOL     OW16960   4.146   6.650   1.277
 5354SOL    HW116961   4.152   6.748   1.261
 5354SOL    HW216962   4.065   6.614   1.231
 5355SOL     OW16963   4.879   5.948   5.320
 5355SOL    HW116964   4.813   5.989   5.257
 5355SOL    HW216965   4.853   5.970   5.414
 5356SOL     OW16966   1.557   6.215   1.330
 5356SOL    HW116967   1.591   6.252   1.417
 5356SOL    HW216968   1.462   6.244   1.316
 5357SOL     OW16969   6.051   3.141   3.018
 5357SOL    HW116970   5.989   3.213   2.987
 5357SOL    HW216971   6.069   3.152   3.116
 5358SOL     OW16972   6.088   0.617   6.220
 5358SOL    HW116973   6.017   0.546   6.218
 5358SOL    HW216974   6.119   0.635   6.127
 5359SOL     OW16975   2.877   2.439   0.021
 5359SOL    HW116976   2.955   2.457   6.987
 5359SOL    HW216977   2.911   2.408   0.110
 5360SOL     OW16978   5.377   6.023   4.034
 5360SOL    HW116979   5.435   6.009   4.114
 5360SOL    HW216980   5.332   6.112   4.039
 5361SOL     OW16981   1.347   4.187   3.238
 5361SOL    HW116982   1.365   4.216   3.144
 5361SOL    HW216983   1.417   4.120   3.266
 5362SOL     OW16984   6.743   1.298   2.587
 5362SOL    HW116985   6.644   1.296   2.601
 5362SOL    HW216986   6.786   1.228   2.644
 5363SOL     OW16987   5.590   5.507   4.112
 5363SOL    HW116988   5.530   5.525   4.190
 5363SOL    HW216989   5.675   5.558   4.124
 5364SOL     OW16990   4.764   2.465   2.525
 5364SOL    HW116991   4.791   2.386   2.579
 5364SOL    HW216992   4.831   2.479   2.451
 5365SOL     OW16993   3.260   3.985   5.184
 5365SOL    HW116994   3.217   3.995   5.094
 5365SOL    HW216995   3.194   4.011   5.254
 5366SOL     OW16996   0.134   5.186   3.315
 5366SOL    HW116997   0.110   5.265   3.371
 5366SOL    HW216998   0.233   5.181   3.304
 5367SOL     OW16999   6.273   6.204   1.416
 5367SOL    HW117000   6.176   6.182   1.425
 5367SOL    HW217001   6.292   6.291   1.463
 5368SOL     OW17002   0.712   5.600   4.590
 5368SOL    HW117003   0.769   5.656   4.530
 5368SOL    HW217004   0.758   5.512   4.607
 5369SOL     OW17005   4.406   0.121   2.987
 5369SOL    HW117006   4.329   0.092   3.042
 5369SOL    HW217007   4.391   0.096   2.891
 5370SOL     OW17008   1.938   2.654   0.538
 5370SOL    HW117009   1.945   2.732   0.600
 5370SOL    HW217010   1.873   2.676   0.465
 5371SOL     OW17011   6.225   5.174   3.689
 5371SOL    HW117012   6.319   5.155   3.717
 5371SOL    HW217013   6.173   5.089   3.689
 5372SOL     OW17014   1.988   6.845   3.843
 5372SOL    HW117015   2.027   6.821   3.932
 5372SOL    HW217016   2.046   6.912   3.798
 5373SOL     OW17017   3.187   0.961   6.476
 5373SOL    HW117018   3.151   0.869   6.488
 5373SOL    HW217019   3.284   0.962   6.502
 5374SOL     OW17020   0.985   3.866   1.345
 5374SOL    HW117021   1.082   3.845   1.330
 5374SOL    HW217022   0.963   3.955   1.305
 5375SOL     OW17023   2.495   4.542   4.753
 5375SOL    HW117024   2.417   4.488   4.719
 5375SOL    HW217025   2.531   4.500   4.836
 5376SOL     OW17026   0.587   0.512   0.714
 5376SOL    HW117027   0.667   0.499   0.655
 5376SOL    HW217028   0.583   0.608   0.743
 5377SOL     OW17029   1.039   2.048   2.339
 5377SOL    HW117030   0.965   2.106   2.373
 5377SOL    HW217031   1.120   2.061   2.395
 5378SOL     OW17032   4.867   0.010   2.227
 5378SOL    HW117033   4.953   6.999   2.194
 5378SOL    HW217034   4.840   0.087   2.169
 5379SOL     OW17035   2.465   1.678   3.334
 5379SOL    HW117036   2.497   1.723   3.251
 5379SOL    HW217037   2.455   1.580   3.317
 5380SOL     OW17038   4.987   6.346   1.096
 5380SOL    HW117039   4.989   6.386   1.188
 5380SOL    HW217040   5.071   6.371   1.048
 5381SOL     OW17041   3.810   1.792   3.266
 5381SOL    HW117042   3.867   1.863   3.225
 5381SOL    HW217043   3.839   1.703   3.232
 5382SOL     OW17044   3.627   0.938   2.517
 5382SOL    HW117045   3.608   0.968   2.610
 5382SOL    HW217046   3.629   1.018   2.456
 5383SOL     OW17047   2.369   3.511   5.286
 5383SOL    HW117048   2.328   3.601   5.268
 5383SOL    HW217049   2.320   3.441   5.234
 5384SOL     OW17050   5.272   6.434   6.336
 5384SOL    HW117051   5.180   6.408   6.363
 5384SOL    HW217052   5.282   6.533   6.342
 5385SOL     OW17053   3.742   3.512   0.010
 5385SOL    HW117054   3.693   3.437   6.992
 5385SOL    HW217055   3.755   3.586   6.972
 5386SOL     OW17056   4.439   4.959   3.826
 5386SOL    HW117057   4.455   4.975   3.923
 5386SOL    HW217058   4.473   4.869   3.801
 5387SOL     OW17059   0.901   2.307   4.381
 5387SOL    HW117060   0.907   2.406   4.394
 5387SOL    HW217061   0.851   2.287   4.296
 5388SOL     OW17062   6.517   6.238   3.920
 5388SOL    HW117063   6.510   6.272   3.826
 5388SOL    HW217064   6.521   6.139   3.920
 5389SOL     OW17065   5.002   1.371   4.985
 5389SOL    HW117066   4.922   1.358   4.927
 5389SOL    HW217067   5.005   1.466   5.018
 5390SOL     OW17068   5.251   3.614   3.032
 5390SOL    HW117069   5.198   3.687   2.989
 5390SOL    HW217070   5.189   3.548   3.074
 5391SOL     OW17071   4.314   2.193   1.382
 5391SOL    HW117072   4.387   2.160   1.442
 5391SOL    HW217073   4.292   2.122   1.315
 5392SOL     OW17074   4.935   0.461   4.349
 5392SOL    HW117075   5.018   0.503   4.313
 5392SOL    HW217076   4.885   0.527   4.405
 5393SOL     OW17077   4.158   1.304   3.782
 5393SOL    HW117078   4.248   1.265   3.802
 5393SOL    HW217079   4.104   1.238   3.730
 5394SOL     OW17080   0.242   3.269   2.646
 5394SOL    HW117081   0.187   3.217   2.580
 5394SOL    HW217082   0.185   3.341   2.686
 5395SOL     OW17083   0.338   1.280   0.949
 5395SOL    HW117084   0.252   1.268   0.999
 5395SOL    HW217085   0.403   1.329   1.007
 5396SOL     OW17086   3.780   2.756   0.982
 5396SOL    HW117087   3.824   2.667   0.965
 5396SOL    HW217088   3.682   2.742   0.999
 5397SOL     OW17089   7.026   0.342   1.839
 5397SOL    HW117090   6.929   0.340   1.818
 5397SOL    HW217091   0.030   0.436   1.853
 5398SOL     OW17092   6.361   2.280   3.466
 5398SOL    HW117093   6.284   2.292   3.403
 5398SOL    HW217094   6.345   2.332   3.549
 5399SOL     OW17095   2.330   2.601   0.977
 5399SOL    HW117096   2.246   2.650   1.000
 5399SOL    HW217097   2.376   2.648   0.901
 5400SOL     OW17098   4.870   2.978   1.191
 5400SOL    HW117099   4.933   2.905   1.217
 5400SOL    HW217100   4.907   3.028   1.112
 5401SOL     OW17101   5.514   3.056   1.268
 5401SOL    HW117102   5.573   3.077   1.346
 5401SOL    HW217103   5.421   3.088   1.288
 5402SOL     OW17104   1.338   6.660   1.675
 5402SOL    HW117105   1.284   6.671   1.592
 5402SOL    HW217106   1.435   6.676   1.655
 5403SOL     OW17107   5.796   2.424   5.852
 5403SOL    HW117108   5.893   2.422   5.830
 5403SOL    HW217109   5.753   2.502   5.807
 5404SOL     OW17110   4.786   6.351   0.559
 5404SOL    HW117111   4.806   6.286   0.632
 5404SOL    HW217112   4.835   6.325   0.476
 5405SOL     OW17113   0.171   4.977   6.665
 5405SOL    HW117114   0.188   5.075   6.664
 5405SOL    HW217115   0.254   4.929   6.693
 5406SOL     OW17116   2.582   1.141   5.882
 5406SOL    HW117117   2.552   1.189   5.964
 5406SOL    HW217118   2.634   1.204   5.823
 5407SOL     OW17119   1.502   6.688   3.816
 5407SOL    HW117120   1.515   6.597   3.855
 5407SOL    HW217121   1.590   6.722   3.783
 5408SOL     OW17122   2.069   2.012   4.155
 5408SOL    HW117123   1.998   2.045   4.093
 5408SOL    HW217124   2.149   2.072   4.149
 5409SOL     OW17125   0.746   2.851   3.126
 5409SOL    HW117126   0.808   2.929   3.113
 5409SOL    HW217127   0.654   2.885   3.145
 5410SOL     OW17128   6.127   2.709   0.666
 5410SOL    HW117129   6.204   2.750   0.714
 5410SOL    HW217130   6.120   2.749   0.574
 5411SOL     OW17131   3.757   5.388   1.119
 5411SOL    HW117132   3.798   5.454   1.055
 5411SOL    HW217133   3.671   5.354   1.082
 5412SOL     OW17134   1.336   2.288   5.445
 5412SOL    HW117135   1.351   2.383   5.471
 5412SOL    HW217136   1.389   2.268   5.363
 5413SOL     OW17137   6.892   5.104   5.871
 5413SOL    HW117138   6.943   5.114   5.956
 5413SOL    HW217139   6.893   5.008   5.843
 5414SOL     OW17140   5.542   5.049   5.887
 5414SOL    HW117141   5.459   5.068   5.939
 5414SOL    HW217142   5.589   5.135   5.867
 5415SOL     OW17143   1.337   1.676   6.251
 5415SOL    HW117144   1.336   1.711   6.157
 5415SOL    HW217145   1.411   1.610   6.261
 5416SOL     OW17146   2.852   6.238   6.540
 5416SOL    HW117147   2.792   6.316   6.555
 5416SOL    HW217148   2.804   6.166   6.491
 5417SOL     OW17149   5.793   0.449   2.994
 5417SOL    HW117150   5.848   0.426   2.915
 5417SOL    HW217151   5.723   0.379   3.009
 5418SOL     OW17152   0.169   3.989   5.765
 5418SOL    HW117153   0.078   3.954   5.789
 5418SOL    HW217154   0.188   4.072   5.817
 5419SOL     OW17155   3.342   2.287   6.502
 5419SOL    HW117156   3.275   2.224   6.465
 5419SOL    HW217157   3.427   2.279   6.451
 5420SOL     OW17158   1.487   2.295   1.153
 5420SOL    HW117159   1.396   2.260   1.175
 5420SOL    HW217160   1.512   2.265   1.060
 5421SOL     OW17161   4.342   5.212   2.100
 5421SOL    HW117162   4.416   5.158   2.140
 5421SOL    HW217163   4.350   5.211   2.000
 5422SOL     OW17164   2.115   5.993   3.600
 5422SOL    HW117165   2.064   5.924   3.651
 5422SOL    HW217166   2.191   5.949   3.553
 5423SOL     OW17167   4.459   6.716   1.457
 5423SOL    HW117168   4.368   6.687   1.487
 5423SOL    HW217169   4.469   6.815   1.473
 5424SOL     OW17170   3.994   3.362   5.554
 5424SOL    HW117171   4.064   3.292   5.547
 5424SOL    HW217172   4.031   3.450   5.524
 5425SOL     OW17173   1.536   5.696   5.931
 5425SOL    HW117174   1.446   5.738   5.942
 5425SOL    HW217175   1.566   5.658   6.018
 5426SOL     OW17176   0.019   4.029   0.591
 5426SOL    HW117177   0.051   4.073   0.675
 5426SOL    HW217178   6.960   4.071   0.561
 5427SOL     OW17179   5.310   2.352   0.775
 5427SOL    HW117180   5.325   2.253   0.783
 5427SOL    HW217181   5.367   2.399   0.842
 5428SOL     OW17182   4.519   5.853   2.550
 5428SOL    HW117183   4.613   5.823   2.564
 5428SOL    HW217184   4.467   5.841   2.634
 5429SOL     OW17185   2.854   6.955   3.941
 5429SOL    HW117186   2.779   7.014   3.911
 5429SOL    HW217187   2.934   7.011   3.962
 5430SOL     OW17188   1.560   4.204   5.822
 5430SOL    HW117189   1.484   4.158   5.869
 5430SOL    HW217190   1.531   4.230   5.730
 5431SOL     OW17191   5.180   4.781   0.690
 5431SOL    HW117192   5.146   4.874   0.703
 5431SOL    HW217193   5.256   4.764   0.753
 5432SOL     OW17194   0.435   5.170   6.463
 5432SOL    HW117195   0.498   5.243   6.489
 5432SOL    HW217196   0.483   5.082   6.471
 5433SOL     OW17197   3.510   6.658   1.307
 5433SOL    HW117198   3.444   6.589   1.277
 5433SOL    HW217199   3.468   6.714   1.379
 5434SOL     OW17200   4.978   6.098   4.111
 5434SOL    HW117201   5.053   6.032   4.115
 5434SOL    HW217202   5.002   6.172   4.047
 5435SOL     OW17203   0.082   3.975   6.744
 5435SOL    HW117204   0.180   3.981   6.722
 5435SOL    HW217205   0.032   3.943   6.664
 5436SOL     OW17206   2.039   4.383   2.315
 5436SOL    HW117207   2.057   4.436   2.398
 5436SOL    HW217208   1.949   4.409   2.278
 5437SOL     OW17209   3.226   6.160   0.391
 5437SOL    HW117210   3.161   6.093   0.428
 5437SOL    HW217211   3.207   6.250   0.429
 5438SOL     OW17212   4.711   6.614   2.410
 5438SOL    HW117213   4.784   6.560   2.451
 5438SOL    HW217214   4.688   6.691   2.469
 5439SOL     OW17215   1.726   3.820   1.532
 5439SOL    HW117216   1.714   3.741   1.592
 5439SOL    HW217217   1.821   3.851   1.537
 5440SOL     OW17218   5.805   6.676   4.030
 5440SOL    HW117219   5.901   6.686   4.002
 5440SOL    HW217220   5.796   6.697   4.127
 5441SOL     OW17221   5.914   2.249   4.697
 5441SOL    HW117222   5.835   2.204   4.739
 5441SOL    HW217223   5.898   2.262   4.600
 5442SOL     OW17224   2.375   0.324   6.881
 5442SOL    HW117225   2.436   0.290   6.810
 5442SOL    HW217226   2.413   0.408   6.920
 5443SOL     OW17227   5.912   0.557   3.208
 5443SOL    HW117228   5.870   0.526   3.123
 5443SOL    HW217229   6.011   0.546   3.201
 5444SOL     OW17230   0.790   1.353   5.990
 5444SOL    HW117231   0.865   1.417   6.010
 5444SOL    HW217232   0.726   1.396   5.926
 5445SOL     OW17233   5.968   6.715   5.357
 5445SOL    HW117234   5.951   6.778   5.432
 5445SOL    HW217235   6.046   6.748   5.303
 5446SOL     OW17236   1.086   4.499   5.986
 5446SOL    HW117237   1.073   4.400   5.991
 5446SOL    HW217238   1.174   4.519   5.942
 5447SOL     OW17239   6.592   2.063   1.606
 5447SOL    HW117240   6.521   2.015   1.554
 5447SOL    HW217241   6.551   2.110   1.684
 5448SOL     OW17242   6.051   5.151   1.934
 5448SOL    HW117243   6.036   5.142   1.835
 5448SOL    HW217244   6.052   5.248   1.958
 5449SOL     OW17245   2.105   0.108   1.871
 5449SOL    HW117246   2.063   0.048   1.803
 5449SOL    HW217247   2.057   0.100   1.958
 5450SOL     OW17248   4.032   5.893   1.345
 5450SOL    HW117249   4.051   5.959   1.273
 5450SOL    HW217250   3.944   5.849   1.327
 5451SOL     OW17251   0.432   6.189   3.950
 5451SOL    HW117252   0.414   6.272   4.003
 5451SOL    HW217253   0.450   6.213   3.855
 5452SOL     OW17254   2.459   4.402   2.733
 5452SOL    HW117255   2.460   4.322   2.673
 5452SOL    HW217256   2.424   4.481   2.682
 5453SOL     OW17257   5.939   4.524   4.024
 5453SOL    HW117258   6.031   4.545   3.990
 5453SOL    HW217259   5.917   4.585   4.100
 5454SOL     OW17260   5.421   3.991   2.824
 5454SOL    HW117261   5.407   3.898   2.857
 5454SOL    HW217262   5.508   3.998   2.776
 5455SOL     OW17263   2.885   2.095   3.253
 5455SOL    HW117264   2.980   2.104   3.282
 5455SOL    HW217265   2.827   2.158   3.305
 5456SOL     OW17266   5.733   2.300   0.523
 5456SOL    HW117267   5.730   2.380   0.582
 5456SOL    HW217268   5.718   2.217   0.577
 5457SOL     OW17269   6.454   1.247   0.223
 5457SOL    HW117270   6.355   1.246   0.238
 5457SOL    HW217271   6.487   1.341   0.224
 5458SOL     OW17272   5.454   4.852   6.349
 5458SOL    HW117273   5.381   4.881   6.288
 5458SOL    HW217274   5.543   4.868   6.305
 5459SOL     OW17275   2.172   2.990   5.214
 5459SOL    HW117276   2.270   2.994   5.198
 5459SOL    HW217277   2.123   2.995   5.127
 5460SOL     OW17278   0.265   0.465   1.181
 5460SOL    HW117279   0.281   0.464   1.083
 5460SOL    HW217280   0.258   0.371   1.215
 5461SOL     OW17281   5.614   1.642   6.681
 5461SOL    HW117282   5.597   1.648   6.779
 5461SOL    HW217283   5.680   1.569   6.663
 5462SOL     OW17284   5.225   5.344   6.365
 5462SOL    HW117285   5.299   5.332   6.430
 5462SOL    HW217286   5.165   5.265   6.368
 5463SOL     OW17287   1.334   4.836   5.921
 5463SOL    HW117288   1.276   4.870   5.994
 5463SOL    HW217289   1.308   4.742   5.898
 5464SOL     OW17290   2.005   5.047   4.992
 5464SOL    HW117291   1.907   5.035   5.009
 5464SOL    HW217292   2.041   4.965   4.948
 5465SOL     OW17293   0.401   0.198   5.285
 5465SOL    HW117294   0.353   0.119   5.322
 5465SOL    HW217295   0.499   0.182   5.289
 5466SOL     OW17296   5.292   1.981   5.151
 5466SOL    HW117297   5.378   1.952   5.108
 5466SOL    HW217298   5.223   1.994   5.080
 5467SOL     OW17299   5.306   3.067   4.470
 5467SOL    HW117300   5.265   3.153   4.439
 5467SOL    HW217301   5.240   3.015   4.522
 5468SOL     OW17302   6.886   2.719   1.591
 5468SOL    HW117303   6.892   2.651   1.517
 5468SOL    HW217304   6.860   2.673   1.676
 5469SOL     OW17305   4.060   1.835   4.323
 5469SOL    HW117306   4.045   1.757   4.263
 5469SOL    HW217307   4.131   1.894   4.283
 5470SOL     OW17308   3.782   4.880   3.749
 5470SOL    HW117309   3.853   4.949   3.755
 5470SOL    HW217310   3.766   4.841   3.840
 5471SOL     OW17311   5.099   0.674   2.857
 5471SOL    HW117312   5.171   0.743   2.848
 5471SOL    HW217313   5.054   0.660   2.769
 5472SOL     OW17314   2.169   3.652   6.967
 5472SOL    HW117315   2.194   3.570   6.916
 5472SOL    HW217316   2.074   3.644   6.998
 5473SOL     OW17317   2.986   4.816   2.032
 5473SOL    HW117318   2.960   4.792   2.126
 5473SOL    HW217319   2.939   4.753   1.969
 5474SOL     OW17320   1.360   5.076   2.173
 5474SOL    HW117321   1.311   5.108   2.092
 5474SOL    HW217322   1.449   5.040   2.146
 5475SOL     OW17323   1.443   1.610   5.052
 5475SOL    HW117324   1.464   1.692   5.104
 5475SOL    HW217325   1.503   1.536   5.081
 5476SOL     OW17326   1.994   0.588   4.746
 5476SOL    HW117327   2.033   0.678   4.724
 5476SOL    HW217328   1.997   0.573   4.845
 5477SOL     OW17329   2.119   3.082   3.363
 5477SOL    HW117330   2.137   3.099   3.266
 5477SOL    HW217331   2.143   3.164   3.416
 5478SOL     OW17332   5.731   4.175   5.076
 5478SOL    HW117333   5.810   4.202   5.131
 5478SOL    HW217334   5.742   4.209   4.982
 5479SOL     OW17335   5.564   3.218   4.493
 5479SOL    HW117336   5.518   3.138   4.532
 5479SOL    HW217337   5.541   3.226   4.396
 5480SOL     OW17338   1.229   3.795   4.844
 5480SOL    HW117339   1.155   3.830   4.903
 5480SOL    HW217340   1.267   3.712   4.884
 5481SOL     OW17341   3.227   1.582   6.304
 5481SOL    HW117342   3.312   1.535   6.329
 5481SOL    HW217343   3.213   1.574   6.205
 5482SOL     OW17344   5.394   3.436   1.985
 5482SOL    HW117345   5.419   3.339   1.986
 5482SOL    HW217346   5.456   3.487   2.045
 5483SOL     OW17347   6.873   3.244   6.839
 5483SOL    HW117348   6.901   3.164   6.785
 5483SOL    HW217349   6.939   3.260   6.912
 5484SOL     OW17350   6.533   0.565   5.087
 5484SOL    HW117351   6.624   0.589   5.055
 5484SOL    HW217352   6.486   0.647   5.119
 5485SOL     OW17353   3.277   0.869   5.194
 5485SOL    HW117354   3.372   0.895   5.175
 5485SOL    HW217355   3.216   0.942   5.163
 5486SOL     OW17356   1.189   0.716   3.732
 5486SOL    HW117357   1.204   0.786   3.662
 5486SOL    HW217358   1.243   0.738   3.813
 5487SOL     OW17359   4.391   5.437   0.985
 5487SOL    HW117360   4.309   5.495   0.989
 5487SOL    HW217361   4.363   5.341   0.985
 5488SOL     OW17362   4.985   1.507   5.829
 5488SOL    HW117363   5.031   1.422   5.804
 5488SOL    HW217364   4.887   1.491   5.840
 5489SOL     OW17365   6.204   4.112   2.599
 5489SOL    HW117366   6.116   4.117   2.647
 5489SOL    HW217367   6.246   4.024   2.617
 5490SOL     OW17368   2.184   1.972   6.095
 5490SOL    HW117369   2.151   2.064   6.116
 5490SOL    HW217370   2.272   1.957   6.141
 5491SOL     OW17371   0.095   5.856   2.199
 5491SOL    HW117372   0.120   5.952   2.190
 5491SOL    HW217373   0.007   5.849   2.245
 5492SOL     OW17374   1.436   1.450   4.556
 5492SOL    HW117375   1.527   1.418   4.579
 5492SOL    HW217376   1.371   1.374   4.560
 5493SOL     OW17377   3.000   2.021   0.474
 5493SOL    HW117378   2.957   2.111   0.473
 5493SOL    HW217379   2.930   1.951   0.461
 5494SOL     OW17380   5.836   3.234   2.362
 5494SOL    HW117381   5.933   3.218   2.380
 5494SOL    HW217382   5.785   3.149   2.376
 5495SOL     OW17383   3.776   3.095   3.805
 5495SOL    HW117384   3.807   3.121   3.713
 5495SOL    HW217385   3.676   3.095   3.807
 5496SOL     OW17386   4.566   4.877   1.882
 5496SOL    HW117387   4.626   4.926   1.819
 5496SOL    HW217388   4.470   4.897   1.860
 5497SOL     OW17389   6.001   0.087   1.335
 5497SOL    HW117390   6.063   0.073   1.258
 5497SOL    HW217391   6.019   0.176   1.377
 5498SOL     OW17392   4.277   0.587   4.775
 5498SOL    HW117393   4.301   0.502   4.822
 5498SOL    HW217394   4.183   0.613   4.797
 5499SOL     OW17395   0.787   1.285   5.441
 5499SOL    HW117396   0.770   1.383   5.429
 5499SOL    HW217397   0.885   1.269   5.451
 5500SOL     OW17398   2.167   6.082   0.822
 5500SOL    HW117399   2.112   6.001   0.842
 5500SOL    HW217400   2.116   6.141   0.758
 5501SOL     OW17401   3.014   0.620   2.602
 5501SOL    HW117402   3.114   0.619   2.614
 5501SOL    HW217403   2.988   0.704   2.555
 5502SOL     OW17404   4.721   3.264   0.696
 5502SOL    HW117405   4.737   3.167   0.678
 5502SOL    HW217406   4.645   3.297   0.640
 5503SOL     OW17407   0.699   6.439   4.780
 5503SOL    HW117408   0.750   6.491   4.711
 5503SOL    HW217409   0.637   6.375   4.734
 5504SOL     OW17410   3.290   2.118   4.658
 5504SOL    HW117411   3.295   2.054   4.734
 5504SOL    HW217412   3.213   2.093   4.599
 5505SOL     OW17413   3.753   4.622   7.012
 5505SOL    HW117414   3.799   4.534   6.994
 5505SOL    HW217415   3.710   4.619   0.076
 5506SOL     OW17416   6.924   6.634   5.546
 5506SOL    HW117417   6.996   6.589   5.600
 5506SOL    HW217418   6.898   6.576   5.470
 5507SOL     OW17419   3.955   6.012   4.572
 5507SOL    HW117420   3.978   5.933   4.628
 5507SOL    HW217421   3.870   6.054   4.606
 5508SOL     OW17422   1.690   0.452   6.223
 5508SOL    HW117423   1.636   0.455   6.139
 5508SOL    HW217424   1.636   0.488   6.299
 5509SOL     OW17425   6.060   6.826   6.813
 5509SOL    HW117426   6.103   6.792   6.730
 5509SOL    HW217427   6.061   6.755   6.883
 5510SOL     OW17428   5.933   0.667   6.441
 5510SOL    HW117429   5.841   0.647   6.408
 5510SOL    HW217430   6.001   0.635   6.374
 5511SOL     OW17431   6.909   2.536   1.364
 5511SOL    HW117432   6.817   2.538   1.324
 5511SOL    HW217433   6.972   2.491   1.301
 5512SOL     OW17434   0.318   0.135   0.461
 5512SOL    HW117435   0.413   0.108   0.471
 5512SOL    HW217436   0.269   0.067   0.407
 5513SOL     OW17437   3.556   5.882   4.859
 5513SOL    HW117438   3.650   5.904   4.886
 5513SOL    HW217439   3.518   5.958   4.807
 5514SOL     OW17440   5.836   5.386   3.815
 5514SOL    HW117441   5.911   5.424   3.869
 5514SOL    HW217442   5.754   5.442   3.827
 5515SOL     OW17443   6.511   3.498   3.262
 5515SOL    HW117444   6.482   3.424   3.323
 5515SOL    HW217445   6.528   3.461   3.171
 5516SOL     OW17446   1.167   3.025   6.807
 5516SOL    HW117447   1.168   2.925   6.814
 5516SOL    HW217448   1.092   3.061   6.863
 5517SOL     OW17449   2.362   0.924   1.501
 5517SOL    HW117450   2.401   1.010   1.534
 5517SOL    HW217451   2.435   0.859   1.482
 5518SOL     OW17452   5.891   4.716   5.205
 5518SOL    HW117453   5.856   4.750   5.118
 5518SOL    HW217454   5.965   4.774   5.238
 5519SOL     OW17455   5.128   3.871   3.208
 5519SOL    HW117456   5.175   3.884   3.295
 5519SOL    HW217457   5.183   3.912   3.134
 5520SOL     OW17458   2.119   2.779   0.954
 5520SOL    HW117459   2.106   2.837   0.874
 5520SOL    HW217460   2.062   2.811   1.029
 5521SOL     OW17461   5.020   5.717   0.837
 5521SOL    HW117462   5.024   5.620   0.860
 5521SOL    HW217463   4.992   5.728   0.742
 5522SOL     OW17464   2.040   3.098   2.532
 5522SOL    HW117465   2.037   3.052   2.444
 5522SOL    HW217466   2.021   3.196   2.520
 5523SOL     OW17467   3.028   0.593   1.998
 5523SOL    HW117468   3.062   0.503   1.971
 5523SOL    HW217469   3.106   0.655   2.010
 5524SOL     OW17470   5.360   5.770   5.771
 5524SOL    HW117471   5.439   5.722   5.731
 5524SOL    HW217472   5.276   5.735   5.729
 5525SOL     OW17473   6.731   5.949   4.298
 5525SOL    HW117474   6.732   6.004   4.381
 5525SOL    HW217475   6.801   5.981   4.235
 5526SOL     OW17476   5.393   3.011   4.748
 5526SOL    HW117477   5.464   2.983   4.684
 5526SOL    HW217478   5.317   2.947   4.743
 5527SOL     OW17479   2.289   3.211   0.581
 5527SOL    HW117480   2.344   3.280   0.532
 5527SOL    HW217481   2.242   3.255   0.657
 5528SOL     OW17482   6.768   3.452   2.591
 5528SOL    HW117483   6.817   3.507   2.658
 5528SOL    HW217484   6.719   3.379   2.637
 5529SOL     OW17485   1.345   1.702   4.457
 5529SOL    HW117486   1.401   1.761   4.516
 5529SOL    HW217487   1.367   1.606   4.477
 5530SOL     OW17488   0.057   3.281   0.009
 5530SOL    HW117489   0.011   3.231   0.082
 5530SOL    HW217490   0.156   3.267   0.016
 5531SOL     OW17491   1.097   2.451   6.804
 5531SOL    HW117492   1.088   2.366   6.752
 5531SOL    HW217493   1.033   2.519   6.770
 5532SOL     OW17494   2.207   2.061   1.282
 5532SOL    HW117495   2.259   1.977   1.265
 5532SOL    HW217496   2.227   2.094   1.374
 5533SOL     OW17497   3.936   0.222   0.651
 5533SOL    HW117498   3.842   0.229   0.620
 5533SOL    HW217499   3.938   0.190   0.746
 5534SOL     OW17500   6.944   4.896   4.700
 5534SOL    HW117501   6.966   4.899   4.798
 5534SOL    HW217502   6.874   4.827   4.684
 5535SOL     OW17503   5.756   3.469   3.925
 5535SOL    HW117504   5.723   3.562   3.908
 5535SOL    HW217505   5.757   3.452   4.024
 5536SOL     OW17506   2.587   0.486   4.112
 5536SOL    HW117507   2.647   0.504   4.190
 5536SOL    HW217508   2.600   0.391   4.081
 5537SOL     OW17509   4.183   1.594   4.836
 5537SOL    HW117510   4.111   1.527   4.851
 5537SOL    HW217511   4.197   1.605   4.738
 5538SOL     OW17512   5.173   2.556   1.590
 5538SOL    HW117513   5.097   2.621   1.586
 5538SOL    HW217514   5.166   2.501   1.673
 5539SOL     OW17515   2.868   6.807   0.565
 5539SOL    HW117516   2.852   6.905   0.571
 5539SOL    HW217517   2.948   6.783   0.620
 5540SOL     OW17518   4.778   0.661   6.285
 5540SOL    HW117519   4.798   0.731   6.217
 5540SOL    HW217520   4.691   0.682   6.330
 5541SOL     OW17521   4.581   3.192   0.070
 5541SOL    HW117522   4.659   3.197   0.006
 5541SOL    HW217523   4.568   3.281   0.113
 5542SOL     OW17524   4.401   3.997   0.157
 5542SOL    HW117525   4.341   3.950   0.092
 5542SOL    HW217526   4.480   4.034   0.108
 5543SOL     OW17527   1.823   0.600   0.139
 5543SOL    HW117528   1.855   0.558   0.054
 5543SOL    HW217529   1.893   0.591   0.209
 5544SOL     OW17530   3.881   5.484   6.548
 5544SOL    HW117531   3.931   5.404   6.580
 5544SOL    HW217532   3.842   5.533   6.625
 5545SOL     OW17533   4.799   1.073   3.787
 5545SOL    HW117534   4.884   1.026   3.760
 5545SOL    HW217535   4.811   1.171   3.776
 5546SOL     OW17536   0.555   4.871   4.109
 5546SOL    HW117537   0.528   4.923   4.190
 5546SOL    HW217538   0.541   4.928   4.027
 5547SOL     OW17539   5.055   1.647   5.029
 5547SOL    HW117540   5.066   1.743   5.055
 5547SOL    HW217541   5.120   1.591   5.079
 5548SOL     OW17542   0.577   4.302   4.398
 5548SOL    HW117543   0.516   4.376   4.372
 5548SOL    HW217544   0.672   4.334   4.395
 5549SOL     OW17545   4.564   2.995   0.310
 5549SOL    HW117546   4.583   3.044   0.225
 5549SOL    HW217547   4.465   2.986   0.322
 5550SOL     OW17548   2.079   4.376   1.697
 5550SOL    HW117549   2.075   4.408   1.792
 5550SOL    HW217550   2.089   4.277   1.696
 5551SOL     OW17551   1.744   5.548   3.208
 5551SOL    HW117552   1.833   5.548   3.254
 5551SOL    HW217553   1.728   5.638   3.167
 5552SOL     OW17554   0.685   6.620   0.029
 5552SOL    HW117555   0.676   6.642   6.959
 5552SOL    HW217556   0.606   6.565   0.058
 5553SOL     OW17557   5.066   0.380   0.189
 5553SOL    HW117558   5.130   0.340   0.254
 5553SOL    HW217559   5.115   0.412   0.108
 5554SOL     OW17560   6.673   1.747   1.275
 5554SOL    HW117561   6.669   1.667   1.215
 5554SOL    HW217562   6.616   1.820   1.239
 5555SOL     OW17563   1.835   4.823   2.846
 5555SOL    HW117564   1.747   4.776   2.831
 5555SOL    HW217565   1.821   4.921   2.840
 5556SOL     OW17566   0.574   0.794   4.517
 5556SOL    HW117567   0.637   0.717   4.530
 5556SOL    HW217568   0.606   0.850   4.441
 5557SOL     OW17569   3.622   5.760   3.438
 5557SOL    HW117570   3.550   5.829   3.439
 5557SOL    HW217571   3.683   5.776   3.361
 5558SOL     OW17572   4.707   3.812   6.887
 5558SOL    HW117573   4.769   3.735   6.901
 5558SOL    HW217574   4.713   3.843   6.792
 5559SOL     OW17575   3.200   1.144   3.064
 5559SOL    HW117576   3.245   1.231   3.046
 5559SOL    HW217577   3.101   1.155   3.057
 5560SOL     OW17578   0.637   5.223   3.531
 5560SOL    HW117579   0.598   5.315   3.538
 5560SOL    HW217580   0.736   5.228   3.542
 5561SOL     OW17581   3.658   6.709   3.209
 5561SOL    HW117582   3.683   6.806   3.202
 5561SOL    HW217583   3.716   6.664   3.276
 5562SOL     OW17584   3.490   3.897   0.958
 5562SOL    HW117585   3.456   3.826   1.019
 5562SOL    HW217586   3.415   3.936   0.906
 5563SOL     OW17587   2.121   4.527   2.519
 5563SOL    HW117588   2.216   4.558   2.519
 5563SOL    HW217589   2.104   4.471   2.600
 5564SOL     OW17590   5.338   0.953   6.131
 5564SOL    HW117591   5.398   0.983   6.205
 5564SOL    HW217592   5.358   0.858   6.108
 5565SOL     OW17593   3.149   2.058   6.121
 5565SOL    HW117594   3.056   2.025   6.137
 5565SOL    HW217595   3.145   2.141   6.066
 5566SOL     OW17596   1.536   3.948   0.243
 5566SOL    HW117597   1.440   3.951   0.218
 5566SOL    HW217598   1.561   4.034   0.290
 5567SOL     OW17599   0.228   3.772   0.619
 5567SOL    HW117600   0.221   3.862   0.575
 5567SOL    HW217601   0.141   3.724   0.611
 5568SOL     OW17602   4.753   4.962   1.701
 5568SOL    HW117603   4.832   4.904   1.717
 5568SOL    HW217604   4.782   5.045   1.652
 5569SOL     OW17605   2.253   3.011   2.988
 5569SOL    HW117606   2.349   2.984   2.991
 5569SOL    HW217607   2.227   3.034   2.894
 5570SOL     OW17608   6.766   3.630   2.361
 5570SOL    HW117609   6.761   3.559   2.432
 5570SOL    HW217610   6.801   3.590   2.276
 5571SOL     OW17611   6.034   4.758   1.447
 5571SOL    HW117612   6.016   4.847   1.406
 5571SOL    HW217613   6.132   4.748   1.463
 5572SOL     OW17614   1.646   4.158   4.932
 5572SOL    HW117615   1.555   4.200   4.923
 5572SOL    HW217616   1.636   4.059   4.940
 5573SOL     OW17617   3.410   5.245   3.975
 5573SOL    HW117618   3.500   5.284   3.994
 5573SOL    HW217619   3.416   5.185   3.895
 5574SOL     OW17620   0.485   2.765   5.849
 5574SOL    HW117621   0.404   2.715   5.883
 5574SOL    HW217622   0.537   2.800   5.927
 5575SOL     OW17623   0.293   6.873   1.859
 5575SOL    HW117624   0.285   6.775   1.875
 5575SOL    HW217625   0.383   6.893   1.821
 5576SOL     OW17626   1.039   5.128   3.214
 5576SOL    HW117627   1.119   5.099   3.266
 5576SOL    HW217628   1.067   5.160   3.124
 5577SOL     OW17629   1.751   2.829   5.895
 5577SOL    HW117630   1.812   2.806   5.820
 5577SOL    HW217631   1.802   2.829   5.981
 5578SOL     OW17632   3.772   4.001   3.886
 5578SOL    HW117633   3.774   4.028   3.982
 5578SOL    HW217634   3.704   4.056   3.837
 5579SOL     OW17635   0.377   3.148   1.985
 5579SOL    HW117636   0.463   3.165   1.935
 5579SOL    HW217637   0.332   3.236   2.003
 5580SOL     OW17638   5.430   2.117   5.566
 5580SOL    HW117639   5.358   2.071   5.618
 5580SOL    HW217640   5.495   2.157   5.630
 5581SOL     OW17641   1.010   2.537   0.249
 5581SOL    HW117642   1.020   2.467   0.178
 5581SOL    HW217643   0.946   2.505   0.319
 5582SOL     OW17644   2.380   2.980   6.729
 5582SOL    HW117645   2.330   2.899   6.701
 5582SOL    HW217646   2.462   2.953   6.779
 5583SOL     OW17647   5.275   0.644   2.397
 5583SOL    HW117648   5.217   0.570   2.365
 5583SOL    HW217649   5.359   0.646   2.343
 5584SOL     OW17650   1.651   3.477   4.780
 5584SOL    HW117651   1.680   3.382   4.785
 5584SOL    HW217652   1.634   3.512   4.873
 5585SOL     OW17653   5.370   4.847   2.134
 5585SOL    HW117654   5.369   4.894   2.223
 5585SOL    HW217655   5.409   4.756   2.146
 5586SOL     OW17656   6.281   3.726   0.321
 5586SOL    HW117657   6.252   3.702   0.228
 5586SOL    HW217658   6.293   3.643   0.375
 5587SOL     OW17659   5.883   1.236   6.146
 5587SOL    HW117660   5.959   1.293   6.176
 5587SOL    HW217661   5.911   1.183   6.066
 5588SOL     OW17662   3.803   6.755   0.860
 5588SOL    HW117663   3.744   6.787   0.934
 5588SOL    HW217664   3.813   6.827   0.792
 5589SOL     OW17665   5.761   4.822   5.786
 5589SOL    HW117666   5.694   4.880   5.832
 5589SOL    HW217667   5.853   4.860   5.797
 5590SOL     OW17668   6.234   5.783   3.782
 5590SOL    HW117669   6.206   5.865   3.831
 5590SOL    HW217670   6.186   5.778   3.695
 5591SOL     OW17671   5.452   0.912   1.738
 5591SOL    HW117672   5.505   0.992   1.766
 5591SOL    HW217673   5.508   0.854   1.678
 5592SOL     OW17674   0.946   3.418   3.423
 5592SOL    HW117675   1.039   3.419   3.385
 5592SOL    HW217676   0.898   3.336   3.391
 5593SOL     OW17677   6.752   3.554   0.437
 5593SOL    HW117678   6.703   3.641   0.434
 5593SOL    HW217679   6.756   3.515   0.345
 5594SOL     OW17680   5.778   2.421   6.221
 5594SOL    HW117681   5.822   2.423   6.311
 5594SOL    HW217682   5.802   2.336   6.174
 5595SOL     OW17683   0.799   3.021   5.677
 5595SOL    HW117684   0.735   3.077   5.730
 5595SOL    HW217685   0.787   3.040   5.580
 5596SOL     OW17686   3.243   6.518   2.931
 5596SOL    HW117687   3.313   6.455   2.965
 5596SOL    HW217688   3.189   6.552   3.007
 5597SOL     OW17689   5.265   2.798   2.695
 5597SOL    HW117690   5.251   2.840   2.605
 5597SOL    HW217691   5.287   2.869   2.762
 5598SOL     OW17692   5.549   1.946   4.800
 5598SOL    HW117693   5.516   2.018   4.861
 5598SOL    HW217694   5.583   1.870   4.855
 5599SOL     OW17695   0.947   0.895   3.907
 5599SOL    HW117696   0.932   0.806   3.951
 5599SOL    HW217697   1.034   0.933   3.940
 5600SOL     OW17698   1.491   2.086   3.864
 5600SOL    HW117699   1.470   2.170   3.913
 5600SOL    HW217700   1.491   2.009   3.928
 5601SOL     OW17701   2.410   0.508   5.927
 5601SOL    HW117702   2.459   0.442   5.870
 5601SOL    HW217703   2.368   0.461   6.004
 5602SOL     OW17704   1.770   1.304   6.991
 5602SOL    HW117705   1.728   1.392   7.014
 5602SOL    HW217706   1.723   1.231   0.014
 5603SOL     OW17707   5.718   3.737   6.607
 5603SOL    HW117708   5.765   3.811   6.655
 5603SOL    HW217709   5.729   3.749   6.508
 5604SOL     OW17710   6.319   1.534   6.074
 5604SOL    HW117711   6.299   1.589   6.155
 5604SOL    HW217712   6.378   1.586   6.012
 5605SOL     OW17713   0.833   2.420   5.435
 5605SOL    HW117714   0.833   2.519   5.447
 5605SOL    HW217715   0.821   2.375   5.524
 5606SOL     OW17716   5.272   0.034   2.572
 5606SOL    HW117717   5.329   0.109   2.605
 5606SOL    HW217718   5.179   0.044   2.608
 5607SOL     OW17719   5.981   1.008   1.950
 5607SOL    HW117720   6.031   1.073   2.009
 5607SOL    HW217721   6.044   0.969   1.884
 5608SOL     OW17722   4.778   6.731   4.721
 5608SOL    HW117723   4.688   6.723   4.680
 5608SOL    HW217724   4.844   6.677   4.668
 5609SOL     OW17725   2.263   5.775   5.798
 5609SOL    HW117726   2.220   5.809   5.714
 5609SOL    HW217727   2.211   5.697   5.833
 5610SOL     OW17728   4.347   0.174   6.481
 5610SOL    HW117729   4.440   0.203   6.459
 5610SOL    HW217730   4.319   0.216   6.568
 5611SOL     OW17731   1.597   4.713   3.329
 5611SOL    HW117732   1.640   4.797   3.298
 5611SOL    HW217733   1.544   4.673   3.254
 5612SOL     OW17734   1.977   0.478   5.693
 5612SOL    HW117735   2.005   0.387   5.663
 5612SOL    HW217736   1.885   0.473   5.732
 5613SOL     OW17737   3.783   5.076   1.664
 5613SOL    HW117738   3.830   5.116   1.743
 5613SOL    HW217739   3.685   5.093   1.672
 5614SOL     OW17740   4.632   2.222   3.450
 5614SOL    HW117741   4.565   2.284   3.408
 5614SOL    HW217742   4.603   2.201   3.544
 5615SOL     OW17743   1.297   1.681   1.305
 5615SOL    HW117744   1.361   1.735   1.360
 5615SOL    HW217745   1.338   1.592   1.284
 5616SOL     OW17746   2.930   0.325   4.879
 5616SOL    HW117747   3.004   0.388   4.903
 5616SOL    HW217748   2.951   0.280   4.792
 5617SOL     OW17749   1.116   1.102   5.072
 5617SOL    HW117750   1.180   1.040   5.026
 5617SOL    HW217751   1.147   1.196   5.061
 5618SOL     OW17752   6.592   4.621   2.499
 5618SOL    HW117753   6.567   4.548   2.436
 5618SOL    HW217754   6.537   4.702   2.480
 5619SOL     OW17755   2.133   3.638   4.796
 5619SOL    HW117756   2.175   3.574   4.859
 5619SOL    HW217757   2.128   3.729   4.838
 5620SOL     OW17758   3.782   2.364   5.854
 5620SOL    HW117759   3.773   2.266   5.875
 5620SOL    HW217760   3.860   2.401   5.904
 5621SOL     OW17761   1.738   2.324   6.424
 5621SOL    HW117762   1.717   2.352   6.518
 5621SOL    HW217763   1.837   2.320   6.412
 5622SOL     OW17764   5.819   0.751   5.853
 5622SOL    HW117765   5.778   0.686   5.916
 5622SOL    HW217766   5.766   0.835   5.852
 5623SOL     OW17767   0.482   5.584   6.719
 5623SOL    HW117768   0.445   5.513   6.780
 5623SOL    HW217769   0.513   5.541   6.634
 5624SOL     OW17770   1.170   3.975   3.218
 5624SOL    HW117771   1.223   4.059   3.219
 5624SOL    HW217772   1.163   3.939   3.312
 5625SOL     OW17773   6.843   2.069   5.479
 5625SOL    HW117774   6.824   2.167   5.476
 5625SOL    HW217775   6.939   2.054   5.500
 5626SOL     OW17776   4.298   0.007   4.295
 5626SOL    HW117777   4.330   0.101   4.297
 5626SOL    HW217778   4.240   7.019   4.215
 5627SOL     OW17779   0.924   5.904   0.382
 5627SOL    HW117780   0.914   5.804   0.376
 5627SOL    HW217781   1.021   5.928   0.381
 5628SOL     OW17782   1.174   0.987   4.392
 5628SOL    HW117783   1.162   0.908   4.452
 5628SOL    HW217784   1.107   1.058   4.416
 5629SOL     OW17785   3.537   3.525   2.977
 5629SOL    HW117786   3.595   3.456   3.020
 5629SOL    HW217787   3.582   3.614   2.982
 5630SOL     OW17788   6.846   4.476   1.880
 5630SOL    HW117789   6.784   4.409   1.921
 5630SOL    HW217790   6.918   4.498   1.946
 5631SOL     OW17791   4.680   0.583   6.752
 5631SOL    HW117792   4.708   0.589   6.657
 5631SOL    HW217793   4.661   0.488   6.775
 5632SOL     OW17794   3.190   3.248   0.230
 5632SOL    HW117795   3.100   3.236   0.188
 5632SOL    HW217796   3.210   3.168   0.287
 5633SOL     OW17797   6.263   2.729   4.826
 5633SOL    HW117798   6.227   2.812   4.784
 5633SOL    HW217799   6.191   2.660   4.831
 5634SOL     OW17800   4.628   5.674   4.408
 5634SOL    HW117801   4.541   5.721   4.421
 5634SOL    HW217802   4.701   5.741   4.394
 5635SOL     OW17803   3.100   2.205   5.347
 5635SOL    HW117804   3.156   2.257   5.282
 5635SOL    HW217805   3.159   2.161   5.415
 5636SOL     OW17806   3.738   6.330   4.056
 5636SOL    HW117807   3.748   6.318   3.958
 5636SOL    HW217808   3.786   6.256   4.104
 5637SOL     OW17809   5.760   0.222   3.505
 5637SOL    HW117810   5.716   0.241   3.417
 5637SOL    HW217811   5.695   0.176   3.565
 5638SOL     OW17812   4.951   3.619   6.056
 5638SOL    HW117813   4.928   3.532   6.099
 5638SOL    HW217814   5.020   3.605   5.986
 5639SOL     OW17815   2.826   0.634   6.217
 5639SOL    HW117816   2.829   0.705   6.147
 5639SOL    HW217817   2.840   0.544   6.174
 5640SOL     OW17818   2.491   6.968   3.534
 5640SOL    HW117819   2.401   6.990   3.497
 5640SOL    HW217820   2.559   0.002   3.493
 5641SOL     OW17821   5.608   5.929   4.929
 5641SOL    HW117822   5.599   5.831   4.915
 5641SOL    HW217823   5.624   5.975   4.842
 5642SOL     OW17824   1.695   2.053   6.583
 5642SOL    HW117825   1.717   1.962   6.547
 5642SOL    HW217826   1.744   2.123   6.531
 5643SOL     OW17827   5.665   2.230   4.871
 5643SOL    HW117828   5.737   2.298   4.869
 5643SOL    HW217829   5.689   2.158   4.937
 5644SOL     OW17830   3.066   0.281   6.127
 5644SOL    HW117831   3.154   0.323   6.149
 5644SOL    HW217832   3.074   0.182   6.128
 5645SOL     OW17833   4.955   3.516   4.685
 5645SOL    HW117834   4.984   3.420   4.683
 5645SOL    HW217835   4.980   3.559   4.598
 5646SOL     OW17836   1.483   4.160   2.844
 5646SOL    HW117837   1.435   4.089   2.794
 5646SOL    HW217838   1.579   4.134   2.855
 5647SOL     OW17839   6.583   6.556   2.611
 5647SOL    HW117840   6.485   6.569   2.597
 5647SOL    HW217841   6.626   6.645   2.631
 5648SOL     OW17842   4.769   6.274   3.338
 5648SOL    HW117843   4.849   6.283   3.398
 5648SOL    HW217844   4.754   6.178   3.317
 5649SOL     OW17845   1.074   6.396   4.510
 5649SOL    HW117846   1.082   6.425   4.414
 5649SOL    HW217847   1.049   6.299   4.513
 5650SOL     OW17848   6.757   4.403   6.888
 5650SOL    HW117849   6.708   4.468   6.945
 5650SOL    HW217850   6.707   4.316   6.884
 5651SOL     OW17851   2.447   1.235   1.004
 5651SOL    HW117852   2.491   1.309   1.055
 5651SOL    HW217853   2.400   1.174   1.068
 5652SOL     OW17854   0.766   5.765   1.656
 5652SOL    HW117855   0.717   5.677   1.658
 5652SOL    HW217856   0.749   5.814   1.741
 5653SOL     OW17857   0.216   0.130   1.784
 5653SOL    HW117858   0.192   0.214   1.832
 5653SOL    HW217859   0.256   0.065   1.849
 5654SOL     OW17860   3.222   5.388   4.548
 5654SOL    HW117861   3.301   5.338   4.584
 5654SOL    HW217862   3.239   5.486   4.552
 5655SOL     OW17863   6.274   2.348   5.250
 5655SOL    HW117864   6.369   2.351   5.217
 5655SOL    HW217865   6.254   2.258   5.288
 5656SOL     OW17866   6.457   3.461   0.504
 5656SOL    HW117867   6.507   3.503   0.579
 5656SOL    HW217868   6.359   3.463   0.524
 5657SOL     OW17869   5.334   5.782   4.901
 5657SOL    HW117870   5.371   5.730   4.977
 5657SOL    HW217871   5.308   5.720   4.827
 5658SOL     OW17872   2.111   3.011   6.283
 5658SOL    HW117873   2.137   3.095   6.234
 5658SOL    HW217874   2.106   3.031   6.381
 5659SOL     OW17875   2.852   3.949   6.980
 5659SOL    HW117876   2.945   3.981   6.969
 5659SOL    HW217877   2.852   3.859   7.025
 5660SOL     OW17878   4.147   0.771   5.954
 5660SOL    HW117879   4.234   0.770   6.002
 5660SOL    HW217880   4.098   0.685   5.972
 5661SOL     OW17881   1.637   5.514   6.114
 5661SOL    HW117882   1.692   5.430   6.125
 5661SOL    HW217883   1.623   5.556   6.203
 5662SOL     OW17884   3.296   6.719   0.873
 5662SOL    HW117885   3.312   6.814   0.901
 5662SOL    HW217886   3.378   6.665   0.888
 5663SOL     OW17887   1.344   3.345   6.433
 5663SOL    HW117888   1.389   3.419   6.483
 5663SOL    HW217889   1.257   3.322   6.477
 5664SOL     OW17890   4.184   4.852   4.640
 5664SOL    HW117891   4.087   4.857   4.615
 5664SOL    HW217892   4.223   4.766   4.607
 5665SOL     OW17893   1.821   1.701   1.113
 5665SOL    HW117894   1.786   1.790   1.084
 5665SOL    HW217895   1.757   1.629   1.086
 5666SOL     OW17896   5.917   1.602   5.088
 5666SOL    HW117897   5.977   1.609   5.167
 5666SOL    HW217898   5.860   1.520   5.097
 5667SOL     OW17899   2.695   4.946   4.635
 5667SOL    HW117900   2.711   4.872   4.569
 5667SOL    HW217901   2.740   5.030   4.604
 5668SOL     OW17902   4.677   4.174   3.667
 5668SOL    HW117903   4.667   4.263   3.624
 5668SOL    HW217904   4.685   4.184   3.766
 5669SOL     OW17905   5.940   4.178   5.812
 5669SOL    HW117906   5.962   4.083   5.787
 5669SOL    HW217907   5.945   4.235   5.730
 5670SOL     OW17908   1.532   2.184   3.397
 5670SOL    HW117909   1.529   2.278   3.364
 5670SOL    HW217910   1.467   2.172   3.471
 5671SOL     OW17911   7.017   6.288   3.775
 5671SOL    HW117912   0.007   6.208   3.833
 5671SOL    HW217913   0.049   6.283   3.694
 5672SOL     OW17914   5.220   2.815   4.749
 5672SOL    HW117915   5.174   2.794   4.835
 5672SOL    HW217916   5.156   2.860   4.687
 5673SOL     OW17917   1.030   1.450   0.564
 5673SOL    HW117918   0.952   1.391   0.542
 5673SOL    HW217919   1.057   1.436   0.659
 5674SOL     OW17920   2.528   4.583   5.150
 5674SOL    HW117921   2.589   4.653   5.113
 5674SOL    HW217922   2.581   4.515   5.200
 5675SOL     OW17923   3.008   1.651   0.797
 5675SOL    HW117924   2.958   1.575   0.756
 5675SOL    HW217925   3.042   1.711   0.725
 5676SOL     OW17926   2.670   1.449   2.056
 5676SOL    HW117927   2.598   1.389   2.092
 5676SOL    HW217928   2.631   1.510   1.987
 5677SOL     OW17929   6.537   1.551   0.232
 5677SOL    HW117930   6.635   1.571   0.227
 5677SOL    HW217931   6.501   1.579   0.320
 5678SOL     OW17932   3.420   2.071   2.017
 5678SOL    HW117933   3.375   2.072   1.927
 5678SOL    HW217934   3.493   2.140   2.018
 5679SOL     OW17935   6.993   3.304   4.690
 5679SOL    HW117936   0.016   3.389   4.707
 5679SOL    HW217937   6.902   3.324   4.654
 5680SOL     OW17938   0.853   5.367   4.594
 5680SOL    HW117939   0.838   5.300   4.667
 5680SOL    HW217940   0.948   5.397   4.595
 5681SOL     OW17941   1.128   3.447   4.431
 5681SOL    HW117942   1.058   3.519   4.433
 5681SOL    HW217943   1.099   3.370   4.488
 5682SOL     OW17944   2.294   4.626   1.535
 5682SOL    HW117945   2.386   4.665   1.549
 5682SOL    HW217946   2.238   4.644   1.616
 5683SOL     OW17947   6.157   0.731   5.979
 5683SOL    HW117948   6.160   0.826   5.947
 5683SOL    HW217949   6.249   0.693   5.980
 5684SOL     OW17950   2.245   2.757   4.955
 5684SOL    HW117951   2.154   2.795   4.970
 5684SOL    HW217952   2.314   2.828   4.971
 5685SOL     OW17953   2.561   1.902   2.355
 5685SOL    HW117954   2.563   1.977   2.421
 5685SOL    HW217955   2.630   1.834   2.379
 5686SOL     OW17956   4.282   5.669   6.276
 5686SOL    HW117957   4.292   5.765   6.300
 5686SOL    HW217958   4.239   5.620   6.352
 5687SOL     OW17959   1.808   6.377   6.320
 5687SOL    HW117960   1.859   6.462   6.315
 5687SOL    HW217961   1.811   6.329   6.233
 5688SOL     OW17962   2.002   1.911   2.777
 5688SOL    HW117963   2.053   1.929   2.861
 5688SOL    HW217964   1.983   1.998   2.730
 5689SOL     OW17965   0.067   2.449   1.556
 5689SOL    HW117966   0.153   2.488   1.524
 5689SOL    HW217967   7.025   2.455   1.484
 5690SOL     OW17968   2.244   5.302   0.042
 5690SOL    HW117969   2.296   5.387   0.040
 5690SOL    HW217970   2.172   5.306   7.000
 5691SOL     OW17971   3.734   1.371   3.221
 5691SOL    HW117972   3.678   1.419   3.288
 5691SOL    HW217973   3.804   1.434   3.185
 5692SOL     OW17974   5.615   5.008   2.059
 5692SOL    HW117975   5.540   4.945   2.077
 5692SOL    HW217976   5.584   5.082   2.000
 5693SOL     OW17977   3.822   0.858   1.437
 5693SOL    HW117978   3.780   0.941   1.402
 5693SOL    HW217979   3.911   0.880   1.477
 5694SOL     OW17980   1.183   6.979   1.266
 5694SOL    HW117981   1.117   6.922   1.216
 5694SOL    HW217982   1.271   6.933   1.270
 5695SOL     OW17983   2.303   0.564   1.718
 5695SOL    HW117984   2.224   0.623   1.734
 5695SOL    HW217985   2.360   0.563   1.800
 5696SOL     OW17986   1.447   0.336   4.272
 5696SOL    HW117987   1.542   0.338   4.239
 5696SOL    HW217988   1.412   0.242   4.267
 5697SOL     OW17989   6.302   2.984   0.985
 5697SOL    HW117990   6.208   2.969   0.954
 5697SOL    HW217991   6.341   3.063   0.938
 5698SOL     OW17992   3.062   1.960   4.388
 5698SOL    HW117993   3.127   1.890   4.421
 5698SOL    HW217994   3.041   1.943   4.292
 5699SOL     OW17995   1.933   2.759   2.487
 5699SOL    HW117996   1.970   2.829   2.426
 5699SOL    HW217997   1.984   2.674   2.475
 5700SOL     OW17998   6.395   0.375   3.042
 5700SOL    HW117999   6.296   0.364   3.028
 5700SOL    HW218000   6.429   0.446   2.981
 5701SOL     OW18001   0.549   7.014   0.581
 5701SOL    HW118002   0.587   6.933   0.538
 5701SOL    HW218003   0.623   0.050   0.607
 5702SOL     OW18004   2.484   6.845   5.066
 5702SOL    HW118005   2.478   6.819   4.970
 5702SOL    HW218006   2.393   6.843   5.107
 5703SOL     OW18007   0.626   3.281   6.253
 5703SOL    HW118008   0.620   3.194   6.206
 5703SOL    HW218009   0.600   3.269   6.349
 5704SOL     OW18010   4.002   5.723   4.170
 5704SOL    HW118011   4.006   5.624   4.153
 5704SOL    HW218012   3.920   5.744   4.222
 5705SOL     OW18013   6.144   0.540   5.747
 5705SOL    HW118014   6.107   0.464   5.694
 5705SOL    HW218015   6.114   0.532   5.842
 5706SOL     OW18016   4.724   2.000   0.363
 5706SOL    HW118017   4.736   2.094   0.330
 5706SOL    HW218018   4.662   1.951   0.301
 5707SOL     OW18019   5.448   5.674   1.787
 5707SOL    HW118020   5.418   5.683   1.692
 5707SOL    HW218021   5.396   5.602   1.832
 5708SOL     OW18022   5.207   6.591   2.250
 5708SOL    HW118023   5.217   6.548   2.160
 5708SOL    HW218024   5.201   6.520   2.320
 5709SOL     OW18025   0.366   2.305   2.353
 5709SOL    HW118026   0.356   2.360   2.270
 5709SOL    HW218027   0.333   2.357   2.432
 5710SOL     OW18028   3.639   2.319   0.569
 5710SOL    HW118029   3.607   2.250   0.503
 5710SOL    HW218030   3.598   2.300   0.658
 5711SOL     OW18031   5.362   2.075   2.804
 5711SOL    HW118032   5.352   2.022   2.888
 5711SOL    HW218033   5.385   2.014   2.729
 5712SOL     OW18034   6.665   0.144   0.524
 5712SOL    HW118035   6.571   0.121   0.499
 5712SOL    HW218036   6.665   0.212   0.597
 5713SOL     OW18037   2.316   1.193   0.397
 5713SOL    HW118038   2.249   1.248   0.447
 5713SOL    HW218039   2.364   1.132   0.461
 5714SOL     OW18040   6.272   0.274   0.658
 5714SOL    HW118041   6.307   0.286   0.751
 5714SOL    HW218042   6.186   0.221   0.662
 5715SOL     OW18043   0.423   0.347   2.210
 5715SOL    HW118044   0.384   0.363   2.119
 5715SOL    HW218045   0.521   0.367   2.209
 5716SOL     OW18046   6.082   4.544   5.088
 5716SOL    HW118047   6.107   4.630   5.132
 5716SOL    HW218048   6.002   4.504   5.135
 5717SOL     OW18049   1.380   5.196   3.058
 5717SOL    HW118050   1.416   5.263   3.122
 5717SOL    HW218051   1.430   5.203   2.971
 5718SOL     OW18052   0.940   3.085   6.962
 5718SOL    HW118053   0.964   3.164   7.019
 5718SOL    HW218054   0.908   3.011   7.021
 5719SOL     OW18055   2.515   3.140   0.738
 5719SOL    HW118056   2.427   3.141   0.690
 5719SOL    HW218057   2.558   3.230   0.730
 5720SOL     OW18058   3.085   4.911   5.798
 5720SOL    HW118059   3.027   4.982   5.838
 5720SOL    HW218060   3.041   4.822   5.809
 5721SOL     OW18061   1.646   3.198   6.930
 5721SOL    HW118062   1.584   3.135   6.977
 5721SOL    HW218063   1.723   3.147   6.893
 5722SOL     OW18064   1.252   0.524   7.000
 5722SOL    HW118065   1.244   0.614   6.956
 5722SOL    HW218066   1.324   0.472   6.956
 5723SOL     OW18067   4.040   3.069   0.859
 5723SOL    HW118068   4.052   3.019   0.945
 5723SOL    HW218069   4.100   3.031   0.789
 5724SOL     OW18070   5.221   2.416   5.559
 5724SOL    HW118071   5.240   2.375   5.470
 5724SOL    HW218072   5.237   2.349   5.631
 5725SOL     OW18073   0.299   4.233   4.994
 5725SOL    HW118074   0.235   4.307   5.018
 5725SOL    HW218075   0.258   4.176   4.923
 5726SOL     OW18076   5.657   4.369   2.559
 5726SOL    HW118077   5.646   4.348   2.461
 5726SOL    HW218078   5.617   4.295   2.613
 5727SOL     OW18079   0.686   2.145   5.110
 5727SOL    HW118080   0.746   2.078   5.153
 5727SOL    HW218081   0.609   2.099   5.067
 5728SOL     OW18082   4.655   0.009   5.135
 5728SOL    HW118083   4.607   6.953   5.106
 5728SOL    HW218084   4.746   7.012   5.168
 5729SOL     OW18085   2.795   1.988   4.454
 5729SOL    HW118086   2.894   1.975   4.453
 5729SOL    HW218087   2.770   2.049   4.530
 5730SOL     OW18088   6.946   4.448   4.878
 5730SOL    HW118089   0.012   4.477   4.855
 5730SOL    HW218090   6.927   4.359   4.836
 5731SOL     OW18091   0.779   6.837   2.943
 5731SOL    HW118092   0.871   6.848   2.907
 5731SOL    HW218093   0.783   6.834   3.043
 5732SOL     OW18094   0.034   0.342   3.471
 5732SOL    HW118095   0.111   0.295   3.515
 5732SOL    HW218096   0.068   0.403   3.400
 5733SOL     OW18097   3.222   6.989   5.617
 5733SOL    HW118098   3.242   0.052   5.577
 5733SOL    HW218099   3.305   6.932   5.612
 5734SOL     OW18100   1.767   6.785   3.713
 5734SOL    HW118101   1.844   6.793   3.776
 5734SOL    HW218102   1.733   6.876   3.689
 5735SOL     OW18103   3.127   1.015   2.078
 5735SOL    HW118104   3.102   1.031   2.174
 5735SOL    HW218105   3.115   1.100   2.026
 5736SOL     OW18106   1.506   5.525   6.935
 5736SOL    HW118107   1.548   5.548   6.847
 5736SOL    HW218108   1.571   5.544   7.009
 5737SOL     OW18109   5.409   4.333   0.604
 5737SOL    HW118110   5.348   4.342   0.682
 5737SOL    HW218111   5.356   4.323   0.520
 5738SOL     OW18112   1.330   4.177   5.979
 5738SOL    HW118113   1.239   4.219   5.980
 5738SOL    HW218114   1.323   4.086   5.937
 5739SOL     OW18115   1.256   2.320   1.739
 5739SOL    HW118116   1.314   2.323   1.821
 5739SOL    HW218117   1.246   2.225   1.709
 5740SOL     OW18118   3.789   5.975   6.548
 5740SOL    HW118119   3.694   5.985   6.577
 5740SOL    HW218120   3.795   5.908   6.474
 5741SOL     OW18121   0.056   4.520   2.071
 5741SOL    HW118122   0.100   4.509   2.159
 5741SOL    HW218123   0.019   4.613   2.064
 5742SOL     OW18124   7.004   6.125   4.424
 5742SOL    HW118125   6.975   6.119   4.519
 5742SOL    HW218126   0.065   6.175   4.419
 5743SOL     OW18127   1.547   6.554   4.203
 5743SOL    HW118128   1.489   6.518   4.276
 5743SOL    HW218129   1.576   6.647   4.226
 5744SOL     OW18130   5.772   7.001   2.013
 5744SOL    HW118131   5.750   6.905   2.033
 5744SOL    HW218132   5.863   7.006   1.972
 5745SOL     OW18133   1.402   2.469   3.662
 5745SOL    HW118134   1.494   2.468   3.701
 5745SOL    HW218135   1.373   2.376   3.641
 5746SOL     OW18136   6.397   4.506   6.868
 5746SOL    HW118137   6.451   4.582   6.905
 5746SOL    HW218138   6.301   4.533   6.860
 5747SOL     OW18139   0.816   6.389   2.834
 5747SOL    HW118140   0.777   6.481   2.831
 5747SOL    HW218141   0.748   6.323   2.801
 5748SOL     OW18142   2.280   6.721   3.458
 5748SOL    HW118143   2.320   6.812   3.463
 5748SOL    HW218144   2.218   6.716   3.379
 5749SOL     OW18145   2.435   1.080   2.941
 5749SOL    HW118146   2.534   1.088   2.929
 5749SOL    HW218147   2.413   1.084   3.038
 5750SOL     OW18148   6.114   5.700   2.314
 5750SOL    HW118149   6.065   5.688   2.400
 5750SOL    HW218150   6.115   5.797   2.289
 5751SOL     OW18151   1.304   3.054   6.373
 5751SOL    HW118152   1.357   3.077   6.292
 5751SOL    HW218153   1.242   3.129   6.395
 5752SOL     OW18154   0.351   1.058   6.700
 5752SOL    HW118155   0.368   1.073   6.798
 5752SOL    HW218156   0.289   1.129   6.666
 5753SOL     OW18157   4.512   1.850   0.857
 5753SOL    HW118158   4.453   1.797   0.796
 5753SOL    HW218159   4.492   1.826   0.952
 5754SOL     OW18160   6.262   5.177   0.477
 5754SOL    HW118161   6.198   5.121   0.425
 5754SOL    HW218162   6.226   5.193   0.569
 5755SOL     OW18163   3.194   3.461   1.517
 5755SOL    HW118164   3.204   3.508   1.430
 5755SOL    HW218165   3.101   3.423   1.525
 5756SOL     OW18166   6.846   6.729   4.390
 5756SOL    HW118167   6.775   6.750   4.322
 5756SOL    HW218168   6.929   6.700   4.343
 5757SOL     OW18169   0.169   6.533   2.311
 5757SOL    HW118170   0.142   6.437   2.304
 5757SOL    HW218171   0.269   6.540   2.306
 5758SOL     OW18172   1.960   1.162   5.651
 5758SOL    HW118173   1.922   1.180   5.741
 5758SOL    HW218174   2.047   1.114   5.660
 5759SOL     OW18175   0.442   1.690   5.456
 5759SOL    HW118176   0.342   1.688   5.457
 5759SOL    HW218177   0.477   1.599   5.433
 5760SOL     OW18178   1.233   5.149   1.925
 5760SOL    HW118179   1.259   5.077   1.861
 5760SOL    HW218180   1.141   5.130   1.961
 5761SOL     OW18181   5.650   0.460   4.278
 5761SOL    HW118182   5.715   0.447   4.353
 5761SOL    HW218183   5.557   0.448   4.312
 5762SOL     OW18184   5.852   6.465   1.576
 5762SOL    HW118185   5.759   6.432   1.560
 5762SOL    HW218186   5.918   6.395   1.547
 5763SOL     OW18187   1.011   1.367   1.227
 5763SOL    HW118188   1.030   1.440   1.162
 5763SOL    HW218189   0.952   1.299   1.185
 5764SOL     OW18190   4.302   2.643   5.963
 5764SOL    HW118191   4.398   2.665   5.942
 5764SOL    HW218192   4.298   2.589   6.047
 5765SOL     OW18193   6.609   5.640   0.236
 5765SOL    HW118194   6.676   5.566   0.227
 5765SOL    HW218195   6.562   5.653   0.149
 5766SOL     OW18196   3.107   0.999   3.302
 5766SOL    HW118197   3.140   1.073   3.244
 5766SOL    HW218198   3.171   0.986   3.378
 5767SOL     OW18199   6.145   0.753   0.992
 5767SOL    HW118200   6.057   0.736   0.949
 5767SOL    HW218201   6.192   0.828   0.944
 5768SOL     OW18202   6.042   0.925   2.292
 5768SOL    HW118203   6.067   0.847   2.235
 5768SOL    HW218204   5.944   0.941   2.286
 5769SOL     OW18205   1.962   5.491   3.641
 5769SOL    HW118206   1.872   5.466   3.603
 5769SOL    HW218207   1.968   5.460   3.735
 5770SOL     OW18208   5.671   1.690   1.706
 5770SOL    HW118209   5.735   1.752   1.752
 5770SOL    HW218210   5.700   1.677   1.611
 5771SOL     OW18211   0.238   0.959   0.762
 5771SOL    HW118212   0.297   0.898   0.709
 5771SOL    HW218213   0.187   1.019   0.700
 5772SOL     OW18214   6.749   4.294   6.421
 5772SOL    HW118215   6.772   4.210   6.471
 5772SOL    HW218216   6.756   4.372   6.483
 5773SOL     OW18217   4.932   6.062   4.941
 5773SOL    HW118218   5.016   6.044   4.991
 5773SOL    HW218219   4.949   6.132   4.871
 5774SOL     OW18220   2.765   4.762   2.639
 5774SOL    HW118221   2.731   4.678   2.597
 5774SOL    HW218222   2.781   4.830   2.568
 5775SOL     OW18223   0.758   0.516   0.465
 5775SOL    HW118224   0.798   0.603   0.493
 5775SOL    HW218225   0.755   0.511   0.366
 5776SOL     OW18226   4.647   1.127   5.895
 5776SOL    HW118227   4.721   1.092   5.836
 5776SOL    HW218228   4.567   1.145   5.839
 5777SOL     OW18229   5.565   0.527   5.550
 5777SOL    HW118230   5.554   0.589   5.628
 5777SOL    HW218231   5.540   0.434   5.577
 5778SOL     OW18232   2.755   6.490   4.036
 5778SOL    HW118233   2.722   6.577   4.072
 5778SOL    HW218234   2.854   6.483   4.050
 5779SOL     OW18235   4.599   0.062   0.911
 5779SOL    HW118236   4.553   7.003   0.933
 5779SOL    HW218237   4.674   0.044   0.846
 5780SOL     OW18238   5.819   3.809   0.563
 5780SOL    HW118239   5.797   3.827   0.467
 5780SOL    HW218240   5.781   3.721   0.590
 5781SOL     OW18241   3.074   4.487   5.446
 5781SOL    HW118242   3.025   4.504   5.361
 5781SOL    HW218243   3.010   4.488   5.523
 5782SOL     OW18244   4.117   1.878   3.155
 5782SOL    HW118245   4.045   1.944   3.172
 5782SOL    HW218246   4.199   1.903   3.207
 5783SOL     OW18247   2.557   6.950   2.011
 5783SOL    HW118248   2.588   6.855   2.019
 5783SOL    HW218249   2.497   6.960   1.933
 5784SOL     OW18250   1.218   5.647   6.916
 5784SOL    HW118251   1.223   5.734   6.868
 5784SOL    HW218252   1.308   5.624   6.954
 5785SOL     OW18253   1.987   1.955   6.724
 5785SOL    HW118254   2.058   1.961   6.794
 5785SOL    HW218255   1.926   1.879   6.745
 5786SOL     OW18256   0.591   2.579   6.193
 5786SOL    HW118257   0.619   2.526   6.113
 5786SOL    HW218258   0.578   2.518   6.271
 5787SOL     OW18259   0.173   2.829   5.391
 5787SOL    HW118260   0.113   2.768   5.339
 5787SOL    HW218261   0.214   2.896   5.330
 5788SOL     OW18262   0.812   2.451   1.772
 5788SOL    HW118263   0.906   2.448   1.806
 5788SOL    HW218264   0.749   2.455   1.850
 5789SOL     OW18265   2.940   5.304   6.681
 5789SOL    HW118266   2.901   5.255   6.603
 5789SOL    HW218267   2.880   5.294   6.761
 5790SOL     OW18268   6.461   6.281   2.571
 5790SOL    HW118269   6.389   6.279   2.502
 5790SOL    HW218270   6.515   6.364   2.560
 5791SOL     OW18271   3.816   0.947   0.991
 5791SOL    HW118272   3.786   1.024   1.048
 5791SOL    HW218273   3.769   0.864   1.019
 5792SOL     OW18274   4.478   2.357   2.559
 5792SOL    HW118275   4.521   2.425   2.499
 5792SOL    HW218276   4.528   2.353   2.645
 5793SOL     OW18277   3.473   1.783   0.103
 5793SOL    HW118278   3.522   1.835   0.173
 5793SOL    HW218279   3.535   1.762   0.027
 5794SOL     OW18280   3.436   5.941   6.645
 5794SOL    HW118281   3.507   5.993   6.692
 5794SOL    HW218282   3.416   5.858   6.698
 5795SOL     OW18283   1.097   0.006   0.941
 5795SOL    HW118284   1.130   6.948   0.984
 5795SOL    HW218285   0.998   7.026   0.927
 5796SOL     OW18286   4.505   1.045   6.308
 5796SOL    HW118287   4.468   1.132   6.342
 5796SOL    HW218288   4.587   1.021   6.360
 5797SOL     OW18289   0.103   2.603   0.093
 5797SOL    HW118290   0.074   2.567   0.181
 5797SOL    HW218291   0.026   2.648   0.047
 5798SOL     OW18292   2.011   2.559   4.366
 5798SOL    HW118293   2.028   2.517   4.277
 5798SOL    HW218294   1.913   2.567   4.380
 5799SOL     OW18295   2.754   0.167   3.494
 5799SOL    HW118296   2.711   0.251   3.529
 5799SOL    HW218297   2.796   0.185   3.405
 5800SOL     OW18298   1.056   6.418   2.252
 5800SOL    HW118299   1.087   6.327   2.225
 5800SOL    HW218300   1.128   6.485   2.233
 5801SOL     OW18301   1.869   1.480   2.721
 5801SOL    HW118302   1.777   1.513   2.742
 5801SOL    HW218303   1.923   1.554   2.681
 5802SOL     OW18304   0.825   6.876   3.250
 5802SOL    HW118305   0.895   6.822   3.204
 5802SOL    HW218306   0.864   6.921   3.330
 5803SOL     OW18307   0.333   6.456   4.729
 5803SOL    HW118308   0.384   6.539   4.707
 5803SOL    HW218309   0.372   6.378   4.679
 5804SOL     OW18310   6.784   2.121   3.402
 5804SOL    HW118311   6.782   2.159   3.494
 5804SOL    HW218312   6.872   2.076   3.387
 5805SOL     OW18313   1.200   2.577   1.721
 5805SOL    HW118314   1.220   2.483   1.748
 5805SOL    HW218315   1.106   2.601   1.746
 5806SOL     OW18316   6.653   3.844   2.215
 5806SOL    HW118317   6.719   3.846   2.139
 5806SOL    HW218318   6.684   3.779   2.284
 5807SOL     OW18319   1.059   1.365   2.115
 5807SOL    HW118320   0.990   1.404   2.177
 5807SOL    HW218321   1.100   1.285   2.158
 5808SOL     OW18322   0.227   0.610   5.246
 5808SOL    HW118323   0.259   0.655   5.163
 5808SOL    HW218324   0.185   0.523   5.221
 5809SOL     OW18325   0.251   4.094   4.446
 5809SOL    HW118326   0.342   4.061   4.420
 5809SOL    HW218327   0.258   4.151   4.528
 5810SOL     OW18328   1.895   6.326   5.569
 5810SOL    HW118329   1.995   6.325   5.566
 5810SOL    HW218330   1.861   6.389   5.498
 5811SOL     OW18331   4.041   4.994   6.732
 5811SOL    HW118332   4.031   4.949   6.821
 5811SOL    HW218333   4.051   4.926   6.660
 5812SOL     OW18334   6.330   3.281   6.448
 5812SOL    HW118335   6.389   3.217   6.498
 5812SOL    HW218336   6.237   3.275   6.484
 5813SOL     OW18337   5.257   4.428   0.825
 5813SOL    HW118338   5.312   4.385   0.896
 5813SOL    HW218339   5.283   4.524   0.816
 5814SOL     OW18340   5.952   1.034   2.542
 5814SOL    HW118341   6.001   1.025   2.456
 5814SOL    HW218342   6.014   1.066   2.613
 5815SOL     OW18343   6.753   3.497   4.658
 5815SOL    HW118344   6.756   3.542   4.568
 5815SOL    HW218345   6.739   3.566   4.729
 5816SOL     OW18346   6.907   4.062   1.421
 5816SOL    HW118347   6.940   4.125   1.492
 5816SOL    HW218348   6.815   4.032   1.444
 5817SOL     OW18349   6.856   2.717   3.709
 5817SOL    HW118350   6.950   2.726   3.677
 5817SOL    HW218351   6.847   2.760   3.799
 5818SOL     OW18352   3.050   0.773   4.875
 5818SOL    HW118353   3.046   0.681   4.912
 5818SOL    HW218354   3.145   0.796   4.853
 5819SOL     OW18355   4.457   3.990   1.167
 5819SOL    HW118356   4.544   3.943   1.154
 5819SOL    HW218357   4.384   3.941   1.119
 5820SOL     OW18358   0.008   0.026   2.938
 5820SOL    HW118359   6.983   0.106   2.966
 5820SOL    HW218360   0.067   7.023   3.013
 5821SOL     OW18361   6.587   6.912   1.864
 5821SOL    HW118362   6.554   6.884   1.774
 5821SOL    HW218363   6.682   6.881   1.876
 5822SOL     OW18364   0.359   3.885   2.275
 5822SOL    HW118365   0.448   3.931   2.278
 5822SOL    HW218366   0.374   3.787   2.257
 5823SOL     OW18367   2.228   6.778   5.163
 5823SOL    HW118368   2.188   6.865   5.134
 5823SOL    HW218369   2.183   6.703   5.116
 5824SOL     OW18370   1.946   6.648   2.382
 5824SOL    HW118371   2.004   6.568   2.395
 5824SOL    HW218372   1.999   6.731   2.402
 5825SOL     OW18373   4.440   1.861   4.942
 5825SOL    HW118374   4.391   1.921   5.005
 5825SOL    HW218375   4.454   1.909   4.855
 5826SOL     OW18376   1.416   6.097   4.814
 5826SOL    HW118377   1.483   6.134   4.750
 5826SOL    HW218378   1.414   6.153   4.897
 5827SOL     OW18379   2.119   3.605   3.137
 5827SOL    HW118380   2.096   3.519   3.183
 5827SOL    HW218381   2.107   3.681   3.201
 5828SOL     OW18382   4.556   0.352   5.803
 5828SOL    HW118383   4.466   0.387   5.777
 5828SOL    HW218384   4.603   0.316   5.722
 5829SOL     OW18385   2.145   0.105   3.105
 5829SOL    HW118386   2.179   0.077   3.016
 5829SOL    HW218387   2.213   0.081   3.175
 5830SOL     OW18388   4.241   5.289   4.521
 5830SOL    HW118389   4.272   5.361   4.458
 5830SOL    HW218390   4.203   5.331   4.603
 5831SOL     OW18391   2.544   2.558   4.507
 5831SOL    HW118392   2.504   2.494   4.442
 5831SOL    HW218393   2.622   2.514   4.553
 5832SOL     OW18394   2.810   5.640   3.953
 5832SOL    HW118395   2.833   5.544   3.968
 5832SOL    HW218396   2.719   5.659   3.990
 5833SOL     OW18397   3.384   5.123   0.698
 5833SOL    HW118398   3.408   5.067   0.777
 5833SOL    HW218399   3.323   5.197   0.727
 5834SOL     OW18400   6.753   2.802   6.310
 5834SOL    HW118401   6.697   2.864   6.256
 5834SOL    HW218402   6.790   2.851   6.389
 5835SOL     OW18403   4.259   1.574   3.402
 5835SOL    HW118404   4.294   1.536   3.316
 5835SOL    HW218405   4.190   1.512   3.440
 5836SOL     OW18406   4.837   6.203   1.357
 5836SOL    HW118407   4.828   6.180   1.260
 5836SOL    HW218408   4.751   6.183   1.405
 5837SOL     OW18409   3.077   4.204   0.299
 5837SOL    HW118410   3.048   4.226   0.205
 5837SOL    HW218411   3.168   4.163   0.297
 5838SOL     OW18412   3.282   3.484   6.797
 5838SOL    HW118413   3.312   3.532   6.879
 5838SOL    HW218414   3.277   3.386   6.815
 5839SOL     OW18415   1.969   1.682   0.413
 5839SOL    HW118416   1.897   1.636   0.464
 5839SOL    HW218417   2.046   1.620   0.401
 5840SOL     OW18418   1.019   3.694   3.184
 5840SOL    HW118419   1.019   3.733   3.276
 5840SOL    HW218420   1.067   3.756   3.121
 5841SOL     OW18421   5.046   1.509   0.960
 5841SOL    HW118422   5.084   1.582   0.903
 5841SOL    HW218423   4.973   1.462   0.910
 5842SOL     OW18424   3.221   2.134   2.193
 5842SOL    HW118425   3.294   2.117   2.126
 5842SOL    HW218426   3.132   2.130   2.148
 5843SOL     OW18427   3.405   3.222   0.577
 5843SOL    HW118428   3.364   3.157   0.512
 5843SOL    HW218429   3.499   3.240   0.551
 5844SOL     OW18430   0.709   5.703   5.163
 5844SOL    HW118431   0.746   5.739   5.077
 5844SOL    HW218432   0.783   5.660   5.215
 5845SOL     OW18433   1.775   6.866   2.671
 5845SOL    HW118434   1.866   6.905   2.685
 5845SOL    HW218435   1.740   6.895   2.582
 5846SOL     OW18436   0.837   4.900   5.488
 5846SOL    HW118437   0.780   4.981   5.502
 5846SOL    HW218438   0.779   4.822   5.465
 5847SOL     OW18439   1.698   4.444   6.431
 5847SOL    HW118440   1.681   4.531   6.477
 5847SOL    HW218441   1.696   4.458   6.332
 5848SOL     OW18442   2.330   6.910   1.836
 5848SOL    HW118443   2.260   6.954   1.892
 5848SOL    HW218444   2.327   6.812   1.851
 5849SOL     OW18445   2.695   5.517   6.531
 5849SOL    HW118446   2.627   5.564   6.587
 5849SOL    HW218447   2.702   5.562   6.442
 5850SOL     OW18448   6.649   1.111   1.815
 5850SOL    HW118449   6.571   1.118   1.752
 5850SOL    HW218450   6.720   1.054   1.774
 5851SOL     OW18451   6.974   3.818   4.797
 5851SOL    HW118452   7.001   3.878   4.722
 5851SOL    HW218453   0.019   3.750   4.813
 5852SOL     OW18454   4.961   4.188   2.480
 5852SOL    HW118455   4.974   4.238   2.566
 5852SOL    HW218456   4.923   4.251   2.412
 5853SOL     OW18457   5.028   4.881   0.312
 5853SOL    HW118458   4.948   4.825   0.287
 5853SOL    HW218459   5.085   4.894   0.232
 5854SOL     OW18460   2.926   4.557   5.661
 5854SOL    HW118461   2.930   4.653   5.630
 5854SOL    HW218462   2.987   4.545   5.739
 5855SOL     OW18463   2.320   2.352   4.053
 5855SOL    HW118464   2.408   2.395   4.035
 5855SOL    HW218465   2.334   2.259   4.086
 5856SOL     OW18466   0.874   0.358   3.071
 5856SOL    HW118467   0.849   0.445   3.114
 5856SOL    HW218468   0.931   0.376   2.991
 5857SOL     OW18469   5.708   5.052   0.151
 5857SOL    HW118470   5.690   4.961   0.114
 5857SOL    HW218471   5.797   5.085   0.119
 5858SOL     OW18472   2.041   1.334   2.415
 5858SOL    HW118473   2.036   1.432   2.395
 5858SOL    HW218474   2.104   1.290   2.351
 5859SOL     OW18475   5.260   5.066   1.768
 5859SOL    HW118476   5.354   5.033   1.764
 5859SOL    HW218477   5.216   5.033   1.851
 5860SOL     OW18478   1.262   3.451   2.943
 5860SOL    HW118479   1.259   3.540   2.897
 5860SOL    HW218480   1.357   3.428   2.964
 5861SOL     OW18481   5.747   0.509   5.343
 5861SOL    HW118482   5.678   0.517   5.415
 5861SOL    HW218483   5.836   0.540   5.378
 5862SOL     OW18484   6.789   4.593   2.900
 5862SOL    HW118485   6.710   4.633   2.946
 5862SOL    HW218486   6.801   4.637   2.811
 5863SOL     OW18487   4.214   0.081   5.941
 5863SOL    HW118488   4.259   0.157   5.988
 5863SOL    HW218489   4.121   0.108   5.914
 5864SOL     OW18490   4.064   3.135   2.536
 5864SOL    HW118491   4.075   3.163   2.631
 5864SOL    HW218492   3.985   3.074   2.528
 5865SOL     OW18493   6.626   0.069   1.163
 5865SOL    HW118494   6.631   7.011   1.217
 5865SOL    HW218495   6.603   0.047   1.068
 5866SOL     OW18496   3.682   3.333   3.113
 5866SOL    HW118497   3.725   3.386   3.186
 5866SOL    HW218498   3.751   3.307   3.046
 5867SOL     OW18499   3.295   1.662   1.518
 5867SOL    HW118500   3.200   1.633   1.533
 5867SOL    HW218501   3.326   1.629   1.429
 5868SOL     OW18502   1.669   0.641   0.781
 5868SOL    HW118503   1.589   0.665   0.726
 5868SOL    HW218504   1.732   0.585   0.725
 5869SOL     OW18505   1.606   5.665   2.663
 5869SOL    HW118506   1.617   5.765   2.665
 5869SOL    HW218507   1.676   5.626   2.604
 5870SOL     OW18508   4.508   0.463   3.695
 5870SOL    HW118509   4.559   0.448   3.610
 5870SOL    HW218510   4.568   0.447   3.773
 5871SOL     OW18511   4.100   3.417   3.973
 5871SOL    HW118512   4.059   3.410   4.064
 5871SOL    HW218513   4.067   3.342   3.916
 5872SOL     OW18514   4.401   5.977   1.109
 5872SOL    HW118515   4.448   5.975   1.197
 5872SOL    HW218516   4.377   6.071   1.085
 5873SOL     OW18517   3.934   6.103   2.373
 5873SOL    HW118518   4.022   6.081   2.415
 5873SOL    HW218519   3.950   6.138   2.281
 5874SOL     OW18520   0.679   4.752   5.167
 5874SOL    HW118521   0.770   4.715   5.151
 5874SOL    HW218522   0.660   4.825   5.102
 5875SOL     OW18523   3.735   2.104   1.080
 5875SOL    HW118524   3.661   2.066   1.136
 5875SOL    HW218525   3.803   2.147   1.139
 5876SOL     OW18526   3.169   3.534   2.063
 5876SOL    HW118527   3.252   3.490   2.098
 5876SOL    HW218528   3.192   3.589   1.983
 5877SOL     OW18529   5.249   4.347   1.703
 5877SOL    HW118530   5.219   4.430   1.656
 5877SOL    HW218531   5.202   4.268   1.664
 5878SOL     OW18532   1.925   3.647   2.551
 5878SOL    HW118533   1.925   3.747   2.539
 5878SOL    HW218534   1.989   3.623   2.624
 5879SOL     OW18535   1.665   3.670   3.921
 5879SOL    HW118536   1.625   3.606   3.987
 5879SOL    HW218537   1.764   3.670   3.930
 5880SOL     OW18538   3.603   5.854   7.023
 5880SOL    HW118539   3.662   5.851   0.078
 5880SOL    HW218540   3.560   5.764   7.010
 5881SOL     OW18541   1.431   6.401   4.441
 5881SOL    HW118542   1.409   6.303   4.436
 5881SOL    HW218543   1.429   6.431   4.536
 5882SOL     OW18544   5.432   0.580   2.921
 5882SOL    HW118545   5.387   0.587   2.832
 5882SOL    HW218546   5.470   0.488   2.932
 5883SOL     OW18547   0.832   3.372   5.493
 5883SOL    HW118548   0.865   3.466   5.482
 5883SOL    HW218549   0.733   3.370   5.476
 5884SOL     OW18550   0.744   0.593   3.163
 5884SOL    HW118551   0.700   0.547   3.240
 5884SOL    HW218552   0.727   0.692   3.169
 5885SOL     OW18553   5.504   6.435   0.958
 5885SOL    HW118554   5.434   6.363   0.962
 5885SOL    HW218555   5.555   6.436   1.043
 5886SOL     OW18556   6.412   1.679   6.299
 5886SOL    HW118557   6.339   1.674   6.367
 5886SOL    HW218558   6.501   1.679   6.345
 5887SOL     OW18559   4.088   5.827   2.438
 5887SOL    HW118560   4.125   5.742   2.475
 5887SOL    HW218561   3.991   5.834   2.463
 5888SOL     OW18562   6.834   0.361   2.610
 5888SOL    HW118563   6.746   0.313   2.598
 5888SOL    HW218564   6.870   0.386   2.521
 5889SOL     OW18565   2.280   0.188   6.424
 5889SOL    HW118566   2.359   0.246   6.405
 5889SOL    HW218567   2.239   0.157   6.339
 5890SOL     OW18568   3.811   4.958   6.136
 5890SOL    HW118569   3.901   4.943   6.096
 5890SOL    HW218570   3.741   4.943   6.066
 5891SOL     OW18571   2.298   3.530   6.516
 5891SOL    HW118572   2.371   3.510   6.452
 5891SOL    HW218573   2.333   3.589   6.589
 5892SOL     OW18574   2.100   6.365   2.617
 5892SOL    HW118575   2.102   6.267   2.635
 5892SOL    HW218576   2.111   6.415   2.703
 5893SOL     OW18577   2.252   1.921   3.224
 5893SOL    HW118578   2.185   1.849   3.206
 5893SOL    HW218579   2.343   1.890   3.198
 5894SOL     OW18580   1.183   3.021   3.656
 5894SOL    HW118581   1.215   3.085   3.587
 5894SOL    HW218582   1.087   3.038   3.676
 5895SOL     OW18583   5.776   3.970   3.263
 5895SOL    HW118584   5.815   4.062   3.261
 5895SOL    HW218585   5.849   3.902   3.254
 5896SOL     OW18586   5.530   2.770   5.870
 5896SOL    HW118587   5.614   2.717   5.883
 5896SOL    HW218588   5.554   2.863   5.841
 5897SOL     OW18589   4.575   5.234   0.772
 5897SOL    HW118590   4.658   5.190   0.806
 5897SOL    HW218591   4.519   5.263   0.850
 5898SOL     OW18592   2.815   6.533   3.056
 5898SOL    HW118593   2.883   6.481   3.005
 5898SOL    HW218594   2.860   6.608   3.104
 5899SOL     OW18595   5.550   0.694   3.691
 5899SOL    HW118596   5.476   0.724   3.750
 5899SOL    HW218597   5.623   0.763   3.691
 5900SOL     OW18598   3.511   5.233   2.036
 5900SOL    HW118599   3.477   5.146   1.999
 5900SOL    HW218600   3.516   5.228   2.135
 5901SOL     OW18601   2.972   6.357   4.851
 5901SOL    HW118602   2.930   6.271   4.878
 5901SOL    HW218603   3.029   6.343   4.769
 5902SOL     OW18604   5.977   2.344   0.116
 5902SOL    HW118605   5.923   2.333   0.033
 5902SOL    HW218606   5.942   2.283   0.187
 5903SOL     OW18607   0.191   3.063   6.407
 5903SOL    HW118608   0.123   3.136   6.413
 5903SOL    HW218609   0.249   3.078   6.328
 5904SOL     OW18610   1.184   3.545   2.473
 5904SOL    HW118611   1.228   3.494   2.400
 5904SOL    HW218612   1.085   3.528   2.470
 5905SOL     OW18613   0.101   4.726   2.498
 5905SOL    HW118614   0.127   4.637   2.462
 5905SOL    HW218615   0.008   4.748   2.468
 5906SOL     OW18616   1.163   1.021   2.614
 5906SOL    HW118617   1.229   1.094   2.598
 5906SOL    HW218618   1.098   1.017   2.538
 5907SOL     OW18619   2.128   0.749   2.269
 5907SOL    HW118620   2.044   0.694   2.278
 5907SOL    HW218621   2.205   0.689   2.247
 5908SOL     OW18622   0.459   3.098   5.951
 5908SOL    HW118623   0.553   3.130   5.939
 5908SOL    HW218624   0.426   3.057   5.866
 5909SOL     OW18625   6.248   4.864   0.447
 5909SOL    HW118626   6.202   4.918   0.376
 5909SOL    HW218627   6.251   4.917   0.532
 5910SOL     OW18628   1.538   1.705   3.198
 5910SOL    HW118629   1.600   1.643   3.150
 5910SOL    HW218630   1.487   1.653   3.267
 5911SOL     OW18631   6.508   5.810   6.721
 5911SOL    HW118632   6.563   5.885   6.755
 5911SOL    HW218633   6.559   5.759   6.652
 5912SOL     OW18634   0.037   0.085   3.809
 5912SOL    HW118635   0.102   0.023   3.854
 5912SOL    HW218636   0.026   0.057   3.713
 5913SOL     OW18637   5.897   1.810   0.917
 5913SOL    HW118638   5.907   1.871   0.839
 5913SOL    HW218639   5.854   1.860   0.993
 5914SOL     OW18640   0.727   6.350   0.189
 5914SOL    HW118641   0.797   6.412   0.223
 5914SOL    HW218642   0.758   6.255   0.201
 5915SOL     OW18643   3.740   1.040   6.157
 5915SOL    HW118644   3.820   1.048   6.098
 5915SOL    HW218645   3.658   1.062   6.105
 5916SOL     OW18646   0.914   6.876   2.002
 5916SOL    HW118647   0.876   6.925   2.080
 5916SOL    HW218648   0.908   6.933   1.920
 5917SOL     OW18649   3.293   3.041   0.392
 5917SOL    HW118650   3.257   2.988   0.469
 5917SOL    HW218651   3.376   2.998   0.357
 5918SOL     OW18652   3.321   0.149   4.593
 5918SOL    HW118653   3.410   0.153   4.637
 5918SOL    HW218654   3.276   0.062   4.617
 5919SOL     OW18655   3.253   3.267   4.492
 5919SOL    HW118656   3.182   3.197   4.500
 5919SOL    HW218657   3.266   3.291   4.396
 5920SOL     OW18658   0.275   7.027   5.415
 5920SOL    HW118659   0.296   6.933   5.386
 5920SOL    HW218660   0.268   0.003   5.515
 5921SOL     OW18661   3.026   4.273   0.031
 5921SOL    HW118662   3.010   4.231   6.969
 5921SOL    HW218663   3.112   4.325   0.028
 5922SOL     OW18664   5.533   2.830   2.489
 5922SOL    HW118665   5.536   2.802   2.393
 5922SOL    HW218666   5.515   2.750   2.546
 5923SOL     OW18667   6.296   0.970   3.346
 5923SOL    HW118668   6.334   1.010   3.263
 5923SOL    HW218669   6.197   0.960   3.335
 5924SOL     OW18670   5.238   6.286   4.034
 5924SOL    HW118671   5.187   6.256   3.953
 5924SOL    HW218672   5.306   6.353   4.007
 5925SOL     OW18673   4.409   1.518   0.942
 5925SOL    HW118674   4.460   1.576   1.005
 5925SOL    HW218675   4.311   1.528   0.959
 5926SOL     OW18676   5.293   3.941   3.398
 5926SOL    HW118677   5.388   3.951   3.426
 5926SOL    HW218678   5.237   3.913   3.476
 5927SOL     OW18679   0.838   5.301   1.940
 5927SOL    HW118680   0.793   5.388   1.961
 5927SOL    HW218681   0.875   5.306   1.847
 5928SOL     OW18682   2.494   6.634   6.780
 5928SOL    HW118683   2.501   6.730   6.756
 5928SOL    HW218684   2.476   6.624   6.877
 5929SOL     OW18685   0.909   0.773   0.522
 5929SOL    HW118686   0.976   0.765   0.448
 5929SOL    HW218687   0.956   0.769   0.610
 5930SOL     OW18688   1.898   3.748   1.973
 5930SOL    HW118689   1.869   3.710   2.060
 5930SOL    HW218690   1.935   3.675   1.915
 5931SOL     OW18691   5.200   6.493   2.990
 5931SOL    HW118692   5.124   6.448   3.037
 5931SOL    HW218693   5.212   6.452   2.900
 5932SOL     OW18694   2.952   6.755   0.076
 5932SOL    HW118695   2.861   6.772   0.036
 5932SOL    HW218696   2.994   6.678   0.029
 5933SOL     OW18697   6.197   6.094   4.596
 5933SOL    HW118698   6.138   6.079   4.518
 5933SOL    HW218699   6.290   6.115   4.565
 5934SOL     OW18700   2.753   3.176   0.395
 5934SOL    HW118701   2.786   3.248   0.334
 5934SOL    HW218702   2.827   3.112   0.415
 5935SOL     OW18703   1.195   0.377   5.391
 5935SOL    HW118704   1.191   0.404   5.295
 5935SOL    HW218705   1.205   0.277   5.398
 5936SOL     OW18706   3.420   3.088   1.827
 5936SOL    HW118707   3.448   2.992   1.832
 5936SOL    HW218708   3.342   3.096   1.765
 5937SOL     OW18709   0.144   2.686   1.366
 5937SOL    HW118710   0.045   2.695   1.376
 5937SOL    HW218711   0.165   2.657   1.272
 5938SOL     OW18712   0.044   4.254   3.874
 5938SOL    HW118713   6.992   4.315   3.885
 5938SOL    HW218714   0.019   4.162   3.902
 5939SOL     OW18715   4.183   1.928   5.458
 5939SOL    HW118716   4.212   1.845   5.507
 5939SOL    HW218717   4.083   1.931   5.454
 5940SOL     OW18718   5.041   5.745   1.405
 5940SOL    HW118719   4.956   5.796   1.396
 5940SOL    HW218720   5.093   5.779   1.483
 5941SOL     OW18721   0.274   2.312   2.801
 5941SOL    HW118722   0.243   2.296   2.895
 5941SOL    HW218723   0.290   2.224   2.756
 5942SOL     OW18724   5.092   2.487   6.384
 5942SOL    HW118725   5.025   2.547   6.426
 5942SOL    HW218726   5.145   2.538   6.315
 5943SOL     OW18727   2.079   4.740   1.388
 5943SOL    HW118728   2.151   4.689   1.436
 5943SOL    HW218729   2.032   4.679   1.323
 5944SOL     OW18730   6.487   3.500   5.474
 5944SOL    HW118731   6.562   3.513   5.539
 5944SOL    HW218732   6.403   3.540   5.511
 5945SOL     OW18733   6.661   6.386   4.702
 5945SOL    HW118734   6.584   6.366   4.763
 5945SOL    HW218735   6.636   6.363   4.608
 5946SOL     OW18736   1.891   3.413   6.748
 5946SOL    HW118737   1.855   3.334   6.797
 5946SOL    HW218738   1.981   3.437   6.784
 5947SOL     OW18739   3.620   3.551   4.698
 5947SOL    HW118740   3.653   3.470   4.746
 5947SOL    HW218741   3.524   3.537   4.671
 5948SOL     OW18742   4.807   3.498   1.362
 5948SOL    HW118743   4.866   3.463   1.435
 5948SOL    HW218744   4.759   3.580   1.394
 5949SOL     OW18745   0.463   4.110   2.999
 5949SOL    HW118746   0.412   4.094   2.914
 5949SOL    HW218747   0.402   4.095   3.077
 5950SOL     OW18748   3.594   0.486   4.764
 5950SOL    HW118749   3.500   0.479   4.730
 5950SOL    HW218750   3.610   0.416   4.833
 5951SOL     OW18751   6.976   4.238   6.826
 5951SOL    HW118752   6.892   4.292   6.823
 5951SOL    HW218753   6.960   4.150   6.781
 5952SOL     OW18754   4.080   4.530   1.704
 5952SOL    HW118755   4.025   4.447   1.695
 5952SOL    HW218756   4.176   4.506   1.717
 5953SOL     OW18757   0.163   3.551   5.414
 5953SOL    HW118758   0.248   3.535   5.464
 5953SOL    HW218759   0.102   3.607   5.469
 5954SOL     OW18760   1.833   5.456   4.155
 5954SOL    HW118761   1.769   5.433   4.229
 5954SOL    HW218762   1.856   5.553   4.159
 5955SOL     OW18763   5.045   3.225   0.662
 5955SOL    HW118764   5.021   3.297   0.728
 5955SOL    HW218765   4.975   3.220   0.591
 5956SOL     OW18766   5.200   3.220   5.371
 5956SOL    HW118767   5.246   3.293   5.320
 5956SOL    HW218768   5.117   3.193   5.323
 5957SOL     OW18769   6.614   1.503   3.554
 5957SOL    HW118770   6.620   1.409   3.588
 5957SOL    HW218771   6.647   1.566   3.624
 5958SOL     OW18772   2.863   6.573   3.444
 5958SOL    HW118773   2.869   6.486   3.394
 5958SOL    HW218774   2.792   6.567   3.514
 5959SOL     OW18775   5.561   2.456   2.758
 5959SOL    HW118776   5.504   2.411   2.827
 5959SOL    HW218777   5.636   2.504   2.803
 5960SOL     OW18778   4.187   1.227   6.315
 5960SOL    HW118779   4.119   1.299   6.314
 5960SOL    HW218780   4.270   1.260   6.361
 5961SOL     OW18781   2.868   2.347   3.670
 5961SOL    HW118782   2.788   2.333   3.612
 5961SOL    HW218783   2.917   2.261   3.680
 5962SOL     OW18784   4.943   5.043   0.511
 5962SOL    HW118785   4.849   5.067   0.488
 5962SOL    HW218786   4.983   4.989   0.437
 5963SOL     OW18787   2.218   3.852   0.705
 5963SOL    HW118788   2.205   3.915   0.781
 5963SOL    HW218789   2.168   3.886   0.625
 5964SOL     OW18790   2.226   0.040   3.502
 5964SOL    HW118791   2.136   0.003   3.480
 5964SOL    HW218792   2.258   0.098   3.428
 5965SOL     OW18793   3.060   0.427   0.896
 5965SOL    HW118794   3.071   0.347   0.953
 5965SOL    HW218795   2.963   0.440   0.875
 5966SOL     OW18796   2.579   1.738   5.066
 5966SOL    HW118797   2.582   1.678   5.146
 5966SOL    HW218798   2.668   1.780   5.051
 5967SOL     OW18799   4.506   2.497   5.181
 5967SOL    HW118800   4.533   2.531   5.091
 5967SOL    HW218801   4.527   2.399   5.188
 5968SOL     OW18802   6.030   2.221   2.285
 5968SOL    HW118803   6.054   2.204   2.190
 5968SOL    HW218804   5.949   2.280   2.289
 5969SOL     OW18805   5.028   0.312   0.627
 5969SOL    HW118806   4.973   0.393   0.607
 5969SOL    HW218807   5.125   0.333   0.614
 5970SOL     OW18808   6.891   3.090   0.907
 5970SOL    HW118809   6.809   3.137   0.874
 5970SOL    HW218810   6.881   2.992   0.893
 5971SOL     OW18811   6.891   5.830   3.999
 5971SOL    HW118812   6.867   5.912   3.947
 5971SOL    HW218813   6.929   5.857   4.088
 5972SOL     OW18814   5.761   5.368   0.194
 5972SOL    HW118815   5.664   5.354   0.212
 5972SOL    HW218816   5.773   5.409   0.104
 5973SOL     OW18817   2.933   1.246   2.556
 5973SOL    HW118818   3.031   1.232   2.542
 5973SOL    HW218819   2.897   1.307   2.485
 5974SOL     OW18820   5.874   1.653   4.678
 5974SOL    HW118821   5.856   1.620   4.585
 5974SOL    HW218822   5.953   1.605   4.715
 5975SOL     OW18823   4.343   5.178   1.260
 5975SOL    HW118824   4.425   5.193   1.315
 5975SOL    HW218825   4.278   5.252   1.277
 5976SOL     OW18826   1.851   3.890   5.543
 5976SOL    HW118827   1.879   3.986   5.542
 5976SOL    HW218828   1.773   3.879   5.605
 5977SOL     OW18829   6.665   4.930   0.502
 5977SOL    HW118830   6.591   4.915   0.437
 5977SOL    HW218831   6.665   5.026   0.531
 5978SOL     OW18832   2.914   3.667   6.724
 5978SOL    HW118833   3.014   3.669   6.717
 5978SOL    HW218834   2.875   3.728   6.654
 5979SOL     OW18835   6.400   0.284   1.257
 5979SOL    HW118836   6.377   0.211   1.321
 5979SOL    HW218837   6.317   0.317   1.213
 5980SOL     OW18838   3.003   2.352   1.028
 5980SOL    HW118839   3.018   2.259   0.995
 5980SOL    HW218840   3.058   2.366   1.111
 5981SOL     OW18841   2.757   1.724   1.342
 5981SOL    HW118842   2.820   1.758   1.412
 5981SOL    HW218843   2.765   1.625   1.336
 5982SOL     OW18844   5.378   2.808   1.249
 5982SOL    HW118845   5.394   2.906   1.262
 5982SOL    HW218846   5.462   2.765   1.214
 5983SOL     OW18847   0.117   0.787   3.677
 5983SOL    HW118848   0.173   0.870   3.683
 5983SOL    HW218849   0.050   0.798   3.603
 5984SOL     OW18850   6.114   6.005   3.883
 5984SOL    HW118851   6.025   5.959   3.892
 5984SOL    HW218852   6.112   6.092   3.931
 5985SOL     OW18853   6.647   3.259   2.432
 5985SOL    HW118854   6.713   3.327   2.464
 5985SOL    HW218855   6.559   3.304   2.414
 5986SOL     OW18856   4.049   3.678   3.870
 5986SOL    HW118857   4.072   3.585   3.900
 5986SOL    HW218858   3.955   3.699   3.897
 5987SOL     OW18859   0.499   5.884   5.379
 5987SOL    HW118860   0.445   5.824   5.438
 5987SOL    HW218861   0.574   5.832   5.338
 5988SOL     OW18862   0.869   2.663   6.978
 5988SOL    HW118863   0.925   2.667   6.895
 5988SOL    HW218864   0.912   2.602   0.018
 5989SOL     OW18865   0.972   6.698   5.556
 5989SOL    HW118866   0.893   6.640   5.537
 5989SOL    HW218867   1.033   6.652   5.621
 5990SOL     OW18868   2.584   4.762   1.907
 5990SOL    HW118869   2.653   4.724   1.968
 5990SOL    HW218870   2.544   4.689   1.852
 5991SOL     OW18871   5.463   0.387   0.682
 5991SOL    HW118872   5.547   0.408   0.632
 5991SOL    HW218873   5.417   0.472   0.708
 5992SOL     OW18874   3.675   5.836   2.661
 5992SOL    HW118875   3.766   5.821   2.624
 5992SOL    HW218876   3.617   5.757   2.639
 5993SOL     OW18877   5.979   1.985   0.711
 5993SOL    HW118878   6.076   1.966   0.727
 5993SOL    HW218879   5.959   1.974   0.613
 5994SOL     OW18880   6.484   3.400   0.230
 5994SOL    HW118881   6.458   3.421   0.325
 5994SOL    HW218882   6.455   3.307   0.208
 5995SOL     OW18883   5.074   3.532   1.151
 5995SOL    HW118884   5.073   3.542   1.250
 5995SOL    HW218885   5.009   3.462   1.123
 5996SOL     OW18886   2.772   6.647   1.471
 5996SOL    HW118887   2.836   6.654   1.395
 5996SOL    HW218888   2.813   6.689   1.552
 5997SOL     OW18889   6.354   0.476   4.110
 5997SOL    HW118890   6.380   0.537   4.185
 5997SOL    HW218891   6.317   0.530   4.034
 5998SOL     OW18892   0.096   6.248   6.687
 5998SOL    HW118893   0.046   6.315   6.741
 5998SOL    HW218894   0.194   6.256   6.706
 5999SOL     OW18895   5.262   3.158   1.320
 5999SOL    HW118896   5.180   3.114   1.355
 5999SOL    HW218897   5.276   3.245   1.367
 6000SOL     OW18898   0.713   4.237   1.234
 6000SOL    HW118899   0.653   4.158   1.224
 6000SOL    HW218900   0.700   4.278   1.324
 6001SOL     OW18901   5.713   5.294   5.890
 6001SOL    HW118902   5.719   5.393   5.903
 6001SOL    HW218903   5.790   5.249   5.934
 6002SOL     OW18904   5.773   4.769   5.525
 6002SOL    HW118905   5.763   4.805   5.618
 6002SOL    HW218906   5.845   4.700   5.524
 6003SOL     OW18907   2.643   2.150   4.650
 6003SOL    HW118908   2.717   2.197   4.699
 6003SOL    HW218909   2.555   2.191   4.676
 6004SOL     OW18910   5.311   3.064   5.142
 6004SOL    HW118911   5.302   3.106   5.052
 6004SOL    HW218912   5.305   3.134   5.213
 6005SOL     OW18913   4.158   4.090   6.873
 6005SOL    HW118914   4.218   4.164   6.843
 6005SOL    HW218915   4.213   4.009   6.894
 6006SOL     OW18916   3.159   6.035   6.854
 6006SOL    HW118917   3.254   6.044   6.884
 6006SOL    HW218918   3.156   6.008   6.758
 6007SOL     OW18919   2.002   6.028   4.663
 6007SOL    HW118920   1.920   6.024   4.607
 6007SOL    HW218921   1.987   5.978   4.748
 6008SOL     OW18922   2.563   3.867   6.655
 6008SOL    HW118923   2.491   3.799   6.670
 6008SOL    HW218924   2.563   3.932   6.731
 6009SOL     OW18925   4.355   5.161   2.787
 6009SOL    HW118926   4.383   5.071   2.820
 6009SOL    HW218927   4.269   5.154   2.737
 6010SOL     OW18928   0.202   4.547   4.529
 6010SOL    HW118929   0.178   4.638   4.565
 6010SOL    HW218930   0.243   4.557   4.439
 6011SOL     OW18931   6.075   1.303   3.083
 6011SOL    HW118932   6.095   1.291   3.180
 6011SOL    HW218933   5.987   1.260   3.062
 6012SOL     OW18934   6.463   0.325   5.857
 6012SOL    HW118935   6.448   0.301   5.953
 6012SOL    HW218936   6.462   0.242   5.801
 6013SOL     OW18937   5.998   1.405   2.215
 6013SOL    HW118938   5.962   1.461   2.141
 6013SOL    HW218939   5.986   1.452   2.303
 6014SOL     OW18940   3.076   3.203   3.925
 6014SOL    HW118941   3.059   3.219   4.023
 6014SOL    HW218942   3.047   3.283   3.873
 6015SOL     OW18943   5.889   0.429   3.637
 6015SOL    HW118944   5.917   0.519   3.605
 6015SOL    HW218945   5.828   0.387   3.569
 6016SOL     OW18946   4.032   2.238   4.539
 6016SOL    HW118947   3.946   2.189   4.527
 6016SOL    HW218948   4.107   2.182   4.502
 6017SOL     OW18949   1.262   1.372   5.541
 6017SOL    HW118950   1.316   1.352   5.623
 6017SOL    HW218951   1.301   1.451   5.494
 6018SOL     OW18952   2.686   0.871   3.938
 6018SOL    HW118953   2.666   0.914   3.850
 6018SOL    HW218954   2.687   0.942   4.009
 6019SOL     OW18955   6.238   4.519   6.143
 6019SOL    HW118956   6.319   4.577   6.151
 6019SOL    HW218957   6.254   4.449   6.074
 6020SOL     OW18958   0.783   5.105   6.079
 6020SOL    HW118959   0.700   5.117   6.024
 6020SOL    HW218960   0.758   5.064   6.167
 6021SOL     OW18961   5.608   6.934   3.385
 6021SOL    HW118962   5.629   6.937   3.483
 6021SOL    HW218963   5.693   6.941   3.332
 6022SOL     OW18964   6.412   2.625   1.962
 6022SOL    HW118965   6.473   2.562   1.914
 6022SOL    HW218966   6.402   2.595   2.057
 6023SOL     OW18967   4.145   6.989   2.079
 6023SOL    HW118968   4.068   6.961   2.136
 6023SOL    HW218969   4.204   6.911   2.061
 6024SOL     OW18970   1.048   6.214   6.873
 6024SOL    HW118971   1.007   6.296   6.913
 6024SOL    HW218972   1.148   6.217   6.885
 6025SOL     OW18973   2.824   0.619   5.110
 6025SOL    HW118974   2.753   0.688   5.097
 6025SOL    HW218975   2.913   0.664   5.115
 6026SOL     OW18976   5.864   6.284   4.596
 6026SOL    HW118977   5.796   6.260   4.527
 6026SOL    HW218978   5.914   6.202   4.623
 6027SOL     OW18979   5.293   5.072   6.007
 6027SOL    HW118980   5.251   5.008   6.072
 6027SOL    HW218981   5.270   5.166   6.033
 6028SOL     OW18982   5.653   5.575   6.266
 6028SOL    HW118983   5.564   5.549   6.230
 6028SOL    HW218984   5.713   5.605   6.191
 6029SOL     OW18985   3.067   1.506   3.001
 6029SOL    HW118986   3.062   1.467   2.909
 6029SOL    HW218987   3.074   1.605   2.995
 6030SOL     OW18988   5.797   3.413   4.198
 6030SOL    HW118989   5.853   3.489   4.167
 6030SOL    HW218990   5.847   3.361   4.268
 6031SOL     OW18991   0.176   5.973   5.112
 6031SOL    HW118992   0.131   6.056   5.078
 6031SOL    HW218993   0.123   5.893   5.084
 6032SOL     OW18994   3.518   6.508   3.370
 6032SOL    HW118995   3.462   6.562   3.434
 6032SOL    HW218996   3.515   6.551   3.280
 6033SOL     OW18997   1.325   1.220   2.602
 6033SOL    HW118998   1.344   1.269   2.517
 6033SOL    HW218999   1.406   1.222   2.661
 6034SOL     OW19000   0.383   6.988   1.343
 6034SOL    HW119001   0.470   0.001   1.312
 6034SOL    HW219002   0.347   0.014   1.420
 6035SOL     OW19003   2.789   0.507   2.502
 6035SOL    HW119004   2.872   0.541   2.545
 6035SOL    HW219005   2.807   0.486   2.406
 6036SOL     OW19006   6.463   3.497   0.998
 6036SOL    HW119007   6.393   3.567   0.987
 6036SOL    HW219008   6.529   3.526   1.068
 6037SOL     OW19009   4.503   1.652   6.225
 6037SOL    HW119010   4.537   1.654   6.319
 6037SOL    HW219011   4.449   1.734   6.207
 6038SOL     OW19012   1.555   1.132   6.461
 6038SOL    HW119013   1.522   1.078   6.539
 6038SOL    HW219014   1.477   1.166   6.409
 6039SOL     OW19015   3.791   3.757   3.981
 6039SOL    HW119016   3.708   3.713   3.948
 6039SOL    HW219017   3.787   3.855   3.962
 6040SOL     OW19018   6.888   1.958   0.665
 6040SOL    HW119019   6.795   1.994   0.663
 6040SOL    HW219020   6.952   2.031   0.641
 6041SOL     OW19021   2.126   3.632   6.343
 6041SOL    HW119022   2.196   3.593   6.403
 6041SOL    HW219023   2.109   3.570   6.267
 6042SOL     OW19024   3.242   5.904   3.812
 6042SOL    HW119025   3.258   5.951   3.899
 6042SOL    HW219026   3.163   5.843   3.822
 6043SOL     OW19027   2.592   6.988   2.863
 6043SOL    HW119028   2.549   6.957   2.778
 6043SOL    HW219029   2.625   6.908   2.914
 6044SOL     OW19030   0.370   3.307   1.178
 6044SOL    HW119031   0.326   3.291   1.266
 6044SOL    HW219032   0.307   3.355   1.117
 6045SOL     OW19033   5.840   1.481   3.522
 6045SOL    HW119034   5.917   1.441   3.472
 6045SOL    HW219035   5.771   1.511   3.457
 6046SOL     OW19036   3.405   3.280   2.791
 6046SOL    HW119037   3.382   3.215   2.863
 6046SOL    HW219038   3.384   3.240   2.702
 6047SOL     OW19039   6.913   1.758   0.350
 6047SOL    HW119040   6.879   1.851   0.365
 6047SOL    HW219041   6.963   1.727   0.432
 6048SOL     OW19042   5.512   5.940   3.209
 6048SOL    HW119043   5.482   5.873   3.141
 6048SOL    HW219044   5.498   6.032   3.174
 6049SOL     OW19045   4.639   4.859   6.542
 6049SOL    HW119046   4.679   4.791   6.604
 6049SOL    HW219047   4.710   4.923   6.512
 6050SOL     OW19048   2.814   5.908   2.338
 6050SOL    HW119049   2.805   5.825   2.394
 6050SOL    HW219050   2.851   5.884   2.249
 6051SOL     OW19051   0.474   1.370   3.068
 6051SOL    HW119052   0.378   1.380   3.043
 6051SOL    HW219053   0.528   1.352   2.986
 6052SOL     OW19054   5.272   5.464   0.770
 6052SOL    HW119055   5.295   5.419   0.683
 6052SOL    HW219056   5.199   5.412   0.815
 6053SOL     OW19057   4.285   2.503   6.188
 6053SOL    HW119058   4.244   2.412   6.177
 6053SOL    HW219059   4.222   2.561   6.240
 6054SOL     OW19060   4.039   4.256   0.978
 6054SOL    HW119061   4.108   4.190   1.009
 6054SOL    HW219062   4.058   4.345   1.020
 6055SOL     OW19063   2.957   4.315   0.910
 6055SOL    HW119064   2.857   4.325   0.902
 6055SOL    HW219065   2.989   4.365   0.991
 6056SOL     OW19066   4.972   6.329   3.499
 6056SOL    HW119067   4.941   6.405   3.556
 6056SOL    HW219068   5.072   6.328   3.496
 6057SOL     OW19069   5.195   0.514   4.267
 6057SOL    HW119070   5.202   0.502   4.168
 6057SOL    HW219071   5.163   0.606   4.288
 6058SOL     OW19072   6.850   2.742   5.817
 6058SOL    HW119073   6.822   2.695   5.901
 6058SOL    HW219074   6.898   2.826   5.840
 6059SOL     OW19075   4.406   2.553   6.688
 6059SOL    HW119076   4.498   2.550   6.728
 6059SOL    HW219077   4.338   2.558   6.761
 6060SOL     OW19078   2.194   2.670   0.390
 6060SOL    HW119079   2.100   2.650   0.420
 6060SOL    HW219080   2.231   2.745   0.445
 6061SOL     OW19081   3.862   4.373   6.966
 6061SOL    HW119082   3.782   4.320   6.938
 6061SOL    HW219083   3.910   4.325   0.013
 6062SOL     OW19084   2.037   2.325   6.446
 6062SOL    HW119085   2.128   2.366   6.456
 6062SOL    HW219086   2.046   2.225   6.451
 6063SOL     OW19087   4.352   3.775   6.509
 6063SOL    HW119088   4.393   3.706   6.450
 6063SOL    HW219089   4.416   3.798   6.582
 6064SOL     OW19090   6.509   5.594   0.989
 6064SOL    HW119091   6.427   5.644   0.961
 6064SOL    HW219092   6.491   5.546   1.074
 6065SOL     OW19093   2.178   6.629   1.617
 6065SOL    HW119094   2.231   6.564   1.562
 6065SOL    HW219095   2.104   6.667   1.561
 6066SOL     OW19096   5.468   6.236   3.174
 6066SOL    HW119097   5.542   6.273   3.230
 6066SOL    HW219098   5.381   6.250   3.220
 6067SOL     OW19099   6.948   5.922   5.715
 6067SOL    HW119100   7.023   5.987   5.702
 6067SOL    HW219101   6.872   5.969   5.761
 6068SOL     OW19102   4.977   2.468   4.302
 6068SOL    HW119103   4.936   2.420   4.380
 6068SOL    HW219104   4.963   2.414   4.219
 6069SOL     OW19105   6.748   4.301   6.137
 6069SOL    HW119106   6.780   4.207   6.146
 6069SOL    HW219107   6.753   4.347   6.225
 6070SOL     OW19108   2.354   1.561   1.077
 6070SOL    HW119109   2.394   1.633   1.021
 6070SOL    HW219110   2.256   1.555   1.059
 6071SOL     OW19111   6.452   1.260   5.792
 6071SOL    HW119112   6.484   1.168   5.811
 6071SOL    HW219113   6.374   1.281   5.852
 6072SOL     OW19114   6.944   3.746   6.808
 6072SOL    HW119115   7.013   3.815   6.832
 6072SOL    HW219116   6.980   3.655   6.827
 6073SOL     OW19117   5.235   3.664   0.074
 6073SOL    HW119118   5.317   3.637   0.124
 6073SOL    HW219119   5.262   3.717   7.020
 6074SOL     OW19120   1.353   6.592   2.429
 6074SOL    HW119121   1.337   6.627   2.337
 6074SOL    HW219122   1.451   6.580   2.444
 6075SOL     OW19123   5.833   0.809   6.693
 6075SOL    HW119124   5.877   0.785   6.607
 6075SOL    HW219125   5.827   0.909   6.701
 6076SOL     OW19126   0.608   5.951   2.741
 6076SOL    HW119127   0.694   5.989   2.775
 6076SOL    HW219128   0.531   5.996   2.787
 6077SOL     OW19129   5.586   6.255   2.653
 6077SOL    HW119130   5.529   6.270   2.734
 6077SOL    HW219131   5.536   6.281   2.571
 6078SOL     OW19132   4.578   3.779   0.205
 6078SOL    HW119133   4.577   3.716   0.127
 6078SOL    HW219134   4.519   3.857   0.186
 6079SOL     OW19135   2.953   2.497   0.532
 6079SOL    HW119136   3.024   2.558   0.566
 6079SOL    HW219137   2.881   2.550   0.488
 6080SOL     OW19138   6.541   3.995   6.120
 6080SOL    HW119139   6.482   3.999   6.201
 6080SOL    HW219140   6.612   4.065   6.127
 6081SOL     OW19141   1.696   3.374   3.794
 6081SOL    HW119142   1.598   3.369   3.815
 6081SOL    HW219143   1.734   3.455   3.839
 6082SOL     OW19144   4.740   1.503   1.627
 6082SOL    HW119145   4.753   1.514   1.725
 6082SOL    HW219146   4.794   1.571   1.578
 6083SOL     OW19147   4.603   0.287   6.421
 6083SOL    HW119148   4.678   0.307   6.358
 6083SOL    HW219149   4.639   0.261   6.510
 6084SOL     OW19150   6.893   5.627   2.673
 6084SOL    HW119151   6.850   5.603   2.760
 6084SOL    HW219152   6.840   5.700   2.629
 6085SOL     OW19153   0.681   6.937   0.214
 6085SOL    HW119154   0.664   6.897   0.304
 6085SOL    HW219155   0.676   0.010   0.221
 6086SOL     OW19156   3.465   4.034   0.206
 6086SOL    HW119157   3.424   4.054   0.116
 6086SOL    HW219158   3.519   3.950   0.200
 6087SOL     OW19159   4.607   0.096   0.539
 6087SOL    HW119160   4.661   0.102   0.623
 6087SOL    HW219161   4.575   0.188   0.513
 6088SOL     OW19162   4.993   5.536   2.601
 6088SOL    HW119163   4.928   5.612   2.597
 6088SOL    HW219164   5.071   5.561   2.657
 6089SOL     OW19165   5.894   4.027   3.543
 6089SOL    HW119166   5.889   4.034   3.444
 6089SOL    HW219167   5.989   4.029   3.572
 6090SOL     OW19168   4.055   5.445   4.117
 6090SOL    HW119169   4.023   5.364   4.068
 6090SOL    HW219170   4.102   5.418   4.200
 6091SOL     OW19171   1.205   1.382   1.438
 6091SOL    HW119172   1.281   1.400   1.375
 6091SOL    HW219173   1.119   1.385   1.386
 6092SOL     OW19174   3.000   6.888   1.368
 6092SOL    HW119175   2.986   6.866   1.465
 6092SOL    HW219176   3.057   6.969   1.361
 6093SOL     OW19177   2.358   2.612   2.434
 6093SOL    HW119178   2.420   2.619   2.357
 6093SOL    HW219179   2.402   2.648   2.517
 6094SOL     OW19180   0.692   6.394   5.038
 6094SOL    HW119181   0.688   6.419   4.942
 6094SOL    HW219182   0.631   6.316   5.054
 6095SOL     OW19183   4.698   4.498   1.613
 6095SOL    HW119184   4.716   4.551   1.696
 6095SOL    HW219185   4.619   4.537   1.566
 6096SOL     OW19186   5.041   5.929   3.086
 6096SOL    HW119187   4.947   5.897   3.088
 6096SOL    HW219188   5.102   5.858   3.121
 6097SOL     OW19189   2.047   4.761   2.651
 6097SOL    HW119190   2.057   4.670   2.611
 6097SOL    HW219191   2.028   4.753   2.749
 6098SOL     OW19192   6.382   0.509   4.708
 6098SOL    HW119193   6.331   0.595   4.717
 6098SOL    HW219194   6.463   0.524   4.651
 6099SOL     OW19195   3.251   0.646   5.689
 6099SOL    HW119196   3.236   0.685   5.599
 6099SOL    HW219197   3.292   0.555   5.679
 6100SOL     OW19198   0.671   5.841   4.739
 6100SOL    HW119199   0.734   5.847   4.817
 6100SOL    HW219200   0.701   5.768   4.678
 6101SOL     OW19201   6.943   3.530   1.652
 6101SOL    HW119202   6.930   3.630   1.653
 6101SOL    HW219203   0.009   3.509   1.623
 6102SOL     OW19204   3.785   0.164   2.500
 6102SOL    HW119205   3.789   0.236   2.569
 6102SOL    HW219206   3.818   0.078   2.539
 6103SOL     OW19207   6.730   1.675   2.080
 6103SOL    HW119208   6.733   1.742   2.005
 6103SOL    HW219209   6.639   1.676   2.121
 6104SOL     OW19210   6.804   0.665   4.391
 6104SOL    HW119211   6.881   0.611   4.427
 6104SOL    HW219212   6.819   0.682   4.294
 6105SOL     OW19213   3.313   4.421   5.897
 6105SOL    HW119214   3.265   4.374   5.971
 6105SOL    HW219215   3.318   4.362   5.817
 6106SOL     OW19216   6.192   4.827   5.574
 6106SOL    HW119217   6.247   4.906   5.603
 6106SOL    HW219218   6.246   4.771   5.511
 6107SOL     OW19219   6.029   5.126   5.253
 6107SOL    HW119220   6.008   5.049   5.193
 6107SOL    HW219221   6.025   5.095   5.349
 6108SOL     OW19222   1.971   1.148   6.933
 6108SOL    HW119223   2.043   1.169   6.866
 6108SOL    HW219224   1.906   1.225   6.937
 6109SOL     OW19225   6.627   6.620   3.829
 6109SOL    HW119226   6.692   6.687   3.864
 6109SOL    HW219227   6.672   6.531   3.823
 6110SOL     OW19228   1.886   1.476   4.004
 6110SOL    HW119229   1.943   1.506   3.927
 6110SOL    HW219230   1.944   1.459   4.083
 6111SOL     OW19231   2.260   3.850   1.205
 6111SOL    HW119232   2.235   3.811   1.294
 6111SOL    HW219233   2.249   3.780   1.134
 6112SOL     OW19234   5.015   6.749   3.732
 6112SOL    HW119235   5.008   6.831   3.676
 6112SOL    HW219236   4.967   6.763   3.818
 6113SOL     OW19237   2.149   5.637   1.183
 6113SOL    HW119238   2.068   5.589   1.150
 6113SOL    HW219239   2.232   5.592   1.149
 6114SOL     OW19240   5.215   1.716   0.840
 6114SOL    HW119241   5.224   1.810   0.807
 6114SOL    HW219242   5.299   1.689   0.887
 6115SOL     OW19243   0.829   0.515   6.342
 6115SOL    HW119244   0.804   0.426   6.381
 6115SOL    HW219245   0.895   0.501   6.268
 6116SOL     OW19246   5.523   3.245   6.657
 6116SOL    HW119247   5.563   3.154   6.667
 6116SOL    HW219248   5.592   3.307   6.618
 6117SOL     OW19249   1.938   2.082   1.247
 6117SOL    HW119250   2.036   2.085   1.265
 6117SOL    HW219251   1.904   2.175   1.231
 6118SOL     OW19252   5.738   0.883   1.631
 6118SOL    HW119253   5.791   0.968   1.629
 6118SOL    HW219254   5.715   0.860   1.726
 6119SOL     OW19255   6.661   1.757   6.728
 6119SOL    HW119256   6.724   1.835   6.730
 6119SOL    HW219257   6.632   1.741   6.634
 6120SOL     OW19258   3.039   0.541   4.199
 6120SOL    HW119259   3.095   0.594   4.262
 6120SOL    HW219260   3.089   0.526   4.114
 6121SOL     OW19261   1.687   2.358   4.722
 6121SOL    HW119262   1.632   2.437   4.750
 6121SOL    HW219263   1.773   2.357   4.774
 6122SOL     OW19264   5.321   4.561   5.159
 6122SOL    HW119265   5.408   4.610   5.168
 6122SOL    HW219266   5.255   4.618   5.110
 6123SOL     OW19267   5.697   1.664   5.408
 6123SOL    HW119268   5.659   1.757   5.403
 6123SOL    HW219269   5.646   1.604   5.347
 6124SOL     OW19270   2.500   5.981   4.389
 6124SOL    HW119271   2.444   6.037   4.329
 6124SOL    HW219272   2.507   5.888   4.352
 6125SOL     OW19273   2.912   1.942   6.159
 6125SOL    HW119274   2.909   1.844   6.177
 6125SOL    HW219275   2.846   1.966   6.088
 6126SOL     OW19276   6.268   2.821   6.037
 6126SOL    HW119277   6.245   2.907   6.081
 6126SOL    HW219278   6.258   2.830   5.938
 6127SOL     OW19279   4.897   2.240   2.647
 6127SOL    HW119280   4.971   2.257   2.712
 6127SOL    HW219281   4.927   2.173   2.579
 6128SOL     OW19282   5.796   5.974   6.796
 6128SOL    HW119283   5.722   5.994   6.732
 6128SOL    HW219284   5.872   5.933   6.747
 6129SOL     OW19285   2.186   5.818   2.286
 6129SOL    HW119286   2.242   5.736   2.276
 6129SOL    HW219287   2.108   5.813   2.224
 6130SOL     OW19288   5.923   2.801   0.289
 6130SOL    HW119289   5.860   2.789   0.366
 6130SOL    HW219290   5.918   2.722   0.229
 6131SOL     OW19291   6.438   1.882   2.910
 6131SOL    HW119292   6.512   1.941   2.942
 6131SOL    HW219293   6.478   1.796   2.876
 6132SOL     OW19294   3.862   1.355   6.102
 6132SOL    HW119295   3.823   1.370   6.011
 6132SOL    HW219296   3.791   1.366   6.171
 6133SOL     OW19297   0.831   2.071   2.959
 6133SOL    HW119298   0.866   2.165   2.965
 6133SOL    HW219299   0.907   2.007   2.960
 6134SOL     OW19300   0.493   6.799   5.737
 6134SOL    HW119301   0.508   6.715   5.788
 6134SOL    HW219302   0.572   6.818   5.679
 6135SOL     OW19303   0.377   6.719   0.288
 6135SOL    HW119304   0.330   6.682   0.208
 6135SOL    HW219305   0.312   6.731   0.363
 6136SOL     OW19306   0.615   3.071   2.566
 6136SOL    HW119307   0.587   2.988   2.613
 6136SOL    HW219308   0.713   3.067   2.545
 6137SOL     OW19309   6.948   4.252   1.601
 6137SOL    HW119310   6.972   4.318   1.530
 6137SOL    HW219311   7.012   4.261   1.677
 6138SOL     OW19312   4.519   0.397   2.272
 6138SOL    HW119313   4.591   0.371   2.335
 6138SOL    HW219314   4.499   0.495   2.283
 6139SOL     OW19315   1.318   0.908   5.018
 6139SOL    HW119316   1.343   0.882   5.111
 6139SOL    HW219317   1.397   0.949   4.972
 6140SOL     OW19318   1.606   0.263   2.790
 6140SOL    HW119319   1.646   0.241   2.702
 6140SOL    HW219320   1.662   0.224   2.863
 6141SOL     OW19321   0.671   0.628   6.010
 6141SOL    HW119322   0.704   0.705   6.065
 6141SOL    HW219323   0.649   0.551   6.069
 6142SOL     OW19324   6.797   0.233   1.615
 6142SOL    HW119325   6.757   0.169   1.550
 6142SOL    HW219326   6.880   0.273   1.576
 6143SOL     OW19327   6.830   3.557   5.328
 6143SOL    HW119328   6.835   3.481   5.393
 6143SOL    HW219329   6.900   3.625   5.351
 6144SOL     OW19330   4.557   5.391   2.507
 6144SOL    HW119331   4.540   5.429   2.598
 6144SOL    HW219332   4.642   5.339   2.509
 6145SOL     OW19333   4.870   3.517   4.110
 6145SOL    HW119334   4.859   3.457   4.189
 6145SOL    HW219335   4.884   3.611   4.141
 6146SOL     OW19336   5.740   0.250   5.255
 6146SOL    HW119337   5.716   0.342   5.285
 6146SOL    HW219338   5.795   0.255   5.171
 6147SOL     OW19339   1.354   2.571   4.922
 6147SOL    HW119340   1.382   2.650   4.975
 6147SOL    HW219341   1.346   2.596   4.825
 6148SOL     OW19342   3.738   5.105   6.885
 6148SOL    HW119343   3.699   5.094   6.794
 6148SOL    HW219344   3.669   5.141   6.947
 6149SOL     OW19345   3.184   1.128   1.452
 6149SOL    HW119346   3.159   1.219   1.484
 6149SOL    HW219347   3.165   1.122   1.354
 6150SOL     OW19348   1.022   4.284   5.496
 6150SOL    HW119349   1.030   4.257   5.592
 6150SOL    HW219350   1.102   4.252   5.445
 6151SOL     OW19351   4.479   5.256   3.284
 6151SOL    HW119352   4.563   5.309   3.284
 6151SOL    HW219353   4.474   5.201   3.201
 6152SOL     OW19354   1.508   4.166   4.131
 6152SOL    HW119355   1.474   4.105   4.059
 6152SOL    HW219356   1.586   4.218   4.096
 6153SOL     OW19357   5.310   5.573   1.017
 6153SOL    HW119358   5.295   5.545   0.922
 6153SOL    HW219359   5.383   5.517   1.057
 6154SOL     OW19360   4.995   3.490   2.447
 6154SOL    HW119361   4.950   3.406   2.476
 6154SOL    HW219362   5.092   3.472   2.430
 6155SOL     OW19363   1.713   1.542   3.055
 6155SOL    HW119364   1.780   1.617   3.048
 6155SOL    HW219365   1.679   1.520   2.964
 6156SOL     OW19366   4.980   4.935   1.468
 6156SOL    HW119367   5.075   4.966   1.459
 6156SOL    HW219368   4.979   4.836   1.483
 6157SOL     OW19369   0.975   2.611   1.919
 6157SOL    HW119370   0.949   2.574   2.008
 6157SOL    HW219371   1.059   2.665   1.928
 6158SOL     OW19372   2.969   2.207   4.804
 6158SOL    HW119373   2.910   2.284   4.782
 6158SOL    HW219374   3.042   2.237   4.865
 6159SOL     OW19375   6.562   2.715   0.802
 6159SOL    HW119376   6.553   2.778   0.879
 6159SOL    HW219377   6.512   2.751   0.723
 6160SOL     OW19378   1.423   0.653   1.091
 6160SOL    HW119379   1.379   0.668   1.002
 6160SOL    HW219380   1.519   0.682   1.086
 6161SOL     OW19381   4.378   3.543   6.335
 6161SOL    HW119382   4.291   3.592   6.342
 6161SOL    HW219383   4.370   3.453   6.378
 6162SOL     OW19384   6.117   5.239   2.477
 6162SOL    HW119385   6.194   5.268   2.420
 6162SOL    HW219386   6.089   5.147   2.450
 6163SOL     OW19387   5.897   6.143   3.558
 6163SOL    HW119388   5.829   6.086   3.511
 6163SOL    HW219389   5.922   6.220   3.499
 6164SOL     OW19390   3.132   3.715   4.319
 6164SOL    HW119391   3.217   3.753   4.355
 6164SOL    HW219392   3.083   3.667   4.392
 6165SOL     OW19393   3.855   1.617   6.928
 6165SOL    HW119394   3.757   1.635   6.926
 6165SOL    HW219395   3.896   1.647   6.841
 6166SOL     OW19396   2.224   2.833   6.554
 6166SOL    HW119397   2.226   2.823   6.454
 6166SOL    HW219398   2.157   2.902   6.580
 6167SOL     OW19399   1.547   3.341   3.038
 6167SOL    HW119400   1.513   3.251   3.064
 6167SOL    HW219401   1.571   3.393   3.120
 6168SOL     OW19402   0.253   4.271   3.731
 6168SOL    HW119403   0.164   4.259   3.774
 6168SOL    HW219404   0.251   4.351   3.671
 6169SOL     OW19405   2.084   0.783   6.990
 6169SOL    HW119406   2.041   0.693   6.985
 6169SOL    HW219407   2.053   0.839   6.912
 6170SOL     OW19408   2.992   3.990   0.589
 6170SOL    HW119409   2.931   4.024   0.517
 6170SOL    HW219410   3.037   4.068   0.633
 6171SOL     OW19411   2.153   3.769   2.101
 6171SOL    HW119412   2.209   3.691   2.075
 6171SOL    HW219413   2.061   3.758   2.062
 6172SOL     OW19414   2.399   5.615   2.508
 6172SOL    HW119415   2.395   5.574   2.417
 6172SOL    HW219416   2.314   5.594   2.557
 6173SOL     OW19417   1.378   5.802   2.032
 6173SOL    HW119418   1.472   5.783   2.004
 6173SOL    HW219419   1.318   5.731   1.995
 6174SOL     OW19420   5.492   4.855   2.407
 6174SOL    HW119421   5.482   4.941   2.457
 6174SOL    HW219422   5.468   4.779   2.467
 6175SOL     OW19423   4.978   0.329   2.828
 6175SOL    HW119424   5.038   0.366   2.898
 6175SOL    HW219425   5.032   0.299   2.750
 6176SOL     OW19426   6.413   3.085   6.028
 6176SOL    HW119427   6.351   3.149   6.073
 6176SOL    HW219428   6.434   3.118   5.936
 6177SOL     OW19429   6.624   2.746   1.245
 6177SOL    HW119430   6.630   2.662   1.191
 6177SOL    HW219431   6.715   2.770   1.280
 6178SOL     OW19432   6.103   3.106   1.395
 6178SOL    HW119433   6.192   3.101   1.349
 6178SOL    HW219434   6.114   3.150   1.484
 6179SOL     OW19435   0.675   2.033   5.776
 6179SOL    HW119436   0.681   1.975   5.857
 6179SOL    HW219437   0.742   2.004   5.709
 6180SOL     OW19438   3.644   6.789   6.701
 6180SOL    HW119439   3.635   6.728   6.622
 6180SOL    HW219440   3.602   6.877   6.680
 6181SOL     OW19441   5.097   5.644   6.881
 6181SOL    HW119442   5.146   5.686   6.958
 6181SOL    HW219443   5.158   5.579   6.835
 6182SOL     OW19444   4.332   6.476   6.616
 6182SOL    HW119445   4.400   6.528   6.563
 6182SOL    HW219446   4.294   6.403   6.559
 6183SOL     OW19447   2.911   0.358   3.211
 6183SOL    HW119448   2.987   0.358   3.275
 6183SOL    HW219449   2.875   0.265   3.203
 6184SOL     OW19450   6.935   0.392   6.556
 6184SOL    HW119451   6.862   0.327   6.535
 6184SOL    HW219452   6.940   0.407   6.655
 6185SOL     OW19453   0.622   4.018   6.110
 6185SOL    HW119454   0.547   4.057   6.057
 6185SOL    HW219455   0.616   3.918   6.109
 6186SOL     OW19456   5.896   0.029   5.017
 6186SOL    HW119457   5.858   0.098   4.954
 6186SOL    HW219458   5.821   7.001   5.055
 6187SOL     OW19459   4.074   5.173   4.324
 6187SOL    HW119460   4.128   5.156   4.242
 6187SOL    HW219461   4.129   5.223   4.391
 6188SOL     OW19462   2.875   0.088   1.664
 6188SOL    HW119463   2.833   0.121   1.749
 6188SOL    HW219464   2.804   0.071   1.596
 6189SOL     OW19465   5.925   5.098   3.443
 6189SOL    HW119466   5.863   5.169   3.476
 6189SOL    HW219467   5.990   5.138   3.379
 6190SOL     OW19468   5.042   2.638   6.722
 6190SOL    HW119469   5.108   2.702   6.761
 6190SOL    HW219470   5.015   2.668   6.631
 6191SOL     OW19471   6.460   2.073   6.552
 6191SOL    HW119472   6.558   2.066   6.532
 6191SOL    HW219473   6.434   2.004   6.619
 6192SOL     OW19474   3.270   2.683   0.241
 6192SOL    HW119475   3.215   2.756   0.200
 6192SOL    HW219476   3.365   2.691   0.212
 6193SOL     OW19477   6.115   6.883   1.457
 6193SOL    HW119478   6.079   6.957   1.400
 6193SOL    HW219479   6.109   6.909   1.553
 6194SOL     OW19480   2.081   0.335   0.118
 6194SOL    HW119481   2.113   0.259   0.061
 6194SOL    HW219482   2.078   0.306   0.213
 6195SOL     OW19483   2.999   6.829   6.332
 6195SOL    HW119484   3.085   6.786   6.361
 6195SOL    HW219485   2.978   6.906   6.393
 6196SOL     OW19486   6.993   1.154   6.780
 6196SOL    HW119487   7.004   1.155   6.880
 6196SOL    HW219488   6.984   1.059   6.749
 6197SOL     OW19489   2.104   3.260   0.328
 6197SOL    HW119490   2.028   3.199   0.352
 6197SOL    HW219491   2.177   3.249   0.394
 6198SOL     OW19492   4.305   4.881   2.483
 6198SOL    HW119493   4.210   4.882   2.515
 6198SOL    HW219494   4.331   4.787   2.458
 6199SOL     OW19495   1.293   0.419   6.576
 6199SOL    HW119496   1.300   0.503   6.629
 6199SOL    HW219497   1.289   0.341   6.638
 6200SOL     OW19498   3.755   6.998   6.089
 6200SOL    HW119499   3.753   6.989   6.189
 6200SOL    HW219500   3.682   0.034   6.060
 6201SOL     OW19501   2.323   4.403   4.194
 6201SOL    HW119502   2.401   4.393   4.131
 6201SOL    HW219503   2.252   4.338   4.168
 6202SOL     OW19504   3.223   2.476   1.344
 6202SOL    HW119505   3.244   2.380   1.363
 6202SOL    HW219506   3.167   2.513   1.418
 6203SOL     OW19507   4.795   1.852   5.445
 6203SOL    HW119508   4.713   1.796   5.436
 6203SOL    HW219509   4.814   1.867   5.542
 6204SOL     OW19510   1.186   6.576   5.688
 6204SOL    HW119511   1.245   6.496   5.695
 6204SOL    HW219512   1.241   6.659   5.689
 6205SOL     OW19513   5.488   5.814   6.912
 6205SOL    HW119514   5.481   5.866   6.827
 6205SOL    HW219515   5.556   5.741   6.902
 6206SOL     OW19516   4.868   0.089   3.003
 6206SOL    HW119517   4.904   0.181   2.987
 6206SOL    HW219518   4.908   0.052   3.086
 6207SOL     OW19519   1.728   3.883   4.941
 6207SOL    HW119520   1.771   3.859   4.854
 6207SOL    HW219521   1.687   3.801   4.981
 6208SOL     OW19522   5.662   6.483   6.208
 6208SOL    HW119523   5.746   6.507   6.160
 6208SOL    HW219524   5.610   6.416   6.155
 6209SOL     OW19525   3.559   5.290   0.984
 6209SOL    HW119526   3.608   5.230   0.921
 6209SOL    HW219527   3.499   5.235   1.042
 6210SOL     OW19528   5.812   4.624   3.535
 6210SOL    HW119529   5.907   4.600   3.514
 6210SOL    HW219530   5.754   4.544   3.521
 6211SOL     OW19531   2.405   0.425   4.856
 6211SOL    HW119532   2.404   0.357   4.782
 6211SOL    HW219533   2.499   0.451   4.876
 6212SOL     OW19534   6.885   6.700   3.604
 6212SOL    HW119535   6.919   6.654   3.686
 6212SOL    HW219536   6.930   6.789   3.595
 6213SOL     OW19537   0.437   6.178   6.077
 6213SOL    HW119538   0.449   6.182   6.177
 6213SOL    HW219539   0.349   6.221   6.053
 6214SOL     OW19540   6.377   5.005   2.840
 6214SOL    HW119541   6.438   5.052   2.776
 6214SOL    HW219542   6.355   4.914   2.804
 6215SOL     OW19543   3.010   4.702   0.729
 6215SOL    HW119544   3.032   4.691   0.632
 6215SOL    HW219545   2.941   4.634   0.754
 6216SOL     OW19546   6.538   1.664   2.798
 6216SOL    HW119547   6.504   1.575   2.829
 6216SOL    HW219548   6.631   1.653   2.762
 6217SOL     OW19549   5.462   3.216   1.577
 6217SOL    HW119550   5.420   3.225   1.667
 6217SOL    HW219551   5.431   3.290   1.517
 6218SOL     OW19552   3.550   5.037   4.832
 6218SOL    HW119553   3.460   5.035   4.874
 6218SOL    HW219554   3.607   4.964   4.870
 6219SOL     OW19555   1.148   2.048   4.356
 6219SOL    HW119556   1.177   2.076   4.448
 6219SOL    HW219557   1.059   2.003   4.362
 6220SOL     OW19558   1.266   4.114   5.453
 6220SOL    HW119559   1.220   4.067   5.377
 6220SOL    HW219560   1.289   4.047   5.523
 6221SOL     OW19561   3.715   4.990   4.453
 6221SOL    HW119562   3.617   4.991   4.471
 6221SOL    HW219563   3.764   4.965   4.536
 6222SOL     OW19564   0.072   1.310   1.002
 6222SOL    HW119565   0.010   1.233   1.019
 6222SOL    HW219566   0.033   1.369   0.932
 6223SOL     OW19567   5.188   3.701   4.817
 6223SOL    HW119568   5.093   3.724   4.836
 6223SOL    HW219569   5.225   3.647   4.893
 6224SOL     OW19570   2.541   1.036   5.147
 6224SOL    HW119571   2.523   1.071   5.055
 6224SOL    HW219572   2.598   1.101   5.197
 6225SOL     OW19573   4.479   2.202   0.066
 6225SOL    HW119574   4.472   2.298   0.093
 6225SOL    HW219575   4.389   2.158   0.077
 6226SOL     OW19576   6.087   0.049   4.503
 6226SOL    HW119577   6.108   0.105   4.584
 6226SOL    HW219578   6.096   0.105   4.421
 6227SOL     OW19579   3.177   4.624   6.298
 6227SOL    HW119580   3.277   4.631   6.293
 6227SOL    HW219581   3.135   4.710   6.271
 6228SOL     OW19582   6.979   0.528   3.695
 6228SOL    HW119583   6.933   0.599   3.642
 6228SOL    HW219584   6.999   0.450   3.636
 6229SOL     OW19585   2.044   2.956   2.278
 6229SOL    HW119586   2.014   2.962   2.183
 6229SOL    HW219587   2.144   2.950   2.281
 6230SOL     OW19588   2.320   2.224   3.245
 6230SOL    HW119589   2.243   2.282   3.220
 6230SOL    HW219590   2.342   2.163   3.169
 6231SOL     OW19591   0.014   4.931   1.507
 6231SOL    HW119592   0.078   4.952   1.582
 6231SOL    HW219593   7.026   4.832   1.503
 6232SOL     OW19594   0.832   1.127   6.490
 6232SOL    HW119595   0.776   1.080   6.422
 6232SOL    HW219596   0.905   1.177   6.445
 6233SOL     OW19597   4.964   2.213   0.169
 6233SOL    HW119598   4.976   2.253   0.079
 6233SOL    HW219599   4.870   2.179   0.178
 6234SOL     OW19600   2.499   2.252   3.454
 6234SOL    HW119601   2.436   2.229   3.380
 6234SOL    HW219602   2.462   2.330   3.506
 6235SOL     OW19603   2.775   6.354   3.771
 6235SOL    HW119604   2.755   6.256   3.774
 6235SOL    HW219605   2.774   6.392   3.863
 6236SOL     OW19606   6.638   3.816   0.413
 6236SOL    HW119607   6.654   3.914   0.407
 6236SOL    HW219608   6.582   3.786   0.336
 6237SOL     OW19609   4.494   6.700   0.437
 6237SOL    HW119610   4.579   6.679   0.485
 6237SOL    HW219611   4.461   6.790   0.464
 6238SOL     OW19612   4.764   4.329   1.199
 6238SOL    HW119613   4.808   4.266   1.263
 6238SOL    HW219614   4.666   4.333   1.219
 6239SOL     OW19615   2.419   0.677   3.595
 6239SOL    HW119616   2.329   0.647   3.625
 6239SOL    HW219617   2.481   0.599   3.592
 6240SOL     OW19618   2.541   3.703   0.937
 6240SOL    HW119619   2.527   3.709   0.839
 6240SOL    HW219620   2.522   3.610   0.968
 6241SOL     OW19621   4.687   0.274   1.657
 6241SOL    HW119622   4.734   0.346   1.708
 6241SOL    HW219623   4.647   0.208   1.721
 6242SOL     OW19624   4.145   2.111   3.747
 6242SOL    HW119625   4.130   2.171   3.669
 6242SOL    HW219626   4.063   2.056   3.763
 6243SOL     OW19627   6.084   5.596   3.446
 6243SOL    HW119628   6.078   5.504   3.485
 6243SOL    HW219629   6.150   5.597   3.371
 6244SOL     OW19630   2.032   1.836   2.217
 6244SOL    HW119631   2.063   1.917   2.265
 6244SOL    HW219632   1.978   1.864   2.137
 6245SOL     OW19633   2.101   4.396   0.598
 6245SOL    HW119634   2.006   4.421   0.581
 6245SOL    HW219635   2.162   4.468   0.563
 6246SOL     OW19636   2.966   1.031   5.927
 6246SOL    HW119637   2.929   0.975   5.853
 6246SOL    HW219638   2.913   1.115   5.935
 6247SOL     OW19639   6.784   6.224   2.818
 6247SOL    HW119640   6.775   6.163   2.739
 6247SOL    HW219641   6.788   6.319   2.785
 6248SOL     OW19642   0.755   5.081   1.315
 6248SOL    HW119643   0.677   5.030   1.277
 6248SOL    HW219644   0.805   5.023   1.378
 6249SOL     OW19645   5.287   3.747   6.356
 6249SOL    HW119646   5.329   3.725   6.268
 6249SOL    HW219647   5.290   3.666   6.415
 6250SOL     OW19648   5.215   5.321   6.060
 6250SOL    HW119649   5.211   5.313   6.160
 6250SOL    HW219650   5.132   5.367   6.028
 6251SOL     OW19651   4.488   2.203   1.070
 6251SOL    HW119652   4.553   2.160   1.008
 6251SOL    HW219653   4.395   2.194   1.032
 6252SOL     OW19654   2.409   6.225   5.217
 6252SOL    HW119655   2.391   6.204   5.313
 6252SOL    HW219656   2.507   6.215   5.199
 6253SOL     OW19657   1.595   3.880   1.296
 6253SOL    HW119658   1.622   3.878   1.392
 6253SOL    HW219659   1.592   3.787   1.260
 6254SOL     OW19660   5.325   0.642   0.506
 6254SOL    HW119661   5.334   0.705   0.429
 6254SOL    HW219662   5.304   0.550   0.472
 6255SOL     OW19663   0.211   1.323   2.428
 6255SOL    HW119664   0.126   1.376   2.430
 6255SOL    HW219665   0.257   1.330   2.516
 6256SOL     OW19666   3.056   4.876   2.990
 6256SOL    HW119667   3.015   4.835   3.072
 6256SOL    HW219668   3.060   4.975   3.001
 6257SOL     OW19669   4.424   2.846   6.515
 6257SOL    HW119670   4.449   2.751   6.537
 6257SOL    HW219671   4.495   2.886   6.457
 6258SOL     OW19672   5.218   1.823   2.831
 6258SOL    HW119673   5.214   1.900   2.766
 6258SOL    HW219674   5.242   1.858   2.922
 6259SOL     OW19675   3.085   2.440   1.641
 6259SOL    HW119676   3.036   2.443   1.728
 6259SOL    HW219677   3.068   2.352   1.597
 6260SOL     OW19678   3.479   3.522   0.191
 6260SOL    HW119679   3.497   3.454   0.262
 6260SOL    HW219680   3.563   3.573   0.172
 6261SOL     OW19681   4.154   0.859   0.220
 6261SOL    HW119682   4.115   0.784   0.273
 6261SOL    HW219683   4.217   0.911   0.277
 6262SOL     OW19684   0.003   5.415   5.682
 6262SOL    HW119685   6.982   5.459   5.758
 6262SOL    HW219686   6.974   5.339   5.648
 6263SOL     OW19687   5.995   0.484   0.880
 6263SOL    HW119688   5.947   0.571   0.889
 6263SOL    HW219689   6.043   0.481   0.793
 6264SOL     OW19690   2.083   1.500   6.809
 6264SOL    HW119691   2.164   1.448   6.838
 6264SOL    HW219692   2.003   1.440   6.812
 6265SOL     OW19693   3.974   2.892   1.100
 6265SOL    HW119694   3.903   2.837   1.056
 6265SOL    HW219695   3.997   2.852   1.188
 6266SOL     OW19696   2.264   0.060   2.570
 6266SOL    HW119697   2.191   0.067   2.638
 6266SOL    HW219698   2.260   0.138   2.508
 6267SOL     OW19699   2.274   7.021   6.628
 6267SOL    HW119700   2.274   0.074   6.566
 6267SOL    HW219701   2.290   6.938   6.575
 6268SOL     OW19702   3.016   4.868   2.694
 6268SOL    HW119703   2.937   4.809   2.679
 6268SOL    HW219704   3.033   4.878   2.792
 6269SOL     OW19705   6.215   4.971   0.779
 6269SOL    HW119706   6.116   4.968   0.770
 6269SOL    HW219707   6.247   4.888   0.825
 6270SOL     OW19708   0.746   1.381   4.571
 6270SOL    HW119709   0.742   1.422   4.480
 6270SOL    HW219710   0.723   1.284   4.564
 6271SOL     OW19711   5.878   1.199   1.404
 6271SOL    HW119712   5.876   1.155   1.494
 6271SOL    HW219713   5.925   1.139   1.339
 6272SOL     OW19714   1.592   1.839   3.634
 6272SOL    HW119715   1.593   1.864   3.537
 6272SOL    HW219716   1.591   1.922   3.690
 6273SOL     OW19717   3.468   0.736   1.487
 6273SOL    HW119718   3.525   0.690   1.420
 6273SOL    HW219719   3.523   0.764   1.566
 6274SOL     OW19720   3.477   6.270   6.145
 6274SOL    HW119721   3.485   6.234   6.238
 6274SOL    HW219722   3.564   6.260   6.097
 6275SOL     OW19723   2.704   0.730   4.503
 6275SOL    HW119724   2.636   0.788   4.458
 6275SOL    HW219725   2.704   0.748   4.601
 6276SOL     OW19726   1.541   5.189   4.166
 6276SOL    HW119727   1.457   5.155   4.124
 6276SOL    HW219728   1.618   5.175   4.104
 6277SOL     OW19729   5.368   3.278   3.177
 6277SOL    HW119730   5.411   3.360   3.215
 6277SOL    HW219731   5.350   3.292   3.079
 6278SOL     OW19732   5.481   0.406   3.885
 6278SOL    HW119733   5.552   0.471   3.910
 6278SOL    HW219734   5.512   0.313   3.905
 6279SOL     OW19735   4.736   1.622   0.186
 6279SOL    HW119736   4.670   1.565   0.137
 6279SOL    HW219737   4.797   1.667   0.121
 6280SOL     OW19738   0.485   4.940   5.732
 6280SOL    HW119739   0.559   4.876   5.749
 6280SOL    HW219740   0.397   4.897   5.754
 6281SOL     OW19741   2.819   6.880   5.328
 6281SOL    HW119742   2.735   6.899   5.379
 6281SOL    HW219743   2.887   6.950   5.347
 6282SOL     OW19744   1.710   0.169   3.422
 6282SOL    HW119745   1.655   0.251   3.406
 6282SOL    HW219746   1.677   0.122   3.504
 6283SOL     OW19747   0.054   2.428   5.335
 6283SOL    HW119748   0.066   2.478   5.249
 6283SOL    HW219749   0.114   2.347   5.335
 6284SOL     OW19750   2.376   4.823   6.318
 6284SOL    HW119751   2.466   4.818   6.360
 6284SOL    HW219752   2.323   4.741   6.342
 6285SOL     OW19753   1.628   4.423   2.636
 6285SOL    HW119754   1.554   4.458   2.579
 6285SOL    HW219755   1.643   4.326   2.615
 6286SOL     OW19756   5.673   0.197   4.242
 6286SOL    HW119757   5.692   0.295   4.254
 6286SOL    HW219758   5.670   0.153   4.332
 6287SOL     OW19759   4.779   4.338   1.863
 6287SOL    HW119760   4.679   4.334   1.868
 6287SOL    HW219761   4.815   4.246   1.852
 6288SOL     OW19762   5.314   3.677   1.103
 6288SOL    HW119763   5.245   3.604   1.111
 6288SOL    HW219764   5.329   3.699   1.007
 6289SOL     OW19765   1.300   0.810   2.933
 6289SOL    HW119766   1.259   0.748   3.000
 6289SOL    HW219767   1.265   0.903   2.947
 6290SOL     OW19768   5.699   3.597   3.073
 6290SOL    HW119769   5.662   3.508   3.046
 6290SOL    HW219770   5.628   3.649   3.121
 6291SOL     OW19771   3.881   4.009   2.780
 6291SOL    HW119772   3.955   3.956   2.821
 6291SOL    HW219773   3.839   4.067   2.850
 6292SOL     OW19774   0.740   2.171   1.746
 6292SOL    HW119775   0.702   2.154   1.837
 6292SOL    HW219776   0.679   2.231   1.695
 6293SOL     OW19777   4.832   6.004   0.560
 6293SOL    HW119778   4.736   6.021   0.537
 6293SOL    HW219779   4.865   6.076   0.621
 6294SOL     OW19780   4.101   5.181   2.650
 6294SOL    HW119781   4.003   5.164   2.653
 6294SOL    HW219782   4.118   5.274   2.616
 6295SOL     OW19783   5.905   6.627   6.033
 6295SOL    HW119784   5.945   6.672   5.953
 6295SOL    HW219785   5.967   6.555   6.065
 6296SOL     OW19786   6.331   1.560   2.426
 6296SOL    HW119787   6.430   1.569   2.416
 6296SOL    HW219788   6.288   1.570   2.337
 6297SOL     OW19789   5.370   0.428   5.800
 6297SOL    HW119790   5.342   0.454   5.892
 6297SOL    HW219791   5.315   0.478   5.733
 6298SOL     OW19792   1.306   1.878   4.251
 6298SOL    HW119793   1.329   1.804   4.314
 6298SOL    HW219794   1.248   1.945   4.298
 6299SOL     OW19795   6.588   3.080   6.984
 6299SOL    HW119796   6.525   3.016   6.939
 6299SOL    HW219797   6.652   3.117   6.917
 6300SOL     OW19798   5.069   0.936   4.067
 6300SOL    HW119799   5.012   0.859   4.040
 6300SOL    HW219800   5.013   1.019   4.072
 6301SOL     OW19801   3.099   0.008   0.800
 6301SOL    HW119802   3.022   0.041   0.745
 6301SOL    HW219803   3.162   0.085   0.817
 6302SOL     OW19804   0.459   0.998   3.264
 6302SOL    HW119805   0.398   1.021   3.340
 6302SOL    HW219806   0.480   0.900   3.267
 6303SOL     OW19807   2.623   5.869   5.733
 6303SOL    HW119808   2.586   5.777   5.741
 6303SOL    HW219809   2.581   5.915   5.655
 6304SOL     OW19810   3.204   1.064   6.249
 6304SOL    HW119811   3.196   1.050   6.348
 6304SOL    HW219812   3.152   1.145   6.222
 6305SOL     OW19813   5.451   1.294   1.763
 6305SOL    HW119814   5.520   1.238   1.810
 6305SOL    HW219815   5.497   1.368   1.714
 6306SOL     OW19816   5.839   3.073   4.026
 6306SOL    HW119817   5.770   3.104   4.092
 6306SOL    HW219818   5.854   3.144   3.957
 6307SOL     OW19819   2.622   4.933   0.615
 6307SOL    HW119820   2.701   4.886   0.576
 6307SOL    HW219821   2.645   4.967   0.706
 6308SOL     OW19822   2.893   2.255   5.520
 6308SOL    HW119823   2.807   2.275   5.473
 6308SOL    HW219824   2.968   2.256   5.454
 6309SOL     OW19825   6.183   2.101   4.807
 6309SOL    HW119826   6.148   2.185   4.848
 6309SOL    HW219827   6.124   2.074   4.731
 6310SOL     OW19828   1.332   4.618   4.897
 6310SOL    HW119829   1.365   4.646   4.988
 6310SOL    HW219830   1.233   4.603   4.901
 6311SOL     OW19831   6.361   6.601   4.852
 6311SOL    HW119832   6.352   6.580   4.754
 6311SOL    HW219833   6.412   6.686   4.863
 6312SOL     OW19834   4.911   4.591   5.915
 6312SOL    HW119835   4.953   4.625   5.831
 6312SOL    HW219836   4.939   4.649   5.992
 6313SOL     OW19837   2.677   5.304   3.311
 6313SOL    HW119838   2.650   5.208   3.300
 6313SOL    HW219839   2.734   5.313   3.392
 6314SOL     OW19840   3.335   6.441   3.745
 6314SOL    HW119841   3.364   6.367   3.806
 6314SOL    HW219842   3.236   6.441   3.737
 6315SOL     OW19843   2.509   3.740   0.665
 6315SOL    HW119844   2.451   3.818   0.640
 6315SOL    HW219845   2.580   3.727   0.595
 6316SOL     OW19846   5.261   1.798   6.148
 6316SOL    HW119847   5.180   1.738   6.150
 6316SOL    HW219848   5.232   1.893   6.157
 6317SOL     OW19849   6.424   5.756   4.013
 6317SOL    HW119850   6.397   5.695   4.088
 6317SOL    HW219851   6.413   5.709   3.926
 6318SOL     OW19852   2.481   2.068   4.396
 6318SOL    HW119853   2.562   2.052   4.454
 6318SOL    HW219854   2.466   1.987   4.338
 6319SOL     OW19855   0.644   1.316   2.864
 6319SOL    HW119856   0.626   1.374   2.785
 6319SOL    HW219857   0.696   1.235   2.835
 6320SOL     OW19858   6.946   2.555   3.393
 6320SOL    HW119859   6.860   2.526   3.436
 6320SOL    HW219860   7.022   2.510   3.440
 6321SOL     OW19861   1.914   3.592   0.027
 6321SOL    HW119862   1.862   3.507   0.016
 6321SOL    HW219863   1.857   3.661   0.071
 6322SOL     OW19864   0.797   1.130   0.269
 6322SOL    HW119865   0.772   1.043   0.313
 6322SOL    HW219866   0.754   1.135   0.179
 6323SOL     OW19867   3.631   1.466   1.425
 6323SOL    HW119868   3.659   1.527   1.500
 6323SOL    HW219869   3.551   1.413   1.453
 6324SOL     OW19870   3.958   1.694   6.666
 6324SOL    HW119871   4.027   1.623   6.662
 6324SOL    HW219872   3.945   1.733   6.575
 6325SOL     OW19873   1.494   2.761   2.048
 6325SOL    HW119874   1.462   2.761   2.142
 6325SOL    HW219875   1.434   2.702   1.993
 6326SOL     OW19876   5.255   5.780   1.203
 6326SOL    HW119877   5.274   5.698   1.149
 6326SOL    HW219878   5.187   5.759   1.273
 6327SOL     OW19879   4.828   5.308   5.821
 6327SOL    HW119880   4.912   5.361   5.830
 6327SOL    HW219881   4.805   5.297   5.724
 6328SOL     OW19882   3.184   4.298   6.498
 6328SOL    HW119883   3.113   4.337   6.440
 6328SOL    HW219884   3.222   4.217   6.454
 6329SOL     OW19885   1.259   1.732   3.098
 6329SOL    HW119886   1.336   1.769   3.150
 6329SOL    HW219887   1.190   1.803   3.085
 6330SOL     OW19888   3.318   1.251   0.338
 6330SOL    HW119889   3.314   1.290   0.429
 6330SOL    HW219890   3.352   1.320   0.273
 6331SOL     OW19891   5.969   3.201   2.049
 6331SOL    HW119892   5.927   3.276   1.998
 6331SOL    HW219893   6.067   3.219   2.060
 6332SOL     OW19894   5.745   5.968   2.309
 6332SOL    HW119895   5.697   5.997   2.226
 6332SOL    HW219896   5.712   5.878   2.337
 6333SOL     OW19897   1.976   5.334   3.175
 6333SOL    HW119898   1.963   5.385   3.091
 6333SOL    HW219899   2.006   5.396   3.248
 6334SOL     OW19900   2.501   1.427   2.570
 6334SOL    HW119901   2.427   1.397   2.631
 6334SOL    HW219902   2.468   1.427   2.476
 6335SOL     OW19903   6.818   1.558   0.205
 6335SOL    HW119904   6.863   1.636   0.248
 6335SOL    HW219905   6.880   1.518   0.137
 6336SOL     OW19906   0.324   2.973   5.200
 6336SOL    HW119907   0.407   2.941   5.155
 6336SOL    HW219908   0.258   3.003   5.132
 6337SOL     OW19909   6.616   4.670   5.187
 6337SOL    HW119910   6.606   4.582   5.235
 6337SOL    HW219911   6.693   4.664   5.123
 6338SOL     OW19912   3.703   1.273   4.152
 6338SOL    HW119913   3.702   1.194   4.212
 6338SOL    HW219914   3.705   1.243   4.057
 6339SOL     OW19915   6.770   2.499   4.712
 6339SOL    HW119916   6.784   2.567   4.784
 6339SOL    HW219917   6.842   2.430   4.716
 6340SOL     OW19918   1.965   5.173   4.620
 6340SOL    HW119919   2.028   5.241   4.581
 6340SOL    HW219920   2.018   5.099   4.661
 6341SOL     OW19921   6.662   4.189   2.602
 6341SOL    HW119922   6.650   4.287   2.587
 6341SOL    HW219923   6.729   4.153   2.537
 6342SOL     OW19924   1.797   2.731   1.053
 6342SOL    HW119925   1.852   2.776   1.124
 6342SOL    HW219926   1.708   2.776   1.047
 6343SOL     OW19927   3.864   0.917   0.446
 6343SOL    HW119928   3.811   0.970   0.380
 6343SOL    HW219929   3.832   0.938   0.539
 6344SOL     OW19930   0.195   4.327   4.158
 6344SOL    HW119931   0.261   4.273   4.105
 6344SOL    HW219932   0.137   4.265   4.212
 6345SOL     OW19933   2.764   2.213   2.240
 6345SOL    HW119934   2.786   2.247   2.149
 6345SOL    HW219935   2.780   2.115   2.244
 6346SOL     OW19936   1.296   5.140   4.001
 6346SOL    HW119937   1.268   5.096   3.916
 6346SOL    HW219938   1.303   5.239   3.986
 6347SOL     OW19939   3.383   0.306   1.678
 6347SOL    HW119940   3.301   0.249   1.670
 6347SOL    HW219941   3.403   0.323   1.774
 6348SOL     OW19942   1.486   2.256   4.495
 6348SOL    HW119943   1.544   2.288   4.570
 6348SOL    HW219944   1.510   2.161   4.473
 6349SOL     OW19945   2.157   0.262   0.387
 6349SOL    HW119946   2.244   0.215   0.376
 6349SOL    HW219947   2.085   0.195   0.407
 6350SOL     OW19948   0.996   6.170   2.450
 6350SOL    HW119949   1.019   6.219   2.534
 6350SOL    HW219950   1.079   6.134   2.408
 6351SOL     OW19951   0.173   1.370   3.079
 6351SOL    HW119952   0.181   1.411   3.170
 6351SOL    HW219953   0.078   1.377   3.047
 6352SOL     OW19954   6.633   6.411   2.371
 6352SOL    HW119955   6.607   6.470   2.295
 6352SOL    HW219956   6.642   6.465   2.454
 6353SOL     OW19957   0.138   6.731   2.488
 6353SOL    HW119958   0.151   6.810   2.427
 6353SOL    HW219959   0.152   6.647   2.437
 6354SOL     OW19960   0.102   6.606   4.041
 6354SOL    HW119961   0.190   6.648   4.021
 6354SOL    HW219962   0.108   6.507   4.026
 6355SOL     OW19963   1.648   2.081   2.525
 6355SOL    HW119964   1.664   2.108   2.620
 6355SOL    HW219965   1.677   2.154   2.463
 6356SOL     OW19966   3.236   3.051   1.230
 6356SOL    HW119967   3.291   3.110   1.171
 6356SOL    HW219968   3.207   2.971   1.177
 6357SOL     OW19969   4.770   2.120   0.615
 6357SOL    HW119970   4.771   2.063   0.532
 6357SOL    HW219971   4.807   2.210   0.593
 6358SOL     OW19972   0.657   2.433   3.874
 6358SOL    HW119973   0.584   2.483   3.922
 6358SOL    HW219974   0.745   2.455   3.916
 6359SOL     OW19975   6.923   0.883   6.701
 6359SOL    HW119976   6.987   0.832   6.643
 6359SOL    HW219977   6.938   0.860   6.797
 6360SOL     OW19978   3.509   6.063   4.313
 6360SOL    HW119979   3.520   5.996   4.239
 6360SOL    HW219980   3.574   6.138   4.299
 6361SOL     OW19981   4.002   6.198   5.865
 6361SOL    HW119982   4.071   6.260   5.902
 6361SOL    HW219983   3.911   6.237   5.879
 6362SOL     OW19984   6.246   5.387   6.406
 6362SOL    HW119985   6.277   5.292   6.407
 6362SOL    HW219986   6.265   5.427   6.316
 6363SOL     OW19987   0.859   5.976   4.103
 6363SOL    HW119988   0.927   5.910   4.071
 6363SOL    HW219989   0.813   5.939   4.184
 6364SOL     OW19990   1.699   2.982   6.274
 6364SOL    HW119991   1.671   2.893   6.311
 6364SOL    HW219992   1.720   3.044   6.350
 6365SOL     OW19993   5.138   5.824   2.399
 6365SOL    HW119994   5.174   5.861   2.484
 6365SOL    HW219995   5.178   5.734   2.382
 6366SOL     OW19996   0.143   4.688   6.103
 6366SOL    HW119997   0.174   4.760   6.041
 6366SOL    HW219998   0.109   4.611   6.049
 6367SOL     OW19999   6.067   5.850   2.812
 6367SOL    HW120000   6.047   5.939   2.854
 6367SOL    HW220001   6.047   5.855   2.714
 6368SOL     OW20002   2.728   0.280   3.989
 6368SOL    HW120003   2.696   0.186   3.982
 6368SOL    HW220004   2.824   0.282   4.016
 6369SOL     OW20005   2.203   5.257   4.890
 6369SOL    HW120006   2.162   5.175   4.930
 6369SOL    HW220007   2.193   5.333   4.954
 6370SOL     OW20008   6.405   2.626   2.305
 6370SOL    HW120009   6.358   2.665   2.384
 6370SOL    HW220010   6.460   2.697   2.261
 6371SOL     OW20011   5.048   1.975   3.532
 6371SOL    HW120012   5.123   2.040   3.526
 6371SOL    HW220013   4.995   1.977   3.446
 6372SOL     OW20014   2.579   6.006   2.406
 6372SOL    HW120015   2.537   5.988   2.317
 6372SOL    HW220016   2.676   5.982   2.402
 6373SOL     OW20017   4.036   4.235   0.093
 6373SOL    HW120018   4.115   4.238   0.154
 6373SOL    HW220019   4.055   4.172   0.018
 6374SOL     OW20020   2.923   3.378   2.652
 6374SOL    HW120021   2.980   3.372   2.571
 6374SOL    HW220022   2.829   3.401   2.625
 6375SOL     OW20023   1.578   6.265   2.902
 6375SOL    HW120024   1.517   6.200   2.858
 6375SOL    HW220025   1.672   6.232   2.896
 6376SOL     OW20026   0.414   2.375   5.666
 6376SOL    HW120027   0.485   2.355   5.598
 6376SOL    HW220028   0.354   2.447   5.632
 6377SOL     OW20029   0.601   0.966   4.336
 6377SOL    HW120030   0.579   1.059   4.366
 6377SOL    HW220031   0.671   0.969   4.265
 6378SOL     OW20032   4.483   4.744   3.639
 6378SOL    HW120033   4.435   4.783   3.560
 6378SOL    HW220034   4.558   4.686   3.607
 6379SOL     OW20035   2.590   4.828   2.862
 6379SOL    HW120036   2.574   4.927   2.851
 6379SOL    HW220037   2.655   4.797   2.793
 6380SOL     OW20038   0.747   0.673   5.738
 6380SOL    HW120039   0.736   0.662   5.836
 6380SOL    HW220040   0.844   0.682   5.715
 6381SOL     OW20041   3.206   3.353   1.753
 6381SOL    HW120042   3.201   3.437   1.808
 6381SOL    HW220043   3.245   3.375   1.663
 6382SOL     OW20044   1.145   4.275   5.099
 6382SOL    HW120045   1.089   4.348   5.139
 6382SOL    HW220046   1.104   4.245   5.012
 6383SOL     OW20047   4.188   1.596   3.788
 6383SOL    HW120048   4.163   1.501   3.772
 6383SOL    HW220049   4.285   1.609   3.768
 6384SOL     OW20050   6.230   4.359   2.871
 6384SOL    HW120051   6.306   4.354   2.807
 6384SOL    HW220052   6.182   4.271   2.873
 6385SOL     OW20053   0.610   5.982   4.469
 6385SOL    HW120054   0.645   5.917   4.402
 6385SOL    HW220055   0.676   6.056   4.482
 6386SOL     OW20056   2.827   5.634   1.785
 6386SOL    HW120057   2.738   5.609   1.824
 6386SOL    HW220058   2.892   5.560   1.802
 6387SOL     OW20059   6.597   1.775   4.964
 6387SOL    HW120060   6.568   1.823   5.047
 6387SOL    HW220061   6.618   1.680   4.986
 6388SOL     OW20062   2.195   4.453   3.011
 6388SOL    HW120063   2.275   4.512   2.999
 6388SOL    HW220064   2.114   4.510   3.024
 6389SOL     OW20065   0.904   4.979   2.285
 6389SOL    HW120066   0.856   4.977   2.373
 6389SOL    HW220067   0.938   4.887   2.264
 6390SOL     OW20068   0.292   3.901   3.951
 6390SOL    HW120069   0.366   3.920   4.016
 6390SOL    HW220070   0.306   3.954   3.868
 6391SOL     OW20071   3.317   1.254   6.976
 6391SOL    HW120072   3.326   1.232   6.879
 6391SOL    HW220073   3.226   1.227   7.008
 6392SOL     OW20074   1.543   6.456   3.933
 6392SOL    HW120075   1.478   6.383   3.910
 6392SOL    HW220076   1.539   6.474   4.032
 6393SOL     OW20077   5.443   0.755   0.731
 6393SOL    HW120078   5.416   0.849   0.748
 6393SOL    HW220079   5.381   0.714   0.664
 6394SOL     OW20080   3.184   4.849   1.419
 6394SOL    HW120081   3.195   4.804   1.508
 6394SOL    HW220082   3.216   4.789   1.347
 6395SOL     OW20083   5.774   0.913   1.137
 6395SOL    HW120084   5.729   0.995   1.102
 6395SOL    HW220085   5.708   0.859   1.189
 6396SOL     OW20086   5.763   3.578   5.501
 6396SOL    HW120087   5.809   3.503   5.549
 6396SOL    HW220088   5.731   3.645   5.568
 6397SOL     OW20089   0.051   0.712   0.349
 6397SOL    HW120090   7.018   0.742   0.274
 6397SOL    HW220091   0.118   0.646   0.314
 6398SOL     OW20092   3.690   1.100   1.426
 6398SOL    HW120093   3.591   1.095   1.413
 6398SOL    HW220094   3.710   1.099   1.524
 6399SOL     OW20095   2.714   5.785   0.105
 6399SOL    HW120096   2.705   5.874   0.061
 6399SOL    HW220097   2.628   5.761   0.150
 6400SOL     OW20098   2.668   5.430   4.185
 6400SOL    HW120099   2.685   5.455   4.280
 6400SOL    HW220100   2.641   5.511   4.133
 6401SOL     OW20101   1.153   4.519   4.345
 6401SOL    HW120102   1.240   4.470   4.354
 6401SOL    HW220103   1.093   4.470   4.282
 6402SOL     OW20104   1.783   2.073   3.063
 6402SOL    HW120105   1.705   2.016   3.036
 6402SOL    HW220106   1.788   2.078   3.163
 6403SOL     OW20107   0.518   5.702   1.470
 6403SOL    HW120108   0.496   5.792   1.433
 6403SOL    HW220109   0.463   5.633   1.424
 6404SOL     OW20110   4.959   1.296   3.059
 6404SOL    HW120111   5.012   1.214   3.039
 6404SOL    HW220112   4.923   1.335   2.974
 6405SOL     OW20113   2.951   1.348   2.197
 6405SOL    HW120114   2.928   1.396   2.282
 6405SOL    HW220115   2.877   1.358   2.131
 6406SOL     OW20116   2.720   2.065   3.501
 6406SOL    HW120117   2.645   2.128   3.519
 6406SOL    HW220118   2.687   1.971   3.505
 6407SOL     OW20119   4.618   5.220   6.287
 6407SOL    HW120120   4.583   5.287   6.353
 6407SOL    HW220121   4.580   5.130   6.306
 6408SOL     OW20122   6.261   1.499   0.387
 6408SOL    HW120123   6.195   1.573   0.405
 6408SOL    HW220124   6.234   1.418   0.439
 6409SOL     OW20125   1.097   4.486   1.971
 6409SOL    HW120126   1.134   4.539   2.047
 6409SOL    HW220127   1.042   4.411   2.008
 6410SOL     OW20128   1.276   1.380   1.705
 6410SOL    HW120129   1.261   1.375   1.606
 6410SOL    HW220130   1.355   1.439   1.724
 6411SOL     OW20131   1.903   0.597   3.168
 6411SOL    HW120132   1.945   0.651   3.095
 6411SOL    HW220133   1.938   0.628   3.257
 6412SOL     OW20134   0.236   2.133   4.964
 6412SOL    HW120135   0.225   2.231   4.948
 6412SOL    HW220136   0.217   2.083   4.879
 6413SOL     OW20137   0.438   4.466   0.459
 6413SOL    HW120138   0.426   4.562   0.486
 6413SOL    HW220139   0.416   4.407   0.537
 6414SOL     OW20140   6.335   6.557   2.552
 6414SOL    HW120141   6.288   6.588   2.470
 6414SOL    HW220142   6.273   6.501   2.608
 6415SOL     OW20143   1.334   1.733   1.988
 6415SOL    HW120144   1.237   1.712   1.970
 6415SOL    HW220145   1.383   1.647   2.004
 6416SOL     OW20146   2.045   6.756   6.405
 6416SOL    HW120147   2.055   6.673   6.350
 6416SOL    HW220148   2.004   6.733   6.493
 6417SOL     OW20149   0.625   6.630   3.235
 6417SOL    HW120150   0.561   6.558   3.209
 6417SOL    HW220151   0.708   6.622   3.180
 6418SOL     OW20152   6.682   6.074   2.568
 6418SOL    HW120153   6.598   6.127   2.559
 6418SOL    HW220154   6.754   6.117   2.511
 6419SOL     OW20155   2.773   4.496   1.257
 6419SOL    HW120156   2.749   4.583   1.213
 6419SOL    HW220157   2.695   4.462   1.310
 6420SOL     OW20158   0.805   3.548   0.019
 6420SOL    HW120159   0.817   3.646   0.010
 6420SOL    HW220160   0.790   3.507   6.956
 6421SOL     OW20161   5.771   1.932   1.131
 6421SOL    HW120162   5.775   1.852   1.192
 6421SOL    HW220163   5.799   2.014   1.182
 6422SOL     OW20164   6.067   1.795   3.794
 6422SOL    HW120165   6.121   1.824   3.715
 6422SOL    HW220166   5.988   1.855   3.804
 6423SOL     OW20167   4.964   4.352   0.761
 6423SOL    HW120168   5.048   4.373   0.811
 6423SOL    HW220169   4.886   4.351   0.823
 6424SOL     OW20170   6.608   5.158   4.959
 6424SOL    HW120171   6.671   5.179   5.034
 6424SOL    HW220172   6.660   5.132   4.878
 6425SOL     OW20173   0.325   4.998   1.309
 6425SOL    HW120174   0.389   4.942   1.256
 6425SOL    HW220175   0.376   5.067   1.360
 6426SOL     OW20176   6.755   2.921   3.501
 6426SOL    HW120177   6.816   2.870   3.562
 6426SOL    HW220178   6.786   3.016   3.494
 6427SOL     OW20179   0.911   3.192   6.025
 6427SOL    HW120180   0.941   3.142   6.107
 6427SOL    HW220181   0.963   3.276   6.017
 6428SOL     OW20182   6.595   2.990   2.872
 6428SOL    HW120183   6.501   2.959   2.860
 6428SOL    HW220184   6.656   2.911   2.874
 6429SOL     OW20185   0.927   0.782   4.225
 6429SOL    HW120186   1.012   0.746   4.187
 6429SOL    HW220187   0.915   0.748   4.318
 6430SOL     OW20188   5.950   3.622   0.388
 6430SOL    HW120189   6.029   3.564   0.409
 6430SOL    HW220190   5.878   3.566   0.346
 6431SOL     OW20191   5.241   0.890   3.191
 6431SOL    HW120192   5.265   0.975   3.237
 6431SOL    HW220193   5.149   0.862   3.218
 6432SOL     OW20194   5.981   3.479   0.081
 6432SOL    HW120195   5.886   3.490   0.108
 6432SOL    HW220196   5.986   3.457   7.010
 6433SOL     OW20197   2.595   3.822   1.713
 6433SOL    HW120198   2.647   3.902   1.685
 6433SOL    HW220199   2.528   3.849   1.783
 6434SOL     OW20200   2.145   5.534   0.381
 6434SOL    HW120201   2.238   5.497   0.386
 6434SOL    HW220202   2.128   5.593   0.459
 6435SOL     OW20203   5.048   3.822   0.209
 6435SOL    HW120204   5.120   3.773   0.161
 6435SOL    HW220205   5.067   3.822   0.307
 6436SOL     OW20206   1.620   2.988   2.560
 6436SOL    HW120207   1.679   2.946   2.630
 6436SOL    HW220208   1.666   2.984   2.471
 6437SOL     OW20209   0.347   0.629   6.685
 6437SOL    HW120210   0.306   0.562   6.748
 6437SOL    HW220211   0.292   0.633   6.601
 6438SOL     OW20212   1.017   3.454   3.796
 6438SOL    HW120213   0.965   3.448   3.711
 6438SOL    HW220214   1.025   3.549   3.825
 6439SOL     OW20215   6.995   6.709   2.179
 6439SOL    HW120216   6.938   6.637   2.138
 6439SOL    HW220217   0.048   6.667   2.223
 6440SOL     OW20218   0.582   0.991   2.430
 6440SOL    HW120219   0.482   0.983   2.432
 6440SOL    HW220220   0.608   1.076   2.385
 6441SOL     OW20221   3.578   1.215   3.396
 6441SOL    HW120222   3.521   1.148   3.347
 6441SOL    HW220223   3.650   1.248   3.335
 6442SOL     OW20224   3.378   0.616   3.702
 6442SOL    HW120225   3.424   0.659   3.625
 6442SOL    HW220226   3.361   0.684   3.774
 6443SOL     OW20227   2.272   1.399   0.209
 6443SOL    HW120228   2.311   1.330   0.271
 6443SOL    HW220229   2.337   1.473   0.196
 6444SOL     OW20230   0.825   0.932   3.630
 6444SOL    HW120231   0.886   0.962   3.703
 6444SOL    HW220232   0.800   1.011   3.573
 6445SOL     OW20233   3.731   3.646   5.623
 6445SOL    HW120234   3.749   3.549   5.613
 6445SOL    HW220235   3.643   3.660   5.669
 6446SOL     OW20236   6.512   1.547   0.928
 6446SOL    HW120237   6.517   1.621   0.861
 6446SOL    HW220238   6.597   1.545   0.981
 6447SOL     OW20239   1.860   0.132   2.679
 6447SOL    HW120240   1.846   0.077   2.597
 6447SOL    HW220241   1.916   0.212   2.657
 6448SOL     OW20242   6.357   2.150   2.590
 6448SOL    HW120243   6.287   2.216   2.562
 6448SOL    HW220244   6.312   2.069   2.628
 6449SOL     OW20245   3.426   3.032   1.414
 6449SOL    HW120246   3.365   3.019   1.336
 6449SOL    HW220247   3.502   2.967   1.408
 6450SOL     OW20248   6.714   3.520   0.141
 6450SOL    HW120249   6.718   3.488   0.046
 6450SOL    HW220250   6.636   3.478   0.187
 6451SOL     OW20251   1.996   6.943   4.333
 6451SOL    HW120252   2.087   6.920   4.298
 6451SOL    HW220253   1.982   6.899   4.421
 6452SOL     OW20254   4.242   6.510   3.383
 6452SOL    HW120255   4.318   6.574   3.394
 6452SOL    HW220256   4.156   6.560   3.384
 6453SOL     OW20257   2.267   4.094   6.344
 6453SOL    HW120258   2.187   4.144   6.310
 6453SOL    HW220259   2.277   4.009   6.293
 6454SOL     OW20260   2.760   1.407   4.557
 6454SOL    HW120261   2.764   1.507   4.553
 6454SOL    HW220262   2.853   1.370   4.546
 6455SOL     OW20263   6.657   2.978   5.171
 6455SOL    HW120264   6.715   3.030   5.234
 6455SOL    HW220265   6.592   2.923   5.223
 6456SOL     OW20266   6.682   0.838   4.577
 6456SOL    HW120267   6.738   0.781   4.518
 6456SOL    HW220268   6.620   0.894   4.521
 6457SOL     OW20269   6.432   2.973   2.149
 6457SOL    HW120270   6.434   3.047   2.082
 6457SOL    HW220271   6.525   2.949   2.175
 6458SOL     OW20272   1.342   5.940   2.621
 6458SOL    HW120273   1.423   5.954   2.678
 6458SOL    HW220274   1.261   5.974   2.669
 6459SOL     OW20275   5.580   4.575   0.628
 6459SOL    HW120276   5.528   4.490   0.636
 6459SOL    HW220277   5.662   4.558   0.573
 6460SOL     OW20278   3.278   4.741   0.201
 6460SOL    HW120279   3.296   4.644   0.183
 6460SOL    HW220280   3.363   4.786   0.227
 6461SOL     OW20281   4.058   5.412   4.742
 6461SOL    HW120282   4.122   5.376   4.809
 6461SOL    HW220283   4.002   5.484   4.783
 6462SOL     OW20284   1.995   2.814   3.771
 6462SOL    HW120285   2.082   2.829   3.724
 6462SOL    HW220286   1.944   2.742   3.724
 6463SOL     OW20287   1.110   4.600   5.363
 6463SOL    HW120288   1.044   4.572   5.293
 6463SOL    HW220289   1.116   4.529   5.434
 6464SOL     OW20290   0.649   5.694   2.428
 6464SOL    HW120291   0.588   5.652   2.495
 6464SOL    HW220292   0.743   5.685   2.459
 6465SOL     OW20293   6.518   0.773   3.069
 6465SOL    HW120294   6.539   0.684   3.109
 6465SOL    HW220295   6.594   0.835   3.085
 6466SOL     OW20296   0.469   2.471   5.417
 6466SOL    HW120297   0.526   2.439   5.341
 6466SOL    HW220298   0.436   2.564   5.396
 6467SOL     OW20299   2.776   1.035   6.445
 6467SOL    HW120300   2.701   0.970   6.431
 6467SOL    HW220301   2.801   1.036   6.542
 6468SOL     OW20302   4.736   4.505   0.628
 6468SOL    HW120303   4.650   4.465   0.660
 6468SOL    HW220304   4.813   4.463   0.677
 6469SOL     OW20305   6.606   1.063   6.096
 6469SOL    HW120306   6.669   1.136   6.069
 6469SOL    HW220307   6.537   1.101   6.159
 6470SOL     OW20308   6.585   6.259   5.327
 6470SOL    HW120309   6.529   6.342   5.319
 6470SOL    HW220310   6.679   6.284   5.351
 6471SOL     OW20311   5.415   5.516   6.157
 6471SOL    HW120312   5.366   5.428   6.156
 6471SOL    HW220313   5.374   5.577   6.089
 6472SOL     OW20314   1.132   5.753   1.076
 6472SOL    HW120315   1.223   5.795   1.079
 6472SOL    HW220316   1.068   5.810   1.127
 6473SOL     OW20317   2.179   1.236   5.453
 6473SOL    HW120318   2.202   1.169   5.524
 6473SOL    HW220319   2.195   1.195   5.363
 6474SOL     OW20320   2.334   3.347   5.508
 6474SOL    HW120321   2.413   3.382   5.558
 6474SOL    HW220322   2.331   3.389   5.417
 6475SOL     OW20323   4.468   6.371   3.959
 6475SOL    HW120324   4.462   6.465   3.991
 6475SOL    HW220325   4.424   6.311   4.026
 6476SOL     OW20326   5.047   4.850   2.557
 6476SOL    HW120327   5.137   4.849   2.600
 6476SOL    HW220328   5.019   4.945   2.541
 6477SOL     OW20329   0.173   6.273   6.408
 6477SOL    HW120330   0.218   6.315   6.488
 6477SOL    HW220331   0.240   6.219   6.358
 6478SOL     OW20332   4.908   6.187   0.765
 6478SOL    HW120333   5.003   6.169   0.788
 6478SOL    HW220334   4.851   6.179   0.847
 6479SOL     OW20335   4.230   6.080   2.505
 6479SOL    HW120336   4.220   5.984   2.476
 6479SOL    HW220337   4.251   6.083   2.603
 6480SOL     OW20338   2.595   1.735   0.555
 6480SOL    HW120339   2.570   1.828   0.584
 6480SOL    HW220340   2.658   1.740   0.478
 6481SOL     OW20341   4.420   1.009   1.382
 6481SOL    HW120342   4.373   1.026   1.468
 6481SOL    HW220343   4.519   1.019   1.395
 6482SOL     OW20344   0.254   0.849   6.914
 6482SOL    HW120345   0.308   0.928   6.941
 6482SOL    HW220346   0.299   0.803   6.837
 6483SOL     OW20347   2.155   6.437   2.360
 6483SOL    HW120348   2.225   6.369   2.336
 6483SOL    HW220349   2.119   6.416   2.451
 6484SOL     OW20350   5.350   5.987   3.431
 6484SOL    HW120351   5.405   5.990   3.514
 6484SOL    HW220352   5.406   5.954   3.355
 6485SOL     OW20353   1.042   2.648   3.441
 6485SOL    HW120354   1.113   2.584   3.410
 6485SOL    HW220355   0.952   2.609   3.421
 6486SOL     OW20356   1.692   2.905   3.064
 6486SOL    HW120357   1.730   2.992   3.033
 6486SOL    HW220358   1.688   2.903   3.164
 6487SOL     OW20359   5.849   5.748   3.452
 6487SOL    HW120360   5.804   5.732   3.539
 6487SOL    HW220361   5.930   5.690   3.445
 6488SOL     OW20362   3.410   5.022   6.395
 6488SOL    HW120363   3.494   5.075   6.404
 6488SOL    HW220364   3.418   4.959   6.318
 6489SOL     OW20365   1.982   2.376   5.583
 6489SOL    HW120366   1.957   2.468   5.613
 6489SOL    HW220367   2.080   2.362   5.596
 6490SOL     OW20368   3.783   1.371   0.433
 6490SOL    HW120369   3.875   1.355   0.398
 6490SOL    HW220370   3.731   1.285   0.431
 6491SOL     OW20371   3.633   1.451   6.236
 6491SOL    HW120372   3.569   1.381   6.266
 6491SOL    HW220373   3.590   1.541   6.245
 6492SOL     OW20374   5.923   5.532   6.461
 6492SOL    HW120375   5.850   5.558   6.399
 6492SOL    HW220376   5.997   5.600   6.456
 6493SOL     OW20377   1.049   6.320   5.668
 6493SOL    HW120378   1.097   6.408   5.663
 6493SOL    HW220379   1.016   6.305   5.761
 6494SOL     OW20380   1.373   0.210   3.417
 6494SOL    HW120381   1.453   0.266   3.395
 6494SOL    HW220382   1.385   0.119   3.379
 6495SOL     OW20383   5.278   5.386   2.128
 6495SOL    HW120384   5.375   5.366   2.145
 6495SOL    HW220385   5.223   5.345   2.201
 6496SOL     OW20386   1.897   6.814   3.262
 6496SOL    HW120387   1.823   6.834   3.197
 6496SOL    HW220388   1.932   6.900   3.300
 6497SOL     OW20389   0.132   5.386   0.206
 6497SOL    HW120390   0.119   5.476   0.165
 6497SOL    HW220391   0.230   5.369   0.217
 6498SOL     OW20392   1.242   4.207   3.652
 6498SOL    HW120393   1.313   4.138   3.659
 6498SOL    HW220394   1.280   4.297   3.677
 6499SOL     OW20395   6.041   0.965   3.801
 6499SOL    HW120396   6.071   0.984   3.895
 6499SOL    HW220397   5.948   0.928   3.804
 6500SOL     OW20398   5.353   4.804   3.577
 6500SOL    HW120399   5.339   4.774   3.483
 6500SOL    HW220400   5.448   4.832   3.590
 6501SOL     OW20401   6.895   3.652   0.902
 6501SOL    HW120402   6.877   3.553   0.903
 6501SOL    HW220403   6.854   3.693   0.821
 6502SOL     OW20404   1.393   4.795   2.311
 6502SOL    HW120405   1.353   4.857   2.244
 6502SOL    HW220406   1.467   4.843   2.360
 6503SOL     OW20407   4.289   0.356   4.570
 6503SOL    HW120408   4.224   0.414   4.619
 6503SOL    HW220409   4.306   0.273   4.623
 6504SOL     OW20410   2.121   1.345   0.541
 6504SOL    HW120411   2.129   1.434   0.586
 6504SOL    HW220412   2.072   1.357   0.454
 6505SOL     OW20413   5.702   5.252   1.145
 6505SOL    HW120414   5.649   5.330   1.110
 6505SOL    HW220415   5.693   5.249   1.245
 6506SOL     OW20416   1.767   2.207   0.912
 6506SOL    HW120417   1.807   2.291   0.949
 6506SOL    HW220418   1.832   2.132   0.922
 6507SOL     OW20419   2.595   0.703   2.201
 6507SOL    HW120420   2.627   0.798   2.211
 6507SOL    HW220421   2.562   0.669   2.289
 6508SOL     OW20422   2.451   1.585   2.329
 6508SOL    HW120423   2.524   1.642   2.290
 6508SOL    HW220424   2.362   1.623   2.303
 6509SOL     OW20425   1.009   2.715   4.677
 6509SOL    HW120426   0.998   2.745   4.583
 6509SOL    HW220427   0.934   2.750   4.733
 6510SOL     OW20428   5.585   5.147   6.512
 6510SOL    HW120429   5.600   5.173   6.607
 6510SOL    HW220430   5.540   5.058   6.508
 6511SOL     OW20431   5.931   6.315   5.435
 6511SOL    HW120432   5.896   6.407   5.450
 6511SOL    HW220433   5.977   6.282   5.517
 6512SOL     OW20434   5.125   6.459   4.193
 6512SOL    HW120435   5.191   6.529   4.220
 6512SOL    HW220436   5.165   6.401   4.122
 6513SOL     OW20437   2.940   6.923   2.970
 6513SOL    HW120438   3.011   6.993   2.966
 6513SOL    HW220439   2.909   6.902   2.877
 6514SOL     OW20440   3.611   6.882   3.483
 6514SOL    HW120441   3.652   6.792   3.474
 6514SOL    HW220442   3.684   6.950   3.497
 6515SOL     OW20443   0.974   1.279   4.256
 6515SOL    HW120444   1.071   1.305   4.254
 6515SOL    HW220445   0.957   1.218   4.333
 6516SOL     OW20446   1.607   1.387   5.587
 6516SOL    HW120447   1.536   1.326   5.621
 6516SOL    HW220448   1.580   1.422   5.497
 6517SOL     OW20449   1.496   2.079   0.050
 6517SOL    HW120450   1.416   2.119   0.004
 6517SOL    HW220451   1.572   2.074   7.012
 6518SOL     OW20452   5.965   6.494   0.489
 6518SOL    HW120453   5.985   6.589   0.463
 6518SOL    HW220454   6.041   6.459   0.545
 6519SOL     OW20455   2.226   1.645   3.514
 6519SOL    HW120456   2.298   1.660   3.446
 6519SOL    HW220457   2.196   1.550   3.511
 6520SOL     OW20458   5.518   4.954   1.718
 6520SOL    HW120459   5.514   4.924   1.622
 6520SOL    HW220460   5.582   5.030   1.726
 6521SOL     OW20461   1.260   1.760   5.502
 6521SOL    HW120462   1.350   1.717   5.492
 6521SOL    HW220463   1.208   1.751   5.418
 6522SOL     OW20464   2.565   5.230   5.194
 6522SOL    HW120465   2.543   5.324   5.220
 6522SOL    HW220466   2.542   5.169   5.270
 6523SOL     OW20467   1.493   2.419   6.908
 6523SOL    HW120468   1.452   2.500   6.950
 6523SOL    HW220469   1.431   2.341   6.916
 6524SOL     OW20470   3.523   4.152   4.238
 6524SOL    HW120471   3.429   4.118   4.245
 6524SOL    HW220472   3.562   4.162   4.329
 6525SOL     OW20473   0.544   2.554   4.351
 6525SOL    HW120474   0.566   2.649   4.332
 6525SOL    HW220475   0.466   2.525   4.294
 6526SOL     OW20476   1.784   6.063   4.517
 6526SOL    HW120477   1.739   5.983   4.476
 6526SOL    HW220478   1.795   6.134   4.447
 6527SOL     OW20479   2.447   0.869   4.350
 6527SOL    HW120480   2.467   0.822   4.264
 6527SOL    HW220481   2.429   0.965   4.332
 6528SOL     OW20482   6.681   6.780   3.406
 6528SOL    HW120483   6.753   6.739   3.462
 6528SOL    HW220484   6.595   6.779   3.457
 6529SOL     OW20485   6.581   2.465   1.761
 6529SOL    HW120486   6.664   2.517   1.780
 6529SOL    HW220487   6.603   2.368   1.755
 6530SOL     OW20488   6.713   2.274   0.578
 6530SOL    HW120489   6.684   2.346   0.641
 6530SOL    HW220490   6.808   2.290   0.551
 6531SOL     OW20491   5.431   2.844   4.336
 6531SOL    HW120492   5.370   2.770   4.365
 6531SOL    HW220493   5.382   2.932   4.341
 6532SOL     OW20494   0.809   2.311   6.420
 6532SOL    HW120495   0.900   2.334   6.384
 6532SOL    HW220496   0.816   2.229   6.477
 6533SOL     OW20497   4.829   1.400   0.814
 6533SOL    HW120498   4.784   1.359   0.734
 6533SOL    HW220499   4.811   1.345   0.895
 6534SOL     OW20500   1.894   3.392   0.520
 6534SOL    HW120501   1.963   3.413   0.451
 6534SOL    HW220502   1.855   3.477   0.555
 6535SOL     OW20503   2.077   3.674   5.928
 6535SOL    HW120504   2.150   3.739   5.908
 6535SOL    HW220505   2.032   3.647   5.842
 6536SOL     OW20506   6.858   2.390   0.013
 6536SOL    HW120507   6.796   2.468   0.009
 6536SOL    HW220508   6.867   2.359   0.107
 6537SOL     OW20509   0.399   6.700   6.874
 6537SOL    HW120510   0.482   6.701   6.818
 6537SOL    HW220511   0.403   6.774   6.941
 6538SOL     OW20512   1.925   3.246   6.337
 6538SOL    HW120513   1.894   3.266   6.244
 6538SOL    HW220514   1.855   3.275   6.402
 6539SOL     OW20515   2.654   1.999   6.358
 6539SOL    HW120516   2.672   1.992   6.456
 6539SOL    HW220517   2.740   1.992   6.307
 6540SOL     OW20518   3.353   1.385   3.869
 6540SOL    HW120519   3.346   1.484   3.868
 6540SOL    HW220520   3.270   1.344   3.831
 6541SOL     OW20521   2.655   2.686   5.469
 6541SOL    HW120522   2.731   2.652   5.412
 6541SOL    HW220523   2.615   2.767   5.426
 6542SOL     OW20524   5.566   4.439   3.438
 6542SOL    HW120525   5.602   4.468   3.350
 6542SOL    HW220526   5.580   4.341   3.450
 6543SOL     OW20527   0.040   5.650   6.822
 6543SOL    HW120528   7.025   5.733   6.859
 6543SOL    HW220529   0.130   5.671   6.785
 6544SOL     OW20530   6.319   6.050   3.685
 6544SOL    HW120531   6.262   6.002   3.619
 6544SOL    HW220532   6.265   6.075   3.765
 6545SOL     OW20533   5.258   2.819   6.059
 6545SOL    HW120534   5.231   2.749   6.124
 6545SOL    HW220535   5.332   2.785   6.001
 6546SOL     OW20536   3.486   4.630   5.979
 6546SOL    HW120537   3.444   4.543   5.953
 6546SOL    HW220538   3.469   4.648   6.076
 6547SOL     OW20539   4.981   1.694   6.763
 6547SOL    HW120540   4.961   1.596   6.754
 6547SOL    HW220541   4.898   1.746   6.743
 6548SOL     OW20542   6.217   4.788   5.129
 6548SOL    HW120543   6.139   4.846   5.106
 6548SOL    HW220544   6.302   4.836   5.109
 6549SOL     OW20545   3.161   1.358   1.621
 6549SOL    HW120546   3.115   1.423   1.560
 6549SOL    HW220547   3.124   1.368   1.713
 6550SOL     OW20548   0.960   5.488   3.178
 6550SOL    HW120549   0.883   5.425   3.177
 6550SOL    HW220550   1.004   5.487   3.268
 6551SOL     OW20551   2.337   4.900   1.939
 6551SOL    HW120552   2.337   4.990   1.896
 6551SOL    HW220553   2.424   4.855   1.920
 6552SOL     OW20554   4.386   4.953   6.545
 6552SOL    HW120555   4.390   5.023   6.616
 6552SOL    HW220556   4.473   4.902   6.544
 6553SOL     OW20557   0.103   2.802   2.761
 6553SOL    HW120558   0.158   2.731   2.804
 6553SOL    HW220559   0.119   2.889   2.808
 6554SOL     OW20560   0.308   3.290   4.926
 6554SOL    HW120561   0.283   3.298   5.023
 6554SOL    HW220562   0.246   3.347   4.872
 6555SOL     OW20563   0.661   1.528   2.162
 6555SOL    HW120564   0.570   1.567   2.175
 6555SOL    HW220565   0.657   1.457   2.091
 6556SOL     OW20566   3.392   0.503   4.297
 6556SOL    HW120567   3.393   0.403   4.293
 6556SOL    HW220568   3.413   0.541   4.207
 6557SOL     OW20569   5.985   6.205   1.426
 6557SOL    HW120570   5.983   6.217   1.525
 6557SOL    HW220571   5.952   6.114   1.402
 6558SOL     OW20572   6.813   5.831   6.438
 6558SOL    HW120573   6.834   5.776   6.357
 6558SOL    HW220574   6.783   5.771   6.512
 6559SOL     OW20575   3.377   3.260   1.100
 6559SOL    HW120576   3.438   3.333   1.131
 6559SOL    HW220577   3.422   3.207   1.029
 6560SOL     OW20578   3.653   1.924   0.336
 6560SOL    HW120579   3.743   1.880   0.330
 6560SOL    HW220580   3.587   1.860   0.375
 6561SOL     OW20581   3.786   4.108   4.134
 6561SOL    HW120582   3.843   4.099   4.215
 6561SOL    HW220583   3.695   4.142   4.160
 6562SOL     OW20584   5.961   3.349   5.504
 6562SOL    HW120585   5.913   3.276   5.457
 6562SOL    HW220586   6.056   3.355   5.471
 6563SOL     OW20587   1.512   5.307   2.814
 6563SOL    HW120588   1.478   5.385   2.761
 6563SOL    HW220589   1.535   5.232   2.752
 6564SOL     OW20590   1.116   6.000   2.763
 6564SOL    HW120591   1.018   6.014   2.776
 6564SOL    HW220592   1.167   6.062   2.824
 6565SOL     OW20593   6.430   3.347   5.114
 6565SOL    HW120594   6.493   3.296   5.056
 6565SOL    HW220595   6.449   3.445   5.106
 6566SOL     OW20596   3.899   6.933   0.661
 6566SOL    HW120597   3.900   6.942   0.562
 6566SOL    HW220598   3.920   7.022   0.703
 6567SOL     OW20599   6.375   3.028   1.585
 6567SOL    HW120600   6.339   2.985   1.668
 6567SOL    HW220601   6.447   2.969   1.547
 6568SOL     OW20602   4.016   4.285   1.589
 6568SOL    HW120603   4.054   4.295   1.497
 6568SOL    HW220604   4.023   4.189   1.616
 6569SOL     OW20605   0.943   4.782   6.497
 6569SOL    HW120606   0.860   4.738   6.461
 6569SOL    HW220607   0.986   4.721   6.564
 6570SOL     OW20608   5.987   2.892   1.297
 6570SOL    HW120609   6.034   2.979   1.307
 6570SOL    HW220610   5.932   2.893   1.214
 6571SOL     OW20611   3.022   6.203   3.984
 6571SOL    HW120612   3.023   6.164   3.892
 6571SOL    HW220613   3.030   6.303   3.978
 6572SOL     OW20614   1.116   3.608   6.608
 6572SOL    HW120615   1.192   3.561   6.653
 6572SOL    HW220616   1.151   3.672   6.541
 6573SOL     OW20617   1.843   2.171   2.282
 6573SOL    HW120618   1.793   2.242   2.332
 6573SOL    HW220619   1.929   2.151   2.329
 6574SOL     OW20620   2.025   4.678   3.318
 6574SOL    HW120621   2.008   4.777   3.324
 6574SOL    HW220622   2.109   4.661   3.267
 6575SOL     OW20623   1.625   1.068   2.484
 6575SOL    HW120624   1.529   1.090   2.499
 6575SOL    HW220625   1.681   1.149   2.503
 6576SOL     OW20626   1.142   6.085   4.805
 6576SOL    HW120627   1.240   6.104   4.804
 6576SOL    HW220628   1.092   6.167   4.833
 6577SOL     OW20629   6.555   2.476   4.551
 6577SOL    HW120630   6.489   2.550   4.563
 6577SOL    HW220631   6.640   2.499   4.599
 6578SOL     OW20632   6.660   5.283   3.083
 6578SOL    HW120633   6.561   5.286   3.069
 6578SOL    HW220634   6.690   5.365   3.132
 6579SOL     OW20635   0.781   3.735   2.600
 6579SOL    HW120636   0.688   3.766   2.620
 6579SOL    HW220637   0.803   3.656   2.657
 6580SOL     OW20638   6.245   2.254   1.597
 6580SOL    HW120639   6.212   2.344   1.568
 6580SOL    HW220640   6.229   2.188   1.524
 6581SOL     OW20641   2.358   2.233   5.341
 6581SOL    HW120642   2.391   2.140   5.358
 6581SOL    HW220643   2.326   2.273   5.427
 6582SOL     OW20644   6.945   0.053   2.449
 6582SOL    HW120645   7.022   7.017   2.466
 6582SOL    HW220646   6.980   0.146   2.439
 6583SOL     OW20647   5.268   1.847   5.393
 6583SOL    HW120648   5.265   1.909   5.315
 6583SOL    HW220649   5.221   1.762   5.371
 6584SOL     OW20650   5.235   2.090   6.818
 6584SOL    HW120651   5.259   2.181   6.849
 6584SOL    HW220652   5.313   2.028   6.830
 6585SOL     OW20653   2.022   1.031   0.533
 6585SOL    HW120654   1.976   0.967   0.595
 6585SOL    HW220655   2.101   1.071   0.578
 6586SOL     OW20656   0.135   2.060   0.105
 6586SOL    HW120657   0.036   2.041   0.104
 6586SOL    HW220658   0.157   2.115   0.186
 6587SOL     OW20659   2.134   6.843   2.461
 6587SOL    HW120660   2.163   6.936   2.485
 6587SOL    HW220661   2.207   6.798   2.410
 6588SOL     OW20662   2.218   2.714   0.076
 6588SOL    HW120663   2.160   2.699   0.155
 6588SOL    HW220664   2.191   2.798   0.030
 6589SOL     OW20665   5.377   1.426   5.535
 6589SOL    HW120666   5.427   1.393   5.615
 6589SOL    HW220667   5.353   1.522   5.547
 6590SOL     OW20668   6.549   1.046   5.403
 6590SOL    HW120669   6.643   1.042   5.438
 6590SOL    HW220670   6.505   1.130   5.435
 6591SOL     OW20671   5.689   1.067   2.566
 6591SOL    HW120672   5.788   1.062   2.554
 6591SOL    HW220673   5.666   1.150   2.617
 6592SOL     OW20674   5.242   5.643   4.655
 6592SOL    HW120675   5.317   5.653   4.589
 6592SOL    HW220676   5.204   5.551   4.648
 6593SOL     OW20677   4.330   0.859   2.747
 6593SOL    HW120678   4.418   0.884   2.789
 6593SOL    HW220679   4.298   0.772   2.786
 6594SOL     OW20680   5.411   0.905   6.516
 6594SOL    HW120681   5.442   0.980   6.574
 6594SOL    HW220682   5.486   0.877   6.456
 6595SOL     OW20683   1.455   3.369   0.776
 6595SOL    HW120684   1.494   3.461   0.783
 6595SOL    HW220685   1.356   3.374   0.788
 6596SOL     OW20686   3.620   6.856   4.922
 6596SOL    HW120687   3.644   6.761   4.939
 6596SOL    HW220688   3.551   6.885   4.989
 6597SOL     OW20689   6.827   4.614   6.225
 6597SOL    HW120690   6.859   4.574   6.139
 6597SOL    HW220691   6.905   4.643   6.280
 6598SOL     OW20692   2.088   5.651   5.504
 6598SOL    HW120693   2.168   5.614   5.457
 6598SOL    HW220694   2.048   5.724   5.448
 6599SOL     OW20695   4.604   3.816   6.032
 6599SOL    HW120696   4.593   3.738   6.093
 6599SOL    HW220697   4.654   3.789   5.950
 6600SOL     OW20698   4.224   5.901   4.246
 6600SOL    HW120699   4.262   5.914   4.155
 6600SOL    HW220700   4.150   5.833   4.242
 6601SOL     OW20701   1.008   0.476   1.111
 6601SOL    HW120702   0.962   0.403   1.162
 6601SOL    HW220703   1.035   0.548   1.174
 6602SOL     OW20704   6.338   1.420   1.524
 6602SOL    HW120705   6.316   1.516   1.541
 6602SOL    HW220706   6.355   1.406   1.427
 6603SOL     OW20707   2.068   2.441   2.631
 6603SOL    HW120708   1.976   2.460   2.666
 6603SOL    HW220709   2.077   2.479   2.539
 6604SOL     OW20710   3.774   5.887   3.215
 6604SOL    HW120711   3.726   5.965   3.255
 6604SOL    HW220712   3.761   5.887   3.116
 6605SOL     OW20713   6.000   6.534   6.948
 6605SOL    HW120714   5.977   6.560   0.016
 6605SOL    HW220715   5.917   6.504   6.901
 6606SOL     OW20716   6.078   1.267   2.709
 6606SOL    HW120717   6.009   1.335   2.734
 6606SOL    HW220718   6.152   1.312   2.658
 6607SOL     OW20719   1.356   2.122   3.602
 6607SOL    HW120720   1.379   2.106   3.698
 6607SOL    HW220721   1.261   2.097   3.585
 6608SOL     OW20722   5.715   3.688   4.801
 6608SOL    HW120723   5.783   3.647   4.862
 6608SOL    HW220724   5.672   3.615   4.747
 6609SOL     OW20725   5.446   1.690   6.932
 6609SOL    HW120726   5.391   1.665   7.012
 6609SOL    HW220727   5.392   1.749   6.872
 6610SOL     OW20728   2.899   1.245   0.535
 6610SOL    HW120729   2.958   1.235   0.455
 6610SOL    HW220730   2.955   1.238   0.618
 6611SOL     OW20731   5.308   3.229   2.916
 6611SOL    HW120732   5.326   3.133   2.893
 6611SOL    HW220733   5.272   3.276   2.835
 6612SOL     OW20734   1.221   5.871   6.197
 6612SOL    HW120735   1.245   5.806   6.269
 6612SOL    HW220736   1.275   5.955   6.209
 6613SOL     OW20737   5.077   5.184   1.133
 6613SOL    HW120738   5.076   5.268   1.186
 6613SOL    HW220739   5.021   5.115   1.179
 6614SOL     OW20740   4.985   5.902   6.068
 6614SOL    HW120741   4.923   5.823   6.069
 6614SOL    HW220742   5.011   5.925   6.162
 6615SOL     OW20743   0.897   4.505   5.583
 6615SOL    HW120744   0.840   4.562   5.523
 6615SOL    HW220745   0.944   4.436   5.528
 6616SOL     OW20746   4.815   0.384   4.658
 6616SOL    HW120747   4.907   0.344   4.657
 6616SOL    HW220748   4.819   0.479   4.627
 6617SOL     OW20749   4.901   6.941   5.230
 6617SOL    HW120750   4.886   6.924   5.327
 6617SOL    HW220751   4.926   6.855   5.184
 6618SOL     OW20752   1.055   4.893   1.292
 6618SOL    HW120753   1.079   4.947   1.373
 6618SOL    HW220754   1.135   4.842   1.261
 6619SOL     OW20755   6.380   6.527   1.940
 6619SOL    HW120756   6.380   6.446   1.881
 6619SOL    HW220757   6.329   6.600   1.895
 6620SOL     OW20758   3.735   3.132   5.812
 6620SOL    HW120759   3.827   3.138   5.850
 6620SOL    HW220760   3.669   3.124   5.887
 6621SOL     OW20761   2.847   3.730   0.110
 6621SOL    HW120762   2.750   3.705   0.107
 6621SOL    HW220763   2.861   3.802   0.178
 6622SOL     OW20764   5.994   6.758   0.400
 6622SOL    HW120765   5.912   6.802   0.365
 6622SOL    HW220766   6.063   6.827   0.421
 6623SOL     OW20767   3.501   3.841   2.413
 6623SOL    HW120768   3.470   3.936   2.407
 6623SOL    HW220769   3.593   3.834   2.376
 6624SOL     OW20770   4.259   5.189   4.124
 6624SOL    HW120771   4.215   5.175   4.036
 6624SOL    HW220772   4.353   5.219   4.111
 6625SOL     OW20773   5.509   0.303   0.174
 6625SOL    HW120774   5.500   0.400   0.154
 6625SOL    HW220775   5.605   0.281   0.191
 6626SOL     OW20776   3.309   5.181   3.396
 6626SOL    HW120777   3.292   5.254   3.461
 6626SOL    HW220778   3.224   5.157   3.349
 6627SOL     OW20779   1.862   6.329   1.981
 6627SOL    HW120780   1.784   6.272   1.957
 6627SOL    HW220781   1.946   6.276   1.973
 6628SOL     OW20782   4.253   6.244   3.352
 6628SOL    HW120783   4.238   6.342   3.340
 6628SOL    HW220784   4.350   6.226   3.369
 6629SOL     OW20785   3.247   3.877   0.550
 6629SOL    HW120786   3.269   3.800   0.491
 6629SOL    HW220787   3.148   3.888   0.555
 6630SOL     OW20788   2.637   2.229   5.656
 6630SOL    HW120789   2.614   2.162   5.586
 6630SOL    HW220790   2.684   2.306   5.614
 6631SOL     OW20791   3.558   0.496   2.173
 6631SOL    HW120792   3.560   0.399   2.197
 6631SOL    HW220793   3.636   0.543   2.216
 6632SOL     OW20794   0.096   2.415   2.514
 6632SOL    HW120795   0.157   2.492   2.496
 6632SOL    HW220796   0.058   2.424   2.607
 6633SOL     OW20797   0.344   6.872   0.943
 6633SOL    HW120798   0.417   6.940   0.950
 6633SOL    HW220799   0.357   6.802   1.014
 6634SOL     OW20800   0.147   2.969   5.987
 6634SOL    HW120801   0.175   2.881   5.950
 6634SOL    HW220802   0.199   2.990   6.069
 6635SOL     OW20803   4.245   4.699   3.134
 6635SOL    HW120804   4.199   4.614   3.158
 6635SOL    HW220805   4.274   4.696   3.038
 6636SOL     OW20806   1.650   2.672   4.070
 6636SOL    HW120807   1.600   2.587   4.087
 6636SOL    HW220808   1.669   2.680   3.972
 6637SOL     OW20809   6.625   1.361   1.585
 6637SOL    HW120810   6.588   1.271   1.606
 6637SOL    HW220811   6.552   1.429   1.585
 6638SOL     OW20812   2.131   6.521   6.269
 6638SOL    HW120813   2.127   6.473   6.357
 6638SOL    HW220814   2.200   6.478   6.211
 6639SOL     OW20815   5.238   5.482   6.727
 6639SOL    HW120816   5.307   5.526   6.668
 6639SOL    HW220817   5.285   5.434   6.801
 6640SOL     OW20818   5.829   3.011   3.712
 6640SOL    HW120819   5.766   3.071   3.662
 6640SOL    HW220820   5.869   2.945   3.648
 6641SOL     OW20821   2.099   4.556   6.785
 6641SOL    HW120822   2.083   4.632   6.849
 6641SOL    HW220823   2.100   4.470   6.836
 6642SOL     OW20824   0.197   6.724   0.491
 6642SOL    HW120825   0.237   6.793   0.552
 6642SOL    HW220826   0.098   6.724   0.502
 6643SOL     OW20827   4.332   5.568   7.016
 6643SOL    HW120828   4.240   5.596   6.989
 6643SOL    HW220829   4.397   5.640   6.993
 6644SOL     OW20830   2.360   4.607   2.152
 6644SOL    HW120831   2.324   4.697   2.126
 6644SOL    HW220832   2.450   4.618   2.195
 6645SOL     OW20833   6.717   4.742   4.704
 6645SOL    HW120834   6.759   4.669   4.758
 6645SOL    HW220835   6.619   4.728   4.699
 6646SOL     OW20836   1.814   6.262   3.597
 6646SOL    HW120837   1.856   6.172   3.589
 6646SOL    HW220838   1.862   6.315   3.667
 6647SOL     OW20839   3.794   2.095   2.454
 6647SOL    HW120840   3.721   2.111   2.388
 6647SOL    HW220841   3.807   1.996   2.466
 6648SOL     OW20842   4.884   6.105   2.024
 6648SOL    HW120843   4.789   6.082   2.044
 6648SOL    HW220844   4.937   6.103   2.108
 6649SOL     OW20845   3.535   2.206   6.310
 6649SOL    HW120846   3.526   2.161   6.221
 6649SOL    HW220847   3.535   2.305   6.297
 6650SOL     OW20848   3.103   2.199   3.350
 6650SOL    HW120849   3.198   2.181   3.376
 6650SOL    HW220850   3.060   2.258   3.419
 6651SOL     OW20851   1.257   2.632   6.983
 6651SOL    HW120852   1.214   2.572   6.915
 6651SOL    HW220853   1.269   2.581   0.042
 6652SOL     OW20854   0.389   5.458   3.414
 6652SOL    HW120855   0.397   5.421   3.321
 6652SOL    HW220856   0.476   5.498   3.442
 6653SOL     OW20857   3.209   3.252   3.283
 6653SOL    HW120858   3.111   3.272   3.295
 6653SOL    HW220859   3.245   3.211   3.367
 6654SOL     OW20860   2.244   3.266   1.712
 6654SOL    HW120861   2.162   3.302   1.669
 6654SOL    HW220862   2.293   3.339   1.759
 6655SOL     OW20863   2.288   0.460   1.036
 6655SOL    HW120864   2.336   0.373   1.045
 6655SOL    HW220865   2.341   0.532   1.081
 6656SOL     OW20866   6.510   2.342   1.360
 6656SOL    HW120867   6.609   2.331   1.359
 6656SOL    HW220868   6.466   2.260   1.323
 6657SOL     OW20869   2.777   5.343   6.020
 6657SOL    HW120870   2.869   5.381   6.017
 6657SOL    HW220871   2.762   5.300   6.109
 6658SOL     OW20872   5.139   0.539   6.131
 6658SOL    HW120873   5.106   0.462   6.185
 6658SOL    HW220874   5.061   0.592   6.097
 6659SOL     OW20875   1.295   3.453   6.752
 6659SOL    HW120876   1.335   3.445   6.843
 6659SOL    HW220877   1.272   3.361   6.718
 6660SOL     OW20878   0.174   6.966   3.145
 6660SOL    HW120879   0.254   6.913   3.117
 6660SOL    HW220880   0.154   6.946   3.241
 6661SOL     OW20881   0.149   5.806   3.604
 6661SOL    HW120882   0.175   5.745   3.679
 6661SOL    HW220883   0.215   5.881   3.597
 6662SOL     OW20884   0.952   3.788   6.257
 6662SOL    HW120885   1.038   3.739   6.266
 6662SOL    HW220886   0.937   3.814   6.162
 6663SOL     OW20887   0.379   5.434   2.141
 6663SOL    HW120888   0.429   5.385   2.069
 6663SOL    HW220889   0.398   5.390   2.229
 6664SOL     OW20890   0.895   1.668   3.168
 6664SOL    HW120891   0.828   1.743   3.169
 6664SOL    HW220892   0.900   1.630   3.076
 6665SOL     OW20893   2.696   6.550   2.367
 6665SOL    HW120894   2.767   6.498   2.415
 6665SOL    HW220895   2.642   6.489   2.310
 6666SOL     OW20896   5.989   6.937   0.619
 6666SOL    HW120897   6.022   6.887   0.699
 6666SOL    HW220898   5.916   6.884   0.575
 6667SOL     OW20899   7.018   5.165   4.144
 6667SOL    HW120900   7.018   5.086   4.082
 6667SOL    HW220901   6.999   5.135   4.237
 6668SOL     OW20902   0.520   6.398   1.779
 6668SOL    HW120903   0.539   6.307   1.744
 6668SOL    HW220904   0.523   6.397   1.879
 6669SOL     OW20905   1.729   5.631   2.901
 6669SOL    HW120906   1.696   5.652   2.809
 6669SOL    HW220907   1.657   5.583   2.952
 6670SOL     OW20908   3.655   4.490   0.503
 6670SOL    HW120909   3.583   4.520   0.565
 6670SOL    HW220910   3.732   4.455   0.557
 6671SOL     OW20911   0.325   2.212   5.433
 6671SOL    HW120912   0.352   2.308   5.428
 6671SOL    HW220913   0.377   2.167   5.505
 6672SOL     OW20914   1.609   0.612   5.188
 6672SOL    HW120915   1.543   0.687   5.185
 6672SOL    HW220916   1.702   0.649   5.188
 6673SOL     OW20917   4.991   4.829   1.756
 6673SOL    HW120918   5.040   4.863   1.837
 6673SOL    HW220919   5.040   4.749   1.720
 6674SOL     OW20920   0.693   0.036   4.187
 6674SOL    HW120921   0.753   0.028   4.266
 6674SOL    HW220922   0.670   0.133   4.172
 6675SOL     OW20923   6.790   6.233   0.485
 6675SOL    HW120924   6.874   6.186   0.461
 6675SOL    HW220925   6.714   6.168   0.483
 6676SOL     OW20926   1.127   2.223   6.651
 6676SOL    HW120927   1.110   2.138   6.599
 6676SOL    HW220928   1.222   2.252   6.637
 6677SOL     OW20929   6.465   3.925   0.197
 6677SOL    HW120930   6.440   3.980   0.276
 6677SOL    HW220931   6.404   3.846   0.190
 6678SOL     OW20932   1.200   2.912   4.825
 6678SOL    HW120933   1.132   2.878   4.890
 6678SOL    HW220934   1.291   2.905   4.865
 6679SOL     OW20935   1.918   2.075   4.582
 6679SOL    HW120936   1.909   2.167   4.545
 6679SOL    HW220937   2.007   2.065   4.626
 6680SOL     OW20938   2.051   6.674   6.025
 6680SOL    HW120939   2.064   6.616   6.105
 6680SOL    HW220940   2.048   6.617   5.943
 6681SOL     OW20941   5.916   5.599   0.019
 6681SOL    HW120942   5.949   5.507   7.024
 6681SOL    HW220943   5.986   5.666   7.021
 6682SOL     OW20944   6.984   5.942   2.838
 6682SOL    HW120945   6.971   5.992   2.751
 6682SOL    HW220946   0.023   5.868   2.824
 6683SOL     OW20947   5.130   1.792   4.149
 6683SOL    HW120948   5.053   1.851   4.127
 6683SOL    HW220949   5.142   1.788   4.248
 6684SOL     OW20950   2.173   0.335   2.115
 6684SOL    HW120951   2.227   0.416   2.135
 6684SOL    HW220952   2.232   0.265   2.075
 6685SOL     OW20953   5.354   3.673   6.090
 6685SOL    HW120954   5.403   3.593   6.126
 6685SOL    HW220955   5.294   3.644   6.015
 6686SOL     OW20956   5.603   4.308   4.174
 6686SOL    HW120957   5.614   4.244   4.097
 6686SOL    HW220958   5.508   4.336   4.181
 6687SOL     OW20959   1.222   1.425   0.133
 6687SOL    HW120960   1.225   1.447   0.036
 6687SOL    HW220961   1.212   1.327   0.145
 6688SOL     OW20962   0.700   4.943   3.403
 6688SOL    HW120963   0.619   4.890   3.378
 6688SOL    HW220964   0.675   5.015   3.468
 6689SOL     OW20965   4.727   4.891   0.182
 6689SOL    HW120966   4.775   4.804   0.189
 6689SOL    HW220967   4.710   4.927   0.274
 6690SOL     OW20968   1.347   1.937   0.723
 6690SOL    HW120969   1.349   2.034   0.749
 6690SOL    HW220970   1.421   1.888   0.769
 6691SOL     OW20971   1.878   5.495   1.165
 6691SOL    HW120972   1.794   5.441   1.166
 6691SOL    HW220973   1.862   5.579   1.113
 6692SOL     OW20974   3.395   4.174   6.118
 6692SOL    HW120975   3.482   4.223   6.107
 6692SOL    HW220976   3.391   4.098   6.053
 6693SOL     OW20977   3.487   4.023   4.973
 6693SOL    HW120978   3.455   3.941   5.022
 6693SOL    HW220979   3.442   4.027   4.884
 6694SOL     OW20980   2.869   6.149   0.573
 6694SOL    HW120981   2.930   6.071   0.561
 6694SOL    HW220982   2.921   6.226   0.611
 6695SOL     OW20983   1.514   1.739   6.617
 6695SOL    HW120984   1.538   1.730   6.521
 6695SOL    HW220985   1.439   1.804   6.627
 6696SOL     OW20986   2.093   3.253   2.004
 6696SOL    HW120987   2.138   3.342   2.002
 6696SOL    HW220988   2.130   3.194   1.932
 6697SOL     OW20989   5.441   1.963   3.351
 6697SOL    HW120990   5.448   2.062   3.362
 6697SOL    HW220991   5.470   1.937   3.259
 6698SOL     OW20992   3.756   4.006   0.672
 6698SOL    HW120993   3.788   3.913   0.656
 6698SOL    HW220994   3.741   4.053   0.585
 6699SOL     OW20995   1.488   3.604   0.066
 6699SOL    HW120996   1.422   3.530   0.055
 6699SOL    HW220997   1.461   3.682   0.009
 6700SOL     OW20998   6.192   6.382   6.490
 6700SOL    HW120999   6.279   6.422   6.520
 6700SOL    HW221000   6.142   6.450   6.436
 6701SOL     OW21001   0.652   2.290   0.859
 6701SOL    HW121002   0.657   2.307   0.958
 6701SOL    HW221003   0.556   2.279   0.832
 6702SOL     OW21004   2.032   2.806   1.238
 6702SOL    HW121005   2.041   2.875   1.310
 6702SOL    HW221006   2.094   2.730   1.258
 6703SOL     OW21007   0.256   2.399   6.974
 6703SOL    HW121008   0.191   2.449   0.006
 6703SOL    HW221009   0.214   2.313   6.945
 6704SOL     OW21010   5.240   2.148   3.558
 6704SOL    HW121011   5.223   2.241   3.589
 6704SOL    HW221012   5.338   2.128   3.567
 6705SOL     OW21013   6.232   1.256   0.509
 6705SOL    HW121014   6.174   1.196   0.565
 6705SOL    HW221015   6.327   1.229   0.519
 6706SOL     OW21016   0.454   4.983   6.759
 6706SOL    HW121017   0.398   4.985   6.841
 6706SOL    HW221018   0.551   4.975   6.784
 6707SOL     OW21019   1.178   5.889   2.256
 6707SOL    HW121020   1.240   5.851   2.187
 6707SOL    HW221021   1.172   5.826   2.333
 6708SOL     OW21022   2.842   6.021   1.516
 6708SOL    HW121023   2.915   6.087   1.535
 6708SOL    HW221024   2.875   5.928   1.532
 6709SOL     OW21025   5.697   1.264   2.770
 6709SOL    HW121026   5.786   1.309   2.762
 6709SOL    HW221027   5.628   1.333   2.790
 6710SOL     OW21028   2.451   2.417   1.610
 6710SOL    HW121029   2.434   2.436   1.706
 6710SOL    HW221030   2.544   2.381   1.599
 6711SOL     OW21031   3.966   3.670   0.343
 6711SOL    HW121032   3.933   3.596   0.283
 6711SOL    HW221033   3.935   3.653   0.436
 6712SOL     OW21034   3.573   6.181   0.923
 6712SOL    HW121035   3.501   6.136   0.976
 6712SOL    HW221036   3.591   6.130   0.839
 6713SOL     OW21037   1.785   1.234   2.080
 6713SOL    HW121038   1.789   1.228   1.980
 6713SOL    HW221039   1.707   1.182   2.114
 6714SOL     OW21040   6.534   0.324   3.577
 6714SOL    HW121041   6.472   0.313   3.499
 6714SOL    HW221042   6.563   0.234   3.609
 6715SOL     OW21043   0.089   2.090   0.573
 6715SOL    HW121044   0.102   2.155   0.648
 6715SOL    HW221045   0.170   2.031   0.565
 6716SOL     OW21046   2.691   5.542   0.424
 6716SOL    HW121047   2.757   5.494   0.481
 6716SOL    HW221048   2.603   5.546   0.472
 6717SOL     OW21049   3.561   1.897   6.327
 6717SOL    HW121050   3.492   1.945   6.382
 6717SOL    HW221051   3.526   1.884   6.234
 6718SOL     OW21052   3.495   6.919   6.969
 6718SOL    HW121053   3.574   6.915   0.004
 6718SOL    HW221054   3.459   6.827   6.956
 6719SOL     OW21055   0.139   0.334   5.284
 6719SOL    HW121056   0.089   0.318   5.369
 6719SOL    HW221057   0.223   0.280   5.284
 6720SOL     OW21058   1.713   4.846   1.774
 6720SOL    HW121059   1.660   4.910   1.830
 6720SOL    HW221060   1.779   4.896   1.719
 6721SOL     OW21061   6.268   6.224   3.334
 6721SOL    HW121062   6.319   6.140   3.354
 6721SOL    HW221063   6.332   6.299   3.316
 6722SOL     OW21064   4.961   4.279   6.705
 6722SOL    HW121065   4.983   4.244   6.614
 6722SOL    HW221066   5.022   4.239   6.773
 6723SOL     OW21067   4.394   0.044   2.712
 6723SOL    HW121068   4.367   0.118   2.649
 6723SOL    HW221069   4.373   6.983   2.670
 6724SOL     OW21070   3.402   4.745   5.742
 6724SOL    HW121071   3.445   4.754   5.831
 6724SOL    HW221072   3.304   4.729   5.754
 6725SOL     OW21073   0.429   5.029   2.239
 6725SOL    HW121074   0.335   5.028   2.202
 6725SOL    HW221075   0.429   4.989   2.330
 6726SOL     OW21076   2.436   2.494   2.197
 6726SOL    HW121077   2.496   2.420   2.165
 6726SOL    HW221078   2.399   2.542   2.117
 6727SOL     OW21079   4.019   3.722   6.968
 6727SOL    HW121080   4.037   3.633   7.008
 6727SOL    HW221081   4.045   3.721   6.871
 6728SOL     OW21082   4.449   1.608   4.235
 6728SOL    HW121083   4.507   1.549   4.292
 6728SOL    HW221084   4.506   1.654   4.167
 6729SOL     OW21085   5.765   6.369   3.015
 6729SOL    HW121086   5.802   6.460   3.000
 6729SOL    HW221087   5.749   6.324   2.927
 6730SOL     OW21088   1.386   6.713   1.384
 6730SOL    HW121089   1.468   6.768   1.366
 6730SOL    HW221090   1.388   6.631   1.327
 6731SOL     OW21091   2.128   4.534   2.001
 6731SOL    HW121092   2.094   4.440   2.007
 6731SOL    HW221093   2.153   4.567   2.092
 6732SOL     OW21094   1.787   4.748   0.874
 6732SOL    HW121095   1.773   4.802   0.957
 6732SOL    HW221096   1.829   4.806   0.804
 6733SOL     OW21097   5.471   5.602   5.081
 6733SOL    HW121098   5.400   5.532   5.073
 6733SOL    HW221099   5.482   5.627   5.178
 6734SOL     OW21100   2.741   3.780   5.636
 6734SOL    HW121101   2.701   3.806   5.724
 6734SOL    HW221102   2.668   3.755   5.572
 6735SOL     OW21103   7.002   5.232   6.509
 6735SOL    HW121104   7.018   5.278   6.597
 6735SOL    HW221105   0.026   5.279   6.437
 6736SOL     OW21106   2.125   3.613   2.752
 6736SOL    HW121107   2.139   3.690   2.813
 6736SOL    HW221108   2.083   3.537   2.803
 6737SOL     OW21109   1.835   0.366   1.147
 6737SOL    HW121110   1.887   0.297   1.097
 6737SOL    HW221111   1.829   0.339   1.243
 6738SOL     OW21112   3.930   1.392   2.027
 6738SOL    HW121113   3.958   1.453   2.101
 6738SOL    HW221114   3.935   1.441   1.939
 6739SOL     OW21115   4.611   0.255   5.025
 6739SOL    HW121116   4.705   0.288   5.032
 6739SOL    HW221117   4.605   0.161   5.059
 6740SOL     OW21118   6.023   3.113   4.640
 6740SOL    HW121119   5.952   3.062   4.688
 6740SOL    HW221120   5.982   3.166   4.566
 6741SOL     OW21121   6.602   6.988   5.337
 6741SOL    HW121122   6.678   6.989   5.402
 6741SOL    HW221123   6.516   6.992   5.388
 6742SOL     OW21124   6.080   6.017   5.353
 6742SOL    HW121125   6.085   5.920   5.378
 6742SOL    HW221126   5.993   6.034   5.305
 6743SOL     OW21127   5.316   3.093   0.675
 6743SOL    HW121128   5.280   3.048   0.757
 6743SOL    HW221129   5.243   3.144   0.630
 6744SOL     OW21130   5.340   5.331   5.349
 6744SOL    HW121131   5.321   5.356   5.254
 6744SOL    HW221132   5.429   5.285   5.354
 6745SOL     OW21133   0.530   3.835   3.704
 6745SOL    HW121134   0.462   3.894   3.660
 6745SOL    HW221135   0.622   3.869   3.685
 6746SOL     OW21136   6.930   1.078   1.067
 6746SOL    HW121137   6.992   1.006   1.098
 6746SOL    HW221138   6.905   1.136   1.144
 6747SOL     OW21139   5.300   6.688   6.436
 6747SOL    HW121140   5.310   6.730   6.527
 6747SOL    HW221141   5.388   6.692   6.388
 6748SOL     OW21142   0.198   6.645   1.972
 6748SOL    HW121143   0.168   6.617   1.881
 6748SOL    HW221144   0.124   6.631   2.037
 6749SOL     OW21145   3.619   5.883   1.059
 6749SOL    HW121146   3.571   5.969   1.075
 6749SOL    HW221147   3.579   5.837   0.980
 6750SOL     OW21148   2.412   3.090   5.459
 6750SOL    HW121149   2.394   3.183   5.490
 6750SOL    HW221150   2.403   3.085   5.359
 6751SOL     OW21151   2.857   2.022   5.705
 6751SOL    HW121152   2.817   2.096   5.650
 6751SOL    HW221153   2.951   2.046   5.730
 6752SOL     OW21154   6.079   1.659   0.531
 6752SOL    HW121155   6.114   1.725   0.597
 6752SOL    HW221156   5.984   1.682   0.508
 6753SOL     OW21157   5.551   1.393   6.149
 6753SOL    HW121158   5.647   1.371   6.164
 6753SOL    HW221159   5.494   1.330   6.203
 6754SOL     OW21160   4.813   1.375   0.357
 6754SOL    HW121161   4.816   1.465   0.313
 6754SOL    HW221162   4.795   1.305   0.288
 6755SOL     OW21163   5.084   1.341   3.464
 6755SOL    HW121164   5.060   1.396   3.545
 6755SOL    HW221165   5.095   1.401   3.385
 6756SOL     OW21166   4.720   4.621   3.510
 6756SOL    HW121167   4.800   4.638   3.567
 6756SOL    HW221168   4.739   4.649   3.416
 6757SOL     OW21169   5.897   4.809   1.842
 6757SOL    HW121170   5.877   4.713   1.861
 6757SOL    HW221171   5.864   4.832   1.750
 6758SOL     OW21172   6.000   1.783   2.876
 6758SOL    HW121173   5.931   1.831   2.822
 6758SOL    HW221174   5.957   1.746   2.959
 6759SOL     OW21175   1.167   4.501   3.221
 6759SOL    HW121176   1.181   4.444   3.302
 6759SOL    HW221177   1.178   4.445   3.138
 6760SOL     OW21178   0.439   4.321   5.265
 6760SOL    HW121179   0.449   4.232   5.309
 6760SOL    HW221180   0.476   4.316   5.172
 6761SOL     OW21181   6.076   3.306   6.548
 6761SOL    HW121182   5.991   3.253   6.547
 6761SOL    HW221183   6.072   3.373   6.622
 6762SOL     OW21184   5.954   4.438   3.123
 6762SOL    HW121185   6.004   4.519   3.152
 6762SOL    HW221186   5.959   4.429   3.024
 6763SOL     OW21187   6.231   6.573   5.098
 6763SOL    HW121188   6.272   6.581   5.007
 6763SOL    HW221189   6.166   6.497   5.099
 6764SOL     OW21190   2.101   3.378   0.092
 6764SOL    HW121191   2.062   3.470   0.093
 6764SOL    HW221192   2.098   3.340   0.185
 6765SOL     OW21193   5.041   5.138   2.501
 6765SOL    HW121194   5.073   5.191   2.423
 6765SOL    HW221195   5.085   5.171   2.584
 6766SOL     OW21196   1.527   1.658   5.441
 6766SOL    HW121197   1.601   1.706   5.488
 6766SOL    HW221198   1.545   1.658   5.343
 6767SOL     OW21199   0.851   2.685   5.449
 6767SOL    HW121200   0.943   2.723   5.460
 6767SOL    HW221201   0.786   2.738   5.504
 6768SOL     OW21202   0.136   0.445   5.706
 6768SOL    HW121203   0.180   0.373   5.652
 6768SOL    HW221204   0.190   0.463   5.789
 6769SOL     OW21205   0.831   2.195   6.742
 6769SOL    HW121206   0.931   2.196   6.741
 6769SOL    HW221207   0.799   2.101   6.729
 6770SOL     OW21208   6.921   1.062   4.617
 6770SOL    HW121209   6.871   1.148   4.608
 6770SOL    HW221210   6.932   1.021   4.526
 6771SOL     OW21211   4.910   1.985   2.097
 6771SOL    HW121212   4.943   1.897   2.130
 6771SOL    HW221213   4.940   2.058   2.159
 6772SOL     OW21214   1.377   0.853   1.449
 6772SOL    HW121215   1.314   0.928   1.471
 6772SOL    HW221216   1.469   0.878   1.477
 6773SOL     OW21217   1.183   0.343   1.920
 6773SOL    HW121218   1.185   0.248   1.889
 6773SOL    HW221219   1.116   0.394   1.866
 6774SOL     OW21220   3.192   1.193   5.947
 6774SOL    HW121221   3.280   1.146   5.943
 6774SOL    HW221222   3.125   1.134   5.992
 6775SOL     OW21223   1.645   3.425   5.084
 6775SOL    HW121224   1.707   3.349   5.065
 6775SOL    HW221225   1.565   3.392   5.134
 6776SOL     OW21226   2.961   3.772   3.351
 6776SOL    HW121227   2.919   3.698   3.300
 6776SOL    HW221228   3.004   3.837   3.288
 6777SOL     OW21229   0.680   7.019   6.314
 6777SOL    HW121230   0.662   6.924   6.288
 6777SOL    HW221231   0.598   0.031   6.356
 6778SOL     OW21232   6.280   6.247   2.350
 6778SOL    HW121233   6.246   6.305   2.275
 6778SOL    HW221234   6.337   6.175   2.312
 6779SOL     OW21235   4.409   4.617   6.638
 6779SOL    HW121236   4.398   4.518   6.638
 6779SOL    HW221237   4.426   4.649   6.731
 6780SOL     OW21238   4.018   0.776   2.921
 6780SOL    HW121239   4.080   0.718   2.868
 6780SOL    HW221240   4.061   0.865   2.937
 6781SOL     OW21241   6.388   3.022   3.301
 6781SOL    HW121242   6.414   3.001   3.396
 6781SOL    HW221243   6.292   3.001   3.287
 6782SOL     OW21244   0.369   1.330   3.326
 6782SOL    HW121245   0.276   1.366   3.317
 6782SOL    HW221246   0.411   1.325   3.235
 6783SOL     OW21247   0.617   6.335   5.939
 6783SOL    HW121248   0.540   6.291   5.986
 6783SOL    HW221249   0.597   6.432   5.927
 6784SOL     OW21250   1.704   4.487   0.890
 6784SOL    HW121251   1.784   4.442   0.851
 6784SOL    HW221252   1.720   4.585   0.896
 6785SOL     OW21253   5.632   4.682   2.742
 6785SOL    HW121254   5.726   4.648   2.754
 6785SOL    HW221255   5.589   4.692   2.831
 6786SOL     OW21256   6.460   1.928   5.698
 6786SOL    HW121257   6.558   1.926   5.680
 6786SOL    HW221258   6.432   1.844   5.743
 6787SOL     OW21259   3.103   1.346   0.767
 6787SOL    HW121260   3.029   1.303   0.818
 6787SOL    HW221261   3.133   1.428   0.816
 6788SOL     OW21262   0.853   4.667   1.300
 6788SOL    HW121263   0.916   4.597   1.335
 6788SOL    HW221264   0.890   4.758   1.319
 6789SOL     OW21265   5.945   4.315   2.413
 6789SOL    HW121266   5.897   4.380   2.473
 6789SOL    HW221267   5.951   4.354   2.321
 6790SOL     OW21268   0.961   5.932   0.730
 6790SOL    HW121269   0.996   6.002   0.792
 6790SOL    HW221270   0.963   5.966   0.636
 6791SOL     OW21271   2.790   6.100   4.111
 6791SOL    HW121272   2.787   6.007   4.148
 6791SOL    HW221273   2.879   6.116   4.069
 6792SOL     OW21274   3.108   6.277   6.578
 6792SOL    HW121275   3.009   6.269   6.571
 6792SOL    HW221276   3.149   6.186   6.578
 6793SOL     OW21277   2.722   3.762   6.208
 6793SOL    HW121278   2.805   3.707   6.212
 6793SOL    HW221279   2.735   3.839   6.145
 6794SOL     OW21280   5.101   2.369   4.599
 6794SOL    HW121281   5.157   2.452   4.602
 6794SOL    HW221282   5.154   2.294   4.562
 6795SOL     OW21283   0.627   0.191   1.618
 6795SOL    HW121284   0.702   0.176   1.553
 6795SOL    HW221285   0.663   0.234   1.701
 6796SOL     OW21286   6.976   2.193   2.476
 6796SOL    HW121287   6.897   2.236   2.519
 6796SOL    HW221288   0.029   2.252   2.486
 6797SOL     OW21289   1.781   3.178   1.142
 6797SOL    HW121290   1.823   3.146   1.058
 6797SOL    HW221291   1.847   3.231   1.195
 6798SOL     OW21292   4.890   1.163   1.709
 6798SOL    HW121293   4.827   1.215   1.766
 6798SOL    HW221294   4.919   1.219   1.632
 6799SOL     OW21295   6.304   0.146   2.718
 6799SOL    HW121296   6.319   0.058   2.674
 6799SOL    HW221297   6.368   0.156   2.795
 6800SOL     OW21298   7.000   3.180   2.204
 6800SOL    HW121299   7.017   3.103   2.142
 6800SOL    HW221300   6.902   3.198   2.209
 6801SOL     OW21301   1.566   5.252   5.758
 6801SOL    HW121302   1.513   5.333   5.784
 6801SOL    HW221303   1.504   5.182   5.721
 6802SOL     OW21304   2.835   4.800   1.648
 6802SOL    HW121305   2.778   4.753   1.715
 6802SOL    HW221306   2.917   4.745   1.630
 6803SOL     OW21307   5.506   5.243   0.107
 6803SOL    HW121308   5.431   5.225   0.170
 6803SOL    HW221309   5.571   5.167   0.110
 6804SOL     OW21310   3.049   5.484   1.995
 6804SOL    HW121311   3.126   5.449   2.049
 6804SOL    HW221312   2.985   5.531   2.055
 6805SOL     OW21313   0.893   4.384   3.746
 6805SOL    HW121314   0.848   4.318   3.685
 6805SOL    HW221315   0.844   4.388   3.833
 6806SOL     OW21316   5.565   3.561   2.738
 6806SOL    HW121317   5.622   3.632   2.696
 6806SOL    HW221318   5.516   3.512   2.667
 6807SOL     OW21319   3.010   3.891   2.432
 6807SOL    HW121320   2.967   3.971   2.390
 6807SOL    HW221321   3.026   3.821   2.363
 6808SOL     OW21322   3.502   0.229   3.518
 6808SOL    HW121323   3.497   0.190   3.610
 6808SOL    HW221324   3.450   0.172   3.454
 6809SOL     OW21325   5.727   2.400   0.896
 6809SOL    HW121326   5.762   2.313   0.860
 6809SOL    HW221327   5.791   2.437   0.964
 6810SOL     OW21328   2.861   0.936   4.961
 6810SOL    HW121329   2.834   0.991   4.881
 6810SOL    HW221330   2.908   0.854   4.930
 6811SOL     OW21331   6.771   1.366   1.307
 6811SOL    HW121332   6.714   1.373   1.389
 6811SOL    HW221333   6.839   1.294   1.319
 6812SOL     OW21334   3.360   4.612   5.321
 6812SOL    HW121335   3.403   4.609   5.411
 6812SOL    HW221336   3.297   4.534   5.311
 6813SOL     OW21337   0.173   4.229   1.816
 6813SOL    HW121338   0.233   4.180   1.753
 6813SOL    HW221339   0.228   4.271   1.888
 6814SOL     OW21340   5.078   1.469   1.687
 6814SOL    HW121341   5.004   1.519   1.643
 6814SOL    HW221342   5.078   1.488   1.785
 6815SOL     OW21343   0.771   6.085   6.452
 6815SOL    HW121344   0.671   6.079   6.458
 6815SOL    HW221345   0.810   6.091   6.544
 6816SOL     OW21346   6.482   0.122   3.894
 6816SOL    HW121347   6.564   0.082   3.935
 6816SOL    HW221348   6.507   0.204   3.844
 6817SOL     OW21349   5.089   1.544   1.950
 6817SOL    HW121350   5.125   1.619   2.004
 6817SOL    HW221351   5.134   1.459   1.975
 6818SOL     OW21352   1.126   0.411   5.121
 6818SOL    HW121353   1.030   0.400   5.095
 6818SOL    HW221354   1.144   0.507   5.144
 6819SOL     OW21355   4.905   4.176   1.369
 6819SOL    HW121356   4.918   4.231   1.451
 6819SOL    HW221357   4.994   4.143   1.336
 6820SOL     OW21358   2.556   4.739   1.584
 6820SOL    HW121359   2.648   4.778   1.583
 6820SOL    HW221360   2.562   4.642   1.609
 6821SOL     OW21361   2.987   2.995   6.035
 6821SOL    HW121362   2.994   3.040   6.124
 6821SOL    HW221363   2.957   3.062   5.966
 6822SOL     OW21364   6.276   3.705   5.244
 6822SOL    HW121365   6.335   3.732   5.320
 6822SOL    HW221366   6.310   3.746   5.159
 6823SOL     OW21367   0.346   3.010   6.177
 6823SOL    HW121368   0.391   3.033   6.091
 6823SOL    HW221369   0.391   2.931   6.219
 6824SOL     OW21370   1.381   0.544   4.471
 6824SOL    HW121371   1.379   0.455   4.426
 6824SOL    HW221372   1.429   0.536   4.559
 6825SOL     OW21373   4.451   4.193   1.343
 6825SOL    HW121374   4.482   4.182   1.438
 6825SOL    HW221375   4.463   4.107   1.294
 6826SOL     OW21376   5.407   0.689   3.220
 6826SOL    HW121377   5.416   0.652   3.127
 6826SOL    HW221378   5.340   0.763   3.220
 6827SOL     OW21379   4.769   5.537   5.513
 6827SOL    HW121380   4.766   5.439   5.535
 6827SOL    HW221381   4.678   5.567   5.487
 6828SOL     OW21382   3.093   2.114   2.435
 6828SOL    HW121383   2.998   2.086   2.420
 6828SOL    HW221384   3.123   2.173   2.360
 6829SOL     OW21385   4.992   6.264   4.371
 6829SOL    HW121386   4.926   6.209   4.320
 6829SOL    HW221387   5.040   6.325   4.308
 6830SOL     OW21388   3.425   5.867   2.326
 6830SOL    HW121389   3.404   5.934   2.397
 6830SOL    HW221390   3.522   5.871   2.303
 6831SOL     OW21391   1.191   1.107   6.959
 6831SOL    HW121392   1.275   1.156   6.938
 6831SOL    HW221393   1.154   1.139   0.020
 6832SOL     OW21394   2.518   3.051   0.120
 6832SOL    HW121395   2.612   3.077   0.142
 6832SOL    HW221396   2.459   3.131   0.131
 6833SOL     OW21397   4.456   4.466   0.004
 6833SOL    HW121398   4.452   4.550   6.977
 6833SOL    HW221399   4.410   4.392   6.981
 6834SOL     OW21400   5.667   5.858   5.425
 6834SOL    HW121401   5.755   5.867   5.379
 6834SOL    HW221402   5.614   5.787   5.379
 6835SOL     OW21403   3.455   0.720   3.480
 6835SOL    HW121404   3.368   0.692   3.438
 6835SOL    HW221405   3.525   0.651   3.459
 6836SOL     OW21406   0.584   4.432   6.783
 6836SOL    HW121407   0.675   4.455   6.750
 6836SOL    HW221408   0.527   4.514   6.781
 6837SOL     OW21409   6.439   0.952   2.376
 6837SOL    HW121410   6.397   1.041   2.358
 6837SOL    HW221411   6.415   0.888   2.303
 6838SOL     OW21412   3.052   3.933   5.976
 6838SOL    HW121413   3.006   3.963   5.892
 6838SOL    HW221414   3.009   3.978   6.054
 6839SOL     OW21415   6.554   3.021   5.508
 6839SOL    HW121416   6.533   3.107   5.462
 6839SOL    HW221417   6.523   2.944   5.452
 6840SOL     OW21418   3.078   6.295   4.599
 6840SOL    HW121419   3.013   6.295   4.523
 6840SOL    HW221420   3.170   6.278   4.564
 6841SOL     OW21421   4.854   6.905   0.452
 6841SOL    HW121422   4.784   6.976   0.446
 6841SOL    HW221423   4.818   6.827   0.504
 6842SOL     OW21424   0.304   3.629   3.876
 6842SOL    HW121425   0.358   3.613   3.793
 6842SOL    HW221426   0.325   3.720   3.913
 6843SOL     OW21427   4.579   2.762   1.792
 6843SOL    HW121428   4.588   2.858   1.818
 6843SOL    HW221429   4.637   2.742   1.714
 6844SOL     OW21430   3.376   6.858   4.502
 6844SOL    HW121431   3.291   6.870   4.553
 6844SOL    HW221432   3.451   6.902   4.552
 6845SOL     OW21433   4.723   3.938   0.427
 6845SOL    HW121434   4.704   3.878   0.505
 6845SOL    HW221435   4.696   3.893   0.342
 6846SOL     OW21436   4.120   3.420   2.934
 6846SOL    HW121437   4.215   3.433   2.961
 6846SOL    HW221438   4.109   3.442   2.837
 6847SOL     OW21439   6.500   3.179   1.997
 6847SOL    HW121440   6.562   3.246   2.037
 6847SOL    HW221441   6.512   3.178   1.898
 6848SOL     OW21442   0.394   5.815   4.322
 6848SOL    HW121443   0.401   5.881   4.247
 6848SOL    HW221444   0.391   5.863   4.409
 6849SOL     OW21445   3.227   6.923   4.711
 6849SOL    HW121446   3.200   6.829   4.734
 6849SOL    HW221447   3.206   6.983   4.788
 6850SOL     OW21448   5.690   3.609   1.709
 6850SOL    HW121449   5.629   3.683   1.680
 6850SOL    HW221450   5.754   3.588   1.636
 6851SOL     OW21451   1.246   5.581   5.522
 6851SOL    HW121452   1.225   5.562   5.618
 6851SOL    HW221453   1.262   5.494   5.475
 6852SOL     OW21454   6.433   5.071   2.270
 6852SOL    HW121455   6.524   5.030   2.275
 6852SOL    HW221456   6.387   5.040   2.186
 6853SOL     OW21457   6.601   4.238   4.945
 6853SOL    HW121458   6.679   4.182   4.973
 6853SOL    HW221459   6.566   4.288   5.025
 6854SOL     OW21460   6.595   1.759   6.088
 6854SOL    HW121461   6.524   1.756   6.158
 6854SOL    HW221462   6.667   1.821   6.116
 6855SOL     OW21463   3.255   6.673   2.221
 6855SOL    HW121464   3.181   6.617   2.184
 6855SOL    HW221465   3.333   6.669   2.160
 6856SOL     OW21466   7.009   4.526   5.743
 6856SOL    HW121467   0.027   4.615   5.742
 6856SOL    HW221468   7.019   4.482   5.654
 6857SOL     OW21469   3.954   1.407   6.434
 6857SOL    HW121470   3.994   1.429   6.523
 6857SOL    HW221471   3.871   1.352   6.447
 6858SOL     OW21472   3.827   2.885   6.722
 6858SOL    HW121473   3.879   2.970   6.715
 6858SOL    HW221474   3.833   2.850   6.816
 6859SOL     OW21475   3.324   0.650   0.320
 6859SOL    HW121476   3.303   0.715   0.246
 6859SOL    HW221477   3.253   0.657   0.391
 6860SOL     OW21478   3.883   3.975   6.870
 6860SOL    HW121479   3.887   3.899   6.935
 6860SOL    HW221480   3.975   4.009   6.854
 6861SOL     OW21481   5.174   4.110   0.605
 6861SOL    HW121482   5.076   4.120   0.623
 6861SOL    HW221483   5.202   4.176   0.535
 6862SOL     OW21484   2.439   5.317   4.123
 6862SOL    HW121485   2.522   5.366   4.151
 6862SOL    HW221486   2.403   5.267   4.202
 6863SOL     OW21487   0.965   2.716   4.033
 6863SOL    HW121488   1.024   2.777   3.981
 6863SOL    HW221489   1.019   2.667   4.101
 6864SOL     OW21490   4.836   5.302   6.625
 6864SOL    HW121491   4.867   5.282   6.718
 6864SOL    HW221492   4.882   5.383   6.591
 6865SOL     OW21493   0.210   3.448   4.623
 6865SOL    HW121494   0.197   3.366   4.566
 6865SOL    HW221495   0.307   3.460   4.642
 6866SOL     OW21496   0.351   3.334   2.376
 6866SOL    HW121497   0.334   3.336   2.475
 6866SOL    HW221498   0.449   3.339   2.359
 6867SOL     OW21499   2.307   5.665   3.250
 6867SOL    HW121500   2.346   5.575   3.232
 6867SOL    HW221501   2.368   5.736   3.214
 6868SOL     OW21502   1.899   5.475   4.753
 6868SOL    HW121503   1.965   5.504   4.823
 6868SOL    HW221504   1.867   5.382   4.774
 6869SOL     OW21505   6.695   3.717   4.855
 6869SOL    HW121506   6.785   3.759   4.864
 6869SOL    HW221507   6.650   3.716   4.944
 6870SOL     OW21508   5.481   3.399   2.538
 6870SOL    HW121509   5.563   3.415   2.483
 6870SOL    HW221510   5.400   3.417   2.483
 6871SOL     OW21511   4.969   6.612   1.959
 6871SOL    HW121512   5.049   6.554   1.975
 6871SOL    HW221513   4.924   6.632   2.047
 6872SOL     OW21514   3.170   3.874   0.138
 6872SOL    HW121515   3.170   3.923   0.051
 6872SOL    HW221516   3.224   3.790   0.129
 6873SOL     OW21517   5.922   4.402   5.262
 6873SOL    HW121518   5.828   4.435   5.272
 6873SOL    HW221519   5.940   4.331   5.329
 6874SOL     OW21520   1.383   2.021   5.348
 6874SOL    HW121521   1.330   2.058   5.424
 6874SOL    HW221522   1.324   2.012   5.268
 6875SOL     OW21523   3.566   1.823   4.029
 6875SOL    HW121524   3.554   1.733   3.988
 6875SOL    HW221525   3.660   1.833   4.061
 6876SOL     OW21526   3.457   6.516   4.378
 6876SOL    HW121527   3.501   6.577   4.444
 6876SOL    HW221528   3.496   6.532   4.287
 6877SOL     OW21529   1.855   3.677   6.450
 6877SOL    HW121530   1.813   3.605   6.505
 6877SOL    HW221531   1.952   3.655   6.435
 6878SOL     OW21532   1.711   2.203   4.262
 6878SOL    HW121533   1.649   2.131   4.294
 6878SOL    HW221534   1.736   2.262   4.339
 6879SOL     OW21535   0.755   1.174   5.708
 6879SOL    HW121536   0.747   1.251   5.772
 6879SOL    HW221537   0.745   1.208   5.614
 6880SOL     OW21538   2.098   3.917   4.043
 6880SOL    HW121539   2.000   3.935   4.054
 6880SOL    HW221540   2.122   3.832   4.090
 6881SOL     OW21541   5.823   5.896   1.856
 6881SOL    HW121542   5.781   5.897   1.765
 6881SOL    HW221543   5.768   5.840   1.918
 6882SOL     OW21544   2.692   6.210   5.159
 6882SOL    HW121545   2.693   6.130   5.100
 6882SOL    HW221546   2.735   6.288   5.112
 6883SOL     OW21547   3.481   6.302   1.654
 6883SOL    HW121548   3.524   6.221   1.614
 6883SOL    HW221549   3.546   6.378   1.650
 6884SOL     OW21550   2.345   5.026   3.180
 6884SOL    HW121551   2.276   5.077   3.232
 6884SOL    HW221552   2.303   4.988   3.098
 6885SOL     OW21553   4.204   5.434   5.248
 6885SOL    HW121554   4.295   5.401   5.224
 6885SOL    HW221555   4.164   5.373   5.317
 6886SOL     OW21556   5.327   1.528   2.160
 6886SOL    HW121557   5.246   1.470   2.154
 6886SOL    HW221558   5.362   1.527   2.254
 6887SOL     OW21559   4.775   0.717   5.337
 6887SOL    HW121560   4.866   0.753   5.360
 6887SOL    HW221561   4.773   0.691   5.241
 6888SOL     OW21562   6.134   0.099   5.146
 6888SOL    HW121563   6.036   0.095   5.129
 6888SOL    HW221564   6.174   0.176   5.097
 6889SOL     OW21565   1.698   4.257   6.152
 6889SOL    HW121566   1.606   4.228   6.181
 6889SOL    HW221567   1.704   4.356   6.152
 6890SOL     OW21568   2.063   0.366   0.736
 6890SOL    HW121569   2.065   0.275   0.778
 6890SOL    HW221570   2.046   0.434   0.807
 6891SOL     OW21571   3.768   5.409   5.347
 6891SOL    HW121572   3.788   5.472   5.271
 6891SOL    HW221573   3.808   5.320   5.328
 6892SOL     OW21574   3.389   1.508   4.568
 6892SOL    HW121575   3.382   1.483   4.665
 6892SOL    HW221576   3.395   1.426   4.513
 6893SOL     OW21577   5.781   0.276   1.708
 6893SOL    HW121578   5.856   0.318   1.759
 6893SOL    HW221579   5.753   0.337   1.634
 6894SOL     OW21580   6.064   5.033   6.250
 6894SOL    HW121581   6.150   5.070   6.286
 6894SOL    HW221582   6.026   4.969   6.316
 6895SOL     OW21583   4.390   5.239   6.692
 6895SOL    HW121584   4.441   5.237   6.778
 6895SOL    HW221585   4.292   5.246   6.712
 6896SOL     OW21586   4.428   0.819   3.135
 6896SOL    HW121587   4.473   0.844   3.050
 6896SOL    HW221588   4.497   0.809   3.207
 6897SOL     OW21589   3.493   1.747   0.511
 6897SOL    HW121590   3.398   1.738   0.479
 6897SOL    HW221591   3.552   1.687   0.457
 6898SOL     OW21592   3.691   1.494   2.936
 6898SOL    HW121593   3.674   1.409   2.986
 6898SOL    HW221594   3.734   1.472   2.848
 6899SOL     OW21595   5.774   6.535   6.483
 6899SOL    HW121596   5.723   6.503   6.404
 6899SOL    HW221597   5.767   6.467   6.557
 6900SOL     OW21598   4.102   1.643   5.833
 6900SOL    HW121599   4.135   1.709   5.766
 6900SOL    HW221600   4.108   1.551   5.794
 6901SOL     OW21601   1.358   0.997   0.734
 6901SOL    HW121602   1.310   0.998   0.822
 6901SOL    HW221603   1.427   1.070   0.733
 6902SOL     OW21604   6.691   5.498   1.886
 6902SOL    HW121605   6.678   5.526   1.791
 6902SOL    HW221606   6.643   5.563   1.946
 6903SOL     OW21607   4.180   5.044   0.789
 6903SOL    HW121608   4.169   4.945   0.794
 6903SOL    HW221609   4.225   5.069   0.703
 6904SOL     OW21610   1.046   1.723   3.411
 6904SOL    HW121611   0.988   1.699   3.333
 6904SOL    HW221612   1.014   1.674   3.493
 6905SOL     OW21613   4.187   5.390   1.334
 6905SOL    HW121614   4.157   5.478   1.373
 6905SOL    HW221615   4.110   5.348   1.285
 6906SOL     OW21616   5.195   5.902   3.841
 6906SOL    HW121617   5.280   5.945   3.872
 6906SOL    HW221618   5.152   5.960   3.772
 6907SOL     OW21619   3.660   0.724   1.066
 6907SOL    HW121620   3.564   0.751   1.062
 6907SOL    HW221621   3.682   0.693   1.159
 6908SOL     OW21622   6.459   0.543   6.937
 6908SOL    HW121623   6.471   0.461   6.882
 6908SOL    HW221624   6.421   0.519   7.026
 6909SOL     OW21625   3.390   3.028   6.643
 6909SOL    HW121626   3.356   2.996   6.555
 6909SOL    HW221627   3.324   3.090   6.685
 6910SOL     OW21628   6.091   0.538   1.578
 6910SOL    HW121629   6.151   0.566   1.503
 6910SOL    HW221630   5.998   0.572   1.561
 6911SOL     OW21631   4.420   0.802   4.699
 6911SOL    HW121632   4.511   0.782   4.737
 6911SOL    HW221633   4.356   0.731   4.727
 6912SOL     OW21634   4.449   4.581   1.927
 6912SOL    HW121635   4.450   4.482   1.942
 6912SOL    HW221636   4.494   4.627   2.004
 6913SOL     OW21637   4.373   5.673   6.022
 6913SOL    HW121638   4.384   5.764   5.982
 6913SOL    HW221639   4.340   5.682   6.116
 6914SOL     OW21640   6.253   5.093   6.993
 6914SOL    HW121641   6.271   5.141   0.052
 6914SOL    HW221642   6.285   4.999   7.000
 6915SOL     OW21643   1.449   5.526   0.599
 6915SOL    HW121644   1.478   5.582   0.676
 6915SOL    HW221645   1.436   5.432   0.629
 6916SOL     OW21646   6.198   0.956   5.599
 6916SOL    HW121647   6.283   0.908   5.579
 6916SOL    HW221648   6.121   0.891   5.593
 6917SOL     OW21649   4.283   0.276   6.729
 6917SOL    HW121650   4.244   0.207   6.790
 6917SOL    HW221651   4.216   0.348   6.713
 6918SOL     OW21652   2.265   2.873   3.414
 6918SOL    HW121653   2.297   2.826   3.331
 6918SOL    HW221654   2.196   2.941   3.390
 6919SOL     OW21655   0.985   6.365   3.271
 6919SOL    HW121656   0.981   6.322   3.362
 6919SOL    HW221657   1.075   6.405   3.256
 6920SOL     OW21658   4.942   6.252   4.759
 6920SOL    HW121659   5.015   6.313   4.728
 6920SOL    HW221660   4.888   6.222   4.681
 6921SOL     OW21661   1.205   6.229   2.966
 6921SOL    HW121662   1.242   6.309   3.012
 6921SOL    HW221663   1.189   6.156   3.033
 6922SOL     OW21664   1.993   6.161   0.238
 6922SOL    HW121665   1.983   6.061   0.245
 6922SOL    HW221666   2.056   6.193   0.309
 6923SOL     OW21667   4.592   6.633   3.939
 6923SOL    HW121668   4.685   6.665   3.958
 6923SOL    HW221669   4.533   6.652   4.017
 6924SOL     OW21670   6.764   5.987   1.783
 6924SOL    HW121671   6.709   6.001   1.700
 6924SOL    HW221672   6.719   5.921   1.842
 6925SOL     OW21673   5.814   5.693   3.162
 6925SOL    HW121674   5.820   5.766   3.094
 6925SOL    HW221675   5.855   5.723   3.248
 6926SOL     OW21676   2.941   4.064   5.326
 6926SOL    HW121677   3.007   4.010   5.379
 6926SOL    HW221678   2.888   4.002   5.268
 6927SOL     OW21679   3.862   2.911   0.664
 6927SOL    HW121680   3.894   2.953   0.749
 6927SOL    HW221681   3.872   2.811   0.671
 6928SOL     OW21682   6.741   0.138   6.446
 6928SOL    HW121683   6.757   0.185   6.360
 6928SOL    HW221684   6.656   0.171   6.487
 6929SOL     OW21685   3.191   5.340   1.047
 6929SOL    HW121686   3.258   5.275   1.082
 6929SOL    HW221687   3.151   5.304   0.962
 6930SOL     OW21688   1.334   0.428   3.150
 6930SOL    HW121689   1.373   0.480   3.226
 6930SOL    HW221690   1.330   0.331   3.173
 6931SOL     OW21691   2.239   0.142   0.817
 6931SOL    HW121692   2.298   0.170   0.893
 6931SOL    HW221693   2.191   0.058   0.841
 6932SOL     OW21694   2.702   2.645   6.983
 6932SOL    HW121695   2.611   2.608   6.967
 6932SOL    HW221696   2.762   2.573   7.018
 6933SOL     OW21697   2.825   6.313   6.244
 6933SOL    HW121698   2.912   6.269   6.267
 6933SOL    HW221699   2.830   6.351   6.152
 6934SOL     OW21700   5.523   4.574   6.286
 6934SOL    HW121701   5.490   4.669   6.282
 6934SOL    HW221702   5.461   4.519   6.341
 6935SOL     OW21703   4.283   6.089   2.760
 6935SOL    HW121704   4.211   6.108   2.826
 6935SOL    HW221705   4.370   6.079   2.808
 6936SOL     OW21706   0.315   4.810   1.022
 6936SOL    HW121707   0.321   4.712   1.005
 6936SOL    HW221708   0.383   4.837   1.090
 6937SOL     OW21709   4.493   6.541   6.012
 6937SOL    HW121710   4.549   6.581   5.940
 6937SOL    HW221711   4.538   6.459   6.048
 6938SOL     OW21712   6.162   2.323   4.979
 6938SOL    HW121713   6.074   2.370   4.980
 6938SOL    HW221714   6.199   2.319   5.072
 6939SOL     OW21715   6.995   4.787   2.068
 6939SOL    HW121716   7.024   4.851   1.998
 6939SOL    HW221717   6.896   4.794   2.081
 6940SOL     OW21718   4.340   0.955   5.050
 6940SOL    HW121719   4.342   0.870   5.103
 6940SOL    HW221720   4.347   1.033   5.113
 6941SOL     OW21721   3.876   3.186   4.096
 6941SOL    HW121722   3.844   3.094   4.075
 6941SOL    HW221723   3.810   3.253   4.061
 6942SOL     OW21724   6.804   1.502   6.817
 6942SOL    HW121725   6.710   1.530   6.796
 6942SOL    HW221726   6.815   1.496   6.916
 6943SOL     OW21727   6.528   6.203   0.093
 6943SOL    HW121728   6.429   6.202   0.090
 6943SOL    HW221729   6.561   6.130   0.153
 6944SOL     OW21730   1.071   6.149   6.389
 6944SOL    HW121731   0.986   6.151   6.441
 6944SOL    HW221732   1.062   6.207   6.308
 6945SOL     OW21733   4.562   2.251   5.209
 6945SOL    HW121734   4.511   2.187   5.267
 6945SOL    HW221735   4.659   2.246   5.231
 6946SOL     OW21736   6.089   3.636   3.478
 6946SOL    HW121737   6.153   3.559   3.489
 6946SOL    HW221738   6.054   3.662   3.568
 6947SOL     OW21739   3.763   6.936   2.640
 6947SOL    HW121740   3.756   6.886   2.553
 6947SOL    HW221741   3.674   6.975   2.662
 6948SOL     OW21742   3.706   2.011   4.821
 6948SOL    HW121743   3.661   1.942   4.764
 6948SOL    HW221744   3.804   2.012   4.803
 6949SOL     OW21745   4.744   0.962   2.707
 6949SOL    HW121746   4.829   0.909   2.713
 6949SOL    HW221747   4.693   0.935   2.626
 6950SOL     OW21748   2.543   1.506   3.898
 6950SOL    HW121749   2.553   1.436   3.827
 6950SOL    HW221750   2.517   1.593   3.857
 6951SOL     OW21751   4.844   5.378   5.081
 6951SOL    HW121752   4.776   5.420   5.141
 6951SOL    HW221753   4.900   5.314   5.133
 6952SOL     OW21754   6.852   4.949   5.214
 6952SOL    HW121755   6.901   5.030   5.247
 6952SOL    HW221756   6.754   4.964   5.221
 6953SOL     OW21757   5.876   2.371   4.985
 6953SOL    HW121758   5.912   2.300   5.046
 6953SOL    HW221759   5.845   2.449   5.039
 6954SOL     OW21760   0.949   4.769   2.625
 6954SOL    HW121761   1.023   4.771   2.558
 6954SOL    HW221762   0.988   4.772   2.717
 6955SOL     OW21763   6.605   6.193   3.023
 6955SOL    HW121764   6.588   6.182   2.925
 6955SOL    HW221765   6.702   6.209   3.038
 6956SOL     OW21766   2.951   5.101   0.644
 6956SOL    HW121767   2.973   5.118   0.548
 6956SOL    HW221768   2.879   5.032   0.650
 6957SOL     OW21769   0.710   4.134   0.428
 6957SOL    HW121770   0.637   4.128   0.496
 6957SOL    HW221771   0.787   4.185   0.467
 6958SOL     OW21772   2.056   3.986   6.708
 6958SOL    HW121773   1.996   3.975   6.629
 6958SOL    HW221774   2.001   3.992   6.791
 6959SOL     OW21775   4.001   1.131   3.656
 6959SOL    HW121776   3.909   1.166   3.639
 6959SOL    HW221777   3.994   1.036   3.687
 6960SOL     OW21778   0.263   5.122   0.429
 6960SOL    HW121779   0.321   5.065   0.372
 6960SOL    HW221780   0.187   5.067   0.465
 6961SOL     OW21781   6.949   1.334   2.911
 6961SOL    HW121782   6.856   1.368   2.928
 6961SOL    HW221783   6.992   1.390   2.840
 6962SOL     OW21784   3.110   3.537   0.619
 6962SOL    HW121785   3.062   3.521   0.533
 6962SOL    HW221786   3.160   3.454   0.646
 6963SOL     OW21787   6.406   5.967   2.357
 6963SOL    HW121788   6.472   6.040   2.341
 6963SOL    HW221789   6.361   5.943   2.271
 6964SOL     OW21790   4.035   6.435   4.959
 6964SOL    HW121791   4.102   6.365   4.932
 6964SOL    HW221792   3.960   6.437   4.892
 6965SOL     OW21793   6.716   1.908   5.681
 6965SOL    HW121794   6.794   1.854   5.713
 6965SOL    HW221795   6.743   1.960   5.600
 6966SOL     OW21796   4.683   2.761   4.053
 6966SOL    HW121797   4.709   2.857   4.053
 6966SOL    HW221798   4.758   2.706   4.016
 6967SOL     OW21799   2.260   2.523   6.417
 6967SOL    HW121800   2.264   2.604   6.359
 6967SOL    HW221801   2.221   2.547   6.506
 6968SOL     OW21802   3.896   0.315   2.686
 6968SOL    HW121803   3.903   0.368   2.770
 6968SOL    HW221804   3.951   0.231   2.693
 6969SOL     OW21805   3.023   2.123   1.267
 6969SOL    HW121806   2.931   2.105   1.300
 6969SOL    HW221807   3.029   2.101   1.170
 6970SOL     OW21808   4.133   3.685   0.950
 6970SOL    HW121809   4.063   3.706   1.018
 6970SOL    HW221810   4.219   3.664   0.995
 6971SOL     OW21811   5.862   0.414   2.171
 6971SOL    HW121812   5.862   0.512   2.148
 6971SOL    HW221813   5.880   0.404   2.269
 6972SOL     OW21814   5.391   4.981   5.021
 6972SOL    HW121815   5.358   5.076   5.022
 6972SOL    HW221816   5.429   4.958   5.110
 6973SOL     OW21817   1.553   4.471   2.969
 6973SOL    HW121818   1.525   4.387   2.921
 6973SOL    HW221819   1.645   4.458   3.006
 6974SOL     OW21820   3.130   4.043   4.948
 6974SOL    HW121821   3.052   3.985   4.972
 6974SOL    HW221822   3.107   4.139   4.962
 6975SOL     OW21823   3.085   0.690   5.889
 6975SOL    HW121824   3.155   0.664   5.822
 6975SOL    HW221825   3.130   0.735   5.967
 6976SOL     OW21826   1.742   5.994   0.587
 6976SOL    HW121827   1.758   5.896   0.583
 6976SOL    HW221828   1.750   6.025   0.681
 6977SOL     OW21829   4.550   2.578   2.792
 6977SOL    HW121830   4.485   2.509   2.822
 6977SOL    HW221831   4.501   2.658   2.757
 6978SOL     OW21832   5.253   1.388   2.901
 6978SOL    HW121833   5.250   1.309   2.841
 6978SOL    HW221834   5.281   1.359   2.993
 6979SOL     OW21835   0.428   4.497   3.560
 6979SOL    HW121836   0.498   4.426   3.565
 6979SOL    HW221837   0.448   4.567   3.629
 6980SOL     OW21838   3.824   1.830   4.097
 6980SOL    HW121839   3.913   1.786   4.084
 6980SOL    HW221840   3.834   1.929   4.090
 6981SOL     OW21841   3.622   4.776   6.816
 6981SOL    HW121842   3.615   4.683   6.783
 6981SOL    HW221843   3.677   4.778   6.900
 6982SOL     OW21844   0.462   6.900   4.148
 6982SOL    HW121845   0.476   6.827   4.214
 6982SOL    HW221846   0.536   6.967   4.156
 6983SOL     OW21847   6.205   0.421   3.535
 6983SOL    HW121848   6.166   0.512   3.552
 6983SOL    HW221849   6.186   0.362   3.613
 6984SOL     OW21850   2.360   0.956   5.354
 6984SOL    HW121851   2.409   0.994   5.275
 6984SOL    HW221852   2.426   0.922   5.421
 6985SOL     OW21853   5.194   6.477   2.715
 6985SOL    HW121854   5.294   6.482   2.719
 6985SOL    HW221855   5.155   6.568   2.730
 6986SOL     OW21856   2.124   7.025   5.021
 6986SOL    HW121857   2.101   0.087   4.979
 6986SOL    HW221858   2.050   6.960   5.003
 6987SOL     OW21859   6.831   3.620   6.568
 6987SOL    HW121860   6.777   3.536   6.574
 6987SOL    HW221861   6.819   3.673   6.652
 6988SOL     OW21862   5.261   1.002   5.394
 6988SOL    HW121863   5.301   1.018   5.303
 6988SOL    HW221864   5.207   1.081   5.421
 6989SOL     OW21865   1.776   2.957   3.687
 6989SOL    HW121866   1.858   2.945   3.742
 6989SOL    HW221867   1.696   2.961   3.746
 6990SOL     OW21868   3.956   3.228   0.533
 6990SOL    HW121869   3.954   3.197   0.628
 6990SOL    HW221870   3.973   3.151   0.472
 6991SOL     OW21871   4.371   4.611   5.550
 6991SOL    HW121872   4.471   4.612   5.557
 6991SOL    HW221873   4.334   4.540   5.610
 6992SOL     OW21874   5.740   6.420   5.039
 6992SOL    HW121875   5.681   6.374   5.105
 6992SOL    HW221876   5.705   6.403   4.947
 6993SOL     OW21877   0.664   6.433   3.612
 6993SOL    HW121878   0.655   6.525   3.575
 6993SOL    HW221879   0.759   6.416   3.636
 6994SOL     OW21880   1.412   3.116   0.038
 6994SOL    HW121881   1.404   3.020   0.013
 6994SOL    HW221882   1.378   3.130   0.131
 6995SOL     OW21883   1.086   4.572   3.677
 6995SOL    HW121884   1.023   4.496   3.661
 6995SOL    HW221885   1.101   4.622   3.592
 6996SOL     OW21886   2.283   0.357   6.121
 6996SOL    HW121887   2.191   0.367   6.159
 6996SOL    HW221888   2.300   0.262   6.095
 6997SOL     OW21889   5.083   0.201   4.234
 6997SOL    HW121890   5.119   0.221   4.143
 6997SOL    HW221891   5.064   0.287   4.281
 6998SOL     OW21892   1.795   2.457   3.406
 6998SOL    HW121893   1.716   2.460   3.345
 6998SOL    HW221894   1.782   2.386   3.475
 6999SOL     OW21895   5.117   1.978   0.215
 6999SOL    HW121896   5.141   1.943   0.124
 6999SOL    HW221897   5.048   2.049   0.206
 7000SOL     OW21898   6.576   6.742   0.936
 7000SOL    HW121899   6.654   6.801   0.917
 7000SOL    HW221900   6.574   6.719   1.034
 7001SOL     OW21901   2.529   2.020   5.507
 7001SOL    HW121902   2.554   1.991   5.414
 7001SOL    HW221903   2.536   1.942   5.569
 7002SOL     OW21904   1.567   4.917   2.479
 7002SOL    HW121905   1.637   4.986   2.464
 7002SOL    HW221906   1.609   4.826   2.481
 7003SOL     OW21907   1.491   6.523   6.262
 7003SOL    HW121908   1.506   6.505   6.165
 7003SOL    HW221909   1.414   6.467   6.295
 7004SOL     OW21910   1.212   4.272   0.698
 7004SOL    HW121911   1.146   4.245   0.769
 7004SOL    HW221912   1.194   4.219   0.615
 7005SOL     OW21913   5.702   6.783   6.034
 7005SOL    HW121914   5.628   6.717   6.019
 7005SOL    HW221915   5.787   6.733   6.054
 7006SOL     OW21916   4.477   5.454   4.811
 7006SOL    HW121917   4.533   5.394   4.869
 7006SOL    HW221918   4.528   5.477   4.728
 7007SOL     OW21919   4.980   5.497   2.324
 7007SOL    HW121920   4.975   5.523   2.420
 7007SOL    HW221921   4.910   5.547   2.272
 7008SOL     OW21922   1.369   4.412   3.948
 7008SOL    HW121923   1.348   4.496   3.999
 7008SOL    HW221924   1.345   4.333   4.004
 7009SOL     OW21925   0.340   4.251   2.354
 7009SOL    HW121926   0.363   4.218   2.262
 7009SOL    HW221927   0.408   4.217   2.419
 7010SOL     OW21928   4.348   4.467   6.334
 7010SOL    HW121929   4.362   4.563   6.312
 7010SOL    HW221930   4.436   4.418   6.329
 7011SOL     OW21931   1.645   1.428   5.083
 7011SOL    HW121932   1.742   1.422   5.060
 7011SOL    HW221933   1.627   1.378   5.168
 7012SOL     OW21934   1.476   1.594   1.635
 7012SOL    HW121935   1.446   1.584   1.540
 7012SOL    HW221936   1.490   1.691   1.656
 7013SOL     OW21937   0.104   1.404   1.775
 7013SOL    HW121938   0.132   1.315   1.739
 7013SOL    HW221939   0.137   1.476   1.714
 7014SOL     OW21940   2.065   4.722   0.613
 7014SOL    HW121941   2.063   4.781   0.694
 7014SOL    HW221942   2.003   4.758   0.543
 7015SOL     OW21943   5.704   1.887   2.495
 7015SOL    HW121944   5.713   1.790   2.473
 7015SOL    HW221945   5.756   1.941   2.429
 7016SOL     OW21946   4.105   4.483   1.363
 7016SOL    HW121947   4.200   4.464   1.385
 7016SOL    HW221948   4.064   4.539   1.435
 7017SOL     OW21949   4.401   1.966   4.672
 7017SOL    HW121950   4.317   1.986   4.622
 7017SOL    HW221951   4.448   1.889   4.629
 7018SOL     OW21952   0.331   4.096   3.246
 7018SOL    HW121953   0.290   4.178   3.208
 7018SOL    HW221954   0.282   4.070   3.330
 7019SOL     OW21955   1.567   5.808   0.892
 7019SOL    HW121956   1.508   5.835   0.968
 7019SOL    HW221957   1.577   5.708   0.891
 7020SOL     OW21958   0.187   6.224   5.962
 7020SOL    HW121959   0.146   6.241   5.872
 7020SOL    HW221960   0.123   6.251   6.033
 7021SOL     OW21961   3.845   6.870   5.529
 7021SOL    HW121962   3.856   6.778   5.565
 7021SOL    HW221963   3.757   6.877   5.482
 7022SOL     OW21964   4.989   5.513   6.600
 7022SOL    HW121965   5.079   5.489   6.636
 7022SOL    HW221966   4.977   5.612   6.605
 7023SOL     OW21967   5.593   3.978   3.068
 7023SOL    HW121968   5.551   3.889   3.055
 7023SOL    HW221969   5.644   3.979   3.154
 7024SOL     OW21970   0.388   5.923   1.637
 7024SOL    HW121971   0.418   5.834   1.605
 7024SOL    HW221972   0.294   5.940   1.605
 7025SOL     OW21973   2.512   6.893   6.750
 7025SOL    HW121974   2.442   6.943   6.699
 7025SOL    HW221975   2.540   6.946   6.830
 7026SOL     OW21976   3.341   1.508   0.875
 7026SOL    HW121977   3.370   1.579   0.940
 7026SOL    HW221978   3.358   1.539   0.782
 7027SOL     OW21979   4.801   6.953   4.174
 7027SOL    HW121980   4.734   6.913   4.237
 7027SOL    HW221981   4.893   6.936   4.208
 7028SOL     OW21982   3.029   0.225   4.635
 7028SOL    HW121983   3.127   0.210   4.629
 7028SOL    HW221984   2.998   0.277   4.555
 7029SOL     OW21985   4.123   0.844   4.898
 7029SOL    HW121986   4.196   0.876   4.959
 7029SOL    HW221987   4.072   0.771   4.942
 7030SOL     OW21988   2.119   3.547   3.533
 7030SOL    HW121989   2.029   3.506   3.541
 7030SOL    HW221990   2.158   3.526   3.443
 7031SOL     OW21991   1.407   0.314   4.849
 7031SOL    HW121992   1.371   0.269   4.930
 7031SOL    HW221993   1.415   0.248   4.774
 7032SOL     OW21994   6.063   2.072   3.434
 7032SOL    HW121995   6.050   2.171   3.428
 7032SOL    HW221996   5.981   2.030   3.474
 7033SOL     OW21997   0.245   0.386   4.544
 7033SOL    HW121998   0.237   0.484   4.524
 7033SOL    HW221999   0.186   0.363   4.622
 7034SOL     OW22000   0.194   5.807   2.786
 7034SOL    HW122001   0.226   5.715   2.808
 7034SOL    HW222002   0.182   5.816   2.687
 7035SOL     OW22003   6.651   5.209   1.954
 7035SOL    HW122004   6.660   5.307   1.940
 7035SOL    HW222005   6.565   5.177   1.915
 7036SOL     OW22006   6.736   4.708   0.659
 7036SOL    HW122007   6.740   4.786   0.597
 7036SOL    HW222008   6.797   4.725   0.737
 7037SOL     OW22009   0.480   0.169   6.641
 7037SOL    HW122010   0.386   0.179   6.675
 7037SOL    HW222011   0.480   0.112   6.559
 7038SOL     OW22012   2.192   3.121   4.129
 7038SOL    HW122013   2.197   3.125   4.229
 7038SOL    HW222014   2.128   3.191   4.096
 7039SOL     OW22015   3.589   2.446   6.184
 7039SOL    HW122016   3.678   2.480   6.153
 7039SOL    HW222017   3.535   2.419   6.104
 7040SOL     OW22018   5.782   2.791   6.453
 7040SOL    HW122019   5.840   2.868   6.426
 7040SOL    HW222020   5.717   2.771   6.380
 7041SOL     OW22021   3.022   1.477   2.723
 7041SOL    HW122022   3.030   1.524   2.636
 7041SOL    HW222023   2.947   1.411   2.719
 7042SOL     OW22024   1.443   0.358   6.892
 7042SOL    HW122025   1.411   0.293   6.823
 7042SOL    HW222026   1.541   0.372   6.882
 7043SOL     OW22027   1.232   2.669   2.426
 7043SOL    HW122028   1.322   2.681   2.386
 7043SOL    HW222029   1.231   2.586   2.482
 7044SOL     OW22030   5.253   6.052   2.302
 7044SOL    HW122031   5.207   6.135   2.270
 7044SOL    HW222032   5.185   5.990   2.341
 7045SOL     OW22033   6.240   4.718   1.139
 7045SOL    HW122034   6.179   4.640   1.152
 7045SOL    HW222035   6.309   4.720   1.212
 7046SOL     OW22036   2.547   0.976   3.743
 7046SOL    HW122037   2.571   1.030   3.663
 7046SOL    HW222038   2.448   0.969   3.750
 7047SOL     OW22039   1.570   1.178   2.763
 7047SOL    HW122040   1.661   1.142   2.780
 7047SOL    HW222041   1.504   1.102   2.761
 7048SOL     OW22042   6.686   5.951   0.689
 7048SOL    HW122043   6.636   5.978   0.607
 7048SOL    HW222044   6.714   6.033   0.740
 7049SOL     OW22045   1.781   0.891   0.138
 7049SOL    HW122046   1.857   0.956   0.147
 7049SOL    HW222047   1.817   0.798   0.141
 7050SOL     OW22048   3.776   4.056   4.708
 7050SOL    HW122049   3.703   4.099   4.656
 7050SOL    HW222050   3.840   4.011   4.646
 7051SOL     OW22051   0.142   6.620   2.917
 7051SOL    HW122052   0.075   6.656   2.852
 7051SOL    HW222053   0.234   6.631   2.879
 7052SOL     OW22054   0.013   1.171   3.833
 7052SOL    HW122055   0.020   1.190   3.931
 7052SOL    HW222056   6.976   1.095   3.818
 7053SOL     OW22057   6.492   3.983   5.835
 7053SOL    HW122058   6.560   4.041   5.791
 7053SOL    HW222059   6.502   3.989   5.934
 7054SOL     OW22060   6.757   0.447   1.790
 7054SOL    HW122061   6.754   0.356   1.748
 7054SOL    HW222062   6.739   0.516   1.720
 7055SOL     OW22063   3.924   6.893   4.951
 7055SOL    HW122064   3.836   6.876   4.997
 7055SOL    HW222065   3.933   6.832   4.872
 7056SOL     OW22066   4.548   5.241   3.825
 7056SOL    HW122067   4.545   5.144   3.803
 7056SOL    HW222068   4.633   5.281   3.792
 7057SOL     OW22069   0.620   6.174   3.156
 7057SOL    HW122070   0.584   6.089   3.194
 7057SOL    HW222071   0.712   6.158   3.120
 7058SOL     OW22072   0.398   4.054   5.198
 7058SOL    HW122073   0.339   3.974   5.206
 7058SOL    HW222074   0.355   4.121   5.138
 7059SOL     OW22075   2.375   0.090   2.930
 7059SOL    HW122076   2.378   0.189   2.945
 7059SOL    HW222077   2.465   0.058   2.902
 7060SOL     OW22078   3.608   0.044   1.387
 7060SOL    HW122079   3.620   0.122   1.449
 7060SOL    HW222080   3.697   0.002   1.369
 7061SOL     OW22081   0.076   1.106   3.238
 7061SOL    HW122082   0.151   1.169   3.220
 7061SOL    HW222083   0.093   1.019   3.191
 7062SOL     OW22084   6.702   1.278   5.945
 7062SOL    HW122085   6.635   1.306   5.876
 7062SOL    HW222086   6.732   1.358   5.996
 7063SOL     OW22087   2.787   0.154   1.929
 7063SOL    HW122088   2.727   0.076   1.948
 7063SOL    HW222089   2.803   0.205   2.013
 7064SOL     OW22090   4.388   2.250   0.685
 7064SOL    HW122091   4.382   2.152   0.669
 7064SOL    HW222092   4.392   2.268   0.784
 7065SOL     OW22093   3.622   3.645   2.076
 7065SOL    HW122094   3.664   3.686   1.995
 7065SOL    HW222095   3.673   3.673   2.158
 7066SOL     OW22096   2.970   6.057   1.249
 7066SOL    HW122097   2.939   6.150   1.267
 7066SOL    HW222098   2.896   5.992   1.268
 7067SOL     OW22099   7.024   3.977   4.517
 7067SOL    HW122100   0.077   4.027   4.481
 7067SOL    HW222101   0.019   3.880   4.526
 7068SOL     OW22102   1.005   0.762   2.646
 7068SOL    HW122103   0.914   0.763   2.604
 7068SOL    HW222104   1.015   0.842   2.705
 7069SOL     OW22105   1.579   4.438   5.288
 7069SOL    HW122106   1.654   4.373   5.297
 7069SOL    HW222107   1.584   4.484   5.200
 7070SOL     OW22108   5.030   5.555   4.348
 7070SOL    HW122109   5.061   5.500   4.425
 7070SOL    HW222110   5.077   5.643   4.349
 7071SOL     OW22111   1.450   6.862   5.260
 7071SOL    HW122112   1.354   6.843   5.280
 7071SOL    HW222113   1.499   6.878   5.345
 7072SOL     OW22114   6.918   6.347   6.335
 7072SOL    HW122115   7.007   6.311   6.363
 7072SOL    HW222116   6.851   6.333   6.409
 7073SOL     OW22117   1.372   2.026   6.647
 7073SOL    HW122118   1.320   1.999   6.566
 7073SOL    HW222119   1.468   2.037   6.622
 7074SOL     OW22120   2.800   1.529   0.624
 7074SOL    HW122121   2.801   1.460   0.551
 7074SOL    HW222122   2.733   1.600   0.602
 7075SOL     OW22123   1.362   5.530   2.680
 7075SOL    HW122124   1.441   5.576   2.639
 7075SOL    HW222125   1.318   5.593   2.745
 7076SOL     OW22126   3.199   2.432   6.680
 7076SOL    HW122127   3.244   2.376   6.610
 7076SOL    HW222128   3.105   2.449   6.653
 7077SOL     OW22129   1.603   5.058   6.100
 7077SOL    HW122130   1.516   5.096   6.131
 7077SOL    HW222131   1.665   5.132   6.075
 7078SOL     OW22132   6.775   0.629   2.485
 7078SOL    HW122133   6.714   0.694   2.531
 7078SOL    HW222134   6.865   0.632   2.528
 7079SOL     OW22135   4.884   5.639   5.737
 7079SOL    HW122136   4.981   5.648   5.713
 7079SOL    HW222137   4.835   5.595   5.662
 7080SOL     OW22138   5.523   6.913   3.917
 7080SOL    HW122139   5.539   7.011   3.927
 7080SOL    HW222140   5.511   6.891   3.820
 7081SOL     OW22141   3.578   1.435   5.479
 7081SOL    HW122142   3.636   1.354   5.478
 7081SOL    HW222143   3.612   1.499   5.548
 7082SOL     OW22144   5.122   2.026   6.259
 7082SOL    HW122145   5.095   2.106   6.314
 7082SOL    HW222146   5.049   1.958   6.262
 7083SOL     OW22147   3.235   6.974   5.917
 7083SOL    HW122148   3.275   0.019   5.974
 7083SOL    HW222149   3.230   7.006   5.822
 7084SOL     OW22150   6.770   6.390   0.041
 7084SOL    HW122151   6.708   6.448   0.093
 7084SOL    HW222152   6.773   6.299   0.083
 7085SOL     OW22153   3.170   2.589   0.682
 7085SOL    HW122154   3.226   2.530   0.740
 7085SOL    HW222155   3.158   2.678   0.727
 7086SOL     OW22156   0.074   1.140   6.402
 7086SOL    HW122157   0.137   1.169   6.475
 7086SOL    HW222158   0.122   1.077   6.340
 7087SOL     OW22159   1.830   2.613   5.194
 7087SOL    HW122160   1.923   2.637   5.223
 7087SOL    HW222161   1.821   2.514   5.193
 7088SOL     OW22162   0.467   1.702   5.750
 7088SOL    HW122163   0.520   1.663   5.674
 7088SOL    HW222164   0.527   1.758   5.807
 7089SOL     OW22165   2.469   1.598   0.786
 7089SOL    HW122166   2.474   1.669   0.857
 7089SOL    HW222167   2.511   1.633   0.702
 7090SOL     OW22168   2.333   2.735   4.645
 7090SOL    HW122169   2.395   2.664   4.613
 7090SOL    HW222170   2.330   2.735   4.745
 7091SOL     OW22171   0.178   6.093   0.739
 7091SOL    HW122172   0.239   6.170   0.757
 7091SOL    HW222173   0.171   6.078   0.640
 7092SOL     OW22174   3.089   3.413   6.602
 7092SOL    HW122175   3.041   3.326   6.611
 7092SOL    HW222176   3.147   3.428   6.682
 7093SOL     OW22177   3.996   3.074   5.911
 7093SOL    HW122178   4.024   3.159   5.956
 7093SOL    HW222179   4.051   2.998   5.947
 7094SOL     OW22180   0.009   0.383   6.285
 7094SOL    HW122181   6.967   0.439   6.239
 7094SOL    HW222182   7.018   0.382   6.383
 7095SOL     OW22183   0.343   4.309   6.679
 7095SOL    HW122184   0.271   4.322   6.747
 7095SOL    HW222185   0.430   4.342   6.716
 7096SOL     OW22186   5.022   0.911   2.590
 7096SOL    HW122187   5.006   1.008   2.610
 7096SOL    HW222188   5.081   0.902   2.510
 7097SOL     OW22189   1.213   0.615   1.661
 7097SOL    HW122190   1.285   0.644   1.599
 7097SOL    HW222191   1.230   0.521   1.691
 7098SOL     OW22192   1.747   0.031   5.770
 7098SOL    HW122193   1.781   6.964   5.757
 7098SOL    HW222194   1.750   0.080   5.683
 7099SOL     OW22195   0.750   0.826   6.168
 7099SOL    HW122196   0.691   0.844   6.247
 7099SOL    HW222197   0.786   0.913   6.133
 7100SOL     OW22198   5.486   2.316   1.003
 7100SOL    HW122199   5.426   2.389   1.037
 7100SOL    HW222200   5.570   2.356   0.966
 7101SOL     OW22201   1.765   0.420   4.237
 7101SOL    HW122202   1.812   0.501   4.202
 7101SOL    HW222203   1.829   0.366   4.292
 7102SOL     OW22204   4.549   2.870   0.705
 7102SOL    HW122205   4.612   2.845   0.779
 7102SOL    HW222206   4.596   2.931   0.640
 7103SOL     OW22207   2.306   6.782   6.478
 7103SOL    HW122208   2.212   6.788   6.444
 7103SOL    HW222209   2.367   6.761   6.402
 7104SOL     OW22210   0.558   2.297   1.582
 7104SOL    HW122211   0.595   2.388   1.567
 7104SOL    HW222212   0.489   2.300   1.655
 7105SOL     OW22213   2.464   4.057   5.423
 7105SOL    HW122214   2.399   4.032   5.495
 7105SOL    HW222215   2.443   4.007   5.339
 7106SOL     OW22216   3.132   2.534   5.351
 7106SOL    HW122217   3.147   2.628   5.320
 7106SOL    HW222218   3.167   2.471   5.282
 7107SOL     OW22219   2.496   0.572   7.002
 7107SOL    HW122220   2.580   0.557   0.027
 7107SOL    HW222221   2.417   0.556   0.034
 7108SOL     OW22222   4.332   6.822   2.569
 7108SOL    HW122223   4.402   6.765   2.527
 7108SOL    HW222224   4.242   6.784   2.549
 7109SOL     OW22225   3.963   6.196   6.251
 7109SOL    HW122226   3.984   6.276   6.194
 7109SOL    HW222227   3.879   6.212   6.301
 7110SOL     OW22228   3.302   5.374   3.125
 7110SOL    HW122229   3.299   5.303   3.055
 7110SOL    HW222230   3.313   5.332   3.215
 7111SOL     OW22231   1.344   2.724   3.825
 7111SOL    HW122232   1.441   2.701   3.832
 7111SOL    HW222233   1.320   2.739   3.729
 7112SOL     OW22234   1.568   6.387   2.531
 7112SOL    HW122235   1.567   6.436   2.618
 7112SOL    HW222236   1.479   6.344   2.516
 7113SOL     OW22237   3.226   3.658   4.842
 7113SOL    HW122238   3.245   3.670   4.939
 7113SOL    HW222239   3.138   3.699   4.819
 7114SOL     OW22240   4.125   0.300   1.192
 7114SOL    HW122241   4.117   0.210   1.149
 7114SOL    HW222242   4.210   0.303   1.246
 7115SOL     OW22243   4.142   1.729   1.679
 7115SOL    HW122244   4.115   1.817   1.717
 7115SOL    HW222245   4.118   1.725   1.582
 7116SOL     OW22246   6.135   3.503   3.123
 7116SOL    HW122247   6.099   3.554   3.045
 7116SOL    HW222248   6.194   3.429   3.090
 7117SOL     OW22249   6.594   6.518   2.130
 7117SOL    HW122250   6.687   6.505   2.096
 7117SOL    HW222251   6.529   6.510   2.054
 7118SOL     OW22252   6.966   2.657   2.050
 7118SOL    HW122253   7.000   2.747   2.076
 7118SOL    HW222254   6.983   2.591   2.123
 7119SOL     OW22255   0.051   1.734   3.003
 7119SOL    HW122256   0.133   1.748   3.058
 7119SOL    HW222257   0.074   1.675   2.925
 7120SOL     OW22258   5.041   6.994   3.262
 7120SOL    HW122259   5.077   6.990   3.355
 7120SOL    HW222260   4.998   6.907   3.239
 7121SOL     OW22261   3.724   6.750   1.912
 7121SOL    HW122262   3.819   6.720   1.914
 7121SOL    HW222263   3.717   6.842   1.952
 7122SOL     OW22264   0.020   0.056   6.947
 7122SOL    HW122265   0.118   0.046   6.929
 7122SOL    HW222266   7.007   6.993   6.967
 7123SOL     OW22267   2.471   5.349   0.593
 7123SOL    HW122268   2.374   5.332   0.578
 7123SOL    HW222269   2.525   5.306   0.521
 7124SOL     OW22270   0.606   5.514   1.653
 7124SOL    HW122271   0.601   5.573   1.572
 7124SOL    HW222272   0.700   5.483   1.666
 7125SOL     OW22273   6.901   6.465   2.645
 7125SOL    HW122274   6.898   6.556   2.604
 7125SOL    HW222275   6.992   6.448   2.682
 7126SOL     OW22276   1.054   4.761   0.701
 7126SOL    HW122277   1.106   4.826   0.755
 7126SOL    HW222278   1.021   4.686   0.760
 7127SOL     OW22279   3.315   0.245   4.334
 7127SOL    HW122280   3.348   0.172   4.274
 7127SOL    HW222281   3.321   0.216   4.430
 7128SOL     OW22282   3.082   4.590   1.600
 7128SOL    HW122283   3.042   4.554   1.684
 7128SOL    HW222284   3.068   4.524   1.526
 7129SOL     OW22285   2.860   1.729   1.609
 7129SOL    HW122286   2.766   1.748   1.581
 7129SOL    HW222287   2.865   1.726   1.709
 7130SOL     OW22288   2.195   6.443   2.084
 7130SOL    HW122289   2.170   6.357   2.039
 7130SOL    HW222290   2.170   6.439   2.180
 7131SOL     OW22291   2.630   1.222   3.859
 7131SOL    HW122292   2.623   1.233   3.958
 7131SOL    HW222293   2.610   1.127   3.834
 7132SOL     OW22294   3.371   4.087   2.979
 7132SOL    HW122295   3.376   3.994   3.015
 7132SOL    HW222296   3.287   4.098   2.926
 7133SOL     OW22297   5.381   4.579   2.257
 7133SOL    HW122298   5.288   4.588   2.294
 7133SOL    HW222299   5.447   4.591   2.330
 7134SOL     OW22300   5.199   4.621   3.400
 7134SOL    HW122301   5.176   4.556   3.327
 7134SOL    HW222302   5.116   4.664   3.435
 7135SOL     OW22303   1.206   2.112   5.140
 7135SOL    HW122304   1.252   2.054   5.073
 7135SOL    HW222305   1.211   2.208   5.111
 7136SOL     OW22306   2.322   2.029   6.462
 7136SOL    HW122307   2.374   1.951   6.497
 7136SOL    HW222308   2.376   2.113   6.472
 7137SOL     OW22309   3.560   1.439   5.005
 7137SOL    HW122310   3.608   1.398   5.083
 7137SOL    HW222311   3.623   1.500   4.956
 7138SOL     OW22312   2.247   3.921   6.929
 7138SOL    HW122313   2.227   3.825   6.951
 7138SOL    HW222314   2.205   3.944   6.841
 7139SOL     OW22315   2.998   2.339   0.260
 7139SOL    HW122316   3.049   2.254   0.248
 7139SOL    HW222317   3.046   2.398   0.325
 7140SOL     OW22318   6.508   3.237   5.377
 7140SOL    HW122319   6.495   3.256   5.279
 7140SOL    HW222320   6.500   3.323   5.428
 7141SOL     OW22321   2.087   6.877   0.856
 7141SOL    HW122322   2.148   6.870   0.935
 7141SOL    HW222323   2.011   6.813   0.867
 7142SOL     OW22324   4.063   6.945   4.083
 7142SOL    HW122325   4.104   6.991   4.004
 7142SOL    HW222326   4.049   6.848   4.061
 7143SOL     OW22327   1.826   3.133   4.098
 7143SOL    HW122328   1.845   3.035   4.102
 7143SOL    HW222329   1.911   3.183   4.080
 7144SOL     OW22330   1.162   2.873   3.950
 7144SOL    HW122331   1.179   2.871   4.049
 7144SOL    HW222332   1.222   2.807   3.905
 7145SOL     OW22333   4.012   6.750   6.108
 7145SOL    HW122334   4.033   6.707   6.196
 7145SOL    HW222335   4.073   6.828   6.094
 7146SOL     OW22336   3.198   4.891   0.707
 7146SOL    HW122337   3.121   4.835   0.739
 7146SOL    HW222338   3.262   4.904   0.782
 7147SOL     OW22339   0.335   0.865   4.236
 7147SOL    HW122340   0.432   0.882   4.253
 7147SOL    HW222341   0.324   0.823   4.146
 7148SOL     OW22342   0.839   1.695   0.586
 7148SOL    HW122343   0.902   1.638   0.535
 7148SOL    HW222344   0.745   1.669   0.564
 7149SOL     OW22345   6.512   0.583   3.581
 7149SOL    HW122346   6.451   0.590   3.502
 7149SOL    HW222347   6.516   0.488   3.612
 7150SOL     OW22348   5.810   3.854   6.947
 7150SOL    HW122349   5.779   3.760   6.965
 7150SOL    HW222350   5.909   3.858   6.955
 7151SOL     OW22351   1.983   6.004   1.087
 7151SOL    HW122352   1.904   6.058   1.116
 7151SOL    HW222353   2.009   5.940   1.159
 7152SOL     OW22354   1.586   2.413   4.102
 7152SOL    HW122355   1.514   2.377   4.043
 7152SOL    HW222356   1.625   2.338   4.156
 7153SOL     OW22357   3.466   1.732   3.493
 7153SOL    HW122358   3.470   1.827   3.522
 7153SOL    HW222359   3.371   1.702   3.487
 7154SOL     OW22360   4.640   6.118   4.411
 7154SOL    HW122361   4.670   6.149   4.321
 7154SOL    HW222362   4.708   6.055   4.449
 7155SOL     OW22363   2.244   0.285   2.408
 7155SOL    HW122364   2.153   0.278   2.368
 7155SOL    HW222365   2.310   0.307   2.336
 7156SOL     OW22366   0.947   5.720   4.495
 7156SOL    HW122367   1.038   5.686   4.468
 7156SOL    HW222368   0.957   5.782   4.573
 7157SOL     OW22369   5.305   4.369   1.298
 7157SOL    HW122370   5.245   4.442   1.266
 7157SOL    HW222371   5.255   4.283   1.298
 7158SOL     OW22372   5.346   7.002   4.246
 7158SOL    HW122373   5.295   0.036   4.185
 7158SOL    HW222374   5.397   6.936   4.192
 7159SOL     OW22375   0.889   5.218   0.302
 7159SOL    HW122376   0.853   5.234   0.394
 7159SOL    HW222377   0.813   5.210   0.238
 7160SOL     OW22378   6.202   0.597   2.174
 7160SOL    HW122379   6.211   0.560   2.266
 7160SOL    HW222380   6.228   0.527   2.107
 7161SOL     OW22381   3.341   4.181   3.922
 7161SOL    HW122382   3.416   4.227   3.971
 7161SOL    HW222383   3.292   4.121   3.984
 7162SOL     OW22384   2.870   4.795   3.677
 7162SOL    HW122385   2.776   4.784   3.645
 7162SOL    HW222386   2.894   4.718   3.737
 7163SOL     OW22387   2.531   6.709   3.338
 7163SOL    HW122388   2.461   6.681   3.404
 7163SOL    HW222389   2.553   6.632   3.278
 7164SOL     OW22390   2.859   1.804   3.377
 7164SOL    HW122391   2.862   1.903   3.362
 7164SOL    HW222392   2.771   1.778   3.416
 7165SOL     OW22393   4.619   0.123   1.865
 7165SOL    HW122394   4.699   0.141   1.921
 7165SOL    HW222395   4.540   0.106   1.924
 7166SOL     OW22396   5.044   5.241   1.578
 7166SOL    HW122397   4.952   5.203   1.571
 7166SOL    HW222398   5.107   5.169   1.609
 7167SOL     OW22399   5.473   2.868   5.446
 7167SOL    HW122400   5.505   2.821   5.529
 7167SOL    HW222401   5.390   2.919   5.467
 7168SOL     OW22402   1.246   2.076   4.610
 7168SOL    HW122403   1.196   2.162   4.621
 7168SOL    HW222404   1.326   2.076   4.670
 7169SOL     OW22405   1.416   3.116   6.744
 7169SOL    HW122406   1.458   3.171   6.817
 7169SOL    HW222407   1.329   3.080   6.776
 7170SOL     OW22408   6.331   5.358   3.979
 7170SOL    HW122409   6.418   5.401   3.954
 7170SOL    HW222410   6.323   5.356   4.079
 7171SOL     OW22411   4.169   2.737   5.751
 7171SOL    HW122412   4.236   2.755   5.679
 7171SOL    HW222413   4.214   2.695   5.830
 7172SOL     OW22414   1.139   6.768   0.968
 7172SOL    HW122415   1.179   6.687   1.012
 7172SOL    HW222416   1.153   6.762   0.869
 7173SOL     OW22417   5.870   6.549   5.551
 7173SOL    HW122418   5.932   6.600   5.490
 7173SOL    HW222419   5.809   6.614   5.596
 7174SOL     OW22420   0.684   5.484   6.973
 7174SOL    HW122421   0.756   5.530   6.920
 7174SOL    HW222422   0.626   5.553   7.016
 7175SOL     OW22423   6.447   2.812   5.353
 7175SOL    HW122424   6.505   2.732   5.369
 7175SOL    HW222425   6.388   2.794   5.274
 7176SOL     OW22426   6.303   3.498   1.584
 7176SOL    HW122427   6.265   3.572   1.640
 7176SOL    HW222428   6.383   3.459   1.629
 7177SOL     OW22429   0.969   5.957   2.090
 7177SOL    HW122430   1.036   5.916   2.152
 7177SOL    HW222431   0.978   6.056   2.092
 7178SOL     OW22432   6.979   2.239   6.303
 7178SOL    HW122433   7.024   2.217   6.217
 7178SOL    HW222434   6.986   2.337   6.321
 7179SOL     OW22435   2.315   4.370   6.453
 7179SOL    HW122436   2.350   4.310   6.382
 7179SOL    HW222437   2.390   4.407   6.507
 7180SOL     OW22438   1.198   6.484   3.186
 7180SOL    HW122439   1.221   6.569   3.139
 7180SOL    HW222440   1.281   6.429   3.197
 7181SOL     OW22441   5.582   6.728   2.409
 7181SOL    HW122442   5.540   6.805   2.457
 7181SOL    HW222443   5.593   6.651   2.472
 7182SOL     OW22444   3.492   3.607   5.786
 7182SOL    HW122445   3.472   3.625   5.882
 7182SOL    HW222446   3.409   3.579   5.738
 7183SOL     OW22447   1.533   4.843   3.027
 7183SOL    HW122448   1.446   4.807   3.060
 7183SOL    HW222449   1.564   4.789   2.949
 7184SOL     OW22450   2.318   5.981   2.846
 7184SOL    HW122451   2.374   5.977   2.929
 7184SOL    HW222452   2.363   5.928   2.774
 7185SOL     OW22453   4.002   2.144   6.398
 7185SOL    HW122454   3.932   2.079   6.426
 7185SOL    HW222455   4.004   2.221   6.461
 7186SOL     OW22456   0.218   6.954   4.219
 7186SOL    HW122457   0.315   6.934   4.200
 7186SOL    HW222458   0.189   0.006   4.163
 7187SOL     OW22459   2.457   5.735   1.354
 7187SOL    HW122460   2.409   5.790   1.422
 7187SOL    HW222461   2.414   5.746   1.264
 7188SOL     OW22462   4.923   0.512   1.542
 7188SOL    HW122463   4.961   0.420   1.548
 7188SOL    HW222464   4.883   0.526   1.452
 7189SOL     OW22465   6.616   0.359   4.818
 7189SOL    HW122466   6.633   0.322   4.727
 7189SOL    HW222467   6.523   0.397   4.822
 7190SOL     OW22468   4.910   5.124   3.096
 7190SOL    HW122469   4.835   5.145   3.033
 7190SOL    HW222470   4.992   5.174   3.067
 7191SOL     OW22471   0.938   2.762   1.637
 7191SOL    HW122472   0.932   2.838   1.702
 7191SOL    HW222473   0.924   2.676   1.686
 7192SOL     OW22474   3.920   5.745   6.287
 7192SOL    HW122475   3.981   5.745   6.367
 7192SOL    HW222476   3.912   5.653   6.251
 7193SOL     OW22477   5.388   1.573   3.519
 7193SOL    HW122478   5.313   1.637   3.504
 7193SOL    HW222479   5.458   1.618   3.575
 7194SOL     OW22480   3.060   1.579   1.198
 7194SOL    HW122481   3.154   1.595   1.228
 7194SOL    HW222482   3.051   1.483   1.170
 7195SOL     OW22483   0.342   6.209   1.932
 7195SOL    HW122484   0.283   6.268   1.876
 7195SOL    HW222485   0.408   6.266   1.981
 7196SOL     OW22486   3.518   2.950   2.163
 7196SOL    HW122487   3.464   3.034   2.163
 7196SOL    HW222488   3.509   2.904   2.075
 7197SOL     OW22489   1.558   1.845   4.575
 7197SOL    HW122490   1.623   1.769   4.564
 7197SOL    HW222491   1.593   1.909   4.642
 7198SOL     OW22492   0.457   6.244   6.365
 7198SOL    HW122493   0.468   6.175   6.436
 7198SOL    HW222494   0.521   6.319   6.382
 7199SOL     OW22495   5.875   6.651   2.708
 7199SOL    HW122496   5.923   6.624   2.792
 7199SOL    HW222497   5.891   6.749   2.691
 7200SOL     OW22498   2.077   1.927   1.912
 7200SOL    HW122499   2.104   1.832   1.894
 7200SOL    HW222500   1.985   1.928   1.950
 7201SOL     OW22501   2.606   5.020   3.245
 7201SOL    HW122502   2.636   4.932   3.280
 7201SOL    HW222503   2.507   5.020   3.231
 7202SOL     OW22504   3.654   0.350   5.740
 7202SOL    HW122505   3.660   0.274   5.805
 7202SOL    HW222506   3.628   0.434   5.789
 7203SOL     OW22507   6.139   0.143   6.616
 7203SOL    HW122508   6.187   0.158   6.703
 7203SOL    HW222509   6.190   0.077   6.562
 7204SOL     OW22510   5.990   1.628   2.427
 7204SOL    HW122511   6.051   1.629   2.506
 7204SOL    HW222512   5.988   1.720   2.386
 7205SOL     OW22513   1.875   5.309   1.856
 7205SOL    HW122514   1.803   5.243   1.877
 7205SOL    HW222515   1.912   5.290   1.765
 7206SOL     OW22516   5.742   1.372   1.722
 7206SOL    HW122517   5.682   1.396   1.646
 7206SOL    HW222518   5.749   1.450   1.785
 7207SOL     OW22519   4.263   6.658   1.968
 7207SOL    HW122520   4.339   6.675   1.905
 7207SOL    HW222521   4.295   6.670   2.062
 7208SOL     OW22522   3.160   0.217   5.111
 7208SOL    HW122523   3.075   0.229   5.162
 7208SOL    HW222524   3.142   0.165   5.027
 7209SOL     OW22525   3.940   3.430   4.493
 7209SOL    HW122526   3.858   3.485   4.504
 7209SOL    HW222527   3.983   3.416   4.582
 7210SOL     OW22528   4.894   0.731   3.975
 7210SOL    HW122529   4.804   0.769   3.996
 7210SOL    HW222530   4.911   0.737   3.876
 7211SOL     OW22531   1.553   5.045   2.742
 7211SOL    HW122532   1.583   4.957   2.706
 7211SOL    HW222533   1.454   5.045   2.753
 7212SOL     OW22534   4.920   6.980   3.591
 7212SOL    HW122535   4.853   6.915   3.554
 7212SOL    HW222536   4.874   0.016   3.654
 7213SOL     OW22537   5.840   0.088   5.779
 7213SOL    HW122538   5.756   0.043   5.810
 7213SOL    HW222539   5.831   0.111   5.682
 7214SOL     OW22540   0.398   5.044   5.117
 7214SOL    HW122541   0.464   5.099   5.169
 7214SOL    HW222542   0.337   5.105   5.067
 7215SOL     OW22543   0.912   3.038   2.747
 7215SOL    HW122544   0.819   3.039   2.782
 7215SOL    HW222545   0.976   3.060   2.821
 7216SOL     OW22546   2.465   1.548   1.829
 7216SOL    HW122547   2.370   1.576   1.846
 7216SOL    HW222548   2.487   1.559   1.732
 7217SOL     OW22549   1.403   3.232   1.923
 7217SOL    HW122550   1.421   3.179   1.841
 7217SOL    HW222551   1.376   3.170   1.997
 7218SOL     OW22552   6.326   2.251   5.983
 7218SOL    HW122553   6.406   2.203   6.019
 7218SOL    HW222554   6.270   2.284   6.059
 7219SOL     OW22555   3.628   0.602   1.319
 7219SOL    HW122556   3.724   0.575   1.321
 7219SOL    HW222557   3.576   0.538   1.263
 7220SOL     OW22558   0.452   0.803   2.858
 7220SOL    HW122559   0.478   0.876   2.794
 7220SOL    HW222560   0.379   0.836   2.918
 7221SOL     OW22561   5.588   4.995   5.540
 7221SOL    HW122562   5.631   4.904   5.545
 7221SOL    HW222563   5.499   4.991   5.585
 7222SOL     OW22564   5.743   6.261   3.275
 7222SOL    HW122565   5.759   6.166   3.304
 7222SOL    HW222566   5.763   6.269   3.177
 7223SOL     OW22567   3.895   1.085   5.278
 7223SOL    HW122568   3.910   1.071   5.180
 7223SOL    HW222569   3.955   1.024   5.330
 7224SOL     OW22570   5.080   0.808   4.300
 7224SOL    HW122571   5.105   0.843   4.210
 7224SOL    HW222572   4.987   0.837   4.323
 7225SOL     OW22573   2.166   0.510   0.521
 7225SOL    HW122574   2.157   0.426   0.468
 7225SOL    HW222575   2.186   0.488   0.616
 7226SOL     OW22576   5.682   6.831   6.635
 7226SOL    HW122577   5.750   6.904   6.636
 7226SOL    HW222578   5.726   6.744   6.610
 7227SOL     OW22579   6.823   2.550   6.118
 7227SOL    HW122580   6.761   2.624   6.143
 7227SOL    HW222581   6.897   2.544   6.185
 7228SOL     OW22582   2.103   0.508   2.801
 7228SOL    HW122583   2.188   0.529   2.752
 7228SOL    HW222584   2.038   0.466   2.738
 7229SOL     OW22585   0.614   0.567   3.791
 7229SOL    HW122586   0.566   0.612   3.866
 7229SOL    HW222587   0.635   0.472   3.815
 7230SOL     OW22588   5.679   5.208   1.735
 7230SOL    HW122589   5.774   5.229   1.709
 7230SOL    HW222590   5.653   5.265   1.814
 7231SOL     OW22591   5.300   1.228   6.706
 7231SOL    HW122592   5.285   1.326   6.719
 7231SOL    HW222593   5.386   1.215   6.656
 7232SOL     OW22594   3.727   4.181   0.900
 7232SOL    HW122595   3.815   4.226   0.886
 7232SOL    HW222596   3.710   4.116   0.826
 7233SOL     OW22597   0.410   2.020   5.967
 7233SOL    HW122598   0.372   1.962   5.894
 7233SOL    HW222599   0.510   2.026   5.956
 7234SOL     OW22600   5.566   1.703   2.785
 7234SOL    HW122601   5.542   1.770   2.715
 7234SOL    HW222602   5.570   1.747   2.874
 7235SOL     OW22603   6.093   2.586   4.481
 7235SOL    HW122604   6.073   2.579   4.578
 7235SOL    HW222605   6.013   2.619   4.432
 7236SOL     OW22606   2.646   1.242   3.234
 7236SOL    HW122607   2.741   1.272   3.243
 7236SOL    HW222608   2.643   1.150   3.196
 7237SOL     OW22609   5.905   5.434   5.376
 7237SOL    HW122610   5.986   5.409   5.323
 7237SOL    HW222611   5.842   5.487   5.319
 7238SOL     OW22612   0.758   1.119   1.616
 7238SOL    HW122613   0.709   1.130   1.529
 7238SOL    HW222614   0.791   1.208   1.647
 7239SOL     OW22615   4.443   1.020   2.311
 7239SOL    HW122616   4.365   1.006   2.249
 7239SOL    HW222617   4.522   1.051   2.258
 7240SOL     OW22618   2.807   3.193   1.211
 7240SOL    HW122619   2.730   3.165   1.268
 7240SOL    HW222620   2.891   3.192   1.265
 7241SOL     OW22621   5.174   6.685   4.688
 7241SOL    HW122622   5.109   6.611   4.671
 7241SOL    HW222623   5.165   6.716   4.783
 7242SOL     OW22624   5.513   5.042   0.660
 7242SOL    HW122625   5.431   5.099   0.664
 7242SOL    HW222626   5.544   5.035   0.565
 7243SOL     OW22627   0.438   5.696   0.271
 7243SOL    HW122628   0.349   5.691   0.315
 7243SOL    HW222629   0.510   5.690   0.340
 7244SOL     OW22630   5.663   1.533   0.985
 7244SOL    HW122631   5.667   1.458   1.052
 7244SOL    HW222632   5.589   1.595   1.009
 7245SOL     OW22633   6.433   1.658   4.314
 7245SOL    HW122634   6.408   1.691   4.405
 7245SOL    HW222635   6.360   1.679   4.249
 7246SOL     OW22636   1.611   5.629   5.337
 7246SOL    HW122637   1.567   5.631   5.427
 7246SOL    HW222638   1.570   5.699   5.278
 7247SOL     OW22639   3.497   5.582   2.948
 7247SOL    HW122640   3.447   5.526   3.014
 7247SOL    HW222641   3.512   5.529   2.864
 7248SOL     OW22642   3.129   1.067   4.964
 7248SOL    HW122643   3.073   0.987   4.939
 7248SOL    HW222644   3.175   1.102   4.883
 7249SOL     OW22645   5.778   4.246   6.045
 7249SOL    HW122646   5.860   4.254   6.102
 7249SOL    HW222647   5.805   4.235   5.950
 7250SOL     OW22648   3.097   3.508   0.286
 7250SOL    HW122649   3.077   3.554   0.199
 7250SOL    HW222650   3.149   3.425   0.269
 7251SOL     OW22651   5.223   0.733   4.704
 7251SOL    HW122652   5.250   0.637   4.704
 7251SOL    HW222653   5.145   0.746   4.766
 7252SOL     OW22654   4.470   3.662   5.321
 7252SOL    HW122655   4.400   3.610   5.271
 7252SOL    HW222656   4.557   3.656   5.272
 7253SOL     OW22657   5.350   4.728   1.170
 7253SOL    HW122658   5.329   4.825   1.176
 7253SOL    HW222659   5.265   4.675   1.164
 7254SOL     OW22660   5.431   0.016   5.612
 7254SOL    HW122661   5.486   6.967   5.577
 7254SOL    HW222662   5.335   0.002   5.588
 7255SOL     OW22663   3.881   3.251   1.782
 7255SOL    HW122664   3.963   3.257   1.839
 7255SOL    HW222665   3.810   3.199   1.830
 7256SOL     OW22666   3.758   5.192   3.827
 7256SOL    HW122667   3.727   5.258   3.896
 7256SOL    HW222668   3.739   5.099   3.858
 7257SOL     OW22669   5.955   3.722   3.270
 7257SOL    HW122670   5.997   3.716   3.361
 7257SOL    HW222671   5.941   3.630   3.234
 7258SOL     OW22672   2.245   0.088   5.782
 7258SOL    HW122673   2.294   0.001   5.792
 7258SOL    HW222674   2.172   0.093   5.850
 7259SOL     OW22675   2.431   5.715   6.329
 7259SOL    HW122676   2.389   5.805   6.324
 7259SOL    HW222677   2.416   5.677   6.420
 7260SOL     OW22678   4.852   1.579   2.519
 7260SOL    HW122679   4.854   1.674   2.551
 7260SOL    HW222680   4.762   1.540   2.536
 7261SOL     OW22681   1.675   4.625   1.185
 7261SOL    HW122682   1.676   4.725   1.176
 7261SOL    HW222683   1.616   4.599   1.261
 7262SOL     OW22684   6.229   1.302   5.944
 7262SOL    HW122685   6.254   1.375   6.008
 7262SOL    HW222686   6.136   1.317   5.911
 7263SOL     OW22687   5.392   6.051   1.897
 7263SOL    HW122688   5.350   5.998   1.971
 7263SOL    HW222689   5.322   6.107   1.853
 7264SOL     OW22690   1.663   6.709   4.617
 7264SOL    HW122691   1.594   6.645   4.651
 7264SOL    HW222692   1.642   6.801   4.650
 7265SOL     OW22693   4.323   3.327   6.038
 7265SOL    HW122694   4.305   3.414   6.084
 7265SOL    HW222695   4.273   3.324   5.952
 7266SOL     OW22696   3.842   1.363   1.616
 7266SOL    HW122697   3.801   1.393   1.530
 7266SOL    HW222698   3.825   1.266   1.630
 7267SOL     OW22699   6.922   3.026   4.289
 7267SOL    HW122700   6.987   2.955   4.313
 7267SOL    HW222701   6.940   3.058   4.196
 7268SOL     OW22702   3.785   0.402   0.128
 7268SOL    HW122703   3.725   0.324   0.113
 7268SOL    HW222704   3.870   0.391   0.076
 7269SOL     OW22705   0.978   6.537   1.853
 7269SOL    HW122706   0.981   6.450   1.804
 7269SOL    HW222707   0.932   6.524   1.941
 7270SOL     OW22708   3.150   1.839   2.447
 7270SOL    HW122709   3.198   1.846   2.535
 7270SOL    HW222710   3.137   1.931   2.409
 7271SOL     OW22711   6.026   4.975   3.679
 7271SOL    HW122712   5.985   5.004   3.593
 7271SOL    HW222713   5.976   4.896   3.715
 7272SOL     OW22714   6.537   2.065   1.239
 7272SOL    HW122715   6.615   2.101   1.290
 7272SOL    HW222716   6.570   2.010   1.162
 7273SOL     OW22717   5.272   5.909   5.356
 7273SOL    HW122718   5.259   5.976   5.430
 7273SOL    HW222719   5.187   5.860   5.339
 7274SOL     OW22720   6.384   5.093   3.952
 7274SOL    HW122721   6.379   5.186   3.989
 7274SOL    HW222722   6.318   5.035   4.000
 7275SOL     OW22723   5.291   6.568   1.156
 7275SOL    HW122724   5.354   6.642   1.132
 7275SOL    HW222725   5.294   6.553   1.255
 7276SOL     OW22726   2.743   1.953   3.810
 7276SOL    HW122727   2.672   2.015   3.776
 7276SOL    HW222728   2.833   1.994   3.794
 7277SOL     OW22729   5.999   1.066   4.132
 7277SOL    HW122730   5.937   0.995   4.164
 7277SOL    HW222731   6.070   1.082   4.201
 7278SOL     OW22732   2.510   1.750   3.775
 7278SOL    HW122733   2.536   1.811   3.850
 7278SOL    HW222734   2.411   1.734   3.777
 7279SOL     OW22735   4.144   3.899   1.220
 7279SOL    HW122736   4.061   3.844   1.224
 7279SOL    HW222737   4.154   3.949   1.306
 7280SOL     OW22738   6.589   1.734   5.433
 7280SOL    HW122739   6.564   1.793   5.356
 7280SOL    HW222740   6.654   1.782   5.492
 7281SOL     OW22741   3.689   5.818   2.271
 7281SOL    HW122742   3.675   5.759   2.191
 7281SOL    HW222743   3.780   5.859   2.267
 7282SOL     OW22744   6.860   3.827   2.004
 7282SOL    HW122745   6.936   3.883   1.972
 7282SOL    HW222746   6.845   3.752   1.941
 7283SOL     OW22747   3.632   6.130   2.971
 7283SOL    HW122748   3.707   6.158   3.030
 7283SOL    HW222749   3.659   6.048   2.920
 7284SOL     OW22750   0.995   1.265   2.715
 7284SOL    HW122751   0.975   1.182   2.766
 7284SOL    HW222752   1.089   1.294   2.734
 7285SOL     OW22753   5.127   2.794   2.288
 7285SOL    HW122754   5.180   2.781   2.204
 7285SOL    HW222755   5.187   2.828   2.361
 7286SOL     OW22756   6.299   1.267   3.703
 7286SOL    HW122757   6.294   1.339   3.772
 7286SOL    HW222758   6.210   1.258   3.658
 7287SOL     OW22759   3.596   0.841   3.803
 7287SOL    HW122760   3.686   0.831   3.760
 7287SOL    HW222761   3.602   0.816   3.899
 7288SOL     OW22762   3.542   1.480   2.236
 7288SOL    HW122763   3.515   1.424   2.158
 7288SOL    HW222764   3.635   1.455   2.264
 7289SOL     OW22765   5.800   2.774   1.982
 7289SOL    HW122766   5.846   2.827   2.053
 7289SOL    HW222767   5.753   2.835   1.919
 7290SOL     OW22768   4.101   1.830   4.983
 7290SOL    HW122769   4.143   1.749   4.942
 7290SOL    HW222770   4.165   1.872   5.047
 7291SOL     OW22771   1.510   1.228   0.781
 7291SOL    HW122772   1.445   1.289   0.734
 7291SOL    HW222773   1.600   1.272   0.782
 7292SOL     OW22774   2.887   0.805   2.906
 7292SOL    HW122775   2.969   0.861   2.899
 7292SOL    HW222776   2.907   0.724   2.962
 7293SOL     OW22777   6.423   1.091   3.870
 7293SOL    HW122778   6.355   1.146   3.821
 7293SOL    HW222779   6.377   1.031   3.935
 7294SOL     OW22780   4.062   6.939   2.483
 7294SOL    HW122781   3.981   6.890   2.514
 7294SOL    HW222782   4.067   6.937   2.383
 7295SOL     OW22783   5.229   3.830   1.295
 7295SOL    HW122784   5.241   3.769   1.217
 7295SOL    HW222785   5.151   3.798   1.350
 7296SOL     OW22786   3.426   6.322   2.024
 7296SOL    HW122787   3.390   6.268   2.100
 7296SOL    HW222788   3.520   6.293   2.005
 7297SOL     OW22789   4.298   6.351   0.351
 7297SOL    HW122790   4.353   6.382   0.429
 7297SOL    HW222791   4.312   6.253   0.337
 7298SOL     OW22792   4.183   5.657   1.426
 7298SOL    HW122793   4.267   5.663   1.372
 7298SOL    HW222794   4.125   5.736   1.406
 7299SOL     OW22795   0.470   3.598   5.372
 7299SOL    HW122796   0.486   3.507   5.412
 7299SOL    HW222797   0.534   3.663   5.412
 7300SOL     OW22798   0.438   4.883   2.451
 7300SOL    HW122799   0.368   4.814   2.470
 7300SOL    HW222800   0.458   4.934   2.535
 7301SOL     OW22801   4.214   1.983   6.343
 7301SOL    HW122802   4.292   2.043   6.362
 7301SOL    HW222803   4.129   2.034   6.356
 7302SOL     OW22804   5.316   2.316   6.910
 7302SOL    HW122805   5.355   2.364   6.832
 7302SOL    HW222806   5.389   2.290   6.973
 7303SOL     OW22807   3.254   2.050   1.624
 7303SOL    HW122808   3.344   2.077   1.657
 7303SOL    HW222809   3.264   1.983   1.551
 7304SOL     OW22810   2.155   6.136   0.455
 7304SOL    HW122811   2.228   6.067   0.456
 7304SOL    HW222812   2.189   6.221   0.494
 7305SOL     OW22813   6.195   0.345   6.442
 7305SOL    HW122814   6.160   0.287   6.516
 7305SOL    HW222815   6.127   0.352   6.370
 7306SOL     OW22816   1.086   3.010   1.197
 7306SOL    HW122817   1.107   3.062   1.114
 7306SOL    HW222818   1.070   3.072   1.273
 7307SOL     OW22819   2.317   0.562   2.179
 7307SOL    HW122820   2.380   0.494   2.218
 7307SOL    HW222821   2.353   0.595   2.092
 7308SOL     OW22822   3.356   0.990   3.449
 7308SOL    HW122823   3.391   0.901   3.480
 7308SOL    HW222824   3.390   1.062   3.510
 7309SOL     OW22825   1.961   5.458   3.897
 7309SOL    HW122826   1.874   5.470   3.944
 7309SOL    HW222827   2.031   5.516   3.940
 7310SOL     OW22828   2.618   2.907   6.915
 7310SOL    HW122829   2.544   2.928   6.979
 7310SOL    HW222830   2.638   2.809   6.918
 7311SOL     OW22831   0.366   5.898   6.001
 7311SOL    HW122832   0.409   5.840   6.070
 7311SOL    HW222833   0.371   5.994   6.031
 7312SOL     OW22834   6.211   2.138   4.465
 7312SOL    HW122835   6.292   2.152   4.523
 7312SOL    HW222836   6.148   2.075   4.511
 7313SOL     OW22837   3.143   0.910   2.892
 7313SOL    HW122838   3.143   0.988   2.954
 7313SOL    HW222839   3.149   0.941   2.797
 7314SOL     OW22840   2.003   5.180   5.895
 7314SOL    HW122841   2.089   5.166   5.944
 7314SOL    HW222842   1.979   5.096   5.845
 7315SOL     OW22843   3.411   4.899   2.336
 7315SOL    HW122844   3.434   4.928   2.243
 7315SOL    HW222845   3.312   4.906   2.350
 7316SOL     OW22846   3.428   1.322   1.578
 7316SOL    HW122847   3.331   1.347   1.573
 7316SOL    HW222848   3.454   1.314   1.675
 7317SOL     OW22849   4.631   2.094   0.859
 7317SOL    HW122850   4.674   2.097   0.769
 7317SOL    HW222851   4.583   2.006   0.870
 7318SOL     OW22852   5.276   0.370   0.497
 7318SOL    HW122853   5.360   0.354   0.550
 7318SOL    HW222854   5.258   0.291   0.439
 7319SOL     OW22855   5.254   6.303   6.630
 7319SOL    HW122856   5.193   6.356   6.571
 7319SOL    HW222857   5.333   6.359   6.656
 7320SOL     OW22858   0.593   2.982   0.378
 7320SOL    HW122859   0.533   2.947   0.307
 7320SOL    HW222860   0.557   3.068   0.414
 7321SOL     OW22861   2.151   2.275   6.078
 7321SOL    HW122862   2.136   2.353   6.017
 7321SOL    HW222863   2.232   2.292   6.135
 7322SOL     OW22864   1.188   2.490   3.844
 7322SOL    HW122865   1.140   2.432   3.778
 7322SOL    HW222866   1.255   2.546   3.796
 7323SOL     OW22867   1.295   2.215   0.785
 7323SOL    HW122868   1.271   2.278   0.711
 7323SOL    HW222869   1.235   2.231   0.863
 7324SOL     OW22870   4.936   3.809   4.187
 7324SOL    HW122871   5.036   3.807   4.189
 7324SOL    HW222872   4.905   3.847   4.100
 7325SOL     OW22873   3.476   1.668   6.151
 7325SOL    HW122874   3.392   1.690   6.101
 7325SOL    HW222875   3.553   1.715   6.108
 7326SOL     OW22876   4.138   6.835   0.418
 7326SOL    HW122877   4.043   6.829   0.388
 7326SOL    HW222878   4.195   6.868   0.343
 7327SOL     OW22879   1.829   4.245   3.485
 7327SOL    HW122880   1.927   4.234   3.501
 7327SOL    HW222881   1.808   4.341   3.469
 7328SOL     OW22882   4.716   5.151   6.020
 7328SOL    HW122883   4.697   5.201   6.104
 7328SOL    HW222884   4.751   5.215   5.951
 7329SOL     OW22885   2.819   3.744   0.964
 7329SOL    HW122886   2.875   3.742   0.881
 7329SOL    HW222887   2.724   3.723   0.940
 7330SOL     OW22888   2.651   2.944   0.590
 7330SOL    HW122889   2.683   2.867   0.645
 7330SOL    HW222890   2.587   2.999   0.643
 7331SOL     OW22891   5.106   2.028   2.634
 7331SOL    HW122892   5.161   2.024   2.550
 7331SOL    HW222893   5.128   2.111   2.684
 7332SOL     OW22894   2.740   6.585   5.719
 7332SOL    HW122895   2.760   6.641   5.639
 7332SOL    HW222896   2.788   6.498   5.711
 7333SOL     OW22897   6.727   0.763   1.303
 7333SOL    HW122898   6.777   0.677   1.315
 7333SOL    HW222899   6.629   0.744   1.297
 7334SOL     OW22900   1.705   4.678   4.696
 7334SOL    HW122901   1.611   4.692   4.664
 7334SOL    HW222902   1.736   4.586   4.671
 7335SOL     OW22903   0.716   3.667   2.342
 7335SOL    HW122904   0.625   3.659   2.300
 7335SOL    HW222905   0.706   3.702   2.435
 7336SOL     OW22906   2.860   6.799   1.142
 7336SOL    HW122907   2.916   6.806   1.224
 7336SOL    HW222908   2.888   6.720   1.088
 7337SOL     OW22909   3.601   1.247   3.878
 7337SOL    HW122910   3.523   1.187   3.862
 7337SOL    HW222911   3.573   1.342   3.866
 7338SOL     OW22912   5.093   3.868   0.918
 7338SOL    HW122913   5.170   3.805   0.923
 7338SOL    HW222914   5.125   3.962   0.931
 7339SOL     OW22915   0.395   5.962   4.637
 7339SOL    HW122916   0.422   5.902   4.712
 7339SOL    HW222917   0.474   5.981   4.579
 7340SOL     OW22918   2.506   6.139   0.035
 7340SOL    HW122919   2.582   6.080   0.008
 7340SOL    HW222920   2.424   6.114   7.010
 7341SOL     OW22921   6.379   5.594   4.255
 7341SOL    HW122922   6.445   5.618   4.326
 7341SOL    HW222923   6.381   5.495   4.240
 7342SOL     OW22924   0.845   5.150   0.968
 7342SOL    HW122925   0.899   5.110   1.041
 7342SOL    HW222926   0.897   5.222   0.922
 7343SOL     OW22927   6.200   2.483   3.079
 7343SOL    HW122928   6.188   2.529   2.991
 7343SOL    HW222929   6.223   2.387   3.063
 7344SOL     OW22930   2.137   1.205   6.695
 7344SOL    HW122931   2.221   1.182   6.645
 7344SOL    HW222932   2.062   1.217   6.629
 7345SOL     OW22933   2.314   6.732   0.233
 7345SOL    HW122934   2.402   6.732   0.281
 7345SOL    HW222935   2.240   6.726   0.300
 7346SOL     OW22936   3.949   4.907   2.281
 7346SOL    HW122937   3.976   4.882   2.374
 7346SOL    HW222938   3.991   4.995   2.257
 7347SOL     OW22939   6.516   2.765   2.589
 7347SOL    HW122940   6.547   2.856   2.562
 7347SOL    HW222941   6.563   2.695   2.535
 7348SOL     OW22942   6.935   1.205   5.311
 7348SOL    HW122943   6.889   1.142   5.373
 7348SOL    HW222944   0.002   1.173   5.294
 7349SOL     OW22945   3.835   1.543   0.936
 7349SOL    HW122946   3.803   1.637   0.927
 7349SOL    HW222947   3.791   1.501   1.016
 7350SOL     OW22948   2.229   1.240   3.157
 7350SOL    HW122949   2.233   1.141   3.146
 7350SOL    HW222950   2.166   1.264   3.231
 7351SOL     OW22951   4.313   5.221   0.615
 7351SOL    HW122952   4.254   5.300   0.629
 7351SOL    HW222953   4.377   5.212   0.691
 7352SOL     OW22954   6.558   0.523   3.181
 7352SOL    HW122955   6.520   0.439   3.142
 7352SOL    HW222956   6.632   0.499   3.244
 7353SOL     OW22957   5.428   1.747   4.588
 7353SOL    HW122958   5.465   1.666   4.634
 7353SOL    HW222959   5.453   1.829   4.640
 7354SOL     OW22960   6.421   4.200   4.473
 7354SOL    HW122961   6.506   4.153   4.450
 7354SOL    HW222962   6.438   4.298   4.484
 7355SOL     OW22963   0.761   5.529   0.916
 7355SOL    HW122964   0.780   5.580   0.832
 7355SOL    HW222965   0.681   5.471   0.901
 7356SOL     OW22966   6.969   2.075   5.802
 7356SOL    HW122967   0.035   2.080   5.763
 7356SOL    HW222968   6.942   2.165   5.836
 7357SOL     OW22969   0.799   1.575   0.016
 7357SOL    HW122970   0.766   1.498   6.987
 7357SOL    HW222971   0.899   1.578   0.012
 7358SOL     OW22972   3.624   0.769   4.070
 7358SOL    HW122973   3.710   0.743   4.113
 7358SOL    HW222974   3.569   0.687   4.054
 7359SOL     OW22975   3.732   3.041   3.310
 7359SOL    HW122976   3.678   3.013   3.230
 7359SOL    HW222977   3.671   3.055   3.388
 7360SOL     OW22978   0.047   4.082   6.021
 7360SOL    HW122979   0.074   4.172   6.056
 7360SOL    HW222980   0.123   4.018   6.034
 7361SOL     OW22981   4.849   6.474   1.738
 7361SOL    HW122982   4.924   6.425   1.693
 7361SOL    HW222983   4.884   6.519   1.820
 7362SOL     OW22984   1.633   6.429   5.981
 7362SOL    HW122985   1.593   6.359   5.922
 7362SOL    HW222986   1.694   6.386   6.047
 7363SOL     OW22987   4.688   2.705   6.540
 7363SOL    HW122988   4.669   2.804   6.539
 7363SOL    HW222989   4.666   2.668   6.630
 7364SOL     OW22990   4.554   1.164   1.176
 7364SOL    HW122991   4.535   1.187   1.271
 7364SOL    HW222992   4.553   1.065   1.164
 7365SOL     OW22993   3.618   0.798   1.880
 7365SOL    HW122994   3.694   0.787   1.815
 7365SOL    HW222995   3.532   0.774   1.836
 7366SOL     OW22996   0.891   6.905   0.017
 7366SOL    HW122997   0.943   6.877   0.098
 7366SOL    HW222998   0.804   6.946   0.045
 7367SOL     OW22999   4.615   2.882   6.939
 7367SOL    HW123000   4.674   2.886   7.019
 7367SOL    HW223001   4.606   2.973   6.899
 7368SOL     OW23002   3.356   2.921   3.681
 7368SOL    HW123003   3.267   2.966   3.693
 7368SOL    HW223004   3.342   2.822   3.671
 7369SOL     OW23005   4.894   1.789   6.186
 7369SOL    HW123006   4.796   1.784   6.166
 7369SOL    HW223007   4.936   1.699   6.171
 7370SOL     OW23008   1.016   5.505   1.067
 7370SOL    HW123009   1.044   5.599   1.086
 7370SOL    HW223010   0.923   5.504   1.029
 7371SOL     OW23011   1.740   4.976   4.618
 7371SOL    HW123012   1.741   4.921   4.701
 7371SOL    HW223013   1.825   5.029   4.611
 7372SOL     OW23014   3.141   6.477   5.289
 7372SOL    HW123015   3.168   6.494   5.384
 7372SOL    HW223016   3.081   6.397   5.285
 7373SOL     OW23017   3.644   0.288   0.756
 7373SOL    HW123018   3.680   0.305   0.847
 7373SOL    HW223019   3.591   0.368   0.726
 7374SOL     OW23020   2.369   3.100   6.483
 7374SOL    HW123021   2.284   3.153   6.487
 7374SOL    HW223022   2.391   3.065   6.574
 7375SOL     OW23023   2.577   6.484   3.182
 7375SOL    HW123024   2.668   6.495   3.142
 7375SOL    HW223025   2.538   6.397   3.151
 7376SOL     OW23026   3.635   4.231   6.449
 7376SOL    HW123027   3.642   4.268   6.542
 7376SOL    HW223028   3.557   4.168   6.445
 7377SOL     OW23029   6.049   5.700   1.901
 7377SOL    HW123030   5.970   5.762   1.898
 7377SOL    HW223031   6.017   5.605   1.900
 7378SOL     OW23032   0.230   2.691   5.933
 7378SOL    HW123033   0.197   2.664   5.842
 7378SOL    HW223034   0.180   2.640   6.003
 7379SOL     OW23035   3.860   1.190   1.224
 7379SOL    HW123036   3.952   1.151   1.224
 7379SOL    HW223037   3.808   1.151   1.300
 7380SOL     OW23038   6.579   2.584   5.406
 7380SOL    HW123039   6.679   2.585   5.412
 7380SOL    HW223040   6.541   2.548   5.491
 7381SOL     OW23041   4.567   2.560   0.097
 7381SOL    HW123042   4.596   2.610   0.178
 7381SOL    HW223043   4.647   2.525   0.048
 7382SOL     OW23044   1.112   5.375   3.644
 7382SOL    HW123045   1.172   5.371   3.564
 7382SOL    HW223046   1.149   5.440   3.710
 7383SOL     OW23047   0.502   5.017   3.085
 7383SOL    HW123048   0.474   4.991   3.177
 7383SOL    HW223049   0.488   4.940   3.023
 7384SOL     OW23050   6.486   1.764   1.550
 7384SOL    HW123051   6.547   1.757   1.629
 7384SOL    HW223052   6.538   1.744   1.466
 7385SOL     OW23053   5.132   0.704   1.606
 7385SOL    HW123054   5.146   0.779   1.670
 7385SOL    HW223055   5.042   0.662   1.622
 7386SOL     OW23056   0.149   2.670   5.674
 7386SOL    HW123057   0.097   2.587   5.653
 7386SOL    HW223058   0.146   2.731   5.595
 7387SOL     OW23059   5.403   6.256   4.295
 7387SOL    HW123060   5.396   6.320   4.219
 7387SOL    HW223061   5.422   6.307   4.379
 7388SOL     OW23062   5.459   4.213   5.099
 7388SOL    HW123063   5.397   4.163   5.038
 7388SOL    HW223064   5.553   4.185   5.082
 7389SOL     OW23065   0.490   4.049   4.343
 7389SOL    HW123066   0.563   3.982   4.354
 7389SOL    HW223067   0.520   4.138   4.379
 7390SOL     OW23068   3.329   0.294   6.301
 7390SOL    HW123069   3.276   0.267   6.381
 7390SOL    HW223070   3.297   0.384   6.269
 7391SOL     OW23071   6.674   4.587   0.397
 7391SOL    HW123072   6.666   4.598   0.496
 7391SOL    HW223073   6.698   4.676   0.357
 7392SOL     OW23074   2.101   4.374   2.738
 7392SOL    HW123075   2.160   4.405   2.812
 7392SOL    HW223076   2.006   4.374   2.769
 7393SOL     OW23077   0.517   3.884   0.106
 7393SOL    HW123078   0.593   3.909   0.166
 7393SOL    HW223079   0.455   3.962   0.097
 7394SOL     OW23080   2.637   2.489   6.394
 7394SOL    HW123081   2.577   2.410   6.406
 7394SOL    HW223082   2.696   2.475   6.315
 7395SOL     OW23083   2.029   6.847   0.181
 7395SOL    HW123084   2.055   6.760   0.139
 7395SOL    HW223085   2.039   6.921   0.115
 7396SOL     OW23086   7.021   6.964   1.794
 7396SOL    HW123087   0.089   6.993   1.785
 7396SOL    HW223088   6.960   0.012   1.768
 7397SOL     OW23089   6.463   4.480   4.534
 7397SOL    HW123090   6.371   4.487   4.571
 7397SOL    HW223091   6.529   4.485   4.609
 7398SOL     OW23092   4.589   6.895   2.857
 7398SOL    HW123093   4.499   6.939   2.861
 7398SOL    HW223094   4.657   6.952   2.903
 7399SOL     OW23095   5.439   4.560   4.753
 7399SOL    HW123096   5.466   4.569   4.658
 7399SOL    HW223097   5.516   4.528   4.808
 7400SOL     OW23098   2.812   4.136   0.409
 7400SOL    HW123099   2.722   4.176   0.391
 7400SOL    HW223100   2.883   4.198   0.374
 7401SOL     OW23101   6.020   1.896   5.305
 7401SOL    HW123102   5.932   1.934   5.331
 7401SOL    HW223103   6.016   1.796   5.308
 7402SOL     OW23104   2.741   6.404   4.439
 7402SOL    HW123105   2.677   6.344   4.487
 7402SOL    HW223106   2.812   6.349   4.396
 7403SOL     OW23107   2.642   2.810   1.273
 7403SOL    HW123108   2.624   2.816   1.175
 7403SOL    HW223109   2.648   2.713   1.300
 7404SOL     OW23110   1.166   2.171   2.668
 7404SOL    HW123111   1.174   2.176   2.768
 7404SOL    HW223112   1.161   2.075   2.640
 7405SOL     OW23113   4.022   5.171   6.544
 7405SOL    HW123114   3.946   5.145   6.484
 7405SOL    HW223115   4.030   5.103   6.617
 7406SOL     OW23116   0.524   6.362   2.050
 7406SOL    HW123117   0.581   6.282   2.071
 7406SOL    HW223118   0.517   6.420   2.131
 7407SOL     OW23119   2.572   0.737   5.853
 7407SOL    HW123120   2.667   0.732   5.885
 7407SOL    HW223121   2.516   0.674   5.906
 7408SOL     OW23122   0.593   3.746   5.086
 7408SOL    HW123123   0.635   3.800   5.159
 7408SOL    HW223124   0.617   3.650   5.098
 7409SOL     OW23125   2.510   6.608   5.379
 7409SOL    HW123126   2.504   6.705   5.401
 7409SOL    HW223127   2.457   6.589   5.296
 7410SOL     OW23128   5.108   4.924   6.597
 7410SOL    HW123129   5.155   5.009   6.575
 7410SOL    HW223130   5.071   4.883   6.514
 7411SOL     OW23131   4.993   5.031   5.988
 7411SOL    HW123132   5.039   5.062   5.905
 7411SOL    HW223133   4.910   5.085   6.002
 7412SOL     OW23134   1.470   1.026   6.722
 7412SOL    HW123135   1.388   1.081   6.741
 7412SOL    HW223136   1.531   1.029   6.801
 7413SOL     OW23137   0.027   3.666   4.132
 7413SOL    HW123138   0.029   3.631   4.038
 7413SOL    HW223139   0.108   3.723   4.148
 7414SOL     OW23140   0.255   5.307   2.671
 7414SOL    HW123141   0.277   5.247   2.594
 7414SOL    HW223142   0.308   5.279   2.751
 7415SOL     OW23143   2.943   1.694   3.621
 7415SOL    HW123144   2.883   1.683   3.700
 7415SOL    HW223145   2.904   1.761   3.558
 7416SOL     OW23146   5.892   0.196   3.203
 7416SOL    HW123147   5.815   0.259   3.218
 7416SOL    HW223148   5.949   0.194   3.285
 7417SOL     OW23149   0.913   5.662   0.703
 7417SOL    HW123150   0.930   5.620   0.614
 7417SOL    HW223151   0.907   5.761   0.693
 7418SOL     OW23152   0.793   3.921   0.738
 7418SOL    HW123153   0.782   3.840   0.796
 7418SOL    HW223154   0.865   3.904   0.671
 7419SOL     OW23155   5.592   1.749   5.656
 7419SOL    HW123156   5.551   1.810   5.589
 7419SOL    HW223157   5.594   1.655   5.621
 7420SOL     OW23158   6.729   5.814   2.553
 7420SOL    HW123159   6.714   5.912   2.568
 7420SOL    HW223160   6.644   5.771   2.523
 7421SOL     OW23161   3.972   2.257   1.191
 7421SOL    HW123162   4.039   2.325   1.160
 7421SOL    HW223163   3.962   2.263   1.290
 7422SOL     OW23164   0.778   1.947   0.767
 7422SOL    HW123165   0.816   2.013   0.832
 7422SOL    HW223166   0.852   1.893   0.728
 7423SOL     OW23167   2.642   4.775   6.791
 7423SOL    HW123168   2.632   4.854   6.731
 7423SOL    HW223169   2.555   4.727   6.797
 7424SOL     OW23170   5.378   0.486   4.669
 7424SOL    HW123171   5.377   0.458   4.573
 7424SOL    HW223172   5.382   0.405   4.728
 7425SOL     OW23173   3.975   0.610   4.938
 7425SOL    HW123174   3.973   0.548   5.016
 7425SOL    HW223175   3.904   0.584   4.872
 7426SOL     OW23176   0.290   1.817   0.176
 7426SOL    HW123177   0.236   1.901   0.167
 7426SOL    HW223178   0.375   1.837   0.226
 7427SOL     OW23179   4.842   5.807   4.963
 7427SOL    HW123180   4.877   5.900   4.963
 7427SOL    HW223181   4.899   5.750   4.904
 7428SOL     OW23182   3.049   1.437   5.739
 7428SOL    HW123183   3.123   1.371   5.723
 7428SOL    HW223184   3.018   1.474   5.652
 7429SOL     OW23185   6.367   6.596   3.923
 7429SOL    HW123186   6.454   6.568   3.883
 7429SOL    HW223187   6.366   6.695   3.936
 7430SOL     OW23188   0.222   4.549   4.794
 7430SOL    HW123189   0.222   4.531   4.696
 7430SOL    HW223190   0.258   4.641   4.811
 7431SOL     OW23191   0.603   4.032   2.263
 7431SOL    HW123192   0.681   4.036   2.325
 7431SOL    HW223193   0.585   4.123   2.225
 7432SOL     OW23194   1.459   6.557   4.717
 7432SOL    HW123195   1.400   6.476   4.719
 7432SOL    HW223196   1.431   6.620   4.789
 7433SOL     OW23197   0.205   6.413   1.062
 7433SOL    HW123198   0.245   6.323   1.049
 7433SOL    HW223199   0.198   6.460   0.974
 7434SOL     OW23200   4.185   0.063   6.902
 7434SOL    HW123201   4.131   0.066   6.986
 7434SOL    HW223202   4.135   0.011   6.833
 7435SOL     OW23203   1.455   5.834   6.696
 7435SOL    HW123204   1.538   5.890   6.690
 7435SOL    HW223205   1.400   5.863   6.774
 7436SOL     OW23206   4.473   3.571   0.015
 7436SOL    HW123207   4.483   3.511   0.095
 7436SOL    HW223208   4.514   3.528   6.962
 7437SOL     OW23209   0.042   5.707   5.885
 7437SOL    HW123210   0.142   5.712   5.886
 7437SOL    HW223211   0.006   5.771   5.817
 7438SOL     OW23212   5.524   3.873   1.656
 7438SOL    HW123213   5.507   3.912   1.747
 7438SOL    HW223214   5.580   3.936   1.602
 7439SOL     OW23215   1.208   6.069   3.703
 7439SOL    HW123216   1.303   6.100   3.697
 7439SOL    HW223217   1.163   6.086   3.615
 7440SOL     OW23218   0.595   1.643   3.491
 7440SOL    HW123219   0.689   1.622   3.465
 7440SOL    HW223220   0.550   1.560   3.524
 7441SOL     OW23221   6.027   6.950   3.677
 7441SOL    HW123222   6.076   0.006   3.706
 7441SOL    HW223223   6.091   6.873   3.674
 7442SOL     OW23224   1.399   0.733   6.202
 7442SOL    HW123225   1.406   0.662   6.273
 7442SOL    HW223226   1.485   0.784   6.197
 7443SOL     OW23227   6.921   1.732   1.482
 7443SOL    HW123228   6.874   1.722   1.569
 7443SOL    HW223229   6.857   1.713   1.407
 7444SOL     OW23230   0.535   1.909   5.360
 7444SOL    HW123231   0.490   1.824   5.387
 7444SOL    HW223232   0.537   1.972   5.438
 7445SOL     OW23233   5.904   2.518   1.855
 7445SOL    HW123234   6.003   2.519   1.871
 7445SOL    HW223235   5.860   2.585   1.914
 7446SOL     OW23236   6.149   3.207   2.341
 7446SOL    HW123237   6.215   3.133   2.355
 7446SOL    HW223238   6.131   3.253   2.428
 7447SOL     OW23239   7.024   4.172   6.324
 7447SOL    HW123240   7.011   4.164   6.423
 7447SOL    HW223241   6.938   4.148   6.278
 7448SOL     OW23242   0.020   6.469   5.747
 7448SOL    HW123243   0.054   6.400   5.684
 7448SOL    HW223244   6.955   6.444   5.777
 7449SOL     OW23245   4.278   0.902   1.169
 7449SOL    HW123246   4.231   0.980   1.128
 7449SOL    HW223247   4.336   0.933   1.244
 7450SOL     OW23248   3.486   0.353   1.930
 7450SOL    HW123249   3.566   0.347   1.871
 7450SOL    HW223250   3.503   0.419   2.003
 7451SOL     OW23251   1.518   0.742   2.244
 7451SOL    HW123252   1.594   0.768   2.304
 7451SOL    HW223253   1.515   0.643   2.234
 7452SOL     OW23254   1.812   6.405   3.324
 7452SOL    HW123255   1.856   6.483   3.369
 7452SOL    HW223256   1.813   6.326   3.386
 7453SOL     OW23257   5.969   5.244   5.572
 7453SOL    HW123258   5.966   5.148   5.542
 7453SOL    HW223259   5.927   5.302   5.502
 7454SOL     OW23260   0.752   3.119   6.774
 7454SOL    HW123261   0.678   3.052   6.777
 7454SOL    HW223262   0.814   3.104   6.852
 7455SOL     OW23263   5.281   0.958   0.400
 7455SOL    HW123264   5.260   1.009   0.316
 7455SOL    HW223265   5.195   0.931   0.444
 7456SOL     OW23266   1.028   3.166   5.497
 7456SOL    HW123267   0.979   3.092   5.450
 7456SOL    HW223268   0.967   3.244   5.510
 7457SOL     OW23269   6.207   6.652   6.035
 7457SOL    HW123270   6.182   6.653   5.938
 7457SOL    HW223271   6.146   6.590   6.084
 7458SOL     OW23272   2.416   0.336   1.329
 7458SOL    HW123273   2.470   0.335   1.245
 7458SOL    HW223274   2.422   0.246   1.372
 7459SOL     OW23275   4.922   6.984   4.705
 7459SOL    HW123276   4.878   6.896   4.689
 7459SOL    HW223277   4.854   0.030   4.702
 7460SOL     OW23278   0.956   5.430   6.611
 7460SOL    HW123279   1.020   5.385   6.549
 7460SOL    HW223280   0.907   5.361   6.665
 7461SOL     OW23281   4.508   0.977   4.196
 7461SOL    HW123282   4.447   0.934   4.262
 7461SOL    HW223283   4.491   1.076   4.194
 7462SOL     OW23284   1.882   0.659   2.520
 7462SOL    HW123285   1.798   0.713   2.519
 7462SOL    HW223286   1.919   0.653   2.427
 7463SOL     OW23287   3.572   4.021   2.038
 7463SOL    HW123288   3.623   3.955   1.982
 7463SOL    HW223289   3.632   4.057   2.110
 7464SOL     OW23290   4.909   6.885   0.192
 7464SOL    HW123291   4.902   6.875   0.291
 7464SOL    HW223292   4.821   6.864   0.150
 7465SOL     OW23293   3.172   1.248   2.422
 7465SOL    HW123294   3.196   1.344   2.412
 7465SOL    HW223295   3.225   1.193   2.357
 7466SOL     OW23296   6.443   0.728   6.590
 7466SOL    HW123297   6.406   0.821   6.580
 7466SOL    HW223298   6.469   0.693   6.500
 7467SOL     OW23299   5.207   1.557   1.202
 7467SOL    HW123300   5.135   1.557   1.133
 7467SOL    HW223301   5.204   1.642   1.254
 7468SOL     OW23302   5.880   3.581   4.474
 7468SOL    HW123303   5.960   3.572   4.532
 7468SOL    HW223304   5.908   3.600   4.380
 7469SOL     OW23305   5.764   0.981   2.266
 7469SOL    HW123306   5.750   1.000   2.364
 7469SOL    HW223307   5.758   1.066   2.215
 7470SOL     OW23308   0.467   3.445   2.993
 7470SOL    HW123309   0.503   3.392   2.916
 7470SOL    HW223310   0.539   3.505   3.029
 7471SOL     OW23311   6.191   4.405   5.707
 7471SOL    HW123312   6.110   4.446   5.749
 7471SOL    HW223313   6.163   4.336   5.640
 7472SOL     OW23314   3.520   4.865   3.194
 7472SOL    HW123315   3.514   4.861   3.095
 7472SOL    HW223316   3.443   4.816   3.235
 7473SOL     OW23317   0.863   3.291   5.218
 7473SOL    HW123318   0.951   3.333   5.196
 7473SOL    HW223319   0.842   3.306   5.315
 7474SOL     OW23320   3.360   2.123   3.407
 7474SOL    HW123321   3.409   2.128   3.494
 7474SOL    HW223322   3.424   2.133   3.331
 7475SOL     OW23323   4.258   1.374   6.951
 7475SOL    HW123324   4.312   1.393   6.869
 7475SOL    HW223325   4.249   1.275   6.962
 7476SOL     OW23326   3.420   0.302   5.132
 7476SOL    HW123327   3.328   0.265   5.125
 7476SOL    HW223328   3.417   0.402   5.120
 7477SOL     OW23329   4.941   3.765   3.806
 7477SOL    HW123330   4.893   3.831   3.864
 7477SOL    HW223331   4.875   3.699   3.770
 7478SOL     OW23332   1.482   4.569   1.369
 7478SOL    HW123333   1.396   4.605   1.333
 7478SOL    HW223334   1.472   4.470   1.385
 7479SOL     OW23335   4.209   0.894   5.717
 7479SOL    HW123336   4.302   0.859   5.719
 7479SOL    HW223337   4.157   0.856   5.794
 7480SOL     OW23338   6.444   5.365   0.806
 7480SOL    HW123339   6.350   5.397   0.819
 7480SOL    HW223340   6.507   5.434   0.842
 7481SOL     OW23341   6.306   5.909   0.595
 7481SOL    HW123342   6.335   5.899   0.500
 7481SOL    HW223343   6.349   5.990   0.635
 7482SOL     OW23344   5.177   0.197   3.707
 7482SOL    HW123345   5.244   0.256   3.662
 7482SOL    HW223346   5.085   0.233   3.692
 7483SOL     OW23347   3.366   0.107   6.112
 7483SOL    HW123348   3.405   0.034   6.168
 7483SOL    HW223349   3.363   0.192   6.164
 7484SOL     OW23350   3.317   0.481   2.497
 7484SOL    HW123351   3.346   0.538   2.420
 7484SOL    HW223352   3.304   0.539   2.578
 7485SOL     OW23353   1.133   6.719   5.018
 7485SOL    HW123354   1.051   6.728   4.962
 7485SOL    HW223355   1.108   6.695   5.111
 7486SOL     OW23356   1.517   1.046   4.876
 7486SOL    HW123357   1.444   1.091   4.825
 7486SOL    HW223358   1.549   0.966   4.825
 7487SOL     OW23359   3.776   5.465   3.050
 7487SOL    HW123360   3.811   5.505   2.965
 7487SOL    HW223361   3.685   5.501   3.069
 7488SOL     OW23362   3.323   1.021   5.573
 7488SOL    HW123363   3.364   1.073   5.498
 7488SOL    HW223364   3.265   0.949   5.536
 7489SOL     OW23365   6.393   3.697   3.101
 7489SOL    HW123366   6.402   3.636   3.181
 7489SOL    HW223367   6.374   3.790   3.132
 7490SOL     OW23368   5.792   1.468   3.001
 7490SOL    HW123369   5.693   1.484   2.999
 7490SOL    HW223370   5.810   1.376   3.036
 7491SOL     OW23371   0.194   6.516   6.828
 7491SOL    HW123372   0.106   6.523   6.876
 7491SOL    HW223373   0.253   6.592   6.856
 7492SOL     OW23374   2.228   2.422   3.684
 7492SOL    HW123375   2.207   2.479   3.605
 7492SOL    HW223376   2.271   2.477   3.756
 7493SOL     OW23377   5.319   4.649   6.926
 7493SOL    HW123378   5.270   4.565   6.902
 7493SOL    HW223379   5.385   4.630   6.998
 7494SOL     OW23380   4.940   1.645   1.486
 7494SOL    HW123381   5.007   1.719   1.479
 7494SOL    HW223382   4.873   1.653   1.413
 7495SOL     OW23383   1.032   1.718   2.457
 7495SOL    HW123384   1.018   1.814   2.482
 7495SOL    HW223385   0.991   1.701   2.368
 7496SOL     OW23386   0.432   4.709   6.054
 7496SOL    HW123387   0.434   4.717   6.154
 7496SOL    HW223388   0.385   4.789   6.015
 7497SOL     OW23389   2.093   5.020   2.529
 7497SOL    HW123390   2.069   5.011   2.432
 7497SOL    HW223391   2.085   4.931   2.574
 7498SOL     OW23392   4.886   1.541   4.531
 7498SOL    HW123393   4.897   1.587   4.443
 7498SOL    HW223394   4.940   1.588   4.600
 7499SOL     OW23395   4.173   5.030   3.851
 7499SOL    HW123396   4.265   4.999   3.829
 7499SOL    HW223397   4.120   5.041   3.767
 7500SOL     OW23398   4.844   4.085   1.757
 7500SOL    HW123399   4.873   4.068   1.851
 7500SOL    HW223400   4.762   4.032   1.737
 7501SOL     OW23401   0.136   4.666   3.723
 7501SOL    HW123402   0.144   4.617   3.810
 7501SOL    HW223403   0.227   4.677   3.682
 7502SOL     OW23404   1.815   2.339   4.481
 7502SOL    HW123405   1.772   2.361   4.568
 7502SOL    HW223406   1.900   2.391   4.472
 7503SOL     OW23407   1.610   2.672   6.910
 7503SOL    HW123408   1.599   2.574   6.927
 7503SOL    HW223409   1.557   2.698   6.829
 7504SOL     OW23410   4.017   5.794   3.226
 7504SOL    HW123411   4.016   5.696   3.244
 7504SOL    HW223412   3.923   5.828   3.222
 7505SOL     OW23413   1.776   2.006   3.802
 7505SOL    HW123414   1.745   2.058   3.722
 7505SOL    HW223415   1.851   2.054   3.846
 7506SOL     OW23416   3.645   1.592   3.822
 7506SOL    HW123417   3.692   1.581   3.734
 7506SOL    HW223418   3.710   1.577   3.897
 7507SOL     OW23419   1.815   6.178   5.838
 7507SOL    HW123420   1.722   6.183   5.801
 7507SOL    HW223421   1.879   6.218   5.772
 7508SOL     OW23422   4.841   5.250   4.403
 7508SOL    HW123423   4.801   5.203   4.482
 7508SOL    HW223424   4.940   5.258   4.416
 7509SOL     OW23425   4.152   3.668   6.242
 7509SOL    HW123426   4.163   3.767   6.243
 7509SOL    HW223427   4.175   3.632   6.152
 7510SOL     OW23428   2.944   3.716   4.783
 7510SOL    HW123429   2.883   3.787   4.819
 7510SOL    HW223430   2.918   3.628   4.822
 7511SOL     OW23431   1.243   0.367   2.438
 7511SOL    HW123432   1.168   0.367   2.372
 7511SOL    HW223433   1.227   0.297   2.507
 7512SOL     OW23434   2.600   2.835   1.740
 7512SOL    HW123435   2.679   2.775   1.728
 7512SOL    HW223436   2.613   2.918   1.685
 7513SOL     OW23437   0.819   3.531   6.602
 7513SOL    HW123438   0.915   3.557   6.617
 7513SOL    HW223439   0.777   3.508   6.689
 7514SOL     OW23440   2.934   5.928   3.387
 7514SOL    HW123441   3.028   5.902   3.366
 7514SOL    HW223442   2.872   5.856   3.357
 7515SOL     OW23443   0.054   4.984   2.632
 7515SOL    HW123444   0.071   4.894   2.591
 7515SOL    HW223445   0.024   5.048   2.561
 7516SOL     OW23446   1.204   1.539   2.361
 7516SOL    HW123447   1.130   1.526   2.295
 7516SOL    HW223448   1.167   1.581   2.445
 7517SOL     OW23449   0.154   5.313   1.331
 7517SOL    HW123450   0.114   5.225   1.306
 7517SOL    HW223451   0.127   5.382   1.264
 7518SOL     OW23452   5.429   4.973   3.342
 7518SOL    HW123453   5.417   4.951   3.439
 7518SOL    HW223454   5.459   4.891   3.292
 7519SOL     OW23455   1.077   6.810   4.124
 7519SOL    HW123456   1.126   6.739   4.073
 7519SOL    HW223457   0.980   6.807   4.100
 7520SOL     OW23458   2.472   0.005   4.244
 7520SOL    HW123459   2.507   6.975   4.319
 7520SOL    HW223460   2.459   0.099   4.277
 7521SOL     OW23461   4.939   3.863   5.781
 7521SOL    HW123462   5.019   3.812   5.751
 7521SOL    HW223463   4.918   3.935   5.715
 7522SOL     OW23464   1.935   0.378   2.589
 7522SOL    HW123465   1.908   0.357   2.495
 7522SOL    HW223466   1.885   0.459   2.620
 7523SOL     OW23467   6.106   0.331   0.214
 7523SOL    HW123468   6.025   0.388   0.215
 7523SOL    HW223469   6.085   0.243   0.171
 7524SOL     OW23470   5.977   0.821   4.412
 7524SOL    HW123471   6.006   0.746   4.353
 7524SOL    HW223472   6.057   0.873   4.443
 7525SOL     OW23473   0.870   6.135   0.232
 7525SOL    HW123474   0.962   6.127   0.193
 7525SOL    HW223475   0.864   6.082   0.316
 7526SOL     OW23476   3.694   2.985   4.880
 7526SOL    HW123477   3.665   2.938   4.797
 7526SOL    HW223478   3.640   3.068   4.892
 7527SOL     OW23479   5.030   5.436   1.996
 7527SOL    HW123480   5.083   5.454   2.079
 7527SOL    HW223481   4.940   5.402   2.021
 7528SOL     OW23482   5.809   3.049   6.217
 7528SOL    HW123483   5.716   3.070   6.247
 7528SOL    HW223484   5.806   3.008   6.125
 7529SOL     OW23485   3.107   0.521   4.948
 7529SOL    HW123486   3.196   0.548   4.911
 7529SOL    HW223487   3.101   0.548   5.044
 7530SOL     OW23488   6.640   2.822   3.253
 7530SOL    HW123489   6.694   2.830   3.337
 7530SOL    HW223490   6.544   2.838   3.274
 7531SOL     OW23491   2.414   1.830   4.245
 7531SOL    HW123492   2.344   1.763   4.220
 7531SOL    HW223493   2.482   1.836   4.172
 7532SOL     OW23494   5.091   4.584   2.268
 7532SOL    HW123495   5.095   4.484   2.270
 7532SOL    HW223496   5.067   4.618   2.359
 7533SOL     OW23497   3.337   0.530   4.713
 7533SOL    HW123498   3.291   0.515   4.625
 7533SOL    HW223499   3.317   0.621   4.746
 7534SOL     OW23500   5.497   6.769   4.151
 7534SOL    HW123501   5.594   6.790   4.164
 7534SOL    HW223502   5.467   6.801   4.062
 7535SOL     OW23503   3.904   4.647   0.346
 7535SOL    HW123504   3.816   4.604   0.325
 7535SOL    HW223505   3.977   4.580   0.332
 7536SOL     OW23506   3.765   6.356   4.511
 7536SOL    HW123507   3.720   6.445   4.508
 7536SOL    HW223508   3.704   6.290   4.555
 7537SOL     OW23509   2.402   4.642   5.393
 7537SOL    HW123510   2.461   4.635   5.313
 7537SOL    HW223511   2.338   4.564   5.393
 7538SOL     OW23512   3.374   2.978   3.221
 7538SOL    HW123513   3.386   3.012   3.314
 7538SOL    HW223514   3.463   2.959   3.180
 7539SOL     OW23515   1.591   2.630   4.680
 7539SOL    HW123516   1.500   2.672   4.688
 7539SOL    HW223517   1.647   2.659   4.758
 7540SOL     OW23518   1.988   1.107   0.176
 7540SOL    HW123519   2.076   1.067   0.201
 7540SOL    HW223520   1.982   1.115   0.077
 7541SOL     OW23521   6.848   2.177   5.124
 7541SOL    HW123522   6.887   2.104   5.180
 7541SOL    HW223523   6.765   2.144   5.079
 7542SOL     OW23524   1.910   0.635   6.250
 7542SOL    HW123525   1.867   0.545   6.253
 7542SOL    HW223526   1.840   0.706   6.253
 7543SOL     OW23527   3.596   3.300   6.913
 7543SOL    HW123528   3.620   3.216   6.963
 7543SOL    HW223529   3.568   3.276   6.820
 7544SOL     OW23530   1.327   2.125   2.426
 7544SOL    HW123531   1.381   2.114   2.342
 7544SOL    HW223532   1.349   2.050   2.489
 7545SOL     OW23533   5.062   0.242   3.270
 7545SOL    HW123534   5.146   0.279   3.232
 7545SOL    HW223535   5.070   0.142   3.278
 7546SOL     OW23536   5.063   6.849   6.484
 7546SOL    HW123537   5.150   6.819   6.445
 7546SOL    HW223538   4.988   6.801   6.439
 7547SOL     OW23539   3.029   6.931   0.259
 7547SOL    HW123540   2.974   6.861   0.213
 7547SOL    HW223541   3.099   6.887   0.314
 7548SOL     OW23542   1.376   3.031   1.016
 7548SOL    HW123543   1.379   3.017   1.115
 7548SOL    HW223544   1.376   3.129   0.996
 7549SOL     OW23545   6.038   2.128   2.014
 7549SOL    HW123546   5.951   2.082   2.033
 7549SOL    HW223547   6.064   2.110   1.919
 7550SOL     OW23548   1.267   5.108   1.561
 7550SOL    HW123549   1.188   5.137   1.508
 7550SOL    HW223550   1.236   5.050   1.637
 7551SOL     OW23551   4.579   3.957   6.364
 7551SOL    HW123552   4.500   3.899   6.347
 7551SOL    HW223553   4.587   4.025   6.291
 7552SOL     OW23554   3.297   5.344   4.223
 7552SOL    HW123555   3.295   5.289   4.140
 7552SOL    HW223556   3.209   5.391   4.235
 7553SOL     OW23557   5.105   3.936   6.021
 7553SOL    HW123558   5.046   3.912   5.943
 7553SOL    HW223559   5.073   3.888   6.102
 7554SOL     OW23560   6.317   1.008   1.118
 7554SOL    HW123561   6.404   1.058   1.111
 7554SOL    HW223562   6.245   1.062   1.075
 7555SOL     OW23563   1.258   5.824   5.931
 7555SOL    HW123564   1.234   5.841   6.027
 7555SOL    HW223565   1.232   5.903   5.876
 7556SOL     OW23566   0.072   3.459   3.768
 7556SOL    HW123567   0.034   3.421   3.852
 7556SOL    HW223568   0.152   3.515   3.790
 7557SOL     OW23569   3.869   3.434   0.234
 7557SOL    HW123570   3.845   3.338   0.251
 7557SOL    HW223571   3.809   3.471   0.164
 7558SOL     OW23572   1.497   2.650   3.469
 7558SOL    HW123573   1.457   2.627   3.558
 7558SOL    HW223574   1.512   2.748   3.463
 7559SOL     OW23575   1.304   4.520   0.658
 7559SOL    HW123576   1.267   4.428   0.667
 7559SOL    HW223577   1.264   4.564   0.578
 7560SOL     OW23578   4.632   0.065   5.415
 7560SOL    HW123579   4.639   0.099   5.321
 7560SOL    HW223580   4.560   7.023   5.420
 7561SOL     OW23581   0.315   3.493   6.987
 7561SOL    HW123582   0.298   3.416   0.021
 7561SOL    HW223583   0.402   3.480   6.940
 7562SOL     OW23584   4.931   6.568   5.457
 7562SOL    HW123585   4.895   6.645   5.509
 7562SOL    HW223586   4.940   6.488   5.517
 7563SOL     OW23587   2.675   0.982   2.922
 7563SOL    HW123588   2.750   0.918   2.939
 7563SOL    HW223589   2.677   1.011   2.827
 7564SOL     OW23590   4.803   6.828   3.926
 7564SOL    HW123591   4.777   6.868   4.014
 7564SOL    HW223592   4.725   6.832   3.864
 7565SOL     OW23593   4.786   4.358   0.249
 7565SOL    HW123594   4.834   4.312   0.174
 7565SOL    HW223595   4.687   4.352   0.234
 7566SOL     OW23596   2.303   5.588   5.330
 7566SOL    HW123597   2.342   5.675   5.300
 7566SOL    HW223598   2.377   5.525   5.356
 7567SOL     OW23599   2.473   2.955   0.374
 7567SOL    HW123600   2.489   2.972   0.277
 7567SOL    HW223601   2.556   2.977   0.426
 7568SOL     OW23602   4.449   4.919   2.888
 7568SOL    HW123603   4.420   4.918   2.984
 7568SOL    HW223604   4.496   4.834   2.867
 7569SOL     OW23605   4.075   0.351   0.918
 7569SOL    HW123606   4.147   0.374   0.853
 7569SOL    HW223607   4.112   0.354   1.011
 7570SOL     OW23608   5.870   5.188   4.717
 7570SOL    HW123609   5.848   5.270   4.665
 7570SOL    HW223610   5.818   5.110   4.680
 7571SOL     OW23611   5.576   4.275   1.668
 7571SOL    HW123612   5.610   4.192   1.625
 7571SOL    HW223613   5.490   4.303   1.624
 7572SOL     OW23614   1.076   1.239   4.005
 7572SOL    HW123615   1.011   1.280   4.069
 7572SOL    HW223616   1.105   1.149   4.039
 7573SOL     OW23617   3.222   5.391   5.395
 7573SOL    HW123618   3.160   5.465   5.371
 7573SOL    HW223619   3.313   5.409   5.357
 7574SOL     OW23620   4.937   6.125   2.364
 7574SOL    HW123621   4.945   6.224   2.371
 7574SOL    HW223622   4.936   6.085   2.455
 7575SOL     OW23623   5.150   2.846   5.017
 7575SOL    HW123624   5.098   2.768   5.053
 7575SOL    HW223625   5.182   2.903   5.092
 7576SOL     OW23626   6.557   3.206   1.732
 7576SOL    HW123627   6.499   3.204   1.651
 7576SOL    HW223628   6.618   3.286   1.728
 7577SOL     OW23629   4.427   0.424   5.111
 7577SOL    HW123630   4.496   0.360   5.076
 7577SOL    HW223631   4.393   0.391   5.199
 7578SOL     OW23632   2.694   5.316   4.785
 7578SOL    HW123633   2.598   5.288   4.798
 7578SOL    HW223634   2.747   5.238   4.754
 7579SOL     OW23635   4.457   2.468   3.897
 7579SOL    HW123636   4.478   2.502   3.989
 7579SOL    HW223637   4.498   2.527   3.829
 7580SOL     OW23638   2.143   3.422   2.568
 7580SOL    HW123639   2.142   3.503   2.626
 7580SOL    HW223640   2.175   3.343   2.621
 7581SOL     OW23641   5.367   0.706   1.474
 7581SOL    HW123642   5.283   0.697   1.528
 7581SOL    HW223643   5.442   0.660   1.522
 7582SOL     OW23644   3.470   1.816   0.784
 7582SOL    HW123645   3.402   1.888   0.771
 7582SOL    HW223646   3.496   1.778   0.696
 7583SOL     OW23647   6.604   3.677   2.932
 7583SOL    HW123648   6.522   3.680   2.989
 7583SOL    HW223649   6.648   3.766   2.932
 7584SOL     OW23650   1.983   1.815   1.338
 7584SOL    HW123651   1.958   1.911   1.329
 7584SOL    HW223652   1.921   1.759   1.284
 7585SOL     OW23653   2.089   5.334   6.831
 7585SOL    HW123654   2.137   5.354   6.745
 7585SOL    HW223655   2.095   5.236   6.850
 7586SOL     OW23656   2.324   1.122   1.759
 7586SOL    HW123657   2.228   1.097   1.742
 7586SOL    HW223658   2.327   1.196   1.827
 7587SOL     OW23659   1.740   0.945   5.911
 7587SOL    HW123660   1.799   0.892   5.850
 7587SOL    HW223661   1.654   0.964   5.864
 7588SOL     OW23662   0.993   4.284   1.635
 7588SOL    HW123663   0.947   4.197   1.654
 7588SOL    HW223664   1.083   4.284   1.680
 7589SOL     OW23665   5.755   6.315   6.667
 7589SOL    HW123666   5.724   6.226   6.633
 7589SOL    HW223667   5.684   6.354   6.726
 7590SOL     OW23668   1.521   0.637   6.900
 7590SOL    HW123669   1.581   0.560   6.876
 7590SOL    HW223670   1.460   0.610   6.974
 7591SOL     OW23671   6.961   5.200   6.962
 7591SOL    HW123672   0.014   5.186   7.020
 7591SOL    HW223673   6.882   5.152   7.001
 7592SOL     OW23674   5.115   5.570   6.263
 7592SOL    HW123675   5.188   5.590   6.198
 7592SOL    HW223676   5.139   5.489   6.317
 7593SOL     OW23677   6.195   3.472   0.525
 7593SOL    HW123678   6.118   3.443   0.582
 7593SOL    HW223679   6.188   3.428   0.435
 7594SOL     OW23680   0.768   6.149   3.529
 7594SOL    HW123681   0.846   6.115   3.476
 7594SOL    HW223682   0.768   6.249   3.527
 7595SOL     OW23683   6.542   1.871   6.958
 7595SOL    HW123684   6.578   1.812   6.886
 7595SOL    HW223685   6.489   1.816   7.023
 7596SOL     OW23686   4.966   4.538   1.865
 7596SOL    HW123687   4.977   4.603   1.941
 7596SOL    HW223688   4.910   4.461   1.894
 7597SOL     OW23689   2.731   6.030   1.851
 7597SOL    HW123690   2.708   6.074   1.764
 7597SOL    HW223691   2.810   5.969   1.838
 7598SOL     OW23692   6.699   0.505   2.828
 7598SOL    HW123693   6.751   0.488   2.744
 7598SOL    HW223694   6.736   0.450   2.902
 7599SOL     OW23695   6.735   2.345   2.269
 7599SOL    HW123696   6.696   2.285   2.339
 7599SOL    HW223697   6.685   2.332   2.183
 7600SOL     OW23698   2.209   1.611   2.190
 7600SOL    HW123699   2.155   1.528   2.204
 7600SOL    HW223700   2.149   1.691   2.194
 7601SOL     OW23701   1.498   6.958   5.018
 7601SOL    HW123702   1.418   7.018   5.012
 7601SOL    HW223703   1.506   6.924   5.111
 7602SOL     OW23704   2.256   3.274   5.210
 7602SOL    HW123705   2.339   3.219   5.198
 7602SOL    HW223706   2.177   3.214   5.219
 7603SOL     OW23707   0.739   1.112   2.091
 7603SOL    HW123708   0.748   1.014   2.110
 7603SOL    HW223709   0.795   1.164   2.155
 7604SOL     OW23710   5.061   6.154   6.902
 7604SOL    HW123711   5.126   6.111   6.838
 7604SOL    HW223712   5.103   6.161   6.992
 7605SOL     OW23713   5.756   4.069   5.562
 7605SOL    HW123714   5.674   4.063   5.619
 7605SOL    HW223715   5.837   4.052   5.617
 7606SOL     OW23716   6.538   1.697   3.132
 7606SOL    HW123717   6.629   1.708   3.093
 7606SOL    HW223718   6.532   1.749   3.218
 7607SOL     OW23719   5.385   0.046   6.399
 7607SOL    HW123720   5.291   0.062   6.430
 7607SOL    HW223721   5.449   0.067   6.474
 7608SOL     OW23722   3.899   3.154   3.505
 7608SOL    HW123723   3.998   3.149   3.495
 7608SOL    HW223724   3.855   3.118   3.423
 7609SOL     OW23725   1.573   2.982   4.500
 7609SOL    HW123726   1.575   3.054   4.431
 7609SOL    HW223727   1.660   2.980   4.549
 7610SOL     OW23728   5.235   1.115   1.561
 7610SOL    HW123729   5.333   1.118   1.582
 7610SOL    HW223730   5.183   1.143   1.643
 7611SOL     OW23731   2.062   1.608   1.031
 7611SOL    HW123732   2.038   1.554   0.949
 7611SOL    HW223733   1.978   1.648   1.069
 7612SOL     OW23734   4.202   1.562   2.556
 7612SOL    HW123735   4.239   1.491   2.617
 7612SOL    HW223736   4.109   1.584   2.584
 7613SOL     OW23737   5.153   1.207   2.752
 7613SOL    HW123738   5.090   1.252   2.688
 7613SOL    HW223739   5.117   1.118   2.778
 7614SOL     OW23740   3.745   0.993   0.199
 7614SOL    HW123741   3.671   1.032   0.143
 7614SOL    HW223742   3.828   1.047   0.185
 7615SOL     OW23743   4.073   4.578   6.010
 7615SOL    HW123744   3.986   4.552   5.967
 7615SOL    HW223745   4.126   4.496   6.030
 7616SOL     OW23746   6.775   4.753   3.590
 7616SOL    HW123747   6.803   4.691   3.663
 7616SOL    HW223748   6.682   4.730   3.561
 7617SOL     OW23749   3.087   6.041   2.419
 7617SOL    HW123750   2.992   6.016   2.437
 7617SOL    HW223751   3.127   6.082   2.501
 7618SOL     OW23752   1.580   2.463   0.814
 7618SOL    HW123753   1.649   2.415   0.868
 7618SOL    HW223754   1.494   2.466   0.865
 7619SOL     OW23755   6.220   3.550   5.831
 7619SOL    HW123756   6.179   3.502   5.908
 7619SOL    HW223757   6.216   3.649   5.847
 7620SOL     OW23758   2.958   6.370   1.799
 7620SOL    HW123759   3.052   6.337   1.811
 7620SOL    HW223760   2.930   6.421   1.880
 7621SOL     OW23761   2.537   2.068   1.327
 7621SOL    HW123762   2.578   1.987   1.284
 7621SOL    HW223763   2.484   2.040   1.407
 7622SOL     OW23764   5.018   1.873   1.038
 7622SOL    HW123765   4.928   1.831   1.032
 7622SOL    HW223766   5.078   1.832   0.969
 7623SOL     OW23767   5.512   0.274   5.611
 7623SOL    HW123768   5.434   0.305   5.665
 7623SOL    HW223769   5.498   0.179   5.582
 7624SOL     OW23770   6.847   0.614   4.113
 7624SOL    HW123771   6.886   0.688   4.057
 7624SOL    HW223772   6.820   0.539   4.053
 7625SOL     OW23773   4.119   6.406   0.651
 7625SOL    HW123774   4.118   6.307   0.663
 7625SOL    HW223775   4.044   6.434   0.592
 7626SOL     OW23776   2.361   4.301   4.648
 7626SOL    HW123777   2.280   4.242   4.652
 7626SOL    HW223778   2.442   4.249   4.677
 7627SOL     OW23779   6.816   2.020   0.285
 7627SOL    HW123780   6.831   2.113   0.316
 7627SOL    HW223781   6.856   2.007   0.194
 7628SOL     OW23782   4.052   1.840   0.783
 7628SOL    HW123783   3.956   1.868   0.778
 7628SOL    HW223784   4.094   1.880   0.863
 7629SOL     OW23785   6.168   5.132   3.295
 7629SOL    HW123786   6.159   5.142   3.196
 7629SOL    HW223787   6.258   5.164   3.324
 7630SOL     OW23788   6.999   1.247   2.171
 7630SOL    HW123789   0.057   1.288   2.137
 7630SOL    HW223790   6.926   1.315   2.172
 7631SOL     OW23791   1.604   1.927   3.377
 7631SOL    HW123792   1.587   2.025   3.381
 7631SOL    HW223793   1.542   1.884   3.312
 7632SOL     OW23794   4.290   1.692   6.568
 7632SOL    HW123795   4.213   1.683   6.505
 7632SOL    HW223796   4.295   1.611   6.627
 7633SOL     OW23797   5.778   4.661   6.540
 7633SOL    HW123798   5.765   4.754   6.574
 7633SOL    HW223799   5.797   4.663   6.442
 7634SOL     OW23800   1.457   1.868   1.734
 7634SOL    HW123801   1.509   1.953   1.736
 7634SOL    HW223802   1.421   1.849   1.826
 7635SOL     OW23803   3.269   5.042   6.047
 7635SOL    HW123804   3.304   4.992   5.968
 7635SOL    HW223805   3.231   5.130   6.017
 7636SOL     OW23806   1.912   0.768   3.398
 7636SOL    HW123807   1.877   0.699   3.461
 7636SOL    HW223808   1.839   0.834   3.377
 7637SOL     OW23809   2.373   5.997   3.774
 7637SOL    HW123810   2.383   6.094   3.795
 7637SOL    HW223811   2.297   5.984   3.710
 7638SOL     OW23812   4.352   4.449   1.708
 7638SOL    HW123813   4.331   4.359   1.747
 7638SOL    HW223814   4.388   4.509   1.779
 7639SOL     OW23815   0.280   2.332   4.545
 7639SOL    HW123816   0.318   2.405   4.602
 7639SOL    HW223817   0.354   2.278   4.505
 7640SOL     OW23818   2.181   3.226   6.124
 7640SOL    HW123819   2.187   3.221   6.024
 7640SOL    HW223820   2.156   3.318   6.151
 7641SOL     OW23821   6.468   2.969   3.572
 7641SOL    HW123822   6.420   2.883   3.587
 7641SOL    HW223823   6.565   2.952   3.561
 7642SOL     OW23824   2.521   1.546   2.948
 7642SOL    HW123825   2.488   1.512   3.035
 7642SOL    HW223826   2.450   1.601   2.904
 7643SOL     OW23827   5.395   3.621   3.524
 7643SOL    HW123828   5.486   3.641   3.561
 7643SOL    HW223829   5.360   3.537   3.565
 7644SOL     OW23830   6.720   3.763   3.784
 7644SOL    HW123831   6.761   3.767   3.693
 7644SOL    HW223832   6.635   3.815   3.785
 7645SOL     OW23833   4.450   3.094   6.806
 7645SOL    HW123834   4.383   3.065   6.874
 7645SOL    HW223835   4.491   3.181   6.833
 7646SOL     OW23836   1.008   1.666   1.323
 7646SOL    HW123837   0.982   1.720   1.403
 7646SOL    HW223838   1.107   1.652   1.323
 7647SOL     OW23839   2.229   5.132   0.898
 7647SOL    HW123840   2.157   5.197   0.922
 7647SOL    HW223841   2.305   5.180   0.855
 7648SOL     OW23842   3.917   0.472   3.427
 7648SOL    HW123843   3.963   0.408   3.366
 7648SOL    HW223844   3.958   0.466   3.518
 7649SOL     OW23845   3.161   1.380   1.905
 7649SOL    HW123846   3.205   1.431   1.980
 7649SOL    HW223847   3.062   1.396   1.908
 7650SOL     OW23848   5.708   4.556   1.651
 7650SOL    HW123849   5.675   4.462   1.658
 7650SOL    HW223850   5.679   4.595   1.563
 7651SOL     OW23851   3.814   2.124   6.055
 7651SOL    HW123852   3.863   2.040   6.078
 7651SOL    HW223853   3.864   2.203   6.092
 7652SOL     OW23854   1.090   3.233   2.954
 7652SOL    HW123855   1.037   3.190   3.028
 7652SOL    HW223856   1.148   3.306   2.993
 7653SOL     OW23857   3.893   2.040   1.419
 7653SOL    HW123858   3.963   2.033   1.490
 7653SOL    HW223859   3.811   1.990   1.447
 7654SOL     OW23860   4.885   3.415   4.355
 7654SOL    HW123861   4.894   3.498   4.410
 7654SOL    HW223862   4.812   3.359   4.392
 7655SOL     OW23863   4.361   6.331   5.395
 7655SOL    HW123864   4.361   6.239   5.434
 7655SOL    HW223865   4.293   6.336   5.322
 7656SOL     OW23866   1.051   6.112   4.491
 7656SOL    HW123867   1.092   6.069   4.410
 7656SOL    HW223868   1.057   6.049   4.569
 7657SOL     OW23869   4.457   1.519   4.623
 7657SOL    HW123870   4.384   1.579   4.590
 7657SOL    HW223871   4.467   1.531   4.722
 7658SOL     OW23872   3.596   0.609   6.647
 7658SOL    HW123873   3.689   0.589   6.618
 7658SOL    HW223874   3.534   0.602   6.569
 7659SOL     OW23875   5.713   6.977   0.107
 7659SOL    HW123876   5.634   6.917   0.120
 7659SOL    HW223877   5.722   0.011   0.185
 7660SOL     OW23878   6.310   4.778   4.171
 7660SOL    HW123879   6.381   4.708   4.179
 7660SOL    HW223880   6.249   4.754   4.096
 7661SOL     OW23881   5.122   3.325   3.917
 7661SOL    HW123882   5.171   3.254   3.867
 7661SOL    HW223883   5.024   3.315   3.903
 7662SOL     OW23884   6.866   5.799   2.307
 7662SOL    HW123885   6.848   5.805   2.405
 7662SOL    HW223886   6.835   5.710   2.273
 7663SOL     OW23887   6.698   5.613   6.881
 7663SOL    HW123888   6.771   5.572   6.935
 7663SOL    HW223889   6.681   5.706   6.912
 7664SOL     OW23890   2.683   5.745   4.886
 7664SOL    HW123891   2.719   5.671   4.829
 7664SOL    HW223892   2.638   5.813   4.828
 7665SOL     OW23893   2.201   6.132   4.553
 7665SOL    HW123894   2.265   6.176   4.616
 7665SOL    HW223895   2.126   6.090   4.605
 7666SOL     OW23896   1.747   1.377   0.769
 7666SOL    HW123897   1.832   1.332   0.796
 7666SOL    HW223898   1.766   1.441   0.694
 7667SOL     OW23899   4.846   5.850   6.650
 7667SOL    HW123900   4.780   5.836   6.576
 7667SOL    HW223901   4.838   5.944   6.683
 7668SOL     OW23902   2.584   4.189   1.646
 7668SOL    HW123903   2.608   4.276   1.689
 7668SOL    HW223904   2.665   4.151   1.600
 7669SOL     OW23905   4.416   6.451   4.713
 7669SOL    HW123906   4.484   6.417   4.649
 7669SOL    HW223907   4.456   6.458   4.804
 7670SOL     OW23908   1.807   5.023   0.790
 7670SOL    HW123909   1.816   5.057   0.697
 7670SOL    HW223910   1.735   5.074   0.838
 7671SOL     OW23911   5.596   2.573   4.556
 7671SOL    HW123912   5.620   2.514   4.479
 7671SOL    HW223913   5.576   2.517   4.636
 7672SOL     OW23914   5.837   6.865   2.431
 7672SOL    HW123915   5.765   6.923   2.470
 7672SOL    HW223916   5.820   6.770   2.454
 7673SOL     OW23917   0.110   4.016   7.013
 7673SOL    HW123918   0.101   4.027   6.914
 7673SOL    HW223919   0.139   3.922   0.007
 7674SOL     OW23920   6.620   1.343   5.189
 7674SOL    HW123921   6.644   1.363   5.284
 7674SOL    HW223922   6.671   1.262   5.158
 7675SOL     OW23923   4.671   7.003   3.221
 7675SOL    HW123924   4.729   6.922   3.223
 7675SOL    HW223925   4.708   0.043   3.156
 7676SOL     OW23926   1.275   0.247   1.052
 7676SOL    HW123927   1.224   0.161   1.058
 7676SOL    HW223928   1.319   0.267   1.139
 7677SOL     OW23929   1.712   2.178   2.826
 7677SOL    HW123930   1.792   2.195   2.769
 7677SOL    HW223931   1.741   2.148   2.917
 7678SOL     OW23932   5.532   6.711   6.277
 7678SOL    HW123933   5.583   6.633   6.242
 7678SOL    HW223934   5.595   6.771   6.328
 7679SOL     OW23935   1.385   5.117   5.508
 7679SOL    HW123936   1.338   5.075   5.585
 7679SOL    HW223937   1.470   5.068   5.489
 7680SOL     OW23938   4.579   1.744   6.882
 7680SOL    HW123939   4.639   1.763   6.805
 7680SOL    HW223940   4.619   1.780   6.966
 7681SOL     OW23941   2.364   2.301   6.264
 7681SOL    HW123942   2.410   2.240   6.329
 7681SOL    HW223943   2.345   2.388   6.309
 7682SOL     OW23944   2.623   0.264   1.144
 7682SOL    HW123945   2.658   0.345   1.098
 7682SOL    HW223946   2.697   0.199   1.159
 7683SOL     OW23947   6.267   1.648   3.091
 7683SOL    HW123948   6.363   1.677   3.090
 7683SOL    HW223949   6.208   1.727   3.105
 7684SOL     OW23950   4.170   1.986   5.970
 7684SOL    HW123951   4.106   2.009   5.896
 7684SOL    HW223952   4.122   1.940   6.044
 7685SOL     OW23953   3.735   3.761   0.953
 7685SOL    HW123954   3.792   3.774   0.872
 7685SOL    HW223955   3.670   3.836   0.960
 7686SOL     OW23956   3.185   0.970   3.791
 7686SOL    HW123957   3.155   0.896   3.730
 7686SOL    HW223958   3.171   0.943   3.886
 7687SOL     OW23959   4.553   4.680   5.901
 7687SOL    HW123960   4.482   4.751   5.906
 7687SOL    HW223961   4.637   4.714   5.942
 7688SOL     OW23962   6.931   0.246   3.969
 7688SOL    HW123963   6.990   0.327   3.971
 7688SOL    HW223964   6.964   0.183   3.898
 7689SOL     OW23965   4.319   0.306   4.882
 7689SOL    HW123966   4.366   0.333   4.966
 7689SOL    HW223967   4.376   0.241   4.831
 7690SOL     OW23968   0.138   5.662   3.267
 7690SOL    HW123969   0.197   5.583   3.282
 7690SOL    HW223970   0.118   5.707   3.354
 7691SOL     OW23971   5.931   4.135   5.379
 7691SOL    HW123972   5.957   4.065   5.313
 7691SOL    HW223973   5.846   4.109   5.424
 7692SOL     OW23974   2.270   6.099   1.346
 7692SOL    HW123975   2.220   6.057   1.271
 7692SOL    HW223976   2.294   6.193   1.322
 7693SOL     OW23977   5.506   0.819   0.267
 7693SOL    HW123978   5.448   0.844   0.345
 7693SOL    HW223979   5.536   0.902   0.220
 7694SOL     OW23980   6.490   4.720   3.880
 7694SOL    HW123981   6.557   4.710   3.953
 7694SOL    HW223982   6.490   4.814   3.846
 7695SOL     OW23983   3.806   0.408   6.532
 7695SOL    HW123984   3.820   0.352   6.613
 7695SOL    HW223985   3.740   0.363   6.471
 7696SOL     OW23986   0.624   3.926   5.330
 7696SOL    HW123987   0.661   4.016   5.352
 7696SOL    HW223988   0.533   3.935   5.290
 7697SOL     OW23989   3.998   1.913   1.923
 7697SOL    HW123990   4.065   1.918   1.997
 7697SOL    HW223991   3.928   1.983   1.937
 7698SOL     OW23992   0.349   3.326   6.061
 7698SOL    HW123993   0.338   3.310   6.159
 7698SOL    HW223994   0.374   3.241   6.016
 7699SOL     OW23995   2.587   4.222   0.169
 7699SOL    HW123996   2.646   4.240   0.089
 7699SOL    HW223997   2.573   4.307   0.219
 7700SOL     OW23998   5.790   6.797   5.680
 7700SOL    HW123999   5.857   6.861   5.641
 7700SOL    HW224000   5.733   6.845   5.746
 7701SOL     OW24001   6.226   1.962   5.033
 7701SOL    HW124002   6.143   1.943   5.085
 7701SOL    HW224003   6.207   2.030   4.963
 7702SOL     OW24004   2.681   6.085   5.905
 7702SOL    HW124005   2.681   5.995   5.862
 7702SOL    HW224006   2.652   6.154   5.838
 7703SOL     OW24007   0.643   1.788   5.963
 7703SOL    HW124008   0.732   1.761   5.928
 7703SOL    HW224009   0.655   1.838   6.049
 7704SOL     OW24010   3.804   4.476   0.850
 7704SOL    HW124011   3.833   4.424   0.770
 7704SOL    HW224012   3.873   4.543   0.873
 7705SOL     OW24013   3.814   5.039   5.662
 7705SOL    HW124014   3.861   4.951   5.665
 7705SOL    HW224015   3.770   5.051   5.573
 7706SOL     OW24016   6.233   0.770   4.732
 7706SOL    HW124017   6.166   0.731   4.796
 7706SOL    HW224018   6.271   0.854   4.771
 7707SOL     OW24019   0.024   5.180   6.092
 7707SOL    HW124020   0.005   5.277   6.104
 7707SOL    HW224021   0.123   5.165   6.091
 7708SOL     OW24022   5.311   0.164   4.490
 7708SOL    HW124023   5.340   0.113   4.409
 7708SOL    HW224024   5.232   0.119   4.531
 7709SOL     OW24025   3.714   1.993   1.846
 7709SOL    HW124026   3.694   1.914   1.903
 7709SOL    HW224027   3.707   2.076   1.902
 7710SOL     OW24028   2.498   2.249   6.483
 7710SOL    HW124029   2.584   2.207   6.508
 7710SOL    HW224030   2.476   2.322   6.548
 7711SOL     OW24031   4.982   6.916   5.975
 7711SOL    HW124032   5.032   6.968   6.044
 7711SOL    HW224033   5.033   6.917   5.889
 7712SOL     OW24034   5.298   5.016   1.174
 7712SOL    HW124035   5.366   5.060   1.116
 7712SOL    HW224036   5.214   5.070   1.174
 7713SOL     OW24037   1.112   4.834   6.944
 7713SOL    HW124038   1.081   4.870   0.005
 7713SOL    HW224039   1.194   4.778   6.958
 7714SOL     OW24040   5.472   4.154   4.366
 7714SOL    HW124041   5.408   4.224   4.398
 7714SOL    HW224042   5.524   4.190   4.288
 7715SOL     OW24043   4.631   2.076   1.288
 7715SOL    HW124044   4.612   2.126   1.373
 7715SOL    HW224045   4.554   2.086   1.225
 7716SOL     OW24046   4.808   2.815   3.496
 7716SOL    HW124047   4.791   2.864   3.410
 7716SOL    HW224048   4.885   2.857   3.544
 7717SOL     OW24049   3.387   0.554   6.463
 7717SOL    HW124050   3.388   0.461   6.502
 7717SOL    HW224051   3.362   0.549   6.366
 7718SOL     OW24052   3.024   6.112   3.738
 7718SOL    HW124053   2.952   6.067   3.685
 7718SOL    HW224054   3.109   6.060   3.730
 7719SOL     OW24055   6.207   2.538   5.592
 7719SOL    HW124056   6.304   2.546   5.617
 7719SOL    HW224057   6.197   2.562   5.495
 7720SOL     OW24058   5.541   6.200   1.718
 7720SOL    HW124059   5.488   6.207   1.634
 7720SOL    HW224060   5.496   6.136   1.781
 7721SOL     OW24061   1.129   4.579   2.747
 7721SOL    HW124062   1.054   4.602   2.809
 7721SOL    HW224063   1.133   4.480   2.735
 7722SOL     OW24064   0.915   6.262   4.196
 7722SOL    HW124065   0.849   6.292   4.266
 7722SOL    HW224066   0.866   6.219   4.121
 7723SOL     OW24067   6.575   3.151   0.425
 7723SOL    HW124068   6.574   3.248   0.447
 7723SOL    HW224069   6.627   3.102   0.495
 7724SOL     OW24070   1.520   5.165   0.273
 7724SOL    HW124071   1.480   5.142   0.185
 7724SOL    HW224072   1.447   5.171   0.342
 7725SOL     OW24073   5.251   3.876   4.615
 7725SOL    HW124074   5.223   3.813   4.687
 7725SOL    HW224075   5.233   3.970   4.645
 7726SOL     OW24076   5.794   4.288   3.601
 7726SOL    HW124077   5.695   4.277   3.601
 7726SOL    HW224078   5.838   4.199   3.595
 7727SOL     OW24079   6.711   2.916   2.175
 7727SOL    HW124080   6.769   2.909   2.095
 7727SOL    HW224081   6.758   2.878   2.255
 7728SOL     OW24082   2.432   2.044   2.729
 7728SOL    HW124083   2.385   2.070   2.644
 7728SOL    HW224084   2.416   1.947   2.748
 7729SOL     OW24085   5.572   2.478   1.274
 7729SOL    HW124086   5.577   2.436   1.183
 7729SOL    HW224087   5.581   2.577   1.265
 7730SOL     OW24088   5.055   0.115   1.835
 7730SOL    HW124089   5.146   0.125   1.875
 7730SOL    HW224090   5.062   0.071   1.746
 7731SOL     OW24091   6.783   0.743   5.012
 7731SOL    HW124092   6.814   0.649   5.002
 7731SOL    HW224093   6.836   0.788   5.084
 7732SOL     OW24094   4.628   4.728   0.528
 7732SOL    HW124095   4.666   4.642   0.565
 7732SOL    HW224096   4.622   4.722   0.429
 7733SOL     OW24097   3.433   6.693   0.602
 7733SOL    HW124098   3.527   6.717   0.577
 7733SOL    HW224099   3.407   6.742   0.685
 7734SOL     OW24100   1.575   1.919   2.999
 7734SOL    HW124101   1.576   1.901   2.901
 7734SOL    HW224102   1.582   1.833   3.049
 7735SOL     OW24103   5.103   3.859   0.455
 7735SOL    HW124104   5.147   3.945   0.482
 7735SOL    HW224105   5.030   3.838   0.520
 7736SOL     OW24106   5.789   4.626   6.288
 7736SOL    HW124107   5.851   4.548   6.300
 7736SOL    HW224108   5.696   4.598   6.312
 7737SOL     OW24109   4.892   2.132   0.982
 7737SOL    HW124110   4.951   2.054   1.005
 7737SOL    HW224111   4.813   2.100   0.930
 7738SOL     OW24112   2.640   4.748   0.152
 7738SOL    HW124113   2.692   4.767   0.069
 7738SOL    HW224114   2.573   4.821   0.167
 7739SOL     OW24115   6.243   3.263   2.102
 7739SOL    HW124116   6.232   3.239   2.199
 7739SOL    HW224117   6.330   3.228   2.069
 7740SOL     OW24118   0.772   6.666   3.837
 7740SOL    HW124119   0.789   6.730   3.762
 7740SOL    HW224120   0.679   6.630   3.830
 7741SOL     OW24121   3.233   5.665   4.549
 7741SOL    HW124122   3.187   5.700   4.630
 7741SOL    HW224123   3.295   5.734   4.512
 7742SOL     OW24124   6.366   0.655   4.308
 7742SOL    HW124125   6.411   0.711   4.238
 7742SOL    HW224126   6.318   0.714   4.372
 7743SOL     OW24127   4.887   2.946   2.773
 7743SOL    HW124128   4.912   2.894   2.691
 7743SOL    HW224129   4.855   3.037   2.746
 7744SOL     OW24130   0.104   6.972   4.688
 7744SOL    HW124131   0.191   6.976   4.737
 7744SOL    HW224132   0.114   7.016   4.599
 7745SOL     OW24133   5.047   3.454   5.419
 7745SOL    HW124134   4.950   3.439   5.401
 7745SOL    HW224135   5.098   3.370   5.400
 7746SOL     OW24136   1.601   0.856   0.414
 7746SOL    HW124137   1.532   0.928   0.417
 7746SOL    HW224138   1.647   0.858   0.325
 7747SOL     OW24139   5.636   5.191   1.403
 7747SOL    HW124140   5.538   5.184   1.421
 7747SOL    HW224141   5.671   5.102   1.373
 7748SOL     OW24142   2.807   3.394   6.795
 7748SOL    HW124143   2.868   3.474   6.796
 7748SOL    HW224144   2.765   3.386   6.705
 7749SOL     OW24145   5.483   3.595   6.674
 7749SOL    HW124146   5.577   3.626   6.660
 7749SOL    HW224147   5.436   3.658   6.735
 7750SOL     OW24148   5.856   5.039   3.064
 7750SOL    HW124149   5.816   4.951   3.037
 7750SOL    HW224150   5.799   5.080   3.135
 7751SOL     OW24151   0.337   2.451   1.448
 7751SOL    HW124152   0.311   2.492   1.361
 7751SOL    HW224153   0.375   2.360   1.433
 7752SOL     OW24154   4.038   1.359   3.484
 7752SOL    HW124155   4.053   1.260   3.492
 7752SOL    HW224156   4.020   1.382   3.388
 7753SOL     OW24157   3.098   1.747   5.232
 7753SOL    HW124158   3.142   1.786   5.152
 7753SOL    HW224159   3.167   1.713   5.295
 7754SOL     OW24160   5.647   5.505   2.093
 7754SOL    HW124161   5.630   5.587   2.038
 7754SOL    HW224162   5.739   5.509   2.132
 7755SOL     OW24163   0.498   4.997   4.345
 7755SOL    HW124164   0.475   4.925   4.410
 7755SOL    HW224165   0.570   5.055   4.383
 7756SOL     OW24166   2.526   4.969   2.465
 7756SOL    HW124167   2.521   4.964   2.365
 7756SOL    HW224168   2.622   4.961   2.493
 7757SOL     OW24169   7.001   4.681   1.681
 7757SOL    HW124170   7.010   4.758   1.745
 7757SOL    HW224171   6.916   4.632   1.700
 7758SOL     OW24172   1.340   2.414   4.328
 7758SOL    HW124173   1.392   2.371   4.402
 7758SOL    HW224174   1.287   2.345   4.279
 7759SOL     OW24175   3.330   1.579   1.265
 7759SOL    HW124176   3.349   1.481   1.269
 7759SOL    HW224177   3.383   1.620   1.191
 7760SOL     OW24178   5.127   3.432   0.453
 7760SOL    HW124179   5.088   3.360   0.395
 7760SOL    HW224180   5.054   3.484   0.496
 7761SOL     OW24181   4.735   5.166   2.896
 7761SOL    HW124182   4.761   5.195   2.804
 7761SOL    HW224183   4.716   5.068   2.896
 7762SOL     OW24184   5.566   1.410   1.531
 7762SOL    HW124185   5.550   1.314   1.505
 7762SOL    HW224186   5.482   1.462   1.518
 7763SOL     OW24187   2.327   0.422   4.178
 7763SOL    HW124188   2.415   0.456   4.144
 7763SOL    HW224189   2.342   0.365   4.259
 7764SOL     OW24190   2.741   4.460   5.895
 7764SOL    HW124191   2.670   4.478   5.827
 7764SOL    HW224192   2.826   4.435   5.848
 7765SOL     OW24193   5.533   3.883   4.652
 7765SOL    HW124194   5.565   3.881   4.747
 7765SOL    HW224195   5.433   3.878   4.651
 7766SOL     OW24196   0.171   3.455   6.649
 7766SOL    HW124197   0.132   3.410   6.569
 7766SOL    HW224198   0.188   3.552   6.628
 7767SOL     OW24199   4.260   0.440   3.993
 7767SOL    HW124200   4.251   0.449   4.092
 7767SOL    HW224201   4.350   0.470   3.964
 7768SOL     OW24202   3.899   5.702   3.923
 7768SOL    HW124203   3.958   5.723   4.001
 7768SOL    HW224204   3.803   5.714   3.950
 7769SOL     OW24205   3.672   2.937   6.196
 7769SOL    HW124206   3.628   3.001   6.257
 7769SOL    HW224207   3.707   2.859   6.248
 7770SOL     OW24208   1.328   3.620   4.427
 7770SOL    HW124209   1.257   3.550   4.431
 7770SOL    HW224210   1.414   3.583   4.462
 7771SOL     OW24211   1.838   3.934   6.540
 7771SOL    HW124212   1.851   3.841   6.505
 7771SOL    HW224213   1.789   3.930   6.627
 7772SOL     OW24214   5.654   6.082   2.067
 7772SOL    HW124215   5.625   6.155   2.129
 7772SOL    HW224216   5.585   6.070   1.995
 7773SOL     OW24217   1.943   6.646   6.639
 7773SOL    HW124218   1.884   6.571   6.610
 7773SOL    HW224219   2.034   6.610   6.660
 7774SOL     OW24220   5.159   1.585   2.740
 7774SOL    HW124221   5.187   1.504   2.792
 7774SOL    HW224222   5.194   1.667   2.785
 7775SOL     OW24223   3.034   1.561   1.494
 7775SOL    HW124224   2.993   1.606   1.573
 7775SOL    HW224225   2.974   1.569   1.415
 7776SOL     OW24226   2.827   1.070   4.737
 7776SOL    HW124227   2.886   1.149   4.752
 7776SOL    HW224228   2.745   1.098   4.688
 7777SOL     OW24229   6.150   5.881   3.221
 7777SOL    HW124230   6.196   5.824   3.154
 7777SOL    HW224231   6.082   5.940   3.176
 7778SOL     OW24232   0.677   4.723   2.673
 7778SOL    HW124233   0.774   4.706   2.656
 7778SOL    HW224234   0.653   4.814   2.640
 7779SOL     OW24235   3.823   6.454   2.042
 7779SOL    HW124236   3.807   6.487   2.135
 7779SOL    HW224237   3.820   6.531   1.978
 7780SOL     OW24238   6.106   5.828   4.956
 7780SOL    HW124239   6.131   5.923   4.936
 7780SOL    HW224240   6.012   5.824   4.988
 7781SOL     OW24241   1.921   3.184   0.891
 7781SOL    HW124242   2.005   3.239   0.887
 7781SOL    HW224243   1.896   3.154   0.799
 7782SOL     OW24244   5.572   3.472   4.614
 7782SOL    HW124245   5.553   3.386   4.566
 7782SOL    HW224246   5.486   3.523   4.626
 7783SOL     OW24247   2.417   6.450   4.188
 7783SOL    HW124248   2.486   6.386   4.156
 7783SOL    HW224249   2.413   6.447   4.288
 7784SOL     OW24250   1.603   1.821   2.056
 7784SOL    HW124251   1.505   1.800   2.053
 7784SOL    HW224252   1.642   1.787   2.141
 7785SOL     OW24253   0.014   6.201   2.978
 7785SOL    HW124254   0.087   6.135   2.960
 7785SOL    HW224255   6.952   6.158   2.964
 7786SOL     OW24256   4.296   1.486   6.139
 7786SOL    HW124257   4.226   1.557   6.151
 7786SOL    HW224258   4.380   1.515   6.185
 7787SOL     OW24259   2.200   2.370   1.806
 7787SOL    HW124260   2.209   2.281   1.851
 7787SOL    HW224261   2.103   2.395   1.802
 7788SOL     OW24262   0.651   3.863   1.650
 7788SOL    HW124263   0.653   3.775   1.604
 7788SOL    HW224264   0.581   3.861   1.722
 7789SOL     OW24265   3.516   1.249   6.398
 7789SOL    HW124266   3.588   1.204   6.451
 7789SOL    HW224267   3.476   1.323   6.452
 7790SOL     OW24268   4.062   5.162   3.015
 7790SOL    HW124269   4.097   5.220   2.942
 7790SOL    HW224270   4.093   5.196   3.103
 7791SOL     OW24271   2.818   5.691   2.506
 7791SOL    HW124272   2.745   5.645   2.555
 7791SOL    HW224273   2.880   5.623   2.466
 7792SOL     OW24274   1.362   1.291   2.921
 7792SOL    HW124275   1.317   1.372   2.883
 7792SOL    HW224276   1.447   1.274   2.872
 7793SOL     OW24277   5.104   1.167   0.660
 7793SOL    HW124278   5.150   1.212   0.737
 7793SOL    HW224279   5.072   1.236   0.595
 7794SOL     OW24280   1.109   0.229   3.409
 7794SOL    HW124281   1.074   0.302   3.350
 7794SOL    HW224282   1.209   0.233   3.412
 7795SOL     OW24283   3.677   4.384   1.131
 7795SOL    HW124284   3.646   4.476   1.107
 7795SOL    HW224285   3.772   4.372   1.102
 7796SOL     OW24286   3.138   1.584   0.218
 7796SOL    HW124287   3.193   1.512   0.176
 7796SOL    HW224288   3.157   1.589   0.316
 7797SOL     OW24289   1.138   5.488   2.951
 7797SOL    HW124290   1.090   5.499   3.037
 7797SOL    HW224291   1.234   5.514   2.962
 7798SOL     OW24292   2.167   3.296   0.888
 7798SOL    HW124293   2.237   3.239   0.931
 7798SOL    HW224294   2.204   3.388   0.875
 7799SOL     OW24295   3.480   5.932   3.675
 7799SOL    HW124296   3.467   5.960   3.580
 7799SOL    HW224297   3.392   5.902   3.713
 7800SOL     OW24298   1.757   0.640   2.043
 7800SOL    HW124299   1.783   0.671   1.952
 7800SOL    HW224300   1.692   0.704   2.083
 7801SOL     OW24301   1.238   2.107   1.245
 7801SOL    HW124302   1.166   2.039   1.231
 7801SOL    HW224303   1.216   2.162   1.326
 7802SOL     OW24304   6.592   4.040   3.881
 7802SOL    HW124305   6.572   4.110   3.949
 7802SOL    HW224306   6.511   3.983   3.866
 7803SOL     OW24307   2.902   2.903   5.625
 7803SOL    HW124308   2.822   2.842   5.630
 7803SOL    HW224309   2.984   2.849   5.605
 7804SOL     OW24310   2.734   1.709   5.530
 7804SOL    HW124311   2.666   1.758   5.583
 7804SOL    HW224312   2.795   1.774   5.485
 7805SOL     OW24313   5.645   2.986   6.635
 7805SOL    HW124314   5.687   2.932   6.563
 7805SOL    HW224315   5.677   2.953   6.724
 7806SOL     OW24316   6.401   1.409   5.563
 7806SOL    HW124317   6.493   1.413   5.524
 7806SOL    HW224318   6.404   1.357   5.649
 7807SOL     OW24319   2.440   5.403   5.477
 7807SOL    HW124320   2.434   5.492   5.522
 7807SOL    HW224321   2.535   5.386   5.449
 7808SOL     OW24322   6.414   3.848   3.836
 7808SOL    HW124323   6.324   3.855   3.879
 7808SOL    HW224324   6.404   3.848   3.737
 7809SOL     OW24325   4.886   6.397   2.218
 7809SOL    HW124326   4.872   6.427   2.312
 7809SOL    HW224327   4.797   6.387   2.173
 7810SOL     OW24328   2.509   6.440   5.597
 7810SOL    HW124329   2.498   6.489   5.510
 7810SOL    HW224330   2.594   6.468   5.640
 7811SOL     OW24331   0.799   5.985   2.461
 7811SOL    HW124332   0.880   6.042   2.466
 7811SOL    HW224333   0.724   6.029   2.511
 7812SOL     OW24334   2.737   1.133   5.630
 7812SOL    HW124335   2.735   1.219   5.682
 7812SOL    HW224336   2.832   1.109   5.611
 7813SOL     OW24337   5.552   0.762   1.271
 7813SOL    HW124338   5.499   0.803   1.197
 7813SOL    HW224339   5.490   0.721   1.338
 7814SOL     OW24340   5.954   2.498   2.638
 7814SOL    HW124341   5.955   2.587   2.593
 7814SOL    HW224342   5.863   2.457   2.629
 7815SOL     OW24343   4.791   5.698   3.849
 7815SOL    HW124344   4.877   5.685   3.800
 7815SOL    HW224345   4.716   5.657   3.798
 7816SOL     OW24346   0.820   1.280   5.130
 7816SOL    HW124347   0.801   1.240   5.040
 7816SOL    HW224348   0.823   1.208   5.199
 7817SOL     OW24349   4.329   1.859   6.935
 7817SOL    HW124350   4.301   1.904   6.850
 7817SOL    HW224351   4.419   1.818   6.922
 7818SOL     OW24352   5.831   1.161   3.016
 7818SOL    HW124353   5.777   1.169   2.932
 7818SOL    HW224354   5.865   1.068   3.026
 7819SOL     OW24355   1.566   3.487   5.422
 7819SOL    HW124356   1.488   3.547   5.438
 7819SOL    HW224357   1.636   3.505   5.491
 7820SOL     OW24358   1.570   1.268   5.289
 7820SOL    HW124359   1.610   1.191   5.238
 7820SOL    HW224360   1.473   1.251   5.304
 7821SOL     OW24361   3.772   6.223   6.417
 7821SOL    HW124362   3.779   6.131   6.455
 7821SOL    HW224363   3.675   6.245   6.400
 7822SOL     OW24364   0.163   1.526   4.802
 7822SOL    HW124365   0.174   1.524   4.902
 7822SOL    HW224366   0.249   1.555   4.759
 7823SOL     OW24367   2.734   3.273   5.649
 7823SOL    HW124368   2.710   3.177   5.636
 7823SOL    HW224369   2.650   3.329   5.649
 7824SOL     OW24370   5.509   3.753   3.209
 7824SOL    HW124371   5.412   3.729   3.208
 7824SOL    HW224372   5.532   3.797   3.296
 7825SOL     OW24373   3.371   3.719   2.797
 7825SOL    HW124374   3.298   3.752   2.737
 7825SOL    HW224375   3.460   3.733   2.754
 7826SOL     OW24376   6.678   0.031   0.202
 7826SOL    HW124377   6.740   0.078   0.265
 7826SOL    HW224378   6.723   6.976   0.165
 7827SOL     OW24379   4.266   3.299   0.381
 7827SOL    HW124380   4.204   3.302   0.303
 7827SOL    HW224381   4.230   3.356   0.455
 7828SOL     OW24382   0.850   5.729   1.377
 7828SOL    HW124383   0.801   5.740   1.464
 7828SOL    HW224384   0.921   5.660   1.388
 7829SOL     OW24385   3.546   4.109   3.476
 7829SOL    HW124386   3.615   4.053   3.430
 7829SOL    HW224387   3.470   4.126   3.413
 7830SOL     OW24388   6.155   3.680   6.752
 7830SOL    HW124389   6.232   3.689   6.688
 7830SOL    HW224390   6.070   3.705   6.705
 7831SOL     OW24391   1.536   2.751   0.249
 7831SOL    HW124392   1.581   2.768   0.337
 7831SOL    HW224393   1.604   2.761   0.176
 7832SOL     OW24394   3.354   3.016   5.674
 7832SOL    HW124395   3.451   2.995   5.687
 7832SOL    HW224396   3.308   2.935   5.637
 7833SOL     OW24397   0.135   6.597   1.261
 7833SOL    HW124398   0.152   6.513   1.210
 7833SOL    HW224399   0.049   6.638   1.231
 7834SOL     OW24400   6.514   0.551   1.541
 7834SOL    HW124401   6.510   0.454   1.567
 7834SOL    HW224402   6.592   0.594   1.585
 7835SOL     OW24403   2.474   2.383   4.324
 7835SOL    HW124404   2.450   2.287   4.310
 7835SOL    HW224405   2.556   2.405   4.271
 7836SOL     OW24406   1.864   0.738   0.467
 7836SOL    HW124407   1.920   0.805   0.419
 7836SOL    HW224408   1.769   0.771   0.472
 7837SOL     OW24409   4.934   6.712   2.262
 7837SOL    HW124410   4.997   6.648   2.305
 7837SOL    HW224411   4.850   6.718   2.316
 7838SOL     OW24412   4.148   6.667   4.037
 7838SOL    HW124413   4.113   6.650   3.944
 7838SOL    HW224414   4.248   6.669   4.035
 7839SOL     OW24415   6.998   4.559   3.124
 7839SOL    HW124416   6.949   4.549   3.211
 7839SOL    HW224417   6.934   4.587   3.053
 7840SOL     OW24418   4.986   3.387   5.852
 7840SOL    HW124419   4.905   3.362   5.799
 7840SOL    HW224420   4.963   3.390   5.949
 7841SOL     OW24421   1.133   1.792   6.626
 7841SOL    HW124422   1.191   1.710   6.629
 7841SOL    HW224423   1.040   1.769   6.654
 7842SOL     OW24424   3.315   0.175   2.034
 7842SOL    HW124425   3.272   0.229   2.106
 7842SOL    HW224426   3.369   0.235   1.975
 7843SOL     OW24427   0.297   2.903   2.061
 7843SOL    HW124428   0.305   2.822   2.002
 7843SOL    HW224429   0.343   2.980   2.018
 7844SOL     OW24430   3.818   1.490   4.255
 7844SOL    HW124431   3.790   1.408   4.206
 7844SOL    HW224432   3.785   1.571   4.206
 7845SOL     OW24433   1.425   1.111   4.018
 7845SOL    HW124434   1.430   1.211   4.015
 7845SOL    HW224435   1.431   1.075   3.925
 7846SOL     OW24436   4.270   6.636   2.237
 7846SOL    HW124437   4.317   6.618   2.324
 7846SOL    HW224438   4.171   6.629   2.250
 7847SOL     OW24439   0.233   0.178   6.727
 7847SOL    HW124440   0.168   0.118   6.681
 7847SOL    HW224441   0.258   0.139   6.815
 7848SOL     OW24442   4.136   4.488   1.085
 7848SOL    HW124443   4.119   4.458   1.179
 7848SOL    HW224444   4.137   4.588   1.082
 7849SOL     OW24445   5.114   4.111   4.719
 7849SOL    HW124446   5.037   4.150   4.769
 7849SOL    HW224447   5.197   4.122   4.774
 7850SOL     OW24448   0.874   1.996   4.384
 7850SOL    HW124449   0.884   2.092   4.357
 7850SOL    HW224450   0.868   1.991   4.484
 7851SOL     OW24451   4.819   6.686   1.089
 7851SOL    HW124452   4.913   6.716   1.076
 7851SOL    HW224453   4.809   6.646   1.180
 7852SOL     OW24454   2.547   6.811   0.332
 7852SOL    HW124455   2.606   6.737   0.363
 7852SOL    HW224456   2.571   6.895   0.380
 7853SOL     OW24457   1.869   2.753   0.245
 7853SOL    HW124458   1.869   2.798   0.156
 7853SOL    HW224459   1.857   2.654   0.233
 7854SOL     OW24460   3.374   4.110   3.262
 7854SOL    HW124461   3.360   4.144   3.169
 7854SOL    HW224462   3.288   4.117   3.314
 7855SOL     OW24463   4.071   0.176   5.282
 7855SOL    HW124464   4.040   0.196   5.375
 7855SOL    HW224465   4.166   0.207   5.271
 7856SOL     OW24466   3.196   3.757   6.742
 7856SOL    HW124467   3.231   3.752   6.648
 7856SOL    HW224468   3.184   3.665   6.777
 7857SOL     OW24469   0.768   3.033   5.113
 7857SOL    HW124470   0.764   3.128   5.144
 7857SOL    HW224471   0.724   3.026   5.023
 7858SOL     OW24472   5.941   3.625   2.952
 7858SOL    HW124473   5.858   3.635   3.007
 7858SOL    HW224474   5.920   3.571   2.871
 7859SOL     OW24475   0.690   6.203   6.957
 7859SOL    HW124476   0.733   6.114   6.941
 7859SOL    HW224477   0.713   6.234   0.023
 7860SOL     OW24478   4.454   6.675   1.765
 7860SOL    HW124479   4.526   6.736   1.797
 7860SOL    HW224480   4.391   6.727   1.707
 7861SOL     OW24481   5.313   3.378   0.834
 7861SOL    HW124482   5.335   3.334   0.747
 7861SOL    HW224483   5.223   3.421   0.828
 7862SOL     OW24484   2.663   4.527   1.739
 7862SOL    HW124485   2.721   4.550   1.818
 7862SOL    HW224486   2.574   4.496   1.771
 7863SOL     OW24487   5.392   5.865   2.170
 7863SOL    HW124488   5.362   5.782   2.218
 7863SOL    HW224489   5.352   5.945   2.213
 7864SOL     OW24490   1.132   6.086   4.201
 7864SOL    HW124491   1.120   5.993   4.165
 7864SOL    HW224492   1.044   6.133   4.202
 7865SOL     OW24493   3.529   0.784   3.155
 7865SOL    HW124494   3.610   0.757   3.206
 7865SOL    HW224495   3.502   0.877   3.181
 7866SOL     OW24496   1.960   2.338   4.826
 7866SOL    HW124497   1.993   2.428   4.856
 7866SOL    HW224498   2.003   2.314   4.739
 7867SOL     OW24499   5.379   3.944   2.147
 7867SOL    HW124500   5.331   3.969   2.231
 7867SOL    HW224501   5.311   3.919   2.077
 7868SOL     OW24502   5.404   0.254   1.002
 7868SOL    HW124503   5.326   0.315   1.018
 7868SOL    HW224504   5.480   0.307   0.965
 7869SOL     OW24505   6.546   1.433   3.914
 7869SOL    HW124506   6.539   1.513   3.974
 7869SOL    HW224507   6.461   1.423   3.863
 7870SOL     OW24508   6.535   6.645   3.227
 7870SOL    HW124509   6.566   6.649   3.132
 7870SOL    HW224510   6.597   6.698   3.285
 7871SOL     OW24511   5.569   3.349   3.737
 7871SOL    HW124512   5.640   3.352   3.807
 7871SOL    HW224513   5.487   3.396   3.770
 7872SOL     OW24514   6.693   3.685   4.481
 7872SOL    HW124515   6.757   3.708   4.408
 7872SOL    HW224516   6.639   3.766   4.505
 7873SOL     OW24517   0.022   5.648   4.613
 7873SOL    HW124518   0.071   5.646   4.700
 7873SOL    HW224519   0.072   5.705   4.548
 7874SOL     OW24520   6.123   1.228   1.025
 7874SOL    HW124521   6.056   1.246   0.952
 7874SOL    HW224522   6.077   1.185   1.102
 7875SOL     OW24523   4.958   3.037   0.922
 7875SOL    HW124524   4.957   3.133   0.896
 7875SOL    HW224525   5.048   2.998   0.902
 7876SOL     OW24526   0.322   0.693   4.999
 7876SOL    HW124527   0.413   0.727   4.974
 7876SOL    HW224528   0.299   0.614   4.942
 7877SOL     OW24529   6.274   2.756   2.702
 7877SOL    HW124530   6.367   2.767   2.666
 7877SOL    HW224531   6.240   2.845   2.735
 7878SOL     OW24532   4.596   3.951   1.659
 7878SOL    HW124533   4.522   3.890   1.631
 7878SOL    HW224534   4.573   4.045   1.635
 7879SOL     OW24535   6.102   1.072   4.557
 7879SOL    HW124536   6.174   1.080   4.626
 7879SOL    HW224537   6.022   1.124   4.587
 7880SOL     OW24538   1.286   6.638   5.987
 7880SOL    HW124539   1.352   6.628   5.913
 7880SOL    HW224540   1.267   6.549   6.027
 7881SOL     OW24541   0.725   4.789   3.686
 7881SOL    HW124542   0.782   4.860   3.728
 7881SOL    HW224543   0.775   4.747   3.610
 7882SOL     OW24544   1.884   4.483   1.546
 7882SOL    HW124545   1.797   4.508   1.589
 7882SOL    HW224546   1.952   4.462   1.617
 7883SOL     OW24547   3.691   2.057   3.323
 7883SOL    HW124548   3.706   1.958   3.321
 7883SOL    HW224549   3.690   2.088   3.419
 7884SOL     OW24550   0.509   3.446   4.622
 7884SOL    HW124551   0.548   3.524   4.671
 7884SOL    HW224552   0.566   3.426   4.542
 7885SOL     OW24553   5.781   5.163   2.738
 7885SOL    HW124554   5.796   5.200   2.646
 7885SOL    HW224555   5.829   5.219   2.805
 7886SOL     OW24556   4.835   3.963   2.512
 7886SOL    HW124557   4.876   4.053   2.527
 7886SOL    HW224558   4.855   3.932   2.419
 7887SOL     OW24559   1.234   2.971   1.954
 7887SOL    HW124560   1.283   2.987   1.868
 7887SOL    HW224561   1.175   3.049   1.975
 7888SOL     OW24562   6.373   0.863   5.030
 7888SOL    HW124563   6.437   0.854   5.107
 7888SOL    HW224564   6.423   0.851   4.944
 7889SOL     OW24565   5.566   5.408   0.607
 7889SOL    HW124566   5.620   5.477   0.557
 7889SOL    HW224567   5.514   5.353   0.543
 7890SOL     OW24568   2.253   2.881   3.683
 7890SOL    HW124569   2.294   2.915   3.597
 7890SOL    HW224570   2.312   2.809   3.721
 7891SOL     OW24571   6.372   2.003   4.302
 7891SOL    HW124572   6.334   1.937   4.237
 7891SOL    HW224573   6.298   2.049   4.351
 7892SOL     OW24574   1.062   1.869   5.145
 7892SOL    HW124575   0.968   1.887   5.175
 7892SOL    HW224576   1.099   1.951   5.100
 7893SOL     OW24577   6.200   6.972   0.419
 7893SOL    HW124578   6.145   0.004   0.478
 7893SOL    HW224579   6.259   6.914   0.475
 7894SOL     OW24580   2.771   0.847   0.051
 7894SOL    HW124581   2.858   0.865   0.097
 7894SOL    HW224582   2.788   0.823   6.982
 7895SOL     OW24583   6.463   5.996   3.236
 7895SOL    HW124584   6.382   5.938   3.228
 7895SOL    HW224585   6.475   6.048   3.151
 7896SOL     OW24586   2.504   1.993   0.610
 7896SOL    HW124587   2.460   2.071   0.653
 7896SOL    HW224588   2.534   2.018   0.517
 7897SOL     OW24589   3.617   2.831   0.537
 7897SOL    HW124590   3.554   2.821   0.614
 7897SOL    HW224591   3.704   2.867   0.571
 7898SOL     OW24592   5.255   6.947   3.064
 7898SOL    HW124593   5.309   6.879   3.113
 7898SOL    HW224594   5.198   6.997   3.128
 7899SOL     OW24595   5.978   4.256   4.035
 7899SOL    HW124596   6.016   4.242   3.943
 7899SOL    HW224597   5.928   4.342   4.038
 7900SOL     OW24598   0.473   3.737   0.419
 7900SOL    HW124599   0.412   3.770   0.491
 7900SOL    HW224600   0.421   3.727   0.334
 7901SOL     OW24601   0.101   2.242   0.321
 7901SOL    HW124602   0.108   2.212   0.416
 7901SOL    HW224603   0.113   2.341   0.316
 7902SOL     OW24604   1.968   6.843   1.957
 7902SOL    HW124605   1.999   6.859   1.864
 7902SOL    HW224606   1.950   6.745   1.970
 7903SOL     OW24607   2.362   2.257   5.049
 7903SOL    HW124608   2.284   2.224   4.996
 7903SOL    HW224609   2.345   2.242   5.146
 7904SOL     OW24610   4.440   2.380   2.946
 7904SOL    HW124611   4.355   2.331   2.926
 7904SOL    HW224612   4.465   2.367   3.042
 7905SOL     OW24613   5.354   1.971   1.367
 7905SOL    HW124614   5.292   2.002   1.295
 7905SOL    HW224615   5.437   2.027   1.366
 7906SOL     OW24616   1.315   4.670   7.005
 7906SOL    HW124617   1.265   4.584   7.017
 7906SOL    HW224618   1.383   4.681   0.051
 7907SOL     OW24619   5.850   6.246   2.760
 7907SOL    HW124620   5.752   6.244   2.739
 7907SOL    HW224621   5.903   6.235   2.675
 7908SOL     OW24622   1.748   6.981   6.134
 7908SOL    HW124623   1.760   0.038   6.081
 7908SOL    HW224624   1.827   6.920   6.119
 7909SOL     OW24625   6.221   4.037   1.782
 7909SOL    HW124626   6.160   4.078   1.850
 7909SOL    HW224627   6.284   3.974   1.828
 7910SOL     OW24628   1.089   4.037   6.172
 7910SOL    HW124629   1.090   3.965   6.102
 7910SOL    HW224630   1.008   4.027   6.228
 7911SOL     OW24631   6.670   4.327   5.881
 7911SOL    HW124632   6.622   4.414   5.890
 7911SOL    HW224633   6.708   4.301   5.970
 7912SOL     OW24634   5.884   5.785   0.906
 7912SOL    HW124635   5.965   5.827   0.947
 7912SOL    HW224636   5.904   5.756   0.813
 7913SOL     OW24637   1.274   4.906   0.193
 7913SOL    HW124638   1.175   4.894   0.192
 7913SOL    HW224639   1.319   4.817   0.201
 7914SOL     OW24640   0.897   0.021   5.032
 7914SOL    HW124641   0.860   0.086   4.967
 7914SOL    HW224642   0.915   6.960   4.986
 7915SOL     OW24643   3.087   4.919   2.442
 7915SOL    HW124644   3.081   4.898   2.540
 7915SOL    HW224645   3.143   5.001   2.429
 7916SOL     OW24646   1.201   0.397   4.117
 7916SOL    HW124647   1.269   0.351   4.175
 7916SOL    HW224648   1.128   0.333   4.096
 7917SOL     OW24649   4.767   1.863   1.886
 7917SOL    HW124650   4.806   1.897   1.972
 7917SOL    HW224651   4.793   1.923   1.811
 7918SOL     OW24652   2.513   2.602   3.612
 7918SOL    HW124653   2.449   2.552   3.554
 7918SOL    HW224654   2.591   2.634   3.557
 7919SOL     OW24655   1.482   6.227   5.048
 7919SOL    HW124656   1.579   6.242   5.065
 7919SOL    HW224657   1.437   6.199   5.133
 7920SOL     OW24658   5.185   0.401   1.043
 7920SOL    HW124659   5.122   0.405   0.965
 7920SOL    HW224660   5.168   0.477   1.105
 7921SOL     OW24661   5.311   2.538   0.988
 7921SOL    HW124662   5.385   2.601   0.963
 7921SOL    HW224663   5.223   2.583   0.974
 7922SOL     OW24664   2.768   0.283   2.164
 7922SOL    HW124665   2.758   0.237   2.252
 7922SOL    HW224666   2.806   0.374   2.178
 7923SOL     OW24667   4.279   1.602   0.060
 7923SOL    HW124668   4.263   1.515   0.013
 7923SOL    HW224669   4.293   1.674   7.018
 7924SOL     OW24670   6.213   6.217   6.860
 7924SOL    HW124671   6.263   6.159   6.796
 7924SOL    HW224672   6.124   6.242   6.822
 7925SOL     OW24673   2.009   5.047   6.824
 7925SOL    HW124674   1.945   4.979   6.788
 7925SOL    HW224675   1.963   5.104   6.892
 7926SOL     OW24676   5.126   5.812   6.664
 7926SOL    HW124677   5.055   5.805   6.734
 7926SOL    HW224678   5.195   5.741   6.680
 7927SOL     OW24679   4.433   0.499   3.106
 7927SOL    HW124680   4.445   0.596   3.088
 7927SOL    HW224681   4.340   0.483   3.139
 7928SOL     OW24682   6.232   2.203   3.053
 7928SOL    HW124683   6.213   2.113   3.015
 7928SOL    HW224684   6.329   2.207   3.080
 7929SOL     OW24685   4.409   4.204   5.940
 7929SOL    HW124686   4.478   4.164   5.999
 7929SOL    HW224687   4.362   4.131   5.890
 7930SOL     OW24688   4.147   6.616   6.338
 7930SOL    HW124689   4.066   6.590   6.391
 7930SOL    HW224690   4.217   6.651   6.400
 7931SOL     OW24691   3.724   1.674   1.580
 7931SOL    HW124692   3.709   1.773   1.584
 7931SOL    HW224693   3.697   1.633   1.667
 7932SOL     OW24694   1.255   3.779   1.348
 7932SOL    HW124695   1.296   3.830   1.273
 7932SOL    HW224696   1.323   3.766   1.421
 7933SOL     OW24697   1.106   1.988   0.266
 7933SOL    HW124698   1.038   1.950   0.329
 7933SOL    HW224699   1.185   1.927   0.262
 7934SOL     OW24700   1.044   5.368   0.819
 7934SOL    HW124701   1.040   5.467   0.832
 7934SOL    HW224702   1.034   5.347   0.721
 7935SOL     OW24703   6.360   2.595   3.294
 7935SOL    HW124704   6.451   2.567   3.322
 7935SOL    HW224705   6.323   2.529   3.228
 7936SOL     OW24706   3.269   5.573   3.920
 7936SOL    HW124707   3.237   5.478   3.921
 7936SOL    HW224708   3.341   5.583   3.851
 7937SOL     OW24709   4.004   1.223   0.841
 7937SOL    HW124710   4.058   1.174   0.772
 7937SOL    HW224711   3.970   1.309   0.802
 7938SOL     OW24712   3.085   6.949   3.385
 7938SOL    HW124713   3.075   6.877   3.317
 7938SOL    HW224714   3.036   6.922   3.469
 7939SOL     OW24715   1.025   0.996   2.844
 7939SOL    HW124716   1.098   1.003   2.777
 7939SOL    HW224717   1.064   0.989   2.936
 7940SOL     OW24718   5.467   1.296   4.348
 7940SOL    HW124719   5.401   1.230   4.312
 7940SOL    HW224720   5.469   1.376   4.288
 7941SOL     OW24721   3.464   0.125   1.172
 7941SOL    HW124722   3.466   0.049   1.108
 7941SOL    HW224723   3.506   0.098   1.258
 7942SOL     OW24724   1.558   4.501   0.655
 7942SOL    HW124725   1.458   4.510   0.661
 7942SOL    HW224726   1.598   4.523   0.744
 7943SOL     OW24727   1.458   6.085   5.985
 7943SOL    HW124728   1.427   6.078   6.080
 7943SOL    HW224729   1.380   6.076   5.924
 7944SOL     OW24730   0.757   2.172   1.313
 7944SOL    HW124731   0.690   2.246   1.309
 7944SOL    HW224732   0.841   2.200   1.268
 7945SOL     OW24733   6.049   4.142   2.832
 7945SOL    HW124734   5.960   4.185   2.818
 7945SOL    HW224735   6.036   4.055   2.881
 7946SOL     OW24736   3.795   1.166   6.412
 7946SOL    HW124737   3.775   1.156   6.315
 7946SOL    HW224738   3.877   1.114   6.435
 7947SOL     OW24739   6.971   3.890   6.503
 7947SOL    HW124740   7.013   3.868   6.414
 7947SOL    HW224741   6.967   3.807   6.559
 7948SOL     OW24742   2.147   5.604   2.698
 7948SOL    HW124743   2.187   5.513   2.683
 7948SOL    HW224744   2.059   5.594   2.745
 7949SOL     OW24745   2.943   6.023   5.827
 7949SOL    HW124746   2.921   5.982   5.738
 7949SOL    HW224747   2.860   6.058   5.869
 7950SOL     OW24748   6.333   4.669   5.404
 7950SOL    HW124749   6.411   4.617   5.371
 7950SOL    HW224750   6.301   4.730   5.331
 7951SOL     OW24751   4.456   6.571   2.454
 7951SOL    HW124752   4.550   6.566   2.419
 7951SOL    HW224753   4.417   6.479   2.455
 7952SOL     OW24754   6.493   3.957   5.116
 7952SOL    HW124755   6.447   3.904   5.046
 7952SOL    HW224756   6.504   3.901   5.199
 7953SOL     OW24757   1.563   6.670   0.481
 7953SOL    HW124758   1.654   6.674   0.521
 7953SOL    HW224759   1.494   6.686   0.551
 7954SOL     OW24760   3.564   3.790   6.864
 7954SOL    HW124761   3.602   3.723   6.800
 7954SOL    HW224762   3.537   3.872   6.813
 7955SOL     OW24763   1.250   1.156   6.672
 7955SOL    HW124764   1.171   1.218   6.676
 7955SOL    HW224765   1.223   1.071   6.628
 7956SOL     OW24766   0.039   6.135   0.361
 7956SOL    HW124767   0.087   6.207   0.310
 7956SOL    HW224768   0.105   6.067   0.392
 7957SOL     OW24769   5.062   1.552   6.132
 7957SOL    HW124770   5.038   1.463   6.169
 7957SOL    HW224771   5.038   1.556   6.035
 7958SOL     OW24772   5.045   2.679   0.026
 7958SOL    HW124773   5.052   2.645   6.959
 7958SOL    HW224774   4.983   2.757   0.028
 7959SOL     OW24775   5.707   2.353   0.260
 7959SOL    HW124776   5.729   2.313   0.348
 7959SOL    HW224777   5.652   2.435   0.273
 7960SOL     OW24778   1.063   1.283   5.403
 7960SOL    HW124779   1.060   1.335   5.317
 7960SOL    HW224780   1.127   1.327   5.466
 7961SOL     OW24781   6.260   6.463   6.963
 7961SOL    HW124782   6.245   6.365   6.944
 7961SOL    HW224783   6.172   6.510   6.965
 7962SOL     OW24784   6.106   0.138   5.428
 7962SOL    HW124785   6.154   0.182   5.352
 7962SOL    HW224786   6.111   0.197   5.509
 7963SOL     OW24787   6.677   6.361   3.485
 7963SOL    HW124788   6.763   6.408   3.464
 7963SOL    HW224789   6.617   6.367   3.406
 7964SOL     OW24790   6.177   4.176   1.541
 7964SOL    HW124791   6.195   4.126   1.626
 7964SOL    HW224792   6.092   4.144   1.501
 7965SOL     OW24793   4.434   2.124   6.396
 7965SOL    HW124794   4.414   2.222   6.396
 7965SOL    HW224795   4.497   2.102   6.321
 7966SOL     OW24796   5.517   3.881   4.948
 7966SOL    HW124797   5.494   3.787   4.922
 7966SOL    HW224798   5.525   3.887   5.047
 7967SOL     OW24799   1.452   4.682   0.198
 7967SOL    HW124800   1.533   4.731   0.231
 7967SOL    HW224801   1.431   4.608   0.261
 7968SOL     OW24802   1.016   3.218   4.521
 7968SOL    HW124803   0.978   3.221   4.429
 7968SOL    HW224804   1.062   3.130   4.535
 7969SOL     OW24805   3.485   5.246   6.687
 7969SOL    HW124806   3.394   5.281   6.706
 7969SOL    HW224807   3.510   5.269   6.593
 7970SOL     OW24808   6.210   2.889   4.267
 7970SOL    HW124809   6.112   2.890   4.288
 7970SOL    HW224810   6.223   2.894   4.168
 7971SOL     OW24811   2.532   1.334   6.643
 7971SOL    HW124812   2.486   1.246   6.657
 7971SOL    HW224813   2.542   1.351   6.545
 7972SOL     OW24814   3.272   4.071   4.377
 7972SOL    HW124815   3.292   3.981   4.416
 7972SOL    HW224816   3.196   4.113   4.427
 7973SOL     OW24817   5.949   4.707   2.089
 7973SOL    HW124818   5.871   4.686   2.147
 7973SOL    HW224819   5.924   4.779   2.024
 7974SOL     OW24820   0.323   2.664   5.060
 7974SOL    HW124821   0.410   2.701   5.092
 7974SOL    HW224822   0.341   2.597   4.987
 7975SOL     OW24823   5.412   0.405   1.264
 7975SOL    HW124824   5.407   0.347   1.344
 7975SOL    HW224825   5.340   0.475   1.269
 7976SOL     OW24826   0.221   0.291   0.683
 7976SOL    HW124827   0.215   0.366   0.617
 7976SOL    HW224828   0.255   0.209   0.636
 7977SOL     OW24829   5.537   5.967   3.712
 7977SOL    HW124830   5.520   6.026   3.791
 7977SOL    HW224831   5.625   5.922   3.723
 7978SOL     OW24832   0.403   4.470   1.488
 7978SOL    HW124833   0.339   4.406   1.446
 7978SOL    HW224834   0.366   4.563   1.484
 7979SOL     OW24835   2.115   2.284   4.573
 7979SOL    HW124836   2.152   2.234   4.494
 7979SOL    HW224837   2.166   2.370   4.584
 7980SOL     OW24838   3.856   5.752   1.005
 7980SOL    HW124839   3.939   5.808   1.010
 7980SOL    HW224840   3.776   5.809   1.021
 7981SOL     OW24841   1.391   3.646   3.786
 7981SOL    HW124842   1.474   3.688   3.824
 7981SOL    HW224843   1.385   3.665   3.688
 7982SOL     OW24844   0.012   0.802   5.878
 7982SOL    HW124845   6.997   0.753   5.954
 7982SOL    HW224846   0.054   0.886   5.912
 7983SOL     OW24847   4.196   1.038   1.823
 7983SOL    HW124848   4.279   0.984   1.836
 7983SOL    HW224849   4.202   1.122   1.878
 7984SOL     OW24850   6.927   2.654   2.943
 7984SOL    HW124851   6.835   2.691   2.959
 7984SOL    HW224852   6.978   2.718   2.885
 7985SOL     OW24853   3.222   2.796   5.289
 7985SOL    HW124854   3.161   2.874   5.274
 7985SOL    HW224855   3.317   2.824   5.276
 7986SOL     OW24856   3.945   1.209   4.456
 7986SOL    HW124857   3.848   1.200   4.476
 7986SOL    HW224858   3.994   1.234   4.539
 7987SOL     OW24859   0.878   3.370   6.841
 7987SOL    HW124860   0.952   3.368   6.908
 7987SOL    HW224861   0.845   3.278   6.824
 7988SOL     OW24862   6.968   1.204   1.330
 7988SOL    HW124863   6.964   1.108   1.359
 7988SOL    HW224864   0.037   1.233   1.325
 7989SOL     OW24865   0.219   4.122   0.822
 7989SOL    HW124866   0.261   4.049   0.875
 7989SOL    HW224867   0.167   4.182   0.883
 7990SOL     OW24868   4.997   5.533   5.376
 7990SOL    HW124869   5.045   5.448   5.400
 7990SOL    HW224870   4.920   5.545   5.439
 7991SOL     OW24871   5.848   0.723   4.669
 7991SOL    HW124872   5.870   0.782   4.591
 7991SOL    HW224873   5.894   0.635   4.659
 7992SOL     OW24874   2.361   6.982   0.121
 7992SOL    HW124875   2.337   6.904   0.178
 7992SOL    HW224876   2.302   6.984   0.040
 7993SOL     OW24877   6.242   5.634   0.651
 7993SOL    HW124878   6.248   5.732   0.633
 7993SOL    HW224879   6.313   5.586   0.600
 7994SOL     OW24880   6.289   0.200   4.075
 7994SOL    HW124881   6.317   0.294   4.092
 7994SOL    HW224882   6.343   0.162   4.000
 7995SOL     OW24883   1.005   5.249   1.207
 7995SOL    HW124884   0.992   5.330   1.150
 7995SOL    HW224885   0.920   5.196   1.208
 7996SOL     OW24886   2.582   0.140   3.169
 7996SOL    HW124887   2.533   0.055   3.149
 7996SOL    HW224888   2.680   0.124   3.163
 7997SOL     OW24889   1.969   2.130   5.742
 7997SOL    HW124890   2.055   2.083   5.762
 7997SOL    HW224891   1.987   2.225   5.719
 7998SOL     OW24892   2.613   1.149   0.677
 7998SOL    HW124893   2.625   1.209   0.598
 7998SOL    HW224894   2.700   1.140   0.726
 7999SOL     OW24895   0.846   0.409   3.576
 7999SOL    HW124896   0.922   0.406   3.641
 7999SOL    HW224897   0.843   0.499   3.532
 8000SOL     OW24898   3.952   5.633   0.804
 8000SOL    HW124899   3.909   5.670   0.886
 8000SOL    HW224900   4.005   5.706   0.759
 8001SOL     OW24901   4.668   4.751   1.205
 8001SOL    HW124902   4.637   4.720   1.115
 8001SOL    HW224903   4.599   4.726   1.274
 8002SOL     OW24904   1.069   6.877   4.399
 8002SOL    HW124905   1.077   6.786   4.358
 8002SOL    HW224906   1.084   6.947   4.329
 8003SOL     OW24907   2.951   5.513   2.381
 8003SOL    HW124908   2.927   5.564   2.298
 8003SOL    HW224909   2.957   5.415   2.359
 8004SOL     OW24910   1.201   3.299   3.943
 8004SOL    HW124911   1.129   3.365   3.921
 8004SOL    HW224912   1.236   3.317   4.035
 8005SOL     OW24913   2.002   0.783   3.002
 8005SOL    HW124914   1.976   0.858   3.062
 8005SOL    HW224915   2.083   0.808   2.949
 8006SOL     OW24916   4.075   5.131   5.622
 8006SOL    HW124917   3.981   5.164   5.627
 8006SOL    HW224918   4.114   5.126   5.714
 8007SOL     OW24919   0.119   0.498   0.832
 8007SOL    HW124920   0.168   0.419   0.794
 8007SOL    HW224921   0.128   0.576   0.770
 8008SOL     OW24922   4.947   4.846   6.989
 8008SOL    HW124923   4.884   4.919   7.015
 8008SOL    HW224924   4.922   4.810   6.900
 8009SOL     OW24925   6.061   1.114   0.666
 8009SOL    HW124926   6.018   1.149   0.749
 8009SOL    HW224927   6.046   1.015   0.660
 8010SOL     OW24928   2.795   0.211   5.563
 8010SOL    HW124929   2.760   0.304   5.575
 8010SOL    HW224930   2.835   0.179   5.649
 8011SOL     OW24931   3.902   2.048   3.163
 8011SOL    HW124932   3.875   2.065   3.068
 8011SOL    HW224933   3.821   2.049   3.222
 8012SOL     OW24934   6.193   1.118   4.313
 8012SOL    HW124935   6.126   1.124   4.387
 8012SOL    HW224936   6.285   1.106   4.352
 8013SOL     OW24937   3.655   1.026   3.072
 8013SOL    HW124938   3.571   1.073   3.100
 8013SOL    HW224939   3.639   0.980   2.984
 8014SOL     OW24940   2.317   2.349   2.586
 8014SOL    HW124941   2.234   2.364   2.640
 8014SOL    HW224942   2.346   2.436   2.546
 8015SOL     OW24943   3.737   0.729   4.813
 8015SOL    HW124944   3.703   0.735   4.907
 8015SOL    HW224945   3.686   0.658   4.764
 8016SOL     OW24946   3.573   2.509   5.342
 8016SOL    HW124947   3.500   2.576   5.331
 8016SOL    HW224948   3.543   2.421   5.307
 8017SOL     OW24949   6.406   6.266   1.170
 8017SOL    HW124950   6.489   6.210   1.175
 8017SOL    HW224951   6.350   6.250   1.252
 8018SOL     OW24952   3.931   3.102   7.021
 8018SOL    HW124953   3.953   3.006   7.003
 8018SOL    HW224954   3.989   3.160   6.964
 8019SOL     OW24955   2.463   3.315   0.392
 8019SOL    HW124956   2.442   3.302   0.295
 8019SOL    HW224957   2.528   3.246   0.422
 8020SOL     OW24958   0.415   0.483   5.408
 8020SOL    HW124959   0.360   0.531   5.340
 8020SOL    HW224960   0.369   0.399   5.436
 8021SOL     OW24961   0.891   3.115   0.758
 8021SOL    HW124962   0.952   3.047   0.799
 8021SOL    HW224963   0.903   3.203   0.805
 8022SOL     OW24964   4.296   0.389   1.738
 8022SOL    HW124965   4.251   0.432   1.817
 8022SOL    HW224966   4.372   0.446   1.708
 8023SOL     OW24967   4.555   6.161   1.425
 8023SOL    HW124968   4.547   6.170   1.524
 8023SOL    HW224969   4.509   6.237   1.380
 8024SOL     OW24970   2.564   1.128   0.240
 8024SOL    HW124971   2.610   1.208   0.202
 8024SOL    HW224972   2.487   1.158   0.297
 8025SOL     OW24973   1.143   5.841   1.569
 8025SOL    HW124974   1.112   5.920   1.517
 8025SOL    HW224975   1.112   5.848   1.664
 8026SOL     OW24976   0.823   5.813   6.327
 8026SOL    HW124977   0.804   5.900   6.372
 8026SOL    HW224978   0.856   5.747   6.394
 8027SOL     OW24979   3.534   7.023   6.695
 8027SOL    HW124980   3.461   7.026   6.764
 8027SOL    HW224981   3.583   0.084   6.695
 8028SOL     OW24982   3.923   5.657   5.481
 8028SOL    HW124983   3.962   5.623   5.567
 8028SOL    HW224984   3.906   5.580   5.420
 8029SOL     OW24985   0.864   0.283   1.255
 8029SOL    HW124986   0.807   0.327   1.325
 8029SOL    HW224987   0.945   0.244   1.298
 8030SOL     OW24988   0.593   4.634   1.300
 8030SOL    HW124989   0.550   4.588   1.378
 8030SOL    HW224990   0.692   4.635   1.312
 8031SOL     OW24991   6.829   0.036   2.708
 8031SOL    HW124992   6.912   0.051   2.761
 8031SOL    HW224993   6.849   0.046   2.611
 8032SOL     OW24994   0.077   2.683   1.021
 8032SOL    HW124995   0.163   2.651   1.062
 8032SOL    HW224996   0.079   2.783   1.013
 8033SOL     OW24997   4.199   4.076   1.422
 8033SOL    HW124998   4.263   4.141   1.382
 8033SOL    HW224999   4.211   4.074   1.521
 8034SOL     OW25000   6.880   6.877   5.784
 8034SOL    HW125001   6.923   6.935   5.715
 8034SOL    HW225002   6.947   6.811   5.818
 8035SOL     OW25003   5.880   0.669   3.481
 8035SOL    HW125004   5.883   0.599   3.409
 8035SOL    HW225005   5.971   0.707   3.495
 8036SOL     OW25006   4.831   2.979   4.175
 8036SOL    HW125007   4.861   2.917   4.248
 8036SOL    HW225008   4.881   3.065   4.182
 8037SOL     OW25009   2.424   0.963   6.053
 8037SOL    HW125010   2.486   0.914   6.114
 8037SOL    HW225011   2.469   0.981   5.966
 8038SOL     OW25012   6.817   5.560   2.200
 8038SOL    HW125013   6.875   5.492   2.155
 8038SOL    HW225014   6.727   5.562   2.156
 8039SOL     OW25015   1.400   2.903   5.307
 8039SOL    HW125016   1.498   2.881   5.302
 8039SOL    HW225017   1.365   2.877   5.397
 8040SOL     OW25018   1.007   6.066   6.065
 8040SOL    HW125019   1.058   5.994   6.113
 8040SOL    HW225020   0.910   6.043   6.065
 8041SOL     OW25021   3.234   1.500   3.246
 8041SOL    HW125022   3.191   1.517   3.157
 8041SOL    HW225023   3.324   1.544   3.248
 8042SOL     OW25024   3.986   4.291   5.852
 8042SOL    HW125025   3.974   4.211   5.793
 8042SOL    HW225026   4.012   4.261   5.943
 8043SOL     OW25027   5.430   5.425   6.938
 8043SOL    HW125028   5.478   5.373   7.009
 8043SOL    HW225029   5.480   5.509   6.918
 8044SOL     OW25030   2.348   2.993   1.422
 8044SOL    HW125031   2.249   3.004   1.431
 8044SOL    HW225032   2.371   2.896   1.435
 8045SOL     OW25033   6.687   2.987   4.121
 8045SOL    HW125034   6.688   2.924   4.198
 8045SOL    HW225035   6.614   2.963   4.058
 8046SOL     OW25036   6.711   4.489   1.382
 8046SOL    HW125037   6.655   4.507   1.462
 8046SOL    HW225038   6.807   4.481   1.409
 8047SOL     OW25039   2.661   5.989   6.908
 8047SOL    HW125040   2.739   6.043   6.879
 8047SOL    HW225041   2.668   5.897   6.869
 8048SOL     OW25042   3.651   2.146   5.451
 8048SOL    HW125043   3.630   2.076   5.519
 8048SOL    HW225044   3.571   2.162   5.393
 8049SOL     OW25045   1.632   1.527   0.034
 8049SOL    HW125046   1.626   1.540   0.133
 8049SOL    HW225047   1.543   1.544   7.019
 8050SOL     OW25048   0.816   4.681   6.108
 8050SOL    HW125049   0.882   4.756   6.111
 8050SOL    HW225050   0.803   4.653   6.012
 8051SOL     OW25051   4.320   0.010   3.575
 8051SOL    HW125052   4.351   0.075   3.644
 8051SOL    HW225053   4.389   0.004   3.503
 8052SOL     OW25054   3.265   1.826   2.712
 8052SOL    HW125055   3.350   1.788   2.747
 8052SOL    HW225056   3.278   1.923   2.690
 8053SOL     OW25057   1.617   2.376   6.666
 8053SOL    HW125058   1.564   2.370   6.750
 8053SOL    HW225059   1.712   2.352   6.685
 8054SOL     OW25060   4.987   3.463   4.948
 8054SOL    HW125061   4.925   3.526   4.996
 8054SOL    HW225062   4.983   3.480   4.850
 8055SOL     OW25063   6.287   0.521   6.636
 8055SOL    HW125064   6.346   0.602   6.626
 8055SOL    HW225065   6.265   0.486   6.546
 8056SOL     OW25066   2.200   1.004   3.805
 8056SOL    HW125067   2.226   1.069   3.733
 8056SOL    HW225068   2.136   0.937   3.769
 8057SOL     OW25069   2.990   2.065   2.021
 8057SOL    HW125070   2.947   2.155   2.029
 8057SOL    HW225071   2.996   2.040   1.924
 8058SOL     OW25072   3.676   6.231   2.007
 8058SOL    HW125073   3.739   6.309   2.013
 8058SOL    HW225074   3.677   6.194   1.914
 8059SOL     OW25075   2.679   2.594   5.949
 8059SOL    HW125076   2.608   2.629   6.010
 8059SOL    HW225077   2.694   2.659   5.875
 8060SOL     OW25078   6.456   0.992   5.880
 8060SOL    HW125079   6.365   0.990   5.921
 8060SOL    HW225080   6.525   0.998   5.953
 8061SOL     OW25081   0.017   0.532   2.559
 8061SOL    HW125082   0.100   0.564   2.513
 8061SOL    HW225083   0.038   0.450   2.613
 8062SOL     OW25084   4.760   5.276   5.552
 8062SOL    HW125085   4.667   5.245   5.569
 8062SOL    HW225086   4.818   5.198   5.529
 8063SOL     OW25087   2.723   5.123   3.006
 8063SOL    HW125088   2.679   5.083   3.086
 8063SOL    HW225089   2.666   5.107   2.925
 8064SOL     OW25090   6.482   1.776   0.754
 8064SOL    HW125091   6.531   1.856   0.720
 8064SOL    HW225092   6.482   1.704   0.685
 8065SOL     OW25093   4.232   6.272   6.471
 8065SOL    HW125094   4.203   6.208   6.542
 8065SOL    HW225095   4.158   6.283   6.404
 8066SOL     OW25096   0.471   6.934   6.010
 8066SOL    HW125097   0.434   0.000   5.999
 8066SOL    HW225098   0.560   6.927   5.966
 8067SOL     OW25099   5.778   1.249   3.996
 8067SOL    HW125100   5.834   1.173   4.029
 8067SOL    HW225101   5.804   1.332   4.045
 8068SOL     OW25102   6.078   3.308   1.583
 8068SOL    HW125103   6.058   3.250   1.662
 8068SOL    HW225104   6.139   3.383   1.611
 8069SOL     OW25105   1.803   3.391   2.583
 8069SOL    HW125106   1.725   3.388   2.646
 8069SOL    HW225107   1.842   3.483   2.582
 8070SOL     OW25108   4.845   4.594   1.063
 8070SOL    HW125109   4.789   4.595   1.145
 8070SOL    HW225110   4.806   4.530   0.997
 8071SOL     OW25111   2.406   6.995   6.265
 8071SOL    HW125112   2.434   6.900   6.258
 8071SOL    HW225113   2.456   0.013   6.339
 8072SOL     OW25114   2.149   2.137   4.943
 8072SOL    HW125115   2.099   2.213   4.902
 8072SOL    HW225116   2.101   2.107   5.026
 8073SOL     OW25117   4.535   0.296   6.816
 8073SOL    HW125118   4.547   0.276   6.913
 8073SOL    HW225119   4.438   0.288   6.792
 8074SOL     OW25120   0.198   0.448   6.906
 8074SOL    HW125121   0.103   0.462   6.934
 8074SOL    HW225122   0.203   0.371   6.843
 8075SOL     OW25123   0.036   6.747   0.945
 8075SOL    HW125124   0.135   6.761   0.954
 8075SOL    HW225125   7.016   6.835   0.954
 8076SOL     OW25126   0.214   5.955   0.508
 8076SOL    HW125127   0.161   5.870   0.506
 8076SOL    HW225128   0.278   5.956   0.432
 8077SOL     OW25129   5.374   4.676   0.890
 8077SOL    HW125130   5.394   4.690   0.987
 8077SOL    HW225131   5.440   4.727   0.835
 8078SOL     OW25132   0.070   0.864   1.140
 8078SOL    HW125133   0.167   0.884   1.128
 8078SOL    HW225134   0.057   0.765   1.138
 8079SOL     OW25135   1.171   0.922   6.545
 8079SOL    HW125136   1.116   0.862   6.603
 8079SOL    HW225137   1.154   0.901   6.449
 8080SOL     OW25138   1.156   2.986   3.345
 8080SOL    HW125139   1.165   2.950   3.438
 8080SOL    HW225140   1.236   2.960   3.291
 8081SOL     OW25141   6.152   6.855   5.219
 8081SOL    HW125142   6.132   6.946   5.182
 8081SOL    HW225143   6.226   6.814   5.166
 8082SOL     OW25144   3.676   2.119   3.916
 8082SOL    HW125145   3.583   2.084   3.909
 8082SOL    HW225146   3.703   2.125   4.012
 8083SOL     OW25147   6.370   1.731   4.567
 8083SOL    HW125148   6.373   1.784   4.651
 8083SOL    HW225149   6.277   1.695   4.554
 8084SOL     OW25150   3.850   1.478   5.632
 8084SOL    HW125151   3.812   1.433   5.713
 8084SOL    HW225152   3.949   1.467   5.631
 8085SOL     OW25153   1.836   6.261   4.346
 8085SOL    HW125154   1.783   6.345   4.359
 8085SOL    HW225155   1.933   6.280   4.362
 8086SOL     OW25156   6.793   1.407   2.351
 8086SOL    HW125157   6.745   1.353   2.281
 8086SOL    HW225158   6.787   1.360   2.439
 8087SOL     OW25159   6.978   0.679   6.476
 8087SOL    HW125160   6.919   0.599   6.478
 8087SOL    HW225161   6.932   0.753   6.428
 8088SOL     OW25162   6.863   0.360   5.286
 8088SOL    HW125163   6.808   0.315   5.215
 8088SOL    HW225164   6.930   0.421   5.243
 8089SOL     OW25165   6.129   1.960   6.355
 8089SOL    HW125166   6.055   1.902   6.388
 8089SOL    HW225167   6.140   2.039   6.415
 8090SOL     OW25168   4.285   2.467   5.547
 8090SOL    HW125169   4.303   2.565   5.556
 8090SOL    HW225170   4.366   2.416   5.574
 8091SOL     OW25171   1.205   4.186   4.104
 8091SOL    HW125172   1.256   4.171   4.188
 8091SOL    HW225173   1.135   4.256   4.118
 8092SOL     OW25174   4.913   0.680   6.024
 8092SOL    HW125175   4.897   0.774   6.053
 8092SOL    HW225176   4.841   0.653   5.959
 8093SOL     OW25177   3.435   5.964   3.150
 8093SOL    HW125178   3.464   6.028   3.079
 8093SOL    HW225179   3.395   5.883   3.107
 8094SOL     OW25180   1.920   3.580   3.991
 8094SOL    HW125181   1.981   3.609   3.917
 8094SOL    HW225182   1.943   3.630   4.074
 8095SOL     OW25183   1.308   4.989   5.244
 8095SOL    HW125184   1.309   5.058   5.316
 8095SOL    HW225185   1.290   5.033   5.156
 8096SOL     OW25186   0.876   5.228   0.589
 8096SOL    HW125187   0.780   5.203   0.580
 8096SOL    HW225188   0.933   5.147   0.575
 8097SOL     OW25189   4.810   6.275   0.284
 8097SOL    HW125190   4.804   6.183   0.247
 8097SOL    HW225191   4.738   6.332   0.245
 8098SOL     OW25192   2.218   5.424   5.127
 8098SOL    HW125193   2.224   5.326   5.148
 8098SOL    HW225194   2.241   5.477   5.209
 8099SOL     OW25195   1.891   3.900   2.462
 8099SOL    HW125196   1.966   3.935   2.405
 8099SOL    HW225197   1.867   3.968   2.530
 8100SOL     OW25198   6.532   0.196   6.592
 8100SOL    HW125199   6.463   0.254   6.549
 8100SOL    HW225200   6.552   0.231   6.684
 8101SOL     OW25201   3.039   5.596   0.946
 8101SOL    HW125202   2.973   5.565   1.015
 8101SOL    HW225203   3.053   5.695   0.955
 8102SOL     OW25204   0.941   3.652   4.386
 8102SOL    HW125205   0.964   3.728   4.446
 8102SOL    HW225206   0.961   3.676   4.291
 8103SOL     OW25207   3.306   0.543   1.585
 8103SOL    HW125208   3.372   0.599   1.535
 8103SOL    HW225209   3.351   0.461   1.619
 8104SOL     OW25210   2.333   5.193   0.283
 8104SOL    HW125211   2.296   5.217   0.193
 8104SOL    HW225212   2.384   5.107   0.275
 8105SOL     OW25213   6.978   6.957   3.589
 8105SOL    HW125214   6.935   7.026   3.532
 8105SOL    HW225215   0.046   6.942   3.558
 8106SOL     OW25216   2.166   0.111   6.147
 8106SOL    HW125217   2.077   0.156   6.140
 8106SOL    HW225218   2.153   0.013   6.163
 8107SOL     OW25219   1.381   6.152   6.553
 8107SOL    HW125220   1.371   6.236   6.607
 8107SOL    HW225221   1.478   6.136   6.535
 8108SOL     OW25222   0.933   1.185   6.763
 8108SOL    HW125223   0.851   1.128   6.755
 8108SOL    HW225224   1.009   1.128   6.794
 8109SOL     OW25225   6.368   2.856   1.836
 8109SOL    HW125226   6.409   2.770   1.868
 8109SOL    HW225227   6.268   2.849   1.842
 8110SOL     OW25228   3.976   5.013   1.091
 8110SOL    HW125229   3.922   4.942   1.136
 8110SOL    HW225230   4.043   4.970   1.030
 8111SOL     OW25231   6.470   1.242   2.635
 8111SOL    HW125232   6.464   1.143   2.645
 8111SOL    HW225233   6.400   1.275   2.572
 8112SOL     OW25234   1.955   4.710   6.428
 8112SOL    HW125235   1.982   4.776   6.359
 8112SOL    HW225236   2.036   4.660   6.460
 8113SOL     OW25237   5.555   4.099   5.751
 8113SOL    HW125238   5.571   4.197   5.761
 8113SOL    HW225239   5.501   4.067   5.829
 8114SOL     OW25240   1.524   3.811   2.727
 8114SOL    HW125241   1.573   3.788   2.643
 8114SOL    HW225242   1.583   3.794   2.806
 8115SOL     OW25243   2.718   1.711   5.909
 8115SOL    HW125244   2.730   1.810   5.924
 8115SOL    HW225245   2.690   1.668   5.994
 8116SOL     OW25246   3.835   3.047   1.397
 8116SOL    HW125247   3.892   2.966   1.413
 8116SOL    HW225248   3.891   3.129   1.406
 8117SOL     OW25249   2.725   6.677   4.403
 8117SOL    HW125250   2.742   6.578   4.401
 8117SOL    HW225251   2.688   6.706   4.314
 8118SOL     OW25252   6.739   3.027   0.228
 8118SOL    HW125253   6.708   3.053   0.137
 8118SOL    HW225254   6.668   3.051   0.295
 8119SOL     OW25255   5.910   6.455   0.220
 8119SOL    HW125256   5.978   6.386   0.196
 8119SOL    HW225257   5.923   6.482   0.316
 8120SOL     OW25258   1.615   6.817   2.212
 8120SOL    HW125259   1.593   6.732   2.259
 8120SOL    HW225260   1.591   6.809   2.115
 8121SOL     OW25261   1.067   3.239   2.387
 8121SOL    HW125262   1.035   3.326   2.424
 8121SOL    HW225263   0.993   3.173   2.387
 8122SOL     OW25264   0.240   5.267   1.576
 8122SOL    HW125265   0.211   5.307   1.489
 8122SOL    HW225266   0.234   5.336   1.648
 8123SOL     OW25267   6.925   1.854   6.759
 8123SOL    HW125268   6.991   1.843   6.833
 8123SOL    HW225269   6.942   1.784   6.689
 8124SOL     OW25270   5.649   5.639   4.891
 8124SOL    HW125271   5.564   5.618   4.940
 8124SOL    HW225272   5.717   5.568   4.909
 8125SOL     OW25273   2.368   5.260   2.965
 8125SOL    HW125274   2.399   5.300   3.052
 8125SOL    HW225275   2.339   5.334   2.904
 8126SOL     OW25276   3.973   5.463   4.452
 8126SOL    HW125277   4.019   5.452   4.540
 8126SOL    HW225278   3.921   5.549   4.452
 8127SOL     OW25279   3.717   2.151   6.513
 8127SOL    HW125280   3.714   2.153   6.613
 8127SOL    HW225281   3.624   2.159   6.476
 8128SOL     OW25282   3.500   2.766   1.413
 8128SOL    HW125283   3.477   2.792   1.506
 8128SOL    HW225284   3.437   2.694   1.382
 8129SOL     OW25285   1.134   2.396   2.541
 8129SOL    HW125286   1.163   2.377   2.448
 8129SOL    HW225287   1.158   2.319   2.600
 8130SOL     OW25288   0.650   5.809   6.763
 8130SOL    HW125289   0.582   5.880   6.746
 8130SOL    HW225290   0.604   5.721   6.776
 8131SOL     OW25291   1.688   3.432   0.005
 8131SOL    HW125292   1.670   3.339   7.000
 8131SOL    HW225293   1.608   3.489   7.014
 8132SOL     OW25294   0.603   0.793   4.956
 8132SOL    HW125295   0.572   0.885   4.932
 8132SOL    HW225296   0.611   0.786   5.055
 8133SOL     OW25297   3.538   4.643   0.734
 8133SOL    HW125298   3.458   4.679   0.687
 8133SOL    HW225299   3.520   4.549   0.765
 8134SOL     OW25300   5.623   1.624   6.013
 8134SOL    HW125301   5.654   1.703   6.066
 8134SOL    HW225302   5.580   1.558   6.075
 8135SOL     OW25303   2.603   6.608   1.988
 8135SOL    HW125304   2.510   6.633   1.964
 8135SOL    HW225305   2.623   6.516   1.954
 8136SOL     OW25306   5.052   4.316   2.228
 8136SOL    HW125307   5.072   4.311   2.130
 8136SOL    HW225308   5.117   4.260   2.279
 8137SOL     OW25309   4.269   1.766   5.664
 8137SOL    HW125310   4.324   1.803   5.738
 8137SOL    HW225311   4.298   1.673   5.643
 8138SOL     OW25312   5.188   0.902   2.380
 8138SOL    HW125313   5.127   0.872   2.306
 8138SOL    HW225314   5.241   0.824   2.413
 8139SOL     OW25315   0.196   2.256   3.107
 8139SOL    HW125316   0.172   2.168   3.149
 8139SOL    HW225317   0.130   2.325   3.135
 8140SOL     OW25318   4.346   1.806   3.526
 8140SOL    HW125319   4.307   1.876   3.466
 8140SOL    HW225320   4.312   1.716   3.499
 8141SOL     OW25321   5.164   4.536   4.425
 8141SOL    HW125322   5.146   4.586   4.340
 8141SOL    HW225323   5.091   4.556   4.491
 8142SOL     OW25324   0.489   6.012   6.555
 8142SOL    HW125325   0.416   5.946   6.532
 8142SOL    HW225326   0.475   6.046   6.648
 8143SOL     OW25327   6.784   3.025   6.044
 8143SOL    HW125328   6.783   3.068   5.954
 8143SOL    HW225329   6.694   2.985   6.063
 8144SOL     OW25330   5.021   0.117   6.989
 8144SOL    HW125331   5.064   0.046   0.018
 8144SOL    HW225332   5.074   0.202   6.996
 8145SOL     OW25333   5.477   6.292   2.901
 8145SOL    HW125334   5.465   6.388   2.877
 8145SOL    HW225335   5.467   6.280   3.000
 8146SOL     OW25336   3.671   1.118   4.527
 8146SOL    HW125337   3.676   1.117   4.626
 8146SOL    HW225338   3.678   1.025   4.491
 8147SOL     OW25339   4.831   0.458   3.248
 8147SOL    HW125340   4.845   0.508   3.163
 8147SOL    HW225341   4.917   0.415   3.275
 8148SOL     OW25342   5.326   4.280   3.202
 8148SOL    HW125343   5.312   4.259   3.299
 8148SOL    HW225344   5.270   4.360   3.177
 8149SOL     OW25345   4.058   4.809   3.601
 8149SOL    HW125346   4.063   4.751   3.682
 8149SOL    HW225347   3.968   4.850   3.595
 8150SOL     OW25348   0.528   5.358   1.216
 8150SOL    HW125349   0.552   5.454   1.226
 8150SOL    HW225350   0.547   5.328   1.123
 8151SOL     OW25351   0.871   1.529   4.920
 8151SOL    HW125352   0.938   1.603   4.917
 8151SOL    HW225353   0.872   1.480   4.833
 8152SOL     OW25354   1.457   0.665   2.634
 8152SOL    HW125355   1.481   0.636   2.727
 8152SOL    HW225356   1.359   0.651   2.619
 8153SOL     OW25357   1.765   6.678   0.250
 8153SOL    HW125358   1.841   6.613   0.248
 8153SOL    HW225359   1.714   6.666   0.335
 8154SOL     OW25360   2.478   6.863   3.789
 8154SOL    HW125361   2.453   6.774   3.827
 8154SOL    HW225362   2.477   6.857   3.689
 8155SOL     OW25363   3.584   3.611   3.872
 8155SOL    HW125364   3.487   3.615   3.897
 8155SOL    HW225365   3.593   3.617   3.773
 8156SOL     OW25366   6.776   0.800   5.495
 8156SOL    HW125367   6.801   0.807   5.592
 8156SOL    HW225368   6.757   0.704   5.473
 8157SOL     OW25369   6.423   2.690   6.658
 8157SOL    HW125370   6.335   2.653   6.687
 8157SOL    HW225371   6.492   2.618   6.660
 8158SOL     OW25372   2.295   5.359   2.693
 8158SOL    HW125373   2.209   5.312   2.710
 8158SOL    HW225374   2.352   5.303   2.632
 8159SOL     OW25375   1.135   4.952   1.735
 8159SOL    HW125376   1.054   5.007   1.714
 8159SOL    HW225377   1.111   4.884   1.804
 8160SOL     OW25378   4.647   2.175   1.921
 8160SOL    HW125379   4.723   2.126   1.878
 8160SOL    HW225380   4.671   2.200   2.014
 8161SOL     OW25381   4.260   1.916   1.262
 8161SOL    HW125382   4.258   1.879   1.355
 8161SOL    HW225383   4.191   1.871   1.206
 8162SOL     OW25384   6.165   0.496   1.845
 8162SOL    HW125385   6.129   0.536   1.760
 8162SOL    HW225386   6.265   0.488   1.837
 8163SOL     OW25387   1.857   3.682   4.714
 8163SOL    HW125388   1.949   3.690   4.751
 8163SOL    HW225389   1.814   3.598   4.749
 8164SOL     OW25390   4.619   2.191   2.756
 8164SOL    HW125391   4.697   2.194   2.692
 8164SOL    HW225392   4.649   2.219   2.847
 8165SOL     OW25393   2.471   4.934   1.052
 8165SOL    HW125394   2.429   5.025   1.049
 8165SOL    HW225395   2.422   4.873   0.989
 8166SOL     OW25396   3.613   6.747   1.056
 8166SOL    HW125397   3.614   6.748   1.156
 8166SOL    HW225398   3.585   6.657   1.023
 8167SOL     OW25399   5.371   3.257   4.075
 8167SOL    HW125400   5.311   3.337   4.082
 8167SOL    HW225401   5.356   3.211   3.988
 8168SOL     OW25402   3.572   1.978   2.896
 8168SOL    HW125403   3.549   2.012   2.805
 8168SOL    HW225404   3.539   1.884   2.905
 8169SOL     OW25405   5.454   4.243   5.495
 8169SOL    HW125406   5.496   4.181   5.428
 8169SOL    HW225407   5.375   4.288   5.454
 8170SOL     OW25408   1.500   4.591   4.164
 8170SOL    HW125409   1.465   4.527   4.233
 8170SOL    HW225410   1.424   4.632   4.115
 8171SOL     OW25411   1.628   1.578   5.785
 8171SOL    HW125412   1.714   1.623   5.810
 8171SOL    HW225413   1.648   1.503   5.721
 8172SOL     OW25414   0.231   6.312   1.533
 8172SOL    HW125415   0.182   6.363   1.462
 8172SOL    HW225416   0.329   6.328   1.523
 8173SOL     OW25417   5.935   2.635   6.610
 8173SOL    HW125418   6.025   2.651   6.570
 8173SOL    HW225419   5.866   2.683   6.556
 8174SOL     OW25420   5.495   6.990   2.113
 8174SOL    HW125421   5.593   6.996   2.096
 8174SOL    HW225422   5.462   0.052   2.146
 8175SOL     OW25423   1.616   3.061   5.091
 8175SOL    HW125424   1.566   3.091   5.173
 8175SOL    HW225425   1.697   3.010   5.119
 8176SOL     OW25426   3.857   4.973   3.031
 8176SOL    HW125427   3.778   5.035   3.026
 8176SOL    HW225428   3.941   5.026   3.032
 8177SOL     OW25429   0.921   0.122   5.875
 8177SOL    HW125430   0.923   0.205   5.931
 8177SOL    HW225431   1.014   0.096   5.850
 8178SOL     OW25432   1.896   6.825   5.825
 8178SOL    HW125433   1.982   6.790   5.862
 8178SOL    HW225434   1.839   6.749   5.794
 8179SOL     OW25435   3.493   0.665   0.056
 8179SOL    HW125436   3.442   0.627   0.133
 8179SOL    HW225437   3.580   0.702   0.089
 8180SOL     OW25438   4.732   4.820   5.378
 8180SOL    HW125439   4.714   4.802   5.282
 8180SOL    HW225440   4.806   4.761   5.410
 8181SOL     OW25441   2.700   2.138   2.711
 8181SOL    HW125442   2.727   2.196   2.634
 8181SOL    HW225443   2.603   2.114   2.702
 8182SOL     OW25444   5.205   2.584   6.162
 8182SOL    HW125445   5.171   2.523   6.091
 8182SOL    HW225446   5.299   2.559   6.185
 8183SOL     OW25447   2.185   2.728   3.981
 8183SOL    HW125448   2.117   2.790   3.943
 8183SOL    HW225449   2.260   2.716   3.916
 8184SOL     OW25450   5.430   6.030   5.149
 8184SOL    HW125451   5.379   5.996   5.228
 8184SOL    HW225452   5.468   5.953   5.097
 8185SOL     OW25453   1.580   1.835   2.666
 8185SOL    HW125454   1.489   1.855   2.629
 8185SOL    HW225455   1.647   1.896   2.624
 8186SOL     OW25456   3.871   4.558   6.251
 8186SOL    HW125457   3.958   4.509   6.260
 8186SOL    HW225458   3.878   4.647   6.297
 8187SOL     OW25459   1.909   0.999   6.138
 8187SOL    HW125460   2.003   0.969   6.152
 8187SOL    HW225461   1.867   0.943   6.066
 8188SOL     OW25462   5.420   3.008   2.818
 8188SOL    HW125463   5.446   3.048   2.730
 8188SOL    HW225464   5.494   2.950   2.852
 8189SOL     OW25465   6.917   4.953   2.964
 8189SOL    HW125466   6.945   4.960   3.059
 8189SOL    HW225467   6.822   4.984   2.955
 8190SOL     OW25468   5.210   3.389   2.304
 8190SOL    HW125469   5.250   3.479   2.285
 8190SOL    HW225470   5.214   3.333   2.221
 8191SOL     OW25471   0.515   5.318   1.947
 8191SOL    HW125472   0.580   5.392   1.938
 8191SOL    HW225473   0.543   5.241   1.889
 8192SOL     OW25474   1.579   3.177   0.637
 8192SOL    HW125475   1.526   3.258   0.662
 8192SOL    HW225476   1.610   3.130   0.720
 8193SOL     OW25477   3.801   0.314   5.532
 8193SOL    HW125478   3.747   0.319   5.616
 8193SOL    HW225479   3.869   0.387   5.532
 8194SOL     OW25480   1.752   0.241   1.428
 8194SOL    HW125481   1.828   0.261   1.490
 8194SOL    HW225482   1.703   0.160   1.460
 8195SOL     OW25483   5.296   0.811   1.065
 8195SOL    HW125484   5.228   0.785   1.135
 8195SOL    HW225485   5.287   0.909   1.046
 8196SOL     OW25486   1.699   0.399   6.857
 8196SOL    HW125487   1.749   0.410   6.770
 8196SOL    HW225488   1.754   0.343   6.919
 8197SOL     OW25489   0.749   6.857   0.796
 8197SOL    HW125490   0.765   6.954   0.776
 8197SOL    HW225491   0.795   6.832   0.880
 8198SOL     OW25492   3.598   0.258   2.715
 8198SOL    HW125493   3.581   0.356   2.704
 8198SOL    HW225494   3.692   0.243   2.743
 8199SOL     OW25495   5.746   4.428   0.039
 8199SOL    HW125496   5.805   4.358   0.079
 8199SOL    HW225497   5.801   4.509   0.017
 8200SOL     OW25498   4.139   3.157   1.384
 8200SOL    HW125499   4.093   3.184   1.299
 8200SOL    HW225500   4.212   3.092   1.364
 8201SOL     OW25501   6.255   0.837   4.466
 8201SOL    HW125502   6.235   0.804   4.558
 8201SOL    HW225503   6.285   0.932   4.470
 8202SOL     OW25504   1.722   4.108   3.878
 8202SOL    HW125505   1.713   4.197   3.922
 8202SOL    HW225506   1.769   4.045   3.940
 8203SOL     OW25507   5.906   4.226   0.136
 8203SOL    HW125508   5.867   4.137   0.161
 8203SOL    HW225509   5.964   4.259   0.211
 8204SOL     OW25510   3.465   0.543   0.712
 8204SOL    HW125511   3.542   0.604   0.731
 8204SOL    HW225512   3.385   0.573   0.764
 8205SOL     OW25513   5.566   6.042   2.871
 8205SOL    HW125514   5.546   6.136   2.897
 8205SOL    HW225515   5.621   6.041   2.787
 8206SOL     OW25516   4.317   1.911   4.274
 8206SOL    HW125517   4.346   1.940   4.183
 8206SOL    HW225518   4.328   1.812   4.282
 8207SOL     OW25519   3.137   5.745   6.903
 8207SOL    HW125520   3.145   5.845   6.899
 8207SOL    HW225521   3.132   5.715   6.998
 8208SOL     OW25522   1.584   5.834   7.023
 8208SOL    HW125523   1.680   5.829   6.993
 8208SOL    HW225524   1.570   5.769   0.072
 8209SOL     OW25525   1.291   6.012   5.337
 8209SOL    HW125526   1.378   6.061   5.347
 8209SOL    HW225527   1.216   6.071   5.370
 8210SOL     OW25528   2.324   1.851   0.042
 8210SOL    HW125529   2.246   1.813   7.019
 8210SOL    HW225530   2.308   1.949   0.060
 8211SOL     OW25531   3.374   3.746   4.159
 8211SOL    HW125532   3.469   3.778   4.156
 8211SOL    HW225533   3.347   3.715   4.068
 8212SOL     OW25534   3.627   5.671   0.218
 8212SOL    HW125535   3.586   5.723   0.292
 8212SOL    HW225536   3.645   5.577   0.248
 8213SOL     OW25537   4.522   4.224   1.608
 8213SOL    HW125538   4.485   4.211   1.700
 8213SOL    HW225539   4.598   4.289   1.611
 8214SOL     OW25540   4.164   5.405   2.882
 8214SOL    HW125541   4.201   5.452   2.962
 8214SOL    HW225542   4.089   5.460   2.844
 8215SOL     OW25543   2.121   6.367   6.475
 8215SOL    HW125544   2.170   6.288   6.438
 8215SOL    HW225545   2.048   6.335   6.536
 8216SOL     OW25546   5.686   5.981   1.600
 8216SOL    HW125547   5.708   6.078   1.598
 8216SOL    HW225548   5.639   5.955   1.516
 8217SOL     OW25549   3.196   6.439   4.264
 8217SOL    HW125550   3.275   6.422   4.322
 8217SOL    HW225551   3.225   6.484   4.179
 8218SOL     OW25552   2.318   6.039   5.045
 8218SOL    HW125553   2.379   5.974   5.000
 8218SOL    HW225554   2.373   6.107   5.095
 8219SOL     OW25555   3.995   3.037   2.160
 8219SOL    HW125556   4.050   2.975   2.216
 8219SOL    HW225557   4.016   3.021   2.063
 8220SOL     OW25558   3.492   4.154   5.465
 8220SOL    HW125559   3.484   4.213   5.384
 8220SOL    HW225560   3.410   4.097   5.473
 8221SOL     OW25561   6.188   3.842   3.980
 8221SOL    HW125562   6.173   3.922   4.038
 8221SOL    HW225563   6.218   3.765   4.037
 8222SOL     OW25564   6.204   2.460   0.188
 8222SOL    HW125565   6.113   2.433   0.155
 8222SOL    HW225566   6.273   2.426   0.124
 8223SOL     OW25567   2.177   6.243   5.607
 8223SOL    HW125568   2.197   6.146   5.617
 8223SOL    HW225569   2.258   6.290   5.572
 8224SOL     OW25570   4.827   1.384   6.895
 8224SOL    HW125571   4.902   1.319   6.884
 8224SOL    HW225572   4.750   1.338   6.940
 8225SOL     OW25573   5.869   3.063   0.246
 8225SOL    HW125574   5.775   3.088   0.225
 8225SOL    HW225575   5.879   2.964   0.241
 8226SOL     OW25576   3.985   0.772   6.777
 8226SOL    HW125577   4.082   0.744   6.778
 8226SOL    HW225578   3.928   0.692   6.793
 8227SOL     OW25579   4.568   2.647   3.098
 8227SOL    HW125580   4.637   2.696   3.045
 8227SOL    HW225581   4.509   2.596   3.036
 8228SOL     OW25582   3.117   7.000   4.934
 8228SOL    HW125583   3.020   7.026   4.935
 8228SOL    HW225584   3.132   6.927   5.000
 8229SOL     OW25585   4.556   4.645   0.963
 8229SOL    HW125586   4.496   4.667   0.886
 8229SOL    HW225587   4.629   4.583   0.932
 8230SOL     OW25588   6.147   1.003   5.892
 8230SOL    HW125589   6.146   0.994   5.793
 8230SOL    HW225590   6.074   1.066   5.921
 8231SOL     OW25591   2.974   1.077   2.304
 8231SOL    HW125592   2.950   1.158   2.250
 8231SOL    HW225593   3.032   1.105   2.380
 8232SOL     OW25594   3.842   6.218   3.154
 8232SOL    HW125595   3.914   6.171   3.204
 8232SOL    HW225596   3.779   6.261   3.219
 8233SOL     OW25597   1.757   1.340   6.707
 8233SOL    HW125598   1.798   1.255   6.674
 8233SOL    HW225599   1.795   1.363   6.797
 8234SOL     OW25600   0.956   2.836   0.524
 8234SOL    HW125601   0.864   2.798   0.512
 8234SOL    HW225602   0.957   2.931   0.492
 8235SOL     OW25603   0.974   0.889   1.603
 8235SOL    HW125604   1.052   0.887   1.666
 8235SOL    HW225605   0.916   0.968   1.625
 8236SOL     OW25606   0.303   0.416   1.988
 8236SOL    HW125607   0.365   0.393   1.913
 8236SOL    HW225608   0.232   0.478   1.954
 8237SOL     OW25609   3.949   4.800   5.226
 8237SOL    HW125610   4.000   4.869   5.277
 8237SOL    HW225611   3.853   4.800   5.257
 8238SOL     OW25612   0.406   5.427   0.760
 8238SOL    HW125613   0.487   5.401   0.811
 8238SOL    HW225614   0.349   5.488   0.816
 8239SOL     OW25615   3.001   1.670   5.863
 8239SOL    HW125616   2.902   1.683   5.868
 8239SOL    HW225617   3.021   1.588   5.809
 8240SOL     OW25618   3.552   3.224   4.899
 8240SOL    HW125619   3.551   3.214   4.799
 8240SOL    HW225620   3.601   3.308   4.924
 8241SOL     OW25621   1.418   3.471   5.968
 8241SOL    HW125622   1.452   3.398   5.910
 8241SOL    HW225623   1.444   3.452   6.063
 8242SOL     OW25624   0.607   2.874   2.362
 8242SOL    HW125625   0.587   2.915   2.451
 8242SOL    HW225626   0.522   2.838   2.322
 8243SOL     OW25627   1.206   6.374   3.799
 8243SOL    HW125628   1.184   6.444   3.866
 8243SOL    HW225629   1.267   6.307   3.840
 8244SOL     OW25630   6.657   0.972   3.197
 8244SOL    HW125631   6.731   1.033   3.225
 8244SOL    HW225632   6.604   1.015   3.124
 8245SOL     OW25633   5.103   2.823   2.903
 8245SOL    HW125634   5.159   2.785   2.830
 8245SOL    HW225635   5.041   2.893   2.866
 8246SOL     OW25636   1.889   4.624   6.988
 8246SOL    HW125637   1.937   4.537   6.997
 8246SOL    HW225638   1.827   4.619   6.909
 8247SOL     OW25639   3.056   5.474   3.699
 8247SOL    HW125640   3.152   5.464   3.673
 8247SOL    HW225641   3.025   5.391   3.745
 8248SOL     OW25642   6.896   5.202   3.334
 8248SOL    HW125643   6.862   5.290   3.367
 8248SOL    HW225644   6.994   5.208   3.317
 8249SOL     OW25645   3.397   1.496   6.495
 8249SOL    HW125646   3.327   1.451   6.550
 8249SOL    HW225647   3.369   1.590   6.476
 8250SOL     OW25648   1.300   2.152   6.885
 8250SOL    HW125649   1.206   2.128   6.907
 8250SOL    HW225650   1.326   2.109   6.798
 8251SOL     OW25651   1.049   2.223   5.737
 8251SOL    HW125652   1.098   2.203   5.652
 8251SOL    HW225653   1.087   2.306   5.779
 8252SOL     OW25654   0.964   2.040   6.483
 8252SOL    HW125655   1.000   1.955   6.520
 8252SOL    HW225656   0.926   2.025   6.392
 8253SOL     OW25657   5.670   4.883   6.202
 8253SOL    HW125658   5.738   4.813   6.223
 8253SOL    HW225659   5.710   4.951   6.140
 8254SOL     OW25660   6.413   5.802   0.052
 8254SOL    HW125661   6.493   5.822   7.022
 8254SOL    HW225662   6.333   5.791   7.020
 8255SOL     OW25663   1.311   0.489   5.829
 8255SOL    HW125664   1.364   0.456   5.752
 8255SOL    HW225665   1.219   0.449   5.826
 8256SOL     OW25666   1.356   5.932   4.579
 8256SOL    HW125667   1.380   5.979   4.664
 8256SOL    HW225668   1.328   5.999   4.511
 8257SOL     OW25669   4.960   4.055   3.303
 8257SOL    HW125670   5.052   4.024   3.279
 8257SOL    HW225671   4.924   3.998   3.376
 8258SOL     OW25672   0.626   2.662   3.546
 8258SOL    HW125673   0.700   2.717   3.508
 8258SOL    HW225674   0.569   2.719   3.606
 8259SOL     OW25675   5.884   2.000   4.415
 8259SOL    HW125676   5.817   1.970   4.483
 8259SOL    HW225677   5.862   1.958   4.326
 8260SOL     OW25678   5.237   2.840   0.433
 8260SOL    HW125679   5.189   2.764   0.390
 8260SOL    HW225680   5.289   2.807   0.512
 8261SOL     OW25681   5.896   1.487   2.734
 8261SOL    HW125682   5.968   1.552   2.710
 8261SOL    HW225683   5.866   1.503   2.828
 8262SOL     OW25684   5.197   3.817   1.978
 8262SOL    HW125685   5.100   3.796   1.963
 8262SOL    HW225686   5.243   3.822   1.890
 8263SOL     OW25687   6.743   1.989   5.962
 8263SOL    HW125688   6.824   2.036   5.927
 8263SOL    HW225689   6.707   1.927   5.892
 8264SOL     OW25690   2.737   0.950   2.280
 8264SOL    HW125691   2.670   1.006   2.230
 8264SOL    HW225692   2.826   0.995   2.277
 8265SOL     OW25693   4.698   5.244   0.545
 8265SOL    HW125694   4.677   5.164   0.489
 8265SOL    HW225695   4.650   5.237   0.633
 8266SOL     OW25696   3.736   1.181   3.642
 8266SOL    HW125697   3.671   1.198   3.568
 8266SOL    HW225698   3.689   1.190   3.730
 8267SOL     OW25699   1.633   2.426   3.788
 8267SOL    HW125700   1.660   2.356   3.722
 8267SOL    HW225701   1.693   2.421   3.868
 8268SOL     OW25702   3.540   4.794   0.304
 8268SOL    HW125703   3.492   4.816   0.388
 8268SOL    HW225704   3.612   4.862   0.287
 8269SOL     OW25705   6.520   1.888   5.191
 8269SOL    HW125706   6.422   1.906   5.193
 8269SOL    HW225707   6.569   1.971   5.165
 8270SOL     OW25708   4.393   5.050   0.423
 8270SOL    HW125709   4.364   5.128   0.479
 8270SOL    HW225710   4.335   4.971   0.442
 8271SOL     OW25711   3.279   6.735   6.070
 8271SOL    HW125712   3.278   6.813   6.008
 8271SOL    HW225713   3.312   6.764   6.160
 8272SOL     OW25714   0.534   0.689   2.058
 8272SOL    HW125715   0.529   0.639   1.972
 8272SOL    HW225716   0.494   0.634   2.132
 8273SOL     OW25717   3.615   7.026   6.430
 8273SOL    HW125718   3.579   0.003   6.523
 8273SOL    HW225719   3.710   6.994   6.432
 8274SOL     OW25720   5.531   6.611   5.620
 8274SOL    HW125721   5.441   6.604   5.575
 8274SOL    HW225722   5.548   6.706   5.646
 8275SOL     OW25723   4.978   0.913   5.366
 8275SOL    HW125724   4.917   0.991   5.379
 8275SOL    HW225725   5.073   0.945   5.369
 8276SOL     OW25726   5.815   2.575   0.110
 8276SOL    HW125727   5.878   2.613   0.042
 8276SOL    HW225728   5.850   2.488   0.143
 8277SOL     OW25729   1.228   6.142   0.835
 8277SOL    HW125730   1.264   6.090   0.757
 8277SOL    HW225731   1.169   6.215   0.801
 8278SOL     OW25732   1.800   0.051   1.008
 8278SOL    HW125733   1.892   0.090   1.010
 8278SOL    HW225734   1.766   0.052   0.914
 8279SOL     OW25735   4.599   5.986   5.560
 8279SOL    HW125736   4.551   6.015   5.477
 8279SOL    HW225737   4.573   6.046   5.636
 8280SOL     OW25738   5.356   4.210   6.811
 8280SOL    HW125739   5.420   4.173   6.878
 8280SOL    HW225740   5.276   4.150   6.804
 8281SOL     OW25741   2.759   5.818   6.092
 8281SOL    HW125742   2.787   5.908   6.124
 8281SOL    HW225743   2.664   5.821   6.062
 8282SOL     OW25744   3.394   2.760   1.661
 8282SOL    HW125745   3.316   2.793   1.714
 8282SOL    HW225746   3.473   2.748   1.722
 8283SOL     OW25747   0.563   0.428   3.273
 8283SOL    HW125748   0.552   0.464   3.366
 8283SOL    HW225749   0.475   0.396   3.239
 8284SOL     OW25750   5.116   2.019   1.899
 8284SOL    HW125751   5.173   2.091   1.939
 8284SOL    HW225752   5.041   1.998   1.961
 8285SOL     OW25753   0.847   4.533   0.551
 8285SOL    HW125754   0.936   4.515   0.510
 8285SOL    HW225755   0.775   4.517   0.483
 8286SOL     OW25756   6.419   2.147   6.916
 8286SOL    HW125757   6.479   2.071   6.893
 8286SOL    HW225758   6.352   2.117   6.985
 8287SOL     OW25759   1.402   1.265   3.225
 8287SOL    HW125760   1.382   1.259   3.127
 8287SOL    HW225761   1.331   1.217   3.276
 8288SOL     OW25762   1.964   0.535   2.208
 8288SOL    HW125763   1.886   0.544   2.146
 8288SOL    HW225764   2.027   0.466   2.172
 8289SOL     OW25765   5.740   0.301   6.981
 8289SOL    HW125766   5.641   0.313   6.981
 8289SOL    HW225767   5.775   0.306   6.888
 8290SOL     OW25768   4.781   2.747   2.054
 8290SOL    HW125769   4.843   2.795   1.992
 8290SOL    HW225770   4.687   2.773   2.036
 8291SOL     OW25771   5.025   6.074   6.410
 8291SOL    HW125772   4.994   6.047   6.501
 8291SOL    HW225773   5.081   6.001   6.370
 8292SOL     OW25774   0.436   2.759   5.446
 8292SOL    HW125775   0.452   2.725   5.538
 8292SOL    HW225776   0.339   2.782   5.435
 8293SOL     OW25777   2.907   5.285   4.117
 8293SOL    HW125778   2.821   5.323   4.152
 8293SOL    HW225779   2.979   5.296   4.187
 8294SOL     OW25780   6.065   3.746   5.447
 8294SOL    HW125781   6.132   3.753   5.373
 8294SOL    HW225782   5.972   3.753   5.409
 8295SOL     OW25783   4.629   5.061   2.627
 8295SOL    HW125784   4.546   5.056   2.572
 8295SOL    HW225785   4.678   5.145   2.606
 8296SOL     OW25786   4.343   0.683   2.332
 8296SOL    HW125787   4.264   0.729   2.373
 8296SOL    HW225788   4.330   0.676   2.233
 8297SOL     OW25789   5.546   4.345   1.928
 8297SOL    HW125790   5.629   4.357   1.982
 8297SOL    HW225791   5.570   4.317   1.835
 8298SOL     OW25792   6.365   6.777   0.543
 8298SOL    HW125793   6.349   6.720   0.463
 8298SOL    HW225794   6.452   6.826   0.533
 8299SOL     OW25795   1.323   3.376   7.013
 8299SOL    HW125796   1.225   3.393   7.025
 8299SOL    HW225797   1.342   3.279   0.002
 8300SOL     OW25798   6.007   4.963   4.466
 8300SOL    HW125799   5.928   4.966   4.406
 8300SOL    HW225800   6.024   4.869   4.496
 8301SOL     OW25801   6.388   5.975   0.272
 8301SOL    HW125802   6.361   6.045   0.207
 8301SOL    HW225803   6.414   5.892   0.223
 8302SOL     OW25804   4.159   6.562   5.177
 8302SOL    HW125805   4.120   6.531   5.263
 8302SOL    HW225806   4.098   6.538   5.102
 8303SOL     OW25807   1.276   4.682   4.040
 8303SOL    HW125808   1.268   4.751   3.968
 8303SOL    HW225809   1.192   4.629   4.046
 8304SOL     OW25810   6.359   2.733   3.668
 8304SOL    HW125811   6.371   2.641   3.629
 8304SOL    HW225812   6.271   2.738   3.714
 8305SOL     OW25813   4.288   0.442   5.728
 8305SOL    HW125814   4.214   0.435   5.796
 8305SOL    HW225815   4.285   0.361   5.669
 8306SOL     OW25816   6.160   0.288   3.788
 8306SOL    HW125817   6.086   0.246   3.840
 8306SOL    HW225818   6.188   0.373   3.832
 8307SOL     OW25819   1.069   3.855   3.482
 8307SOL    HW125820   1.000   3.783   3.491
 8307SOL    HW225821   1.131   3.853   3.561
 8308SOL     OW25822   1.291   5.011   0.437
 8308SOL    HW125823   1.289   4.936   0.502
 8308SOL    HW225824   1.288   4.975   0.344
 8309SOL     OW25825   6.373   5.266   3.434
 8309SOL    HW125826   6.444   5.324   3.473
 8309SOL    HW225827   6.285   5.286   3.477
 8310SOL     OW25828   2.442   6.505   2.729
 8310SOL    HW125829   2.417   6.549   2.815
 8310SOL    HW225830   2.542   6.509   2.718
 8311SOL     OW25831   4.553   6.294   2.383
 8311SOL    HW125832   4.534   6.340   2.297
 8311SOL    HW225833   4.517   6.200   2.379
 8312SOL     OW25834   6.278   1.568   1.092
 8312SOL    HW125835   6.202   1.571   1.027
 8312SOL    HW225836   6.364   1.558   1.041
 8313SOL     OW25837   5.546   2.580   6.480
 8313SOL    HW125838   5.625   2.521   6.496
 8313SOL    HW225839   5.523   2.580   6.383
 8314SOL     OW25840   4.354   5.938   4.000
 8314SOL    HW125841   4.329   5.913   3.907
 8314SOL    HW225842   4.433   5.885   4.029
 8315SOL     OW25843   3.348   2.795   6.186
 8315SOL    HW125844   3.398   2.746   6.114
 8315SOL    HW225845   3.316   2.883   6.150
 8316SOL     OW25846   1.714   1.859   5.542
 8316SOL    HW125847   1.678   1.948   5.511
 8316SOL    HW225848   1.739   1.865   5.638
 8317SOL     OW25849   1.131   2.228   4.142
 8317SOL    HW125850   1.042   2.272   4.146
 8317SOL    HW225851   1.139   2.161   4.216
 8318SOL     OW25852   4.287   6.845   5.876
 8318SOL    HW125853   4.196   6.810   5.853
 8318SOL    HW225854   4.280   6.940   5.904
 8319SOL     OW25855   2.379   5.813   6.812
 8319SOL    HW125856   2.297   5.768   6.777
 8319SOL    HW225857   2.355   5.868   6.892
 8320SOL     OW25858   3.943   3.807   5.298
 8320SOL    HW125859   3.879   3.879   5.327
 8320SOL    HW225860   4.034   3.829   5.332
 8321SOL     OW25861   0.779   0.125   0.712
 8321SOL    HW125862   0.863   0.135   0.660
 8321SOL    HW225863   0.786   0.178   0.797
 8322SOL     OW25864   0.978   0.213   0.496
 8322SOL    HW125865   0.943   0.289   0.441
 8322SOL    HW225866   1.067   0.236   0.533
 8323SOL     OW25867   5.502   4.360   6.608
 8323SOL    HW125868   5.460   4.305   6.681
 8323SOL    HW225869   5.564   4.428   6.649
 8324SOL     OW25870   5.421   6.508   6.720
 8324SOL    HW125871   5.370   6.591   6.698
 8324SOL    HW225872   5.443   6.509   6.818
 8325SOL     OW25873   1.685   6.570   4.986
 8325SOL    HW125874   1.704   6.626   5.067
 8325SOL    HW225875   1.594   6.592   4.951
 8326SOL     OW25876   2.056   2.848   6.935
 8326SOL    HW125877   2.036   2.794   6.853
 8326SOL    HW225878   1.970   2.869   6.983
 8327SOL     OW25879   0.748   6.659   5.163
 8327SOL    HW125880   0.705   6.719   5.095
 8327SOL    HW225881   0.753   6.566   5.126
 8328SOL     OW25882   1.539   6.179   0.544
 8328SOL    HW125883   1.633   6.155   0.520
 8328SOL    HW225884   1.510   6.124   0.622
 8329SOL     OW25885   1.698   2.559   5.470
 8329SOL    HW125886   1.713   2.549   5.372
 8329SOL    HW225887   1.696   2.469   5.513
 8330SOL     OW25888   2.700   6.616   0.441
 8330SOL    HW125889   2.778   6.669   0.473
 8330SOL    HW225890   2.731   6.525   0.413
 8331SOL     OW25891   2.378   2.499   6.010
 8331SOL    HW125892   2.415   2.429   6.071
 8331SOL    HW225893   2.411   2.483   5.917
 8332SOL     OW25894   5.966   4.075   1.397
 8332SOL    HW125895   5.920   4.146   1.344
 8332SOL    HW225896   5.952   3.986   1.353
 8333SOL     OW25897   2.493   4.213   6.768
 8333SOL    HW125898   2.535   4.136   6.816
 8333SOL    HW225899   2.412   4.182   6.720
 8334SOL     OW25900   3.476   2.238   5.271
 8334SOL    HW125901   3.397   2.294   5.246
 8334SOL    HW225902   3.495   2.173   5.198
 8335SOL     OW25903   5.375   4.571   5.487
 8335SOL    HW125904   5.390   4.519   5.402
 8335SOL    HW225905   5.463   4.598   5.525
 8336SOL     OW25906   1.612   3.034   3.480
 8336SOL    HW125907   1.530   3.089   3.496
 8336SOL    HW225908   1.655   3.012   3.567
 8337SOL     OW25909   6.632   1.006   4.295
 8337SOL    HW125910   6.601   0.952   4.216
 8337SOL    HW225911   6.608   1.102   4.282
 8338SOL     OW25912   2.642   5.963   1.043
 8338SOL    HW125913   2.577   5.998   1.111
 8338SOL    HW225914   2.709   5.904   1.089
 8339SOL     OW25915   6.008   0.285   1.923
 8339SOL    HW125916   5.961   0.305   2.009
 8339SOL    HW225917   6.085   0.349   1.911
 8340SOL     OW25918   6.032   2.330   6.399
 8340SOL    HW125919   6.056   2.291   6.488
 8340SOL    HW225920   6.111   2.326   6.338
 8341SOL     OW25921   3.792   1.067   0.735
 8341SOL    HW125922   3.797   1.021   0.824
 8341SOL    HW225923   3.866   1.134   0.729
 8342SOL     OW25924   3.799   0.545   0.336
 8342SOL    HW125925   3.722   0.532   0.398
 8342SOL    HW225926   3.788   0.488   0.255
 8343SOL     OW25927   5.679   5.131   3.242
 8343SOL    HW125928   5.707   5.172   3.329
 8343SOL    HW225929   5.633   5.044   3.260
 8344SOL     OW25930   1.962   5.114   5.512
 8344SOL    HW125931   2.056   5.144   5.494
 8344SOL    HW225932   1.905   5.193   5.535
 8345SOL     OW25933   5.803   0.736   3.938
 8345SOL    HW125934   5.714   0.716   3.979
 8345SOL    HW225935   5.790   0.766   3.843
 8346SOL     OW25936   5.356   3.887   4.354
 8346SOL    HW125937   5.329   3.862   4.447
 8346SOL    HW225938   5.366   3.986   4.348
 8347SOL     OW25939   1.495   1.429   5.972
 8347SOL    HW125940   1.568   1.486   5.934
 8347SOL    HW225941   1.489   1.443   6.071
 8348SOL     OW25942   2.875   5.667   2.144
 8348SOL    HW125943   2.776   5.659   2.145
 8348SOL    HW225944   2.901   5.761   2.124
 8349SOL     OW25945   5.042   6.163   1.532
 8349SOL    HW125946   4.985   6.135   1.610
 8349SOL    HW225947   4.985   6.177   1.452
 8350SOL     OW25948   1.202   0.024   0.135
 8350SOL    HW125949   1.290   0.031   0.089
 8350SOL    HW225950   1.216   0.005   0.232
 8351SOL     OW25951   0.492   2.355   2.978
 8351SOL    HW125952   0.427   2.331   2.905
 8351SOL    HW225953   0.478   2.294   3.056
 8352SOL     OW25954   2.407   6.567   0.013
 8352SOL    HW125955   2.500   6.542   0.041
 8352SOL    HW225956   2.366   6.624   0.084
 8353SOL     OW25957   0.581   6.299   2.678
 8353SOL    HW125958   0.639   6.329   2.601
 8353SOL    HW225959   0.486   6.299   2.649
 8354SOL     OW25960   3.927   1.576   3.154
 8354SOL    HW125961   3.981   1.543   3.076
 8354SOL    HW225962   3.972   1.548   3.239
 8355SOL     OW25963   3.322   5.384   6.220
 8355SOL    HW125964   3.234   5.354   6.255
 8355SOL    HW225965   3.348   5.328   6.142
 8356SOL     OW25966   3.057   4.556   1.215
 8356SOL    HW125967   2.968   4.522   1.246
 8356SOL    HW225968   3.044   4.638   1.160
 8357SOL     OW25969   4.322   0.110   5.193
 8357SOL    HW125970   4.314   0.053   5.111
 8357SOL    HW225971   4.364   0.057   5.267
 8358SOL     OW25972   0.621   0.715   5.233
 8358SOL    HW125973   0.564   0.784   5.278
 8358SOL    HW225974   0.712   0.715   5.274
 8359SOL     OW25975   4.491   2.299   5.646
 8359SOL    HW125976   4.499   2.315   5.744
 8359SOL    HW225977   4.580   2.315   5.602
 8360SOL     OW25978   4.048   0.154   1.426
 8360SOL    HW125979   4.132   0.140   1.479
 8360SOL    HW225980   4.067   0.216   1.350
 8361SOL     OW25981   4.534   1.438   0.098
 8361SOL    HW125982   4.437   1.465   0.100
 8361SOL    HW225983   4.547   1.368   0.028
 8362SOL     OW25984   6.667   3.561   1.263
 8362SOL    HW125985   6.684   3.603   1.352
 8362SOL    HW225986   6.660   3.633   1.193
 8363SOL     OW25987   1.840   2.520   1.373
 8363SOL    HW125988   1.826   2.437   1.318
 8363SOL    HW225989   1.758   2.577   1.369
 8364SOL     OW25990   0.466   2.294   4.161
 8364SOL    HW125991   0.538   2.295   4.091
 8364SOL    HW225992   0.378   2.314   4.118
 8365SOL     OW25993   1.716   1.944   1.395
 8365SOL    HW125994   1.759   1.876   1.454
 8365SOL    HW225995   1.787   2.002   1.355
 8366SOL     OW25996   5.565   5.262   1.985
 8366SOL    HW125997   5.498   5.296   1.920
 8366SOL    HW225998   5.621   5.338   2.019
 8367SOL     OW25999   1.822   4.491   3.374
 8367SOL    HW126000   1.894   4.558   3.358
 8367SOL    HW226001   1.735   4.538   3.388
 8368SOL     OW26002   6.175   5.236   5.742
 8368SOL    HW126003   6.156   5.285   5.827
 8368SOL    HW226004   6.091   5.226   5.690
 8369SOL     OW26005   1.700   6.946   0.228
 8369SOL    HW126006   1.756   6.864   0.240
 8369SOL    HW226007   1.628   6.927   0.161
 8370SOL     OW26008   2.997   3.110   0.763
 8370SOL    HW126009   2.978   3.054   0.682
 8370SOL    HW226010   2.927   3.092   0.832
 8371SOL     OW26011   2.739   3.693   6.511
 8371SOL    HW126012   2.693   3.672   6.424
 8371SOL    HW226013   2.674   3.738   6.573
 8372SOL     OW26014   1.275   6.066   1.093
 8372SOL    HW126015   1.236   6.146   1.137
 8372SOL    HW226016   1.251   6.066   0.996
 8373SOL     OW26017   6.837   0.986   3.853
 8373SOL    HW126018   6.796   1.065   3.899
 8373SOL    HW226019   6.768   0.940   3.797
 8374SOL     OW26020   0.521   1.175   3.769
 8374SOL    HW126021   0.479   1.230   3.840
 8374SOL    HW226022   0.604   1.131   3.804
 8375SOL     OW26023   1.477   2.263   5.193
 8375SOL    HW126024   1.539   2.194   5.154
 8375SOL    HW226025   1.517   2.354   5.181
 8376SOL     OW26026   1.270   1.871   3.693
 8376SOL    HW126027   1.278   1.772   3.699
 8376SOL    HW226028   1.267   1.911   3.785
 8377SOL     OW26029   4.106   5.657   6.934
 8377SOL    HW126030   4.074   5.730   6.874
 8377SOL    HW226031   4.028   5.603   6.966
 8378SOL     OW26032   4.454   5.919   4.740
 8378SOL    HW126033   4.417   5.993   4.685
 8378SOL    HW226034   4.544   5.893   4.706
 8379SOL     OW26035   6.143   2.055   1.768
 8379SOL    HW126036   6.163   2.141   1.720
 8379SOL    HW226037   6.176   1.978   1.713
 8380SOL     OW26038   0.726   6.006   1.535
 8380SOL    HW126039   0.672   5.988   1.453
 8380SOL    HW226040   0.741   5.921   1.585
 8381SOL     OW26041   0.988   1.927   2.672
 8381SOL    HW126042   0.939   2.013   2.668
 8381SOL    HW226043   0.934   1.860   2.723
 8382SOL     OW26044   0.775   0.248   1.835
 8382SOL    HW126045   0.829   0.174   1.796
 8382SOL    HW226046   0.827   0.333   1.832
 8383SOL     OW26047   3.062   0.000   6.133
 8383SOL    HW126048   3.096   6.965   6.204
 8383SOL    HW226049   3.108   7.007   6.046
 8384SOL     OW26050   0.500   3.797   2.601
 8384SOL    HW126051   0.422   3.742   2.572
 8384SOL    HW226052   0.467   3.886   2.635
 8385SOL     OW26053   4.135   2.231   1.950
 8385SOL    HW126054   4.206   2.177   1.905
 8385SOL    HW226055   4.073   2.269   1.881
 8386SOL     OW26056   2.238   5.733   1.735
 8386SOL    HW126057   2.155   5.761   1.784
 8386SOL    HW226058   2.263   5.641   1.763
 8387SOL     OW26059   0.798   1.350   3.714
 8387SOL    HW126060   0.699   1.342   3.709
 8387SOL    HW226061   0.823   1.404   3.795
 8388SOL     OW26062   3.970   5.243   1.209
 8388SOL    HW126063   3.989   5.161   1.154
 8388SOL    HW226064   3.881   5.280   1.182
 8389SOL     OW26065   0.697   2.797   4.008
 8389SOL    HW126066   0.624   2.729   4.022
 8389SOL    HW226067   0.786   2.751   4.005
 8390SOL     OW26068   2.827   0.394   6.101
 8390SOL    HW126069   2.924   0.370   6.113
 8390SOL    HW226070   2.780   0.319   6.054
 8391SOL     OW26071   5.486   6.119   0.588
 8391SOL    HW126072   5.391   6.134   0.559
 8391SOL    HW226073   5.486   6.074   0.677
 8392SOL     OW26074   4.724   6.051   0.102
 8392SOL    HW126075   4.666   6.078   0.026
 8392SOL    HW226076   4.667   6.023   0.180
 8393SOL     OW26077   0.443   5.005   2.707
 8393SOL    HW126078   0.385   4.926   2.728
 8393SOL    HW226079   0.537   4.985   2.731
 8394SOL     OW26080   1.366   1.590   2.883
 8394SOL    HW126081   1.312   1.629   2.808
 8394SOL    HW226082   1.329   1.622   2.971
 8395SOL     OW26083   0.726   6.596   5.489
 8395SOL    HW126084   0.669   6.678   5.489
 8395SOL    HW226085   0.686   6.528   5.426
 8396SOL     OW26086   4.352   2.416   1.659
 8396SOL    HW126087   4.273   2.371   1.617
 8396SOL    HW226088   4.426   2.425   1.591
 8397SOL     OW26089   2.311   5.348   3.873
 8397SOL    HW126090   2.368   5.337   3.955
 8397SOL    HW226091   2.232   5.287   3.879
 8398SOL     OW26092   5.745   1.482   0.284
 8398SOL    HW126093   5.745   1.507   0.187
 8398SOL    HW226094   5.655   1.447   0.309
 8399SOL     OW26095   5.545   5.924   6.615
 8399SOL    HW126096   5.460   5.975   6.616
 8399SOL    HW226097   5.607   5.962   6.546
 8400SOL     OW26098   6.365   6.827   4.156
 8400SOL    HW126099   6.432   6.901   4.150
 8400SOL    HW226100   6.274   6.865   4.170
 8401SOL     OW26101   2.913   3.996   5.775
 8401SOL    HW126102   2.871   3.945   5.700
 8401SOL    HW226103   2.888   4.093   5.768
 8402SOL     OW26104   4.466   0.769   5.733
 8402SOL    HW126105   4.519   0.701   5.683
 8402SOL    HW226106   4.460   0.742   5.830
 8403SOL     OW26107   0.963   2.481   4.824
 8403SOL    HW126108   0.875   2.465   4.869
 8403SOL    HW226109   0.963   2.571   4.781
 8404SOL     OW26110   4.418   4.979   5.118
 8404SOL    HW126111   4.353   4.913   5.080
 8404SOL    HW226112   4.382   5.071   5.108
 8405SOL     OW26113   1.690   2.667   4.941
 8405SOL    HW126114   1.610   2.698   4.992
 8405SOL    HW226115   1.755   2.624   5.004
 8406SOL     OW26116   5.736   3.570   1.246
 8406SOL    HW126117   5.809   3.511   1.279
 8406SOL    HW226118   5.684   3.522   1.175
 8407SOL     OW26119   5.086   3.770   2.903
 8407SOL    HW126120   5.085   3.816   2.815
 8407SOL    HW226121   5.042   3.827   2.972
 8408SOL     OW26122   4.506   4.525   4.355
 8408SOL    HW126123   4.476   4.570   4.271
 8408SOL    HW226124   4.540   4.433   4.334
 8409SOL     OW26125   0.570   1.807   3.732
 8409SOL    HW126126   0.509   1.732   3.706
 8409SOL    HW226127   0.589   1.863   3.651
 8410SOL     OW26128   2.456   6.247   2.799
 8410SOL    HW126129   2.438   6.334   2.753
 8410SOL    HW226130   2.374   6.189   2.793
 8411SOL     OW26131   1.817   3.208   3.406
 8411SOL    HW126132   1.903   3.161   3.389
 8411SOL    HW226133   1.760   3.153   3.467
 8412SOL     OW26134   5.888   2.743   2.520
 8412SOL    HW126135   5.911   2.804   2.595
 8412SOL    HW226136   5.966   2.735   2.458
 8413SOL     OW26137   2.715   4.803   1.158
 8413SOL    HW126138   2.735   4.858   1.239
 8413SOL    HW226139   2.616   4.797   1.145
 8414SOL     OW26140   5.849   6.946   3.241
 8414SOL    HW126141   5.851   0.018   3.225
 8414SOL    HW226142   5.848   6.898   3.154
 8415SOL     OW26143   6.447   3.672   2.139
 8415SOL    HW126144   6.371   3.719   2.094
 8415SOL    HW226145   6.501   3.739   2.190
 8416SOL     OW26146   4.657   4.283   2.381
 8416SOL    HW126147   4.622   4.352   2.317
 8416SOL    HW226148   4.650   4.192   2.339
 8417SOL     OW26149   2.479   5.984   6.619
 8417SOL    HW126150   2.443   6.066   6.663
 8417SOL    HW226151   2.446   5.903   6.666
 8418SOL     OW26152   6.127   5.336   2.733
 8418SOL    HW126153   6.124   5.281   2.650
 8418SOL    HW226154   6.044   5.320   2.787
 8419SOL     OW26155   5.019   0.421   3.810
 8419SOL    HW126156   4.964   0.444   3.729
 8419SOL    HW226157   4.966   0.439   3.892
 8420SOL     OW26158   3.894   1.983   5.450
 8420SOL    HW126159   3.854   1.892   5.461
 8420SOL    HW226160   3.833   2.039   5.394
 8421SOL     OW26161   0.550   0.023   0.993
 8421SOL    HW126162   0.553   0.108   0.940
 8421SOL    HW226163   0.594   0.039   1.082
 8422SOL     OW26164   4.263   0.164   1.599
 8422SOL    HW126165   4.281   0.239   1.662
 8422SOL    HW226166   4.312   0.180   1.513
 8423SOL     OW26167   2.031   3.408   1.601
 8423SOL    HW126168   1.951   3.347   1.602
 8423SOL    HW226169   2.054   3.430   1.506
 8424SOL     OW26170   2.633   2.408   1.990
 8424SOL    HW126171   2.626   2.489   1.931
 8424SOL    HW226172   2.720   2.362   1.973
 8425SOL     OW26173   6.619   4.543   6.359
 8425SOL    HW126174   6.712   4.558   6.328
 8425SOL    HW226175   6.620   4.503   6.451
 8426SOL     OW26176   3.870   3.664   2.695
 8426SOL    HW126177   3.935   3.703   2.761
 8426SOL    HW226178   3.781   3.707   2.706
 8427SOL     OW26179   1.966   2.691   6.725
 8427SOL    HW126180   1.905   2.702   6.647
 8427SOL    HW226181   1.928   2.623   6.788
 8428SOL     OW26182   6.305   4.414   1.547
 8428SOL    HW126183   6.337   4.448   1.459
 8428SOL    HW226184   6.246   4.335   1.532
 8429SOL     OW26185   2.280   6.861   2.985
 8429SOL    HW126186   2.214   6.836   2.915
 8429SOL    HW226187   2.342   6.931   2.948
 8430SOL     OW26188   5.168   3.980   2.673
 8430SOL    HW126189   5.257   4.010   2.708
 8430SOL    HW226190   5.181   3.924   2.591
 8431SOL     OW26191   2.865   3.614   1.793
 8431SOL    HW126192   2.888   3.596   1.697
 8431SOL    HW226193   2.766   3.631   1.800
 8432SOL     OW26194   4.798   6.508   6.905
 8432SOL    HW126195   4.882   6.475   6.948
 8432SOL    HW226196   4.719   6.469   6.952
 8433SOL     OW26197   0.703   1.866   3.989
 8433SOL    HW126198   0.661   1.825   3.908
 8433SOL    HW226199   0.759   1.945   3.962
 8434SOL     OW26200   5.699   6.138   6.220
 8434SOL    HW126201   5.752   6.085   6.154
 8434SOL    HW226202   5.604   6.105   6.222
 8435SOL     OW26203   4.774   2.479   1.864
 8435SOL    HW126204   4.786   2.570   1.905
 8435SOL    HW226205   4.683   2.445   1.885
 8436SOL     OW26206   2.977   4.230   1.744
 8436SOL    HW126207   2.980   4.167   1.821
 8436SOL    HW226208   2.966   4.324   1.778
 8437SOL     OW26209   6.942   1.686   1.045
 8437SOL    HW126210   6.999   1.729   0.974
 8437SOL    HW226211   6.976   1.711   1.135
 8438SOL     OW26212   2.144   6.226   1.062
 8438SOL    HW126213   2.168   6.228   0.965
 8438SOL    HW226214   2.112   6.134   1.086
 8439SOL     OW26215   6.505   0.514   2.335
 8439SOL    HW126216   6.592   0.526   2.384
 8439SOL    HW226217   6.481   0.600   2.290
 8440SOL     OW26218   0.185   2.443   4.303
 8440SOL    HW126219   0.240   2.388   4.366
 8440SOL    HW226220   0.096   2.462   4.345
 8441SOL     OW26221   4.087   5.485   2.117
 8441SOL    HW126222   4.167   5.428   2.136
 8441SOL    HW226223   4.105   5.578   2.150
 8442SOL     OW26224   1.887   2.982   0.381
 8442SOL    HW126225   1.889   3.004   0.478
 8442SOL    HW226226   1.896   2.883   0.368
 8443SOL     OW26227   0.986   2.100   1.897
 8443SOL    HW126228   1.061   2.109   1.832
 8443SOL    HW226229   0.900   2.120   1.851
 8444SOL     OW26230   4.892   1.450   2.841
 8444SOL    HW126231   4.819   1.486   2.899
 8444SOL    HW226232   4.971   1.511   2.844
 8445SOL     OW26233   4.617   5.514   1.953
 8445SOL    HW126234   4.578   5.561   2.033
 8445SOL    HW226235   4.650   5.582   1.888
 8446SOL     OW26236   6.404   3.943   2.845
 8446SOL    HW126237   6.491   3.966   2.889
 8446SOL    HW226238   6.358   3.872   2.897
 8447SOL     OW26239   4.386   3.022   1.291
 8447SOL    HW126240   4.480   3.058   1.294
 8447SOL    HW226241   4.388   2.930   1.251
 8448SOL     OW26242   1.807   3.263   6.035
 8448SOL    HW126243   1.798   3.181   5.979
 8448SOL    HW226244   1.718   3.290   6.071
 8449SOL     OW26245   1.197   1.472   4.321
 8449SOL    HW126246   1.233   1.545   4.379
 8449SOL    HW226247   1.265   1.399   4.313
 8450SOL     OW26248   2.000   5.208   1.618
 8450SOL    HW126249   1.943   5.234   1.540
 8450SOL    HW226250   2.084   5.262   1.618
 8451SOL     OW26251   4.028   2.714   0.354
 8451SOL    HW126252   4.108   2.731   0.297
 8451SOL    HW226253   3.999   2.619   0.345
 8452SOL     OW26254   0.297   5.636   1.963
 8452SOL    HW126255   0.354   5.570   2.013
 8452SOL    HW226256   0.292   5.722   2.014
 8453SOL     OW26257   6.501   5.534   5.378
 8453SOL    HW126258   6.497   5.476   5.460
 8453SOL    HW226259   6.428   5.507   5.315
 8454SOL     OW26260   2.118   6.482   4.616
 8454SOL    HW126261   2.174   6.448   4.692
 8454SOL    HW226262   2.034   6.522   4.652
 8455SOL     OW26263   5.783   2.535   0.683
 8455SOL    HW126264   5.759   2.489   0.769
 8455SOL    HW226265   5.872   2.502   0.651
 8456SOL     OW26266   5.308   5.550   3.478
 8456SOL    HW126267   5.323   5.607   3.559
 8456SOL    HW226268   5.221   5.575   3.436
 8457SOL     OW26269   6.424   6.019   6.159
 8457SOL    HW126270   6.437   5.979   6.068
 8457SOL    HW226271   6.507   6.005   6.214
 8458SOL     OW26272   1.511   2.153   0.939
 8458SOL    HW126273   1.444   2.171   0.866
 8458SOL    HW226274   1.601   2.185   0.910
 8459SOL     OW26275   2.533   5.634   2.959
 8459SOL    HW126276   2.451   5.585   2.929
 8459SOL    HW226277   2.600   5.569   2.994
 8460SOL     OW26278   3.909   1.427   0.683
 8460SOL    HW126279   3.861   1.451   0.767
 8460SOL    HW226280   3.846   1.430   0.606
 8461SOL     OW26281   4.871   4.285   3.177
 8461SOL    HW126282   4.901   4.204   3.227
 8461SOL    HW226283   4.876   4.267   3.079
 8462SOL     OW26284   2.296   4.206   0.556
 8462SOL    HW126285   2.245   4.120   0.559
 8462SOL    HW226286   2.233   4.282   0.574
 8463SOL     OW26287   6.545   0.420   0.332
 8463SOL    HW126288   6.512   0.458   0.419
 8463SOL    HW226289   6.621   0.475   0.299
 8464SOL     OW26290   6.532   3.796   6.564
 8464SOL    HW126291   6.527   3.741   6.647
 8464SOL    HW226292   6.577   3.744   6.492
 8465SOL     OW26293   4.926   3.321   0.898
 8465SOL    HW126294   4.840   3.280   0.866
 8465SOL    HW226295   4.916   3.348   0.994
 8466SOL     OW26296   0.785   1.054   5.319
 8466SOL    HW126297   0.777   1.129   5.385
 8466SOL    HW226298   0.710   0.989   5.332
 8467SOL     OW26299   3.449   1.490   0.138
 8467SOL    HW126300   3.434   1.575   0.087
 8467SOL    HW226301   3.472   1.416   0.075
 8468SOL     OW26302   5.771   3.456   6.810
 8468SOL    HW126303   5.755   3.541   6.860
 8468SOL    HW226304   5.705   3.448   6.736
 8469SOL     OW26305   3.830   3.392   5.351
 8469SOL    HW126306   3.843   3.369   5.448
 8469SOL    HW226307   3.773   3.322   5.308
 8470SOL     OW26308   1.698   4.904   1.420
 8470SOL    HW126309   1.612   4.867   1.456
 8470SOL    HW226310   1.765   4.909   1.494
 8471SOL     OW26311   4.198   1.582   4.279
 8471SOL    HW126312   4.292   1.592   4.246
 8471SOL    HW226313   4.162   1.494   4.248
 8472SOL     OW26314   5.931   1.672   6.551
 8472SOL    HW126315   5.930   1.763   6.592
 8472SOL    HW226316   5.901   1.605   6.619
 8473SOL     OW26317   5.236   4.897   6.199
 8473SOL    HW126318   5.179   4.821   6.167
 8473SOL    HW226319   5.177   4.968   6.238
 8474SOL     OW26320   3.171   4.072   4.669
 8474SOL    HW126321   3.152   4.075   4.767
 8474SOL    HW226322   3.098   4.022   4.622
 8475SOL     OW26323   6.676   1.999   2.999
 8475SOL    HW126324   6.717   1.908   2.993
 8475SOL    HW226325   6.730   2.057   3.059
 8476SOL     OW26326   5.869   1.107   1.721
 8476SOL    HW126327   5.933   1.073   1.790
 8476SOL    HW226328   5.822   1.188   1.756
 8477SOL     OW26329   5.549   0.173   1.819
 8477SOL    HW126330   5.621   0.204   1.756
 8477SOL    HW226331   5.576   0.194   1.913
 8478SOL     OW26332   0.125   6.975   5.152
 8478SOL    HW126333   0.155   7.019   5.236
 8478SOL    HW226334   0.167   7.021   5.074
 8479SOL     OW26335   0.480   3.214   0.491
 8479SOL    HW126336   0.481   3.202   0.590
 8479SOL    HW226337   0.389   3.194   0.455
 8480SOL     OW26338   4.127   3.891   0.781
 8480SOL    HW126339   4.131   3.809   0.838
 8480SOL    HW226340   4.036   3.932   0.788
 8481SOL     OW26341   4.132   2.237   3.253
 8481SOL    HW126342   4.110   2.318   3.200
 8481SOL    HW226343   4.098   2.156   3.205
 8482SOL     OW26344   4.207   1.100   6.857
 8482SOL    HW126345   4.165   1.090   6.766
 8482SOL    HW226346   4.169   1.030   6.918
 8483SOL     OW26347   4.107   5.258   3.242
 8483SOL    HW126348   4.027   5.217   3.285
 8483SOL    HW226349   4.185   5.252   3.304
 8484SOL     OW26350   5.845   6.166   5.231
 8484SOL    HW126351   5.763   6.214   5.200
 8484SOL    HW226352   5.885   6.216   5.308
 8485SOL     OW26353   3.744   1.282   6.692
 8485SOL    HW126354   3.699   1.364   6.657
 8485SOL    HW226355   3.766   1.221   6.616
 8486SOL     OW26356   6.113   2.303   4.270
 8486SOL    HW126357   6.143   2.234   4.336
 8486SOL    HW226358   6.162   2.389   4.287
 8487SOL     OW26359   6.586   2.416   6.085
 8487SOL    HW126360   6.685   2.431   6.075
 8487SOL    HW226361   6.567   2.318   6.084
 8488SOL     OW26362   4.590   4.900   2.260
 8488SOL    HW126363   4.615   4.873   2.353
 8488SOL    HW226364   4.596   4.821   2.199
 8489SOL     OW26365   6.247   2.307   2.006
 8489SOL    HW126366   6.179   2.235   2.019
 8489SOL    HW226367   6.212   2.375   1.941
 8490SOL     OW26368   3.078   6.980   6.991
 8490SOL    HW126369   3.030   6.908   0.014
 8490SOL    HW226370   3.151   6.941   6.936
 8491SOL     OW26371   2.961   5.871   1.813
 8491SOL    HW126372   2.921   5.784   1.783
 8491SOL    HW226373   3.033   5.899   1.749
 8492SOL     OW26374   6.437   6.079   4.470
 8492SOL    HW126375   6.406   6.028   4.389
 8492SOL    HW226376   6.510   6.142   4.444
 8493SOL     OW26377   4.932   1.095   5.841
 8493SOL    HW126378   4.968   1.026   5.778
 8493SOL    HW226379   5.004   1.160   5.865
 8494SOL     OW26380   6.847   3.493   2.107
 8494SOL    HW126381   6.812   3.408   2.145
 8494SOL    HW226382   6.909   3.473   2.031
 8495SOL     OW26383   5.951   5.420   6.170
 8495SOL    HW126384   5.900   5.504   6.158
 8495SOL    HW226385   5.956   5.397   6.267
 8496SOL     OW26386   5.401   2.343   2.951
 8496SOL    HW126387   5.327   2.350   3.018
 8496SOL    HW226388   5.404   2.250   2.915
 8497SOL     OW26389   6.415   0.554   2.836
 8497SOL    HW126390   6.363   0.632   2.870
 8497SOL    HW226391   6.511   0.579   2.827
 8498SOL     OW26392   4.901   0.116   3.974
 8498SOL    HW126393   4.854   0.067   4.048
 8498SOL    HW226394   4.990   0.146   4.005
 8499SOL     OW26395   6.018   6.940   5.536
 8499SOL    HW126396   6.055   7.021   5.491
 8499SOL    HW226397   6.093   6.884   5.571
 8500SOL     OW26398   1.047   0.635   6.665
 8500SOL    HW126399   1.005   0.549   6.634
 8500SOL    HW226400   1.132   0.614   6.714
 8501SOL     OW26401   2.429   1.133   6.270
 8501SOL    HW126402   2.376   1.201   6.220
 8501SOL    HW226403   2.452   1.057   6.210
 8502SOL     OW26404   6.650   3.708   6.826
 8502SOL    HW126405   6.610   3.785   6.874
 8502SOL    HW226406   6.748   3.703   6.846
 8503SOL     OW26407   5.162   1.961   5.630
 8503SOL    HW126408   5.227   1.917   5.567
 8503SOL    HW226409   5.100   1.891   5.667
 8504SOL     OW26410   1.133   0.208   2.627
 8504SOL    HW126411   1.142   0.201   2.727
 8504SOL    HW226412   1.038   0.190   2.601
 8505SOL     OW26413   5.322   2.739   2.071
 8505SOL    HW126414   5.341   2.649   2.111
 8505SOL    HW226415   5.367   2.746   1.982
 8506SOL     OW26416   1.102   0.013   6.383
 8506SOL    HW126417   1.113   6.976   6.307
 8506SOL    HW226418   1.041   6.999   6.452
 8507SOL     OW26419   3.065   5.902   5.385
 8507SOL    HW126420   3.088   5.814   5.343
 8507SOL    HW226421   3.099   5.905   5.478
 8508SOL     OW26422   2.384   1.122   6.542
 8508SOL    HW126423   2.421   1.037   6.580
 8508SOL    HW226424   2.373   1.113   6.443
 8509SOL     OW26425   5.471   1.909   2.621
 8509SOL    HW126426   5.555   1.925   2.568
 8509SOL    HW226427   5.416   1.839   2.576
 8510SOL     OW26428   0.544   1.448   4.747
 8510SOL    HW126429   0.555   1.415   4.841
 8510SOL    HW226430   0.619   1.412   4.691
 8511SOL     OW26431   5.880   1.693   3.113
 8511SOL    HW126432   5.932   1.687   3.198
 8511SOL    HW226433   5.848   1.602   3.087
 8512SOL     OW26434   2.462   6.197   5.486
 8512SOL    HW126435   2.493   6.280   5.533
 8512SOL    HW226436   2.533   6.127   5.492
 8513SOL     OW26437   5.264   6.045   6.741
 8513SOL    HW126438   5.260   6.129   6.687
 8513SOL    HW226439   5.231   5.968   6.687
 8514SOL     OW26440   3.877   5.825   3.654
 8514SOL    HW126441   3.878   5.782   3.744
 8514SOL    HW226442   3.790   5.807   3.609
 8515SOL     OW26443   6.036   2.361   1.304
 8515SOL    HW126444   6.034   2.267   1.341
 8515SOL    HW226445   6.025   2.426   1.379
 8516SOL     OW26446   0.182   2.043   1.997
 8516SOL    HW126447   0.116   1.970   2.015
 8516SOL    HW226448   0.148   2.128   2.038
 8517SOL     OW26449   1.269   3.926   0.191
 8517SOL    HW126450   1.202   3.992   0.156
 8517SOL    HW226451   1.318   3.885   0.114
 8518SOL     OW26452   2.784   5.778   0.780
 8518SOL    HW126453   2.820   5.732   0.699
 8518SOL    HW226454   2.688   5.804   0.765
 8519SOL     OW26455   2.577   5.852   3.544
 8519SOL    HW126456   2.599   5.947   3.522
 8519SOL    HW226457   2.585   5.837   3.642
 8520SOL     OW26458   3.392   6.403   0.192
 8520SOL    HW126459   3.318   6.380   0.256
 8520SOL    HW226460   3.359   6.389   0.099
 8521SOL     OW26461   1.589   0.462   1.499
 8521SOL    HW126462   1.532   0.502   1.426
 8521SOL    HW226463   1.652   0.395   1.459
 8522SOL     OW26464   2.408   6.787   4.453
 8522SOL    HW126465   2.454   6.859   4.504
 8522SOL    HW226466   2.460   6.702   4.462
 8523SOL     OW26467   1.333   6.421   6.696
 8523SOL    HW126468   1.354   6.384   6.786
 8523SOL    HW226469   1.379   6.509   6.685
 8524SOL     OW26470   1.254   1.553   6.643
 8524SOL    HW126471   1.340   1.506   6.627
 8524SOL    HW226472   1.178   1.493   6.617
 8525SOL     OW26473   5.385   3.903   3.988
 8525SOL    HW126474   5.399   3.818   4.038
 8525SOL    HW226475   5.336   3.885   3.903
 8526SOL     OW26476   2.053   3.422   2.282
 8526SOL    HW126477   2.114   3.438   2.204
 8526SOL    HW226478   2.105   3.432   2.367
 8527SOL     OW26479   4.628   0.826   4.012
 8527SOL    HW126480   4.642   0.876   3.927
 8527SOL    HW226481   4.594   0.888   4.083
 8528SOL     OW26482   5.868   2.042   0.117
 8528SOL    HW126483   5.778   2.027   0.158
 8528SOL    HW226484   5.934   1.981   0.160
 8529SOL     OW26485   6.742   5.535   6.075
 8529SOL    HW126486   6.720   5.461   6.138
 8529SOL    HW226487   6.803   5.601   6.120
 8530SOL     OW26488   2.220   4.598   6.345
 8530SOL    HW126489   2.279   4.517   6.342
 8530SOL    HW226490   2.134   4.579   6.298
 8531SOL     OW26491   4.279   4.789   1.826
 8531SOL    HW126492   4.214   4.829   1.891
 8531SOL    HW226493   4.345   4.733   1.876
 8532SOL     OW26494   1.331   3.710   1.051
 8532SOL    HW126495   1.325   3.807   1.072
 8532SOL    HW226496   1.397   3.697   0.976
 8533SOL     OW26497   4.428   6.715   5.599
 8533SOL    HW126498   4.337   6.677   5.583
 8533SOL    HW226499   4.483   6.707   5.516
 8534SOL     OW26500   1.767   2.807   2.158
 8534SOL    HW126501   1.726   2.875   2.219
 8534SOL    HW226502   1.703   2.788   2.083
 8535SOL     OW26503   0.095   3.622   5.161
 8535SOL    HW126504   0.050   3.560   5.096
 8535SOL    HW226505   0.090   3.584   5.253
 8536SOL     OW26506   5.900   1.505   5.540
 8536SOL    HW126507   5.948   1.447   5.474
 8536SOL    HW226508   5.838   1.567   5.490
 8537SOL     OW26509   4.840   6.366   2.984
 8537SOL    HW126510   4.917   6.342   3.044
 8537SOL    HW226511   4.823   6.465   2.990
 8538SOL     OW26512   5.225   0.562   5.620
 8538SOL    HW126513   5.253   0.569   5.525
 8538SOL    HW226514   5.126   0.574   5.627
 8539SOL     OW26515   0.225   3.342   3.027
 8539SOL    HW126516   0.314   3.389   3.027
 8539SOL    HW226517   0.173   3.368   2.946
 8540SOL     OW26518   3.938   6.847   6.578
 8540SOL    HW126519   4.027   6.892   6.586
 8540SOL    HW226520   3.923   6.788   6.657
 8541SOL     OW26521   3.193   6.097   5.086
 8541SOL    HW126522   3.126   6.127   5.154
 8541SOL    HW226523   3.247   6.175   5.056
 8542SOL     OW26524   0.958   5.283   5.337
 8542SOL    HW126525   0.934   5.202   5.284
 8542SOL    HW226526   1.056   5.282   5.357
 8543SOL     OW26527   2.824   2.562   5.305
 8543SOL    HW126528   2.821   2.492   5.233
 8543SOL    HW226529   2.915   2.562   5.347
 8544SOL     OW26530   5.570   4.640   5.231
 8544SOL    HW126531   5.590   4.738   5.244
 8544SOL    HW226532   5.628   4.586   5.291
 8545SOL     OW26533   2.030   6.889   6.169
 8545SOL    HW126534   2.004   6.852   6.258
 8545SOL    HW226535   2.047   6.814   6.105
 8546SOL     OW26536   4.473   1.575   3.735
 8546SOL    HW126537   4.501   1.526   3.653
 8546SOL    HW226538   4.552   1.621   3.776
 8547SOL     OW26539   5.536   6.004   5.834
 8547SOL    HW126540   5.476   5.928   5.807
 8547SOL    HW226541   5.596   6.027   5.759
 8548SOL     OW26542   0.979   4.732   4.450
 8548SOL    HW126543   0.895   4.684   4.425
 8548SOL    HW226544   1.058   4.681   4.416
 8549SOL     OW26545   1.662   0.337   3.993
 8549SOL    HW126546   1.643   0.240   4.004
 8549SOL    HW226547   1.704   0.373   4.077
 8550SOL     OW26548   6.897   4.860   6.074
 8550SOL    HW126549   6.829   4.815   6.131
 8550SOL    HW226550   6.989   4.833   6.104
 8551SOL     OW26551   3.951   0.850   4.692
 8551SOL    HW126552   3.870   0.822   4.744
 8551SOL    HW226553   4.031   0.848   4.751
 8552SOL     OW26554   3.489   1.410   1.866
 8552SOL    HW126555   3.579   1.416   1.911
 8552SOL    HW226556   3.439   1.333   1.905
 8553SOL     OW26557   4.933   3.583   0.559
 8553SOL    HW126558   4.869   3.546   0.492
 8553SOL    HW226559   4.900   3.671   0.592
 8554SOL     OW26560   1.313   0.645   6.715
 8554SOL    HW126561   1.386   0.659   6.782
 8554SOL    HW226562   1.315   0.720   6.648
 8555SOL     OW26563   3.948   1.924   3.516
 8555SOL    HW126564   3.961   1.839   3.464
 8555SOL    HW226565   3.962   1.906   3.613
 8556SOL     OW26566   0.760   5.510   5.524
 8556SOL    HW126567   0.828   5.513   5.597
 8556SOL    HW226568   0.802   5.537   5.438
 8557SOL     OW26569   6.884   0.933   6.387
 8557SOL    HW126570   6.945   1.009   6.362
 8557SOL    HW226571   6.813   0.966   6.449
 8558SOL     OW26572   3.201   5.781   4.096
 8558SOL    HW126573   3.141   5.743   4.166
 8558SOL    HW226574   3.229   5.708   4.034
 8559SOL     OW26575   1.641   3.750   2.499
 8559SOL    HW126576   1.637   3.657   2.464
 8559SOL    HW226577   1.734   3.785   2.490
 8560SOL     OW26578   3.438   4.197   1.256
 8560SOL    HW126579   3.351   4.151   1.240
 8560SOL    HW226580   3.431   4.256   1.337
 8561SOL     OW26581   3.549   0.534   2.813
 8561SOL    HW126582   3.626   0.578   2.767
 8561SOL    HW226583   3.504   0.601   2.872
 8562SOL     OW26584   5.632   2.461   6.929
 8562SOL    HW126585   5.677   2.372   6.928
 8562SOL    HW226586   5.684   2.524   6.986
 8563SOL     OW26587   2.507   5.084   2.811
 8563SOL    HW126588   2.438   5.137   2.860
 8563SOL    HW226589   2.537   5.135   2.730
 8564SOL     OW26590   3.855   6.208   0.722
 8564SOL    HW126591   3.788   6.140   0.754
 8564SOL    HW226592   3.824   6.299   0.748
 8565SOL     OW26593   1.246   4.634   1.238
 8565SOL    HW126594   1.205   4.544   1.227
 8565SOL    HW226595   1.314   4.649   1.166
 8566SOL     OW26596   3.301   0.451   3.097
 8566SOL    HW126597   3.363   0.372   3.088
 8566SOL    HW226598   3.262   0.453   3.189
 8567SOL     OW26599   1.532   2.519   2.283
 8567SOL    HW126600   1.596   2.546   2.210
 8567SOL    HW226601   1.454   2.471   2.244
 8568SOL     OW26602   6.092   0.866   6.264
 8568SOL    HW126603   6.106   0.909   6.174
 8568SOL    HW226604   6.101   0.767   6.255
 8569SOL     OW26605   5.068   2.213   0.679
 8569SOL    HW126606   5.088   2.273   0.756
 8569SOL    HW226607   5.067   2.265   0.594
 8570SOL     OW26608   2.476   1.780   2.805
 8570SOL    HW126609   2.450   1.715   2.734
 8570SOL    HW226610   2.576   1.789   2.807
 8571SOL     OW26611   1.542   0.645   2.894
 8571SOL    HW126612   1.617   0.703   2.863
 8571SOL    HW226613   1.463   0.702   2.917
 8572SOL     OW26614   2.752   4.001   6.056
 8572SOL    HW126615   2.663   4.040   6.034
 8572SOL    HW226616   2.789   3.955   5.975
 8573SOL     OW26617   2.312   6.186   6.389
 8573SOL    HW126618   2.300   6.104   6.334
 8573SOL    HW226619   2.402   6.185   6.432
 8574SOL     OW26620   4.822   1.067   5.511
 8574SOL    HW126621   4.848   1.163   5.520
 8574SOL    HW226622   4.748   1.046   5.574
 8575SOL     OW26623   3.392   6.239   3.897
 8575SOL    HW126624   3.353   6.176   3.964
 8575SOL    HW226625   3.482   6.205   3.867
 8576SOL     OW26626   1.773   4.708   3.685
 8576SOL    HW126627   1.753   4.629   3.627
 8576SOL    HW226628   1.734   4.692   3.776
 8577SOL     OW26629   1.463   0.734   0.605
 8577SOL    HW126630   1.522   0.760   0.529
 8577SOL    HW226631   1.396   0.806   0.622
 8578SOL     OW26632   1.538   6.831   6.135
 8578SOL    HW126633   1.561   6.739   6.167
 8578SOL    HW226634   1.605   6.896   6.171
 8579SOL     OW26635   3.070   6.682   2.433
 8579SOL    HW126636   2.997   6.750   2.417
 8579SOL    HW226637   3.141   6.694   2.364
 8580SOL     OW26638   1.674   0.326   2.078
 8580SOL    HW126639   1.667   0.292   1.985
 8580SOL    HW226640   1.639   0.420   2.082
 8581SOL     OW26641   3.626   4.042   1.493
 8581SOL    HW126642   3.536   4.083   1.475
 8581SOL    HW226643   3.673   4.096   1.563
 8582SOL     OW26644   4.485   5.195   5.575
 8582SOL    HW126645   4.509   5.100   5.556
 8582SOL    HW226646   4.480   5.209   5.674
 8583SOL     OW26647   3.337   6.646   2.704
 8583SOL    HW126648   3.288   6.624   2.788
 8583SOL    HW226649   3.302   6.731   2.665
 8584SOL     OW26650   6.491   1.501   4.831
 8584SOL    HW126651   6.425   1.497   4.756
 8584SOL    HW226652   6.577   1.540   4.798
 8585SOL     OW26653   5.400   2.592   2.582
 8585SOL    HW126654   5.456   2.529   2.636
 8585SOL    HW226655   5.331   2.634   2.640
 8586SOL     OW26656   6.229   5.759   5.569
 8586SOL    HW126657   6.241   5.685   5.636
 8586SOL    HW226658   6.138   5.799   5.579
 8587SOL     OW26659   6.861   1.266   6.508
 8587SOL    HW126660   6.861   1.294   6.412
 8587SOL    HW226661   6.946   1.216   6.528
 8588SOL     OW26662   2.001   0.891   5.155
 8588SOL    HW126663   1.904   0.866   5.153
 8588SOL    HW226664   2.032   0.896   5.250
 8589SOL     OW26665   5.713   2.804   6.830
 8589SOL    HW126666   5.646   2.763   6.768
 8589SOL    HW226667   5.769   2.732   6.871
 8590SOL     OW26668   0.811   1.532   3.912
 8590SOL    HW126669   0.851   1.548   4.003
 8590SOL    HW226670   0.711   1.529   3.920
 8591SOL     OW26671   0.176   4.615   5.468
 8591SOL    HW126672   0.140   4.524   5.449
 8591SOL    HW226673   0.120   4.683   5.421
 8592SOL     OW26674   6.841   1.511   4.184
 8592SOL    HW126675   6.880   1.579   4.247
 8592SOL    HW226676   6.887   1.423   4.198
 8593SOL     OW26677   5.690   1.293   6.838
 8593SOL    HW126678   5.605   1.269   6.791
 8593SOL    HW226679   5.696   1.244   6.925
 8594SOL     OW26680   6.085   3.878   6.394
 8594SOL    HW126681   6.169   3.823   6.390
 8594SOL    HW226682   6.106   3.970   6.425
 8595SOL     OW26683   5.186   6.121   3.275
 8595SOL    HW126684   5.137   6.070   3.204
 8595SOL    HW226685   5.245   6.058   3.325
 8596SOL     OW26686   0.856   2.057   4.674
 8596SOL    HW126687   0.839   1.959   4.681
 8596SOL    HW226688   0.952   2.076   4.697
 8597SOL     OW26689   6.057   2.760   6.305
 8597SOL    HW126690   6.014   2.695   6.241
 8597SOL    HW226691   6.062   2.850   6.262
 8598SOL     OW26692   6.809   0.477   4.992
 8598SOL    HW126693   6.889   0.463   4.934
 8598SOL    HW226694   6.727   0.447   4.945
 8599SOL     OW26695   6.446   3.707   4.716
 8599SOL    HW126696   6.433   3.640   4.642
 8599SOL    HW226697   6.541   3.706   4.747
 8600SOL     OW26698   4.544   2.500   1.445
 8600SOL    HW126699   4.583   2.458   1.364
 8600SOL    HW226700   4.517   2.594   1.425
 8601SOL     OW26701   6.622   5.827   3.396
 8601SOL    HW126702   6.577   5.911   3.367
 8601SOL    HW226703   6.720   5.844   3.412
 8602SOL     OW26704   1.843   6.547   5.365
 8602SOL    HW126705   1.804   6.608   5.297
 8602SOL    HW226706   1.936   6.576   5.387
 8603SOL     OW26707   0.218   0.534   6.189
 8603SOL    HW126708   0.253   0.584   6.268
 8603SOL    HW226709   0.140   0.478   6.216
 8604SOL     OW26710   2.206   5.188   6.103
 8604SOL    HW126711   2.152   5.256   6.153
 8604SOL    HW226712   2.179   5.096   6.132
 8605SOL     OW26713   0.297   5.310   4.074
 8605SOL    HW126714   0.353   5.382   4.033
 8605SOL    HW226715   0.243   5.265   4.003
 8606SOL     OW26716   1.540   1.178   0.085
 8606SOL    HW126717   1.516   1.082   0.068
 8606SOL    HW226718   1.562   1.189   0.182
 8607SOL     OW26719   2.488   3.424   1.029
 8607SOL    HW126720   2.453   3.330   1.028
 8607SOL    HW226721   2.571   3.428   1.083
 8608SOL     OW26722   1.845   5.658   2.545
 8608SOL    HW126723   1.920   5.724   2.550
 8608SOL    HW226724   1.790   5.677   2.463
 8609SOL     OW26725   4.870   2.052   4.358
 8609SOL    HW126726   4.773   2.068   4.374
 8609SOL    HW226727   4.920   2.055   4.444
 8610SOL     OW26728   0.352   6.009   3.465
 8610SOL    HW126729   0.432   6.019   3.524
 8610SOL    HW226730   0.380   5.973   3.376
 8611SOL     OW26731   1.920   1.455   5.009
 8611SOL    HW126732   1.921   1.542   4.959
 8611SOL    HW226733   1.966   1.467   5.097
 8612SOL     OW26734   3.100   3.036   4.481
 8612SOL    HW126735   3.151   2.974   4.421
 8612SOL    HW226736   3.139   3.034   4.573
 8613SOL     OW26737   3.892   3.035   2.865
 8613SOL    HW126738   3.845   3.048   2.778
 8613SOL    HW226739   3.906   3.123   2.910
 8614SOL     OW26740   0.676   2.156   3.274
 8614SOL    HW126741   0.750   2.219   3.252
 8614SOL    HW226742   0.592   2.207   3.289
 8615SOL     OW26743   3.448   2.350   5.662
 8615SOL    HW126744   3.464   2.445   5.633
 8615SOL    HW226745   3.389   2.304   5.595
 8616SOL     OW26746   5.691   4.107   4.518
 8616SOL    HW126747   5.678   4.030   4.579
 8616SOL    HW226748   5.617   4.109   4.450
 8617SOL     OW26749   1.561   6.838   2.844
 8617SOL    HW126750   1.470   6.848   2.805
 8617SOL    HW226751   1.629   6.876   2.782
 8618SOL     OW26752   5.784   3.993   0.756
 8618SOL    HW126753   5.714   4.061   0.731
 8618SOL    HW226754   5.811   3.941   0.676
 8619SOL     OW26755   5.694   5.638   0.485
 8619SOL    HW126756   5.669   5.735   0.480
 8619SOL    HW226757   5.760   5.617   0.412
 8620SOL     OW26758   2.235   6.842   4.253
 8620SOL    HW126759   2.302   6.891   4.197
 8620SOL    HW226760   2.280   6.807   4.335
 8621SOL     OW26761   5.755   3.239   1.741
 8621SOL    HW126762   5.674   3.243   1.683
 8621SOL    HW226763   5.773   3.329   1.780
 8622SOL     OW26764   0.061   5.514   2.475
 8622SOL    HW126765   0.054   5.565   2.390
 8622SOL    HW226766   0.156   5.487   2.491
 8623SOL     OW26767   2.101   2.504   4.117
 8623SOL    HW126768   2.171   2.435   4.101
 8623SOL    HW226769   2.124   2.588   4.067
 8624SOL     OW26770   3.481   3.841   5.177
 8624SOL    HW126771   3.525   3.793   5.254
 8624SOL    HW226772   3.408   3.900   5.212
 8625SOL     OW26773   4.208   3.153   5.587
 8625SOL    HW126774   4.134   3.092   5.614
 8625SOL    HW226775   4.259   3.113   5.510
 8626SOL     OW26776   4.367   1.955   1.600
 8626SOL    HW126777   4.376   2.012   1.681
 8626SOL    HW226778   4.454   1.912   1.579
 8627SOL     OW26779   2.073   1.139   2.658
 8627SOL    HW126780   1.989   1.116   2.707
 8627SOL    HW226781   2.050   1.180   2.570
 8628SOL     OW26782   0.856   6.703   0.576
 8628SOL    HW126783   0.839   6.748   0.489
 8628SOL    HW226784   0.838   6.766   0.651
 8629SOL     OW26785   0.549   6.828   4.428
 8629SOL    HW126786   0.642   6.807   4.396
 8629SOL    HW226787   0.540   6.926   4.441
 8630SOL     OW26788   5.092   2.513   2.674
 8630SOL    HW126789   5.008   2.539   2.721
 8630SOL    HW226790   5.114   2.580   2.603
 8631SOL     OW26791   2.339   5.976   6.222
 8631SOL    HW126792   2.285   5.964   6.139
 8631SOL    HW226793   2.435   5.955   6.202
 8632SOL     OW26794   5.800   5.647   4.209
 8632SOL    HW126795   5.899   5.656   4.197
 8632SOL    HW226796   5.758   5.737   4.215
 8633SOL     OW26797   5.874   3.652   5.046
 8633SOL    HW126798   5.952   3.613   5.093
 8633SOL    HW226799   5.790   3.627   5.094
 8634SOL     OW26800   5.124   4.079   6.837
 8634SOL    HW126801   5.151   4.102   6.930
 8634SOL    HW226802   5.091   3.984   6.835
 8635SOL     OW26803   5.339   2.648   6.811
 8635SOL    HW126804   5.388   2.567   6.778
 8635SOL    HW226805   5.357   2.660   6.908
 8636SOL     OW26806   4.280   6.293   1.882
 8636SOL    HW126807   4.281   6.297   1.982
 8636SOL    HW226808   4.241   6.378   1.845
 8637SOL     OW26809   1.931   1.893   6.328
 8637SOL    HW126810   1.900   1.960   6.260
 8637SOL    HW226811   1.997   1.936   6.390
 8638SOL     OW26812   4.885   3.211   3.625
 8638SOL    HW126813   4.894   3.275   3.702
 8638SOL    HW226814   4.804   3.234   3.572
 8639SOL     OW26815   3.336   3.671   7.015
 8639SOL    HW126816   3.417   3.707   6.970
 8639SOL    HW226817   3.363   3.615   0.067
 8640SOL     OW26818   3.658   2.544   0.703
 8640SOL    HW126819   3.593   2.522   0.776
 8640SOL    HW226820   3.667   2.466   0.641
 8641SOL     OW26821   4.044   4.907   2.576
 8641SOL    HW126822   4.064   5.004   2.591
 8641SOL    HW226823   4.040   4.860   2.665
 8642SOL     OW26824   1.602   5.940   2.740
 8642SOL    HW126825   1.655   5.936   2.825
 8642SOL    HW226826   1.646   6.004   2.677
 8643SOL     OW26827   3.971   6.843   1.128
 8643SOL    HW126828   4.017   6.921   1.087
 8643SOL    HW226829   3.934   6.784   1.056
 8644SOL     OW26830   6.413   2.573   5.951
 8644SOL    HW126831   6.479   2.526   6.010
 8644SOL    HW226832   6.385   2.659   5.994
 8645SOL     OW26833   6.210   5.707   3.013
 8645SOL    HW126834   6.288   5.692   2.953
 8645SOL    HW226835   6.129   5.725   2.958
 8646SOL     OW26836   6.840   2.328   5.392
 8646SOL    HW126837   6.934   2.361   5.379
 8646SOL    HW226838   6.806   2.289   5.306
 8647SOL     OW26839   1.964   5.511   1.613
 8647SOL    HW126840   1.917   5.451   1.548
 8647SOL    HW226841   2.058   5.480   1.625
 8648SOL     OW26842   5.063   5.282   0.324
 8648SOL    HW126843   5.058   5.288   0.423
 8648SOL    HW226844   5.064   5.374   0.285
 8649SOL     OW26845   5.205   1.294   0.872
 8649SOL    HW126846   5.290   1.339   0.847
 8649SOL    HW226847   5.139   1.362   0.905
 8650SOL     OW26848   2.018   0.247   5.604
 8650SOL    HW126849   2.054   0.208   5.689
 8650SOL    HW226850   2.027   0.180   5.531
 8651SOL     OW26851   3.898   2.365   1.425
 8651SOL    HW126852   3.866   2.460   1.415
 8651SOL    HW226853   3.826   2.310   1.467
 8652SOL     OW26854   0.453   2.541   3.358
 8652SOL    HW126855   0.489   2.580   3.442
 8652SOL    HW226856   0.456   2.610   3.285
 8653SOL     OW26857   5.811   1.368   6.406
 8653SOL    HW126858   5.792   1.463   6.383
 8653SOL    HW226859   5.800   1.311   6.324
 8654SOL     OW26860   0.557   4.378   2.930
 8654SOL    HW126861   0.499   4.440   2.983
 8654SOL    HW226862   0.575   4.296   2.984
 8655SOL     OW26863   0.988   0.401   4.754
 8655SOL    HW126864   0.948   0.416   4.845
 8655SOL    HW226865   0.919   0.361   4.694
 8656SOL     OW26866   5.082   6.741   1.085
 8656SOL    HW126867   5.140   6.817   1.058
 8656SOL    HW226868   5.138   6.660   1.101
 8657SOL     OW26869   3.231   2.116   3.077
 8657SOL    HW126870   3.179   2.114   3.162
 8657SOL    HW226871   3.324   2.147   3.095
 8658SOL     OW26872   5.836   4.880   1.563
 8658SOL    HW126873   5.782   4.902   1.482
 8658SOL    HW226874   5.903   4.810   1.540
 8659SOL     OW26875   3.758   0.615   2.341
 8659SOL    HW126876   3.847   0.601   2.297
 8659SOL    HW226877   3.772   0.633   2.438
 8660SOL     OW26878   0.490   4.857   1.628
 8660SOL    HW126879   0.558   4.841   1.700
 8660SOL    HW226880   0.530   4.832   1.540
 8661SOL     OW26881   0.055   3.631   2.151
 8661SOL    HW126882   6.989   3.637   2.113
 8661SOL    HW226883   0.079   3.534   2.164
 8662SOL     OW26884   1.341   2.549   2.762
 8662SOL    HW126885   1.361   2.474   2.698
 8662SOL    HW226886   1.406   2.623   2.748
 8663SOL     OW26887   3.716   4.903   2.724
 8663SOL    HW126888   3.802   4.853   2.733
 8663SOL    HW226889   3.675   4.882   2.636
 8664SOL     OW26890   4.073   6.188   3.544
 8664SOL    HW126891   4.058   6.276   3.590
 8664SOL    HW226892   4.158   6.192   3.492
 8665SOL     OW26893   4.430   3.743   6.782
 8665SOL    HW126894   4.510   3.801   6.764
 8665SOL    HW226895   4.458   3.648   6.788
 8666SOL     OW26896   4.553   0.339   2.914
 8666SOL    HW126897   4.502   0.255   2.936
 8666SOL    HW226898   4.536   0.407   2.985
 8667SOL     OW26899   5.140   2.250   2.768
 8667SOL    HW126900   5.144   2.337   2.719
 8667SOL    HW226901   5.233   2.218   2.787
 8668SOL     OW26902   4.943   2.560   4.819
 8668SOL    HW126903   4.926   2.593   4.726
 8668SOL    HW226904   4.920   2.463   4.825
 8669SOL     OW26905   6.416   6.337   5.646
 8669SOL    HW126906   6.515   6.324   5.646
 8669SOL    HW226907   6.376   6.289   5.568
 8670SOL     OW26908   6.580   4.888   5.373
 8670SOL    HW126909   6.570   4.809   5.313
 8670SOL    HW226910   6.618   4.858   5.461
 8671SOL     OW26911   6.685   3.227   2.754
 8671SOL    HW126912   6.784   3.216   2.739
 8671SOL    HW226913   6.645   3.140   2.780
 8672SOL     OW26914   6.995   1.555   2.405
 8672SOL    HW126915   6.910   1.505   2.386
 8672SOL    HW226916   7.024   1.602   2.322
 8673SOL     OW26917   1.324   1.699   0.951
 8673SOL    HW126918   1.360   1.783   0.991
 8673SOL    HW226919   1.355   1.691   0.856
 8674SOL     OW26920   6.828   3.880   2.774
 8674SOL    HW126921   6.853   3.918   2.685
 8674SOL    HW226922   6.910   3.848   2.821
 8675SOL     OW26923   4.343   2.357   4.955
 8675SOL    HW126924   4.362   2.264   4.985
 8675SOL    HW226925   4.305   2.410   5.031
 8676SOL     OW26926   5.073   2.018   1.260
 8676SOL    HW126927   5.071   1.958   1.181
 8676SOL    HW226928   5.004   1.989   1.326
 8677SOL     OW26929   2.531   0.166   6.134
 8677SOL    HW126930   2.625   0.131   6.131
 8677SOL    HW226931   2.468   0.092   6.154
 8678SOL     OW26932   2.601   2.279   0.576
 8678SOL    HW126933   2.579   2.298   0.672
 8678SOL    HW226934   2.610   2.366   0.526
 8679SOL     OW26935   1.058   1.349   6.591
 8679SOL    HW126936   0.991   1.299   6.646
 8679SOL    HW226937   1.045   1.326   6.494
 8680SOL     OW26938   6.960   0.411   0.314
 8680SOL    HW126939   6.926   0.471   0.387
 8680SOL    HW226940   0.033   0.413   0.313
 8681SOL     OW26941   4.814   5.149   0.942
 8681SOL    HW126942   4.894   5.102   0.904
 8681SOL    HW226943   4.791   5.110   1.031
 8682SOL     OW26944   2.348   0.963   2.318
 8682SOL    HW126945   2.400   0.950   2.402
 8682SOL    HW226946   2.290   0.884   2.301
 8683SOL     OW26947   2.376   4.481   4.457
 8683SOL    HW126948   2.362   4.434   4.369
 8683SOL    HW226949   2.381   4.413   4.530
 8684SOL     OW26950   2.469   4.659   3.434
 8684SOL    HW126951   2.444   4.562   3.442
 8684SOL    HW226952   2.388   4.715   3.449
 8685SOL     OW26953   5.074   2.925   4.532
 8685SOL    HW126954   5.069   2.851   4.465
 8685SOL    HW226955   4.992   2.982   4.525
 8686SOL     OW26956   1.436   5.548   3.456
 8686SOL    HW126957   1.469   5.631   3.501
 8686SOL    HW226958   1.389   5.490   3.523
 8687SOL     OW26959   5.805   4.809   4.938
 8687SOL    HW126960   5.783   4.863   4.857
 8687SOL    HW226961   5.804   4.712   4.915
 8688SOL     OW26962   1.379   3.863   5.171
 8688SOL    HW126963   1.399   3.788   5.108
 8688SOL    HW226964   1.456   3.928   5.170
 8689SOL     OW26965   4.229   3.234   0.802
 8689SOL    HW126966   4.139   3.199   0.829
 8689SOL    HW226967   4.260   3.184   0.721
 8690SOL     OW26968   1.604   1.591   2.436
 8690SOL    HW126969   1.586   1.541   2.521
 8690SOL    HW226970   1.671   1.541   2.382
 8691SOL     OW26971   3.443   2.635   5.969
 8691SOL    HW126972   3.521   2.632   5.907
 8691SOL    HW226973   3.364   2.673   5.921
 8692SOL     OW26974   5.038   3.173   4.167
 8692SOL    HW126975   5.075   3.186   4.259
 8692SOL    HW226976   5.057   3.254   4.112
 8693SOL     OW26977   6.337   6.967   5.420
 8693SOL    HW126978   6.272   6.917   5.363
 8693SOL    HW226979   6.317   0.039   5.415
 8694SOL     OW26980   5.284   3.057   5.587
 8694SOL    HW126981   5.240   3.109   5.513
 8694SOL    HW226982   5.226   3.061   5.669
 8695SOL     OW26983   3.380   5.193   1.202
 8695SOL    HW126984   3.457   5.140   1.238
 8695SOL    HW226985   3.294   5.145   1.222
 8696SOL     OW26986   2.490   5.811   6.018
 8696SOL    HW126987   2.486   5.718   6.054
 8696SOL    HW226988   2.425   5.820   5.942
 8697SOL     OW26989   0.961   3.886   5.449
 8697SOL    HW126990   0.988   3.933   5.533
 8697SOL    HW226991   1.035   3.892   5.382
 8698SOL     OW26992   4.449   4.718   6.897
 8698SOL    HW126993   4.524   4.775   6.931
 8698SOL    HW226994   4.361   4.761   6.919
 8699SOL     OW26995   1.759   2.361   0.469
 8699SOL    HW126996   1.666   2.397   0.477
 8699SOL    HW226997   1.756   2.265   0.443
 8700SOL     OW26998   1.089   1.370   4.667
 8700SOL    HW126999   1.097   1.464   4.633
 8700SOL    HW227000   1.017   1.323   4.617
 8701SOL     OW27001   1.544   2.790   6.413
 8701SOL    HW127002   1.483   2.866   6.436
 8701SOL    HW227003   1.502   2.735   6.341
 8702SOL     OW27004   5.764   4.358   1.023
 8702SOL    HW127005   5.747   4.456   1.010
 8702SOL    HW227006   5.816   4.322   0.946
 8703SOL     OW27007   2.789   5.829   1.214
 8703SOL    HW127008   2.837   5.742   1.201
 8703SOL    HW227009   2.757   5.835   1.309
 8704SOL     OW27010   0.124   1.183   4.831
 8704SOL    HW127011   0.168   1.269   4.857
 8704SOL    HW227012   0.025   1.192   4.841
 8705SOL     OW27013   3.759   2.323   6.903
 8705SOL    HW127014   3.712   2.362   6.982
 8705SOL    HW227015   3.858   2.330   6.916
 8706SOL     OW27016   4.793   2.448   6.953
 8706SOL    HW127017   4.884   2.455   6.995
 8706SOL    HW227018   4.789   2.368   6.894
 8707SOL     OW27019   2.118   0.842   4.286
 8707SOL    HW127020   2.162   0.869   4.200
 8707SOL    HW227021   2.134   0.745   4.303
 8708SOL     OW27022   5.955   2.246   0.812
 8708SOL    HW127023   5.933   2.160   0.767
 8708SOL    HW227024   5.993   2.310   0.745
 8709SOL     OW27025   6.480   6.554   4.483
 8709SOL    HW127026   6.526   6.642   4.493
 8709SOL    HW227027   6.393   6.566   4.436
 8710SOL     OW27028   2.042   1.840   3.558
 8710SOL    HW127029   1.990   1.824   3.642
 8710SOL    HW227030   2.106   1.764   3.543
 8711SOL     OW27031   1.505   1.033   1.759
 8711SOL    HW127032   1.415   1.077   1.767
 8711SOL    HW227033   1.521   1.007   1.664
 8712SOL     OW27034   1.153   4.338   4.591
 8712SOL    HW127035   1.240   4.309   4.552
 8712SOL    HW227036   1.155   4.437   4.606
 8713SOL     OW27037   0.547   3.138   1.739
 8713SOL    HW127038   0.623   3.184   1.692
 8713SOL    HW227039   0.535   3.047   1.701
 8714SOL     OW27040   6.013   4.207   6.715
 8714SOL    HW127041   6.085   4.265   6.677
 8714SOL    HW227042   5.955   4.262   6.775
 8715SOL     OW27043   2.097   4.692   1.755
 8715SOL    HW127044   2.002   4.674   1.781
 8715SOL    HW227045   2.155   4.681   1.836
 8716SOL     OW27046   6.731   0.521   2.072
 8716SOL    HW127047   6.639   0.485   2.089
 8716SOL    HW227048   6.766   0.484   1.987
 8717SOL     OW27049   3.050   2.782   0.454
 8717SOL    HW127050   3.079   2.763   0.360
 8717SOL    HW227051   3.131   2.800   0.511
 8718SOL     OW27052   2.772   5.246   6.463
 8718SOL    HW127053   2.745   5.230   6.368
 8718SOL    HW227054   2.759   5.343   6.486
 8719SOL     OW27055   3.355   1.365   4.824
 8719SOL    HW127056   3.443   1.373   4.871
 8719SOL    HW227057   3.284   1.411   4.878
 8720SOL     OW27058   1.114   5.468   4.620
 8720SOL    HW127059   1.173   5.413   4.680
 8720SOL    HW227060   1.169   5.536   4.572
 8721SOL     OW27061   0.957   6.949   0.406
 8721SOL    HW127062   0.976   7.013   0.480
 8721SOL    HW227063   0.911   6.998   0.331
 8722SOL     OW27064   3.080   0.842   0.763
 8722SOL    HW127065   3.010   0.914   0.767
 8722SOL    HW227066   3.163   0.874   0.809
 8723SOL     OW27067   4.426   0.006   2.067
 8723SOL    HW127068   4.351   0.052   2.113
 8723SOL    HW227069   4.489   6.994   2.135
 8724SOL     OW27070   3.474   1.548   5.251
 8724SOL    HW127071   3.507   1.487   5.179
 8724SOL    HW227072   3.525   1.530   5.336
 8725SOL     OW27073   6.790   0.358   3.043
 8725SOL    HW127074   6.762   0.272   3.086
 8725SOL    HW227075   6.804   0.427   3.113
 8726SOL     OW27076   6.365   0.702   1.119
 8726SOL    HW127077   6.383   0.791   1.161
 8726SOL    HW227078   6.282   0.707   1.065
 8727SOL     OW27079   5.442   6.161   0.227
 8727SOL    HW127080   5.490   6.237   0.271
 8727SOL    HW227081   5.473   6.152   0.133
 8728SOL     OW27082   6.567   6.820   4.864
 8728SOL    HW127083   6.519   6.852   4.946
 8728SOL    HW227084   6.634   6.889   4.836
 8729SOL     OW27085   5.277   5.800   6.021
 8729SOL    HW127086   5.180   5.818   6.007
 8729SOL    HW227087   5.321   5.784   5.932
 8730SOL     OW27088   4.288   4.706   1.559
 8730SOL    HW127089   4.274   4.612   1.591
 8730SOL    HW227090   4.296   4.767   1.637
 8731SOL     OW27091   6.601   1.638   4.091
 8731SOL    HW127092   6.545   1.659   4.171
 8731SOL    HW227093   6.677   1.578   4.117
 8732SOL     OW27094   4.948   6.543   5.827
 8732SOL    HW127095   4.975   6.510   5.918
 8732SOL    HW227096   4.955   6.468   5.761
 8733SOL     OW27097   6.408   4.847   2.448
 8733SOL    HW127098   6.320   4.805   2.425
 8733SOL    HW227099   6.415   4.937   2.405
 8734SOL     OW27100   1.218   4.552   0.905
 8734SOL    HW127101   1.296   4.595   0.951
 8734SOL    HW227102   1.246   4.519   0.815
 8735SOL     OW27103   1.059   2.874   5.664
 8735SOL    HW127104   1.046   2.807   5.738
 8735SOL    HW227105   1.007   2.957   5.686
 8736SOL     OW27106   1.421   5.755   3.206
 8736SOL    HW127107   1.389   5.714   3.291
 8736SOL    HW227108   1.503   5.809   3.223
 8737SOL     OW27109   0.330   5.835   0.024
 8737SOL    HW127110   0.269   5.757   0.030
 8737SOL    HW227111   0.422   5.804   0.001
 8738SOL     OW27112   1.820   2.541   2.256
 8738SOL    HW127113   1.822   2.641   2.256
 8738SOL    HW227114   1.884   2.507   2.187
 8739SOL     OW27115   5.698   4.924   3.937
 8739SOL    HW127116   5.610   4.970   3.952
 8739SOL    HW227117   5.761   4.948   4.012
 8740SOL     OW27118   3.366   1.653   3.766
 8740SOL    HW127119   3.335   1.651   3.671
 8740SOL    HW227120   3.466   1.660   3.768
 8741SOL     OW27121   1.113   1.626   2.697
 8741SOL    HW127122   1.089   1.651   2.604
 8741SOL    HW227123   1.030   1.608   2.750
 8742SOL     OW27124   2.767   2.608   1.700
 8742SOL    HW127125   2.811   2.553   1.771
 8742SOL    HW227126   2.729   2.548   1.630
 8743SOL     OW27127   0.672   3.053   0.903
 8743SOL    HW127128   0.721   3.022   0.984
 8743SOL    HW227129   0.737   3.067   0.828
 8744SOL     OW27130   3.709   4.243   5.883
 8744SOL    HW127131   3.690   4.251   5.981
 8744SOL    HW227132   3.788   4.299   5.860
 8745SOL     OW27133   5.820   1.472   5.918
 8745SOL    HW127134   5.735   1.523   5.929
 8745SOL    HW227135   5.805   1.377   5.945
 8746SOL     OW27136   3.966   4.884   4.959
 8746SOL    HW127137   3.940   4.838   5.044
 8746SOL    HW227138   3.977   4.982   4.975
 8747SOL     OW27139   1.079   0.479   2.906
 8747SOL    HW127140   1.174   0.457   2.883
 8747SOL    HW227141   1.027   0.493   2.822
 8748SOL     OW27142   5.594   1.576   4.756
 8748SOL    HW127143   5.691   1.600   4.753
 8748SOL    HW227144   5.573   1.535   4.845
 8749SOL     OW27145   2.701   1.052   4.140
 8749SOL    HW127146   2.629   1.067   4.208
 8749SOL    HW227147   2.777   1.115   4.156
 8750SOL     OW27148   4.145   3.514   1.413
 8750SOL    HW127149   4.168   3.447   1.484
 8750SOL    HW227150   4.063   3.485   1.364
 8751SOL     OW27151   2.743   0.010   0.257
 8751SOL    HW127152   2.841   0.000   0.275
 8751SOL    HW227153   2.696   0.040   0.340
 8752SOL     OW27154   6.927   2.881   5.484
 8752SOL    HW127155   7.013   2.882   5.434
 8752SOL    HW227156   6.940   2.924   5.574
 8753SOL     OW27157   2.115   2.007   0.685
 8753SOL    HW127158   2.022   2.010   0.649
 8753SOL    HW227159   2.149   1.913   0.683
 8754SOL     OW27160   0.928   5.696   6.538
 8754SOL    HW127161   0.936   5.760   6.614
 8754SOL    HW227162   0.950   5.603   6.570
 8755SOL     OW27163   0.427   2.687   1.590
 8755SOL    HW127164   0.517   2.653   1.620
 8755SOL    HW227165   0.373   2.611   1.554
 8756SOL     OW27166   1.017   1.680   1.953
 8756SOL    HW127167   0.995   1.746   2.025
 8756SOL    HW227168   0.957   1.600   1.963
 8757SOL     OW27169   5.546   6.508   5.902
 8757SOL    HW127170   5.550   6.539   5.807
 8757SOL    HW227171   5.559   6.409   5.905
 8758SOL     OW27172   3.856   5.965   5.635
 8758SOL    HW127173   3.828   5.926   5.547
 8758SOL    HW227174   3.945   5.926   5.662
 8759SOL     OW27175   6.170   1.238   2.040
 8759SOL    HW127176   6.202   1.286   1.958
 8759SOL    HW227177   6.088   1.282   2.075
 8760SOL     OW27178   2.685   2.451   4.164
 8760SOL    HW127179   2.754   2.393   4.208
 8760SOL    HW227180   2.687   2.435   4.065
 8761SOL     OW27181   4.727   1.890   2.841
 8761SOL    HW127182   4.764   1.911   2.751
 8761SOL    HW227183   4.638   1.847   2.832
 8762SOL     OW27184   3.980   5.833   2.751
 8762SOL    HW127185   3.952   5.929   2.743
 8762SOL    HW227186   4.052   5.825   2.820
 8763SOL     OW27187   0.316   1.074   5.801
 8763SOL    HW127188   0.347   1.104   5.892
 8763SOL    HW227189   0.359   0.986   5.779
 8764SOL     OW27190   3.785   5.246   6.109
 8764SOL    HW127191   3.792   5.151   6.139
 8764SOL    HW227192   3.689   5.268   6.092
 8765SOL     OW27193   4.048   0.042   3.433
 8765SOL    HW127194   4.114   7.009   3.479
 8765SOL    HW227195   4.095   0.124   3.401
 8766SOL     OW27196   5.414   6.903   5.097
 8766SOL    HW127197   5.378   6.809   5.102
 8766SOL    HW227198   5.338   6.967   5.082
 8767SOL     OW27199   1.748   1.533   3.427
 8767SOL    HW127200   1.691   1.557   3.506
 8767SOL    HW227201   1.711   1.452   3.381
 8768SOL     OW27202   0.091   1.644   0.207
 8768SOL    HW127203   0.010   1.676   0.255
 8768SOL    HW227204   0.156   1.719   0.196
 8769SOL     OW27205   6.267   6.975   6.183
 8769SOL    HW127206   6.333   6.910   6.145
 8769SOL    HW227207   6.180   6.928   6.198
 8770SOL     OW27208   5.022   2.339   0.427
 8770SOL    HW127209   5.012   2.285   0.343
 8770SOL    HW227210   5.114   2.379   0.430
 8771SOL     OW27211   0.798   3.021   6.379
 8771SOL    HW127212   0.818   3.085   6.453
 8771SOL    HW227213   0.699   3.004   6.375
 8772SOL     OW27214   0.147   0.177   4.115
 8772SOL    HW127215   0.059   0.213   4.084
 8772SOL    HW227216   0.204   0.252   4.147
 8773SOL     OW27217   0.355   1.620   3.741
 8773SOL    HW127218   0.343   1.601   3.839
 8773SOL    HW227219   0.268   1.605   3.694
 8774SOL     OW27220   1.091   1.628   6.977
 8774SOL    HW127221   1.086   1.709   0.008
 8774SOL    HW227222   1.169   1.636   6.914
 8775SOL     OW27223   5.233   2.489   3.143
 8775SOL    HW127224   5.153   2.528   3.097
 8775SOL    HW227225   5.315   2.539   3.114
 8776SOL     OW27226   4.592   2.605   0.991
 8776SOL    HW127227   4.607   2.685   0.933
 8776SOL    HW227228   4.591   2.523   0.933
 8777SOL     OW27229   6.801   2.214   3.662
 8777SOL    HW127230   6.862   2.152   3.711
 8777SOL    HW227231   6.706   2.197   3.689
 8778SOL     OW27232   3.118   3.962   6.906
 8778SOL    HW127233   3.133   3.880   6.851
 8778SOL    HW227234   3.091   4.038   6.847
 8779SOL     OW27235   3.660   5.161   2.777
 8779SOL    HW127236   3.679   5.163   2.876
 8779SOL    HW227237   3.660   5.066   2.746
 8780SOL     OW27238   0.852   3.936   3.753
 8780SOL    HW127239   0.839   3.870   3.827
 8780SOL    HW227240   0.949   3.944   3.732
 8781SOL     OW27241   2.234   0.956   0.906
 8781SOL    HW127242   2.137   0.956   0.886
 8781SOL    HW227243   2.286   0.969   0.822
 8782SOL     OW27244   5.900   2.513   1.076
 8782SOL    HW127245   5.960   2.570   1.020
 8782SOL    HW227246   5.945   2.493   1.163
 8783SOL     OW27247   4.800   4.089   4.870
 8783SOL    HW127248   4.777   4.066   4.775
 8783SOL    HW227249   4.757   4.176   4.894
 8784SOL     OW27250   4.547   0.684   7.009
 8784SOL    HW127251   4.622   0.751   7.017
 8784SOL    HW227252   4.580   0.603   6.961
 8785SOL     OW27253   6.823   5.239   5.652
 8785SOL    HW127254   6.726   5.263   5.660
 8785SOL    HW227255   6.847   5.174   5.724
 8786SOL     OW27256   5.551   1.905   2.995
 8786SOL    HW127257   5.629   1.927   3.053
 8786SOL    HW227258   5.562   1.950   2.906
 8787SOL     OW27259   3.526   5.674   1.404
 8787SOL    HW127260   3.458   5.676   1.330
 8787SOL    HW227261   3.610   5.633   1.371
 8788SOL     OW27262   0.489   6.569   4.385
 8788SOL    HW127263   0.405   6.549   4.434
 8788SOL    HW227264   0.517   6.663   4.404
 8789SOL     OW27265   1.319   2.365   6.058
 8789SOL    HW127266   1.409   2.336   6.091
 8789SOL    HW227267   1.249   2.329   6.119
 8790SOL     OW27268   4.313   3.063   5.325
 8790SOL    HW127269   4.298   3.120   5.244
 8790SOL    HW227270   4.239   2.996   5.332
 8791SOL     OW27271   4.040   6.617   4.271
 8791SOL    HW127272   4.074   6.629   4.178
 8791SOL    HW227273   4.100   6.665   4.335
 8792SOL     OW27274   5.346   5.418   1.877
 8792SOL    HW127275   5.338   5.425   1.976
 8792SOL    HW227276   5.270   5.365   1.840
 8793SOL     OW27277   6.856   6.305   5.402
 8793SOL    HW127278   6.896   6.216   5.381
 8793SOL    HW227279   6.887   6.372   5.334
 8794SOL     OW27280   0.030   1.462   2.693
 8794SOL    HW127281   0.016   1.496   2.600
 8794SOL    HW227282   0.122   1.485   2.724
 8795SOL     OW27283   0.925   6.436   6.965
 8795SOL    HW127284   1.006   6.489   6.990
 8795SOL    HW227285   0.855   6.447   0.008
 8796SOL     OW27286   5.805   3.937   4.722
 8796SOL    HW127287   5.776   3.848   4.758
 8796SOL    HW227288   5.868   3.923   4.646
 8797SOL     OW27289   4.750   6.487   4.331
 8797SOL    HW127290   4.792   6.564   4.283
 8797SOL    HW227291   4.748   6.408   4.270
 8798SOL     OW27292   2.774   6.253   5.421
 8798SOL    HW127293   2.751   6.350   5.427
 8798SOL    HW227294   2.735   6.215   5.337
 8799SOL     OW27295   1.451   5.819   1.707
 8799SOL    HW127296   1.421   5.733   1.666
 8799SOL    HW227297   1.517   5.800   1.781
 8800SOL     OW27298   6.410   5.967   4.232
 8800SOL    HW127299   6.416   6.040   4.164
 8800SOL    HW227300   6.462   5.888   4.200
 8801SOL     OW27301   5.870   3.450   5.748
 8801SOL    HW127302   5.779   3.409   5.741
 8801SOL    HW227303   5.927   3.417   5.673
 8802SOL     OW27304   1.848   5.682   6.443
 8802SOL    HW127305   1.755   5.649   6.423
 8802SOL    HW227306   1.909   5.658   6.367
 8803SOL     OW27307   5.671   6.084   5.566
 8803SOL    HW127308   5.634   6.174   5.542
 8803SOL    HW227309   5.663   6.022   5.487
 8804SOL     OW27310   1.161   6.141   1.944
 8804SOL    HW127311   1.095   6.191   1.888
 8804SOL    HW227312   1.231   6.100   1.886
 8805SOL     OW27313   5.203   4.937   3.108
 8805SOL    HW127314   5.227   5.033   3.103
 8805SOL    HW227315   5.201   4.907   3.204
 8806SOL     OW27316   0.890   0.489   1.848
 8806SOL    HW127317   0.916   0.552   1.921
 8806SOL    HW227318   0.917   0.527   1.760
 8807SOL     OW27319   5.342   2.705   0.674
 8807SOL    HW127320   5.328   2.639   0.748
 8807SOL    HW227321   5.375   2.792   0.712
 8808SOL     OW27322   1.887   2.465   6.853
 8808SOL    HW127323   1.883   2.419   6.942
 8808SOL    HW227324   1.901   2.397   6.781
 8809SOL     OW27325   6.649   3.411   2.958
 8809SOL    HW127326   6.662   3.351   2.879
 8809SOL    HW227327   6.616   3.500   2.927
 8810SOL     OW27328   0.500   1.743   5.094
 8810SOL    HW127329   0.455   1.810   5.035
 8810SOL    HW227330   0.486   1.768   5.190
 8811SOL     OW27331   4.278   4.681   2.840
 8811SOL    HW127332   4.297   4.777   2.859
 8811SOL    HW227333   4.338   4.649   2.767
 8812SOL     OW27334   4.933   1.143   6.811
 8812SOL    HW127335   4.956   1.166   6.716
 8812SOL    HW227336   5.008   1.171   6.871
 8813SOL     OW27337   2.022   3.423   2.926
 8813SOL    HW127338   1.977   3.336   2.946
 8813SOL    HW227339   2.027   3.479   3.009
 8814SOL     OW27340   5.216   6.786   5.379
 8814SOL    HW127341   5.188   6.861   5.439
 8814SOL    HW227342   5.314   6.792   5.360
 8815SOL     OW27343   5.182   0.636   1.265
 8815SOL    HW127344   5.250   0.656   1.336
 8815SOL    HW227345   5.103   0.591   1.306
 8816SOL     OW27346   0.726   0.024   3.891
 8816SOL    HW127347   0.693   0.010   3.984
 8816SOL    HW227348   0.817   7.010   3.881
 8817SOL     OW27349   1.188   2.778   2.981
 8817SOL    HW127350   1.259   2.736   3.039
 8817SOL    HW227351   1.228   2.855   2.931
 8818SOL     OW27352   0.765   6.869   5.640
 8818SOL    HW127353   0.836   6.800   5.625
 8818SOL    HW227354   0.724   6.895   5.552
 8819SOL     OW27355   4.598   5.585   6.296
 8819SOL    HW127356   4.595   5.538   6.385
 8819SOL    HW227357   4.519   5.557   6.242
 8820SOL     OW27358   4.325   0.362   5.357
 8820SOL    HW127359   4.282   0.292   5.415
 8820SOL    HW227360   4.279   0.449   5.370
 8821SOL     OW27361   0.626   4.586   6.285
 8821SOL    HW127362   0.561   4.548   6.219
 8821SOL    HW227363   0.706   4.621   6.236
 8822SOL     OW27364   6.033   0.171   4.776
 8822SOL    HW127365   6.096   0.212   4.841
 8822SOL    HW227366   5.940   0.203   4.795
 8823SOL     OW27367   4.082   1.852   2.692
 8823SOL    HW127368   4.022   1.931   2.678
 8823SOL    HW227369   4.119   1.855   2.784
 8824SOL     OW27370   1.489   6.978   3.359
 8824SOL    HW127371   1.579   7.020   3.372
 8824SOL    HW227372   1.475   6.958   3.262
 8825SOL     OW27373   0.218   0.122   0.136
 8825SOL    HW127374   0.124   0.088   0.143
 8825SOL    HW227375   0.228   0.203   0.193
 8826SOL     OW27376   6.987   4.417   0.530
 8826SOL    HW127377   6.907   4.383   0.481
 8826SOL    HW227378   7.016   4.504   0.491
 8827SOL     OW27379   4.423   6.694   3.419
 8827SOL    HW127380   4.450   6.782   3.378
 8827SOL    HW227381   4.491   6.625   3.397
 8828SOL     OW27382   4.872   2.321   6.293
 8828SOL    HW127383   4.860   2.285   6.200
 8828SOL    HW227384   4.956   2.376   6.297
 8829SOL     OW27385   7.025   0.821   2.783
 8829SOL    HW127386   0.024   0.906   2.738
 8829SOL    HW227387   6.935   0.792   2.751
 8830SOL     OW27388   3.149   0.455   3.699
 8830SOL    HW127389   3.236   0.500   3.678
 8830SOL    HW227390   3.074   0.519   3.683
 8831SOL     OW27391   0.121   3.455   2.776
 8831SOL    HW127392   0.030   3.492   2.799
 8831SOL    HW227393   0.176   3.528   2.736
 8832SOL     OW27394   5.398   0.454   6.119
 8832SOL    HW127395   5.449   0.395   6.182
 8832SOL    HW227396   5.301   0.456   6.146
 8833SOL     OW27397   5.218   2.229   1.195
 8833SOL    HW127398   5.236   2.312   1.248
 8833SOL    HW227399   5.147   2.175   1.241
 8834SOL     OW27400   5.705   4.004   6.268
 8834SOL    HW127401   5.692   4.057   6.352
 8834SOL    HW227402   5.639   4.034   6.199
 8835SOL     OW27403   6.981   0.871   5.133
 8835SOL    HW127404   0.027   0.918   5.083
 8835SOL    HW227405   7.021   0.822   5.210
 8836SOL     OW27406   4.161   1.455   1.388
 8836SOL    HW127407   4.232   1.453   1.318
 8836SOL    HW227408   4.132   1.361   1.408
 8837SOL     OW27409   4.567   6.114   0.533
 8837SOL    HW127410   4.584   6.213   0.526
 8837SOL    HW227411   4.487   6.099   0.592
 8838SOL     OW27412   1.864   3.438   3.554
 8838SOL    HW127413   1.845   3.407   3.647
 8838SOL    HW227414   1.825   3.373   3.489
 8839SOL     OW27415   4.957   5.379   1.345
 8839SOL    HW127416   4.947   5.477   1.332
 8839SOL    HW227417   5.008   5.361   1.429
 8840SOL     OW27418   6.459   1.140   0.608
 8840SOL    HW127419   6.517   1.098   0.538
 8840SOL    HW227420   6.505   1.219   0.647
 8841SOL     OW27421   3.337   1.375   0.625
 8841SOL    HW127422   3.412   1.333   0.676
 8841SOL    HW227423   3.249   1.340   0.660
 8842SOL     OW27424   3.341   3.294   3.890
 8842SOL    HW127425   3.357   3.353   3.969
 8842SOL    HW227426   3.244   3.271   3.885
 8843SOL     OW27427   3.072   5.627   5.293
 8843SOL    HW127428   3.001   5.629   5.223
 8843SOL    HW227429   3.031   5.608   5.382
 8844SOL     OW27430   3.681   2.647   5.827
 8844SOL    HW127431   3.720   2.734   5.857
 8844SOL    HW227432   3.744   2.572   5.851
 8845SOL     OW27433   1.113   3.253   1.784
 8845SOL    HW127434   1.196   3.270   1.731
 8845SOL    HW227435   1.128   3.279   1.879
 8846SOL     OW27436   5.997   4.737   4.596
 8846SOL    HW127437   5.899   4.720   4.606
 8846SOL    HW227438   6.046   4.708   4.678
 8847SOL     OW27439   1.233   1.927   3.955
 8847SOL    HW127440   1.138   1.946   3.929
 8847SOL    HW227441   1.243   1.942   4.054
 8848SOL     OW27442   6.029   1.442   0.672
 8848SOL    HW127443   6.091   1.380   0.624
 8848SOL    HW227444   6.044   1.536   0.639
 8849SOL     OW27445   3.493   5.230   4.390
 8849SOL    HW127446   3.493   5.130   4.386
 8849SOL    HW227447   3.419   5.265   4.333
 8850SOL     OW27448   2.536   1.519   1.486
 8850SOL    HW127449   2.629   1.490   1.462
 8850SOL    HW227450   2.537   1.616   1.512
 8851SOL     OW27451   7.003   5.247   2.798
 8851SOL    HW127452   6.932   5.312   2.825
 8851SOL    HW227453   0.029   5.284   2.721
 8852SOL     OW27454   5.236   2.545   4.339
 8852SOL    HW127455   5.254   2.537   4.437
 8852SOL    HW227456   5.142   2.518   4.320
 8853SOL     OW27457   4.842   1.858   5.715
 8853SOL    HW127458   4.891   1.886   5.798
 8853SOL    HW227459   4.824   1.759   5.718
 8854SOL     OW27460   1.750   0.821   6.378
 8854SOL    HW127461   1.740   0.903   6.321
 8854SOL    HW227462   1.713   0.838   6.469
 8855SOL     OW27463   6.541   4.990   6.445
 8855SOL    HW127464   6.593   4.982   6.360
 8855SOL    HW227465   6.592   5.047   6.510
 8856SOL     OW27466   5.041   0.803   5.099
 8856SOL    HW127467   5.098   0.723   5.116
 8856SOL    HW227468   5.066   0.876   5.162
 8857SOL     OW27469   0.883   3.241   4.773
 8857SOL    HW127470   0.959   3.207   4.829
 8857SOL    HW227471   0.915   3.256   4.680
 8858SOL     OW27472   6.941   4.074   5.504
 8858SOL    HW127473   6.908   4.071   5.599
 8858SOL    HW227474   6.865   4.096   5.443
 8859SOL     OW27475   2.963   5.909   5.027
 8859SOL    HW127476   3.054   5.920   5.067
 8859SOL    HW227477   2.902   5.868   5.095
 8860SOL     OW27478   1.640   1.899   0.991
 8860SOL    HW127479   1.626   1.998   0.987
 8860SOL    HW227480   1.571   1.859   1.051
 8861SOL     OW27481   2.527   2.498   1.183
 8861SOL    HW127482   2.477   2.468   1.265
 8861SOL    HW227483   2.462   2.509   1.107
 8862SOL     OW27484   6.579   2.129   5.043
 8862SOL    HW127485   6.518   2.138   4.965
 8862SOL    HW227486   6.563   2.205   5.107
 8863SOL     OW27487   1.151   5.572   5.078
 8863SOL    HW127488   1.150   5.619   5.166
 8863SOL    HW227489   1.242   5.580   5.037
 8864SOL     OW27490   1.457   3.910   6.372
 8864SOL    HW127491   1.550   3.882   6.348
 8864SOL    HW227492   1.401   3.829   6.388
 8865SOL     OW27493   2.234   2.428   5.652
 8865SOL    HW127494   2.290   2.347   5.633
 8865SOL    HW227495   2.289   2.511   5.636
 8866SOL     OW27496   4.755   6.977   5.822
 8866SOL    HW127497   4.676   6.916   5.821
 8866SOL    HW227498   4.835   6.929   5.856
 8867SOL     OW27499   6.662   1.187   3.928
 8867SOL    HW127500   6.592   1.123   3.895
 8867SOL    HW227501   6.619   1.274   3.951
 8868SOL     OW27502   4.901   3.325   1.176
 8868SOL    HW127503   4.854   3.390   1.236
 8868SOL    HW227504   4.964   3.269   1.230
 8869SOL     OW27505   4.360   2.403   3.535
 8869SOL    HW127506   4.302   2.479   3.564
 8869SOL    HW227507   4.391   2.352   3.616
 8870SOL     OW27508   4.542   1.169   2.074
 8870SOL    HW127509   4.466   1.229   2.100
 8870SOL    HW227510   4.505   1.085   2.033
 8871SOL     OW27511   1.332   2.914   4.396
 8871SOL    HW127512   1.332   2.828   4.346
 8871SOL    HW227513   1.423   2.930   4.434
 8872SOL     OW27514   1.883   2.991   2.730
 8872SOL    HW127515   1.925   3.055   2.665
 8872SOL    HW227516   1.938   2.908   2.735
 8873SOL     OW27517   7.009   5.747   5.054
 8873SOL    HW127518   6.932   5.811   5.060
 8873SOL    HW227519   7.000   5.677   5.125
 8874SOL     OW27520   0.737   1.339   6.883
 8874SOL    HW127521   0.676   1.299   6.952
 8874SOL    HW227522   0.804   1.270   6.855
 8875SOL     OW27523   1.763   1.075   4.259
 8875SOL    HW127524   1.863   1.070   4.250
 8875SOL    HW227525   1.737   1.170   4.275
 8876SOL     OW27526   2.631   0.719   4.780
 8876SOL    HW127527   2.540   0.740   4.814
 8876SOL    HW227528   2.674   0.651   4.838
 8877SOL     OW27529   3.199   6.563   4.590
 8877SOL    HW127530   3.240   6.545   4.500
 8877SOL    HW227531   3.105   6.530   4.591
 8878SOL     OW27532   5.861   4.454   5.675
 8878SOL    HW127533   5.827   4.483   5.764
 8878SOL    HW227534   5.941   4.508   5.650
 8879SOL     OW27535   4.978   5.718   4.733
 8879SOL    HW127536   4.954   5.647   4.667
 8879SOL    HW227537   5.075   5.740   4.725
 8880SOL     OW27538   0.138   5.928   5.389
 8880SOL    HW127539   0.180   5.854   5.441
 8880SOL    HW227540   0.183   5.937   5.300
 8881SOL     OW27541   6.760   0.648   1.623
 8881SOL    HW127542   6.836   0.656   1.559
 8881SOL    HW227543   6.776   0.707   1.702
 8882SOL     OW27544   5.470   2.427   6.722
 8882SOL    HW127545   5.544   2.419   6.788
 8882SOL    HW227546   5.506   2.462   6.636
 8883SOL     OW27547   0.229   1.479   5.526
 8883SOL    HW127548   0.301   1.443   5.468
 8883SOL    HW227549   0.149   1.419   5.520
 8884SOL     OW27550   6.865   1.145   5.752
 8884SOL    HW127551   6.784   1.161   5.809
 8884SOL    HW227552   6.946   1.135   5.811
 8885SOL     OW27553   5.329   3.403   1.424
 8885SOL    HW127554   5.409   3.459   1.402
 8885SOL    HW227555   5.254   3.461   1.455
 8886SOL     OW27556   2.987   5.711   6.206
 8886SOL    HW127557   2.974   5.621   6.248
 8886SOL    HW227558   2.917   5.725   6.135
 8887SOL     OW27559   1.513   0.010   1.027
 8887SOL    HW127560   1.440   0.075   1.046
 8887SOL    HW227561   1.600   0.047   1.061
 8888SOL     OW27562   3.507   1.988   3.600
 8888SOL    HW127563   3.605   2.006   3.587
 8888SOL    HW227564   3.482   2.009   3.694
 8889SOL     OW27565   3.604   0.261   4.918
 8889SOL    HW127566   3.668   0.189   4.944
 8889SOL    HW227567   3.556   0.293   4.999
 8890SOL     OW27568   0.700   4.150   3.700
 8890SOL    HW127569   0.670   4.132   3.606
 8890SOL    HW227570   0.755   4.073   3.733
 8891SOL     OW27571   2.423   1.690   6.057
 8891SOL    HW127572   2.435   1.781   6.095
 8891SOL    HW227573   2.384   1.697   5.965
 8892SOL     OW27574   1.033   6.858   2.858
 8892SOL    HW127575   1.039   6.780   2.796
 8892SOL    HW227576   1.053   6.942   2.808
 8893SOL     OW27577   6.997   0.868   0.856
 8893SOL    HW127578   0.067   0.884   0.833
 8893SOL    HW227579   6.982   0.888   0.953
 8894SOL     OW27580   4.193   2.531   6.465
 8894SOL    HW127581   4.221   2.435   6.469
 8894SOL    HW227582   4.232   2.581   6.543
 8895SOL     OW27583   1.668   0.952   1.965
 8895SOL    HW127584   1.595   0.967   1.898
 8895SOL    HW227585   1.639   0.985   2.055
 8896SOL     OW27586   2.113   4.172   4.752
 8896SOL    HW127587   2.121   4.139   4.846
 8896SOL    HW227588   2.031   4.135   4.710
 8897SOL     OW27589   1.185   2.308   1.430
 8897SOL    HW127590   1.250   2.378   1.460
 8897SOL    HW227591   1.139   2.268   1.510
 8898SOL     OW27592   6.898   3.046   4.714
 8898SOL    HW127593   6.988   3.045   4.670
 8898SOL    HW227594   6.892   3.123   4.778
 8899SOL     OW27595   3.358   4.725   0.537
 8899SOL    HW127596   3.298   4.672   0.478
 8899SOL    HW227597   3.305   4.793   0.587
 8900SOL     OW27598   6.790   1.684   3.352
 8900SOL    HW127599   6.758   1.590   3.366
 8900SOL    HW227600   6.728   1.747   3.399
 8901SOL     OW27601   1.982   6.972   1.688
 8901SOL    HW127602   1.907   6.923   1.645
 8901SOL    HW227603   2.054   6.988   1.621
 8902SOL     OW27604   3.260   5.884   4.933
 8902SOL    HW127605   3.357   5.862   4.922
 8902SOL    HW227606   3.249   5.960   4.997
 8903SOL     OW27607   0.721   1.120   3.464
 8903SOL    HW127608   0.705   1.173   3.381
 8903SOL    HW227609   0.712   1.180   3.544
 8904SOL     OW27610   1.396   5.563   3.044
 8904SOL    HW127611   1.445   5.487   3.087
 8904SOL    HW227612   1.413   5.647   3.096
 8905SOL     OW27613   2.124   4.141   5.028
 8905SOL    HW127614   2.045   4.104   5.076
 8905SOL    HW227615   2.201   4.076   5.036
 8906SOL     OW27616   1.473   5.090   4.641
 8906SOL    HW127617   1.572   5.079   4.632
 8906SOL    HW227618   1.428   5.003   4.621
 8907SOL     OW27619   4.035   2.952   5.649
 8907SOL    HW127620   4.070   2.860   5.668
 8907SOL    HW227621   3.993   2.990   5.731
 8908SOL     OW27622   0.424   2.734   2.231
 8908SOL    HW127623   0.446   2.659   2.168
 8908SOL    HW227624   0.363   2.798   2.186
 8909SOL     OW27625   2.134   6.883   5.619
 8909SOL    HW127626   2.194   6.859   5.696
 8909SOL    HW227627   2.141   6.981   5.600
 8910SOL     OW27628   4.042   3.050   6.728
 8910SOL    HW127629   4.083   3.002   6.650
 8910SOL    HW227630   4.092   3.028   6.811
 8911SOL     OW27631   4.822   2.444   3.810
 8911SOL    HW127632   4.842   2.365   3.752
 8911SOL    HW227633   4.750   2.499   3.767
 8912SOL     OW27634   5.517   1.912   6.634
 8912SOL    HW127635   5.581   1.835   6.634
 8912SOL    HW227636   5.462   1.910   6.551
 8913SOL     OW27637   4.739   4.354   0.941
 8913SOL    HW127638   4.674   4.283   0.913
 8913SOL    HW227639   4.772   4.334   1.033
 8914SOL     OW27640   4.768   1.679   3.351
 8914SOL    HW127641   4.693   1.717   3.405
 8914SOL    HW227642   4.745   1.586   3.321
 8915SOL     OW27643   1.281   5.578   1.920
 8915SOL    HW127644   1.195   5.611   1.882
 8915SOL    HW227645   1.262   5.520   1.999
 8916SOL     OW27646   5.959   3.484   2.250
 8916SOL    HW127647   6.042   3.432   2.232
 8916SOL    HW227648   5.882   3.422   2.264
 8917SOL     OW27649   5.377   5.493   5.579
 8917SOL    HW127650   5.349   5.446   5.495
 8917SOL    HW227651   5.457   5.447   5.618
 8918SOL     OW27652   5.080   4.178   6.139
 8918SOL    HW127653   5.171   4.183   6.180
 8918SOL    HW227654   5.073   4.094   6.085
 8919SOL     OW27655   2.533   3.873   1.382
 8919SOL    HW127656   2.511   3.870   1.285
 8919SOL    HW227657   2.627   3.904   1.394
 8920SOL     OW27658   6.324   5.065   5.614
 8920SOL    HW127659   6.273   5.139   5.657
 8920SOL    HW227660   6.345   5.089   5.519
 8921SOL     OW27661   1.246   5.324   3.369
 8921SOL    HW127662   1.313   5.319   3.442
 8921SOL    HW227663   1.288   5.298   3.282
 8922SOL     OW27664   6.576   4.228   0.127
 8922SOL    HW127665   6.600   4.183   0.041
 8922SOL    HW227666   6.538   4.160   0.190
 8923SOL     OW27667   1.847   4.069   4.740
 8923SOL    HW127668   1.765   4.073   4.798
 8923SOL    HW227669   1.826   4.107   4.650
 8924SOL     OW27670   2.864   5.641   5.119
 8924SOL    HW127671   2.839   5.544   5.124
 8924SOL    HW227672   2.812   5.685   5.046
 8925SOL     OW27673   5.169   6.238   1.841
 8925SOL    HW127674   5.075   6.221   1.871
 8925SOL    HW227675   5.170   6.310   1.772
 8926SOL     OW27676   4.995   0.926   0.142
 8926SOL    HW127677   5.057   0.893   0.072
 8926SOL    HW227678   5.042   0.992   0.200
 8927SOL     OW27679   2.262   1.473   4.373
 8927SOL    HW127680   2.221   1.536   4.440
 8927SOL    HW227681   2.359   1.463   4.393
 8928SOL     OW27682   0.974   6.921   3.851
 8928SOL    HW127683   1.067   6.957   3.851
 8928SOL    HW227684   0.952   6.884   3.761
 8929SOL     OW27685   5.354   4.439   4.129
 8929SOL    HW127686   5.314   4.529   4.149
 8929SOL    HW227687   5.361   4.427   4.030
 8930SOL     OW27688   1.230   5.121   5.020
 8930SOL    HW127689   1.182   5.063   4.954
 8930SOL    HW227690   1.164   5.183   5.063
 8931SOL     OW27691   4.977   1.265   1.430
 8931SOL    HW127692   5.069   1.232   1.407
 8931SOL    HW227693   4.938   1.310   1.350
 8932SOL     OW27694   6.142   0.678   0.164
 8932SOL    HW127695   6.214   0.613   0.140
 8932SOL    HW227696   6.079   0.688   0.086
 8933SOL     OW27697   1.680   0.488   5.703
 8933SOL    HW127698   1.646   0.462   5.612
 8933SOL    HW227699   1.685   0.588   5.709
 8934SOL     OW27700   4.425   6.964   3.304
 8934SOL    HW127701   4.519   6.980   3.272
 8934SOL    HW227702   4.361   7.017   3.248
 8935SOL     OW27703   6.010   1.877   2.289
 8935SOL    HW127704   6.070   1.919   2.221
 8935SOL    HW227705   5.993   1.942   2.363
 8936SOL     OW27706   1.795   3.807   2.985
 8936SOL    HW127707   1.767   3.722   2.940
 8936SOL    HW227708   1.749   3.884   2.941
 8937SOL     OW27709   4.174   0.744   5.306
 8937SOL    HW127710   4.211   0.688   5.380
 8937SOL    HW227711   4.228   0.730   5.223
 8938SOL     OW27712   5.892   6.648   1.777
 8938SOL    HW127713   5.861   6.579   1.712
 8938SOL    HW227714   5.910   6.734   1.729
 8939SOL     OW27715   0.706   2.657   4.568
 8939SOL    HW127716   0.777   2.660   4.498
 8939SOL    HW227717   0.634   2.593   4.540
 8940SOL     OW27718   6.136   2.867   2.023
 8940SOL    HW127719   6.228   2.889   2.057
 8940SOL    HW227720   6.070   2.879   2.098
 8941SOL     OW27721   5.168   2.218   3.137
 8941SOL    HW127722   5.083   2.206   3.085
 8941SOL    HW227723   5.182   2.315   3.157
 8942SOL     OW27724   4.884   4.351   4.127
 8942SOL    HW127725   4.889   4.448   4.101
 8942SOL    HW227726   4.976   4.317   4.147
 8943SOL     OW27727   4.323   2.705   0.685
 8943SOL    HW127728   4.325   2.647   0.766
 8943SOL    HW227729   4.405   2.763   0.683
 8944SOL     OW27730   4.706   5.651   5.201
 8944SOL    HW127731   4.699   5.699   5.288
 8944SOL    HW227732   4.777   5.694   5.145
 8945SOL     OW27733   5.711   3.770   2.662
 8945SOL    HW127734   5.649   3.826   2.607
 8945SOL    HW227735   5.734   3.820   2.746
 8946SOL     OW27736   4.366   1.188   5.205
 8946SOL    HW127737   4.453   1.224   5.172
 8946SOL    HW227738   4.306   1.264   5.229
 8947SOL     OW27739   2.240   4.683   0.049
 8947SOL    HW127740   2.241   4.621   0.127
 8947SOL    HW227741   2.223   4.776   0.082
 8948SOL     OW27742   5.565   0.806   2.790
 8948SOL    HW127743   5.566   0.898   2.828
 8948SOL    HW227744   5.486   0.756   2.826
 8949SOL     OW27745   3.598   6.024   0.695
 8949SOL    HW127746   3.605   5.942   0.750
 8949SOL    HW227747   3.582   5.999   0.599
 8950SOL     OW27748   3.434   3.576   2.391
 8950SOL    HW127749   3.490   3.547   2.469
 8950SOL    HW227750   3.450   3.673   2.373
 8951SOL     OW27751   0.963   0.649   4.470
 8951SOL    HW127752   0.952   0.556   4.435
 8951SOL    HW227753   1.060   0.670   4.481
 8952SOL     OW27754   1.374   4.332   4.306
 8952SOL    HW127755   1.389   4.315   4.404
 8952SOL    HW227756   1.431   4.269   4.253
 8953SOL     OW27757   0.828   4.872   1.518
 8953SOL    HW127758   0.836   4.774   1.535
 8953SOL    HW227759   0.848   4.922   1.603
 8954SOL     OW27760   1.915   4.157   5.559
 8954SOL    HW127761   2.003   4.180   5.518
 8954SOL    HW227762   1.904   4.207   5.645
 8955SOL     OW27763   5.845   2.954   5.218
 8955SOL    HW127764   5.885   2.878   5.269
 8955SOL    HW227765   5.747   2.938   5.205
 8956SOL     OW27766   0.787   5.884   0.971
 8956SOL    HW127767   0.839   5.910   1.052
 8956SOL    HW227768   0.848   5.841   0.904
 8957SOL     OW27769   1.323   6.296   2.422
 8957SOL    HW127770   1.306   6.388   2.388
 8957SOL    HW227771   1.266   6.230   2.373
 8958SOL     OW27772   0.739   4.196   4.671
 8958SOL    HW127773   0.648   4.234   4.653
 8958SOL    HW227774   0.729   4.102   4.705
 8959SOL     OW27775   5.783   1.840   4.174
 8959SOL    HW127776   5.788   1.758   4.118
 8959SOL    HW227777   5.772   1.920   4.115
 8960SOL     OW27778   5.135   5.289   3.016
 8960SOL    HW127779   5.203   5.318   3.084
 8960SOL    HW227780   5.182   5.244   2.940
 8961SOL     OW27781   2.951   1.656   4.874
 8961SOL    HW127782   2.893   1.574   4.880
 8961SOL    HW227783   2.970   1.677   4.778
 8962SOL     OW27784   6.286   5.534   2.162
 8962SOL    HW127785   6.301   5.441   2.197
 8962SOL    HW227786   6.218   5.580   2.220
 8963SOL     OW27787   2.813   6.748   6.143
 8963SOL    HW127788   2.765   6.684   6.202
 8963SOL    HW227789   2.882   6.798   6.196
 8964SOL     OW27790   2.176   3.113   3.853
 8964SOL    HW127791   2.186   3.021   3.816
 8964SOL    HW227792   2.199   3.113   3.950
 8965SOL     OW27793   4.069   5.373   0.376
 8965SOL    HW127794   4.166   5.396   0.375
 8965SOL    HW227795   4.048   5.319   0.458
 8966SOL     OW27796   5.289   0.125   5.126
 8966SOL    HW127797   5.200   0.110   5.169
 8966SOL    HW227798   5.361   0.085   5.183
 8967SOL     OW27799   3.204   0.172   3.457
 8967SOL    HW127800   3.201   0.172   3.556
 8967SOL    HW227801   3.169   0.085   3.422
 8968SOL     OW27802   3.772   4.926   2.076
 8968SOL    HW127803   3.853   4.874   2.104
 8968SOL    HW227804   3.713   4.867   2.020
 8969SOL     OW27805   0.051   0.561   2.883
 8969SOL    HW127806   0.031   0.653   2.849
 8969SOL    HW227807   7.022   0.494   2.833
 8970SOL     OW27808   1.942   1.262   3.251
 8970SOL    HW127809   1.844   1.283   3.243
 8970SOL    HW227810   1.963   1.240   3.347
 8971SOL     OW27811   3.248   4.436   1.035
 8971SOL    HW127812   3.225   4.464   1.129
 8971SOL    HW227813   3.266   4.518   0.980
 8972SOL     OW27814   5.119   3.827   6.704
 8972SOL    HW127815   5.042   3.764   6.709
 8972SOL    HW227816   5.124   3.866   6.612
 8973SOL     OW27817   2.584   2.353   3.094
 8973SOL    HW127818   2.530   2.287   3.041
 8973SOL    HW227819   2.674   2.363   3.052
 8974SOL     OW27820   1.980   4.416   3.978
 8974SOL    HW127821   2.028   4.486   4.031
 8974SOL    HW227822   1.898   4.455   3.936
 8975SOL     OW27823   6.690   4.133   5.698
 8975SOL    HW127824   6.687   4.161   5.602
 8975SOL    HW227825   6.684   4.214   5.757
 8976SOL     OW27826   6.046   0.024   1.956
 8976SOL    HW127827   6.019   0.120   1.949
 8976SOL    HW227828   6.117   0.013   2.026
 8977SOL     OW27829   6.651   4.437   6.647
 8977SOL    HW127830   6.563   4.424   6.693
 8977SOL    HW227831   6.716   4.480   6.710
 8978SOL     OW27832   6.128   5.773   6.138
 8978SOL    HW127833   6.207   5.724   6.175
 8978SOL    HW227834   6.149   5.803   6.045
 8979SOL     OW27835   1.693   4.944   3.575
 8979SOL    HW127836   1.658   4.927   3.483
 8979SOL    HW227837   1.721   4.857   3.617
 8980SOL     OW27838   3.780   0.723   0.096
 8980SOL    HW127839   3.800   0.645   0.155
 8980SOL    HW227840   3.798   0.808   0.145
 8981SOL     OW27841   3.854   2.402   6.396
 8981SOL    HW127842   3.795   2.457   6.455
 8981SOL    HW227843   3.823   2.307   6.398
 8982SOL     OW27844   0.289   1.324   1.462
 8982SOL    HW127845   0.230   1.335   1.382
 8982SOL    HW227846   0.242   1.269   1.531
 8983SOL     OW27847   1.483   0.029   2.301
 8983SOL    HW127848   1.558   6.995   2.275
 8983SOL    HW227849   1.519   0.107   2.352
 8984SOL     OW27850   6.893   1.461   4.832
 8984SOL    HW127851   6.889   1.366   4.860
 8984SOL    HW227852   6.984   1.482   4.796
 8985SOL     OW27853   4.824   1.245   2.677
 8985SOL    HW127854   4.838   1.327   2.733
 8985SOL    HW227855   4.858   1.165   2.726
 8986SOL     OW27856   6.985   5.514   0.482
 8986SOL    HW127857   0.011   5.440   0.525
 8986SOL    HW227858   6.897   5.524   0.529
 8987SOL     OW27859   2.020   0.009   1.375
 8987SOL    HW127860   2.025   0.108   1.387
 8987SOL    HW227861   2.101   6.993   1.414
 8988SOL     OW27862   2.857   0.031   1.066
 8988SOL    HW127863   2.947   0.061   1.033
 8988SOL    HW227864   2.858   6.959   1.081
 8989SOL     OW27865   5.732   1.599   2.513
 8989SOL    HW127866   5.829   1.601   2.489
 8989SOL    HW227867   5.722   1.614   2.611
 8990SOL     OW27868   3.387   0.762   2.908
 8990SOL    HW127869   3.293   0.791   2.921
 8990SOL    HW227870   3.433   0.758   2.996
 8991SOL     OW27871   1.287   2.692   0.763
 8991SOL    HW127872   1.279   2.630   0.685
 8991SOL    HW227873   1.349   2.767   0.740
 8992SOL     OW27874   6.437   4.245   6.464
 8992SOL    HW127875   6.493   4.321   6.498
 8992SOL    HW227876   6.424   4.255   6.365
 8993SOL     OW27877   5.821   4.534   4.886
 8993SOL    HW127878   5.900   4.490   4.929
 8993SOL    HW227879   5.737   4.502   4.931
 8994SOL     OW27880   1.369   6.215   2.737
 8994SOL    HW127881   1.307   6.224   2.815
 8994SOL    HW227882   1.320   6.239   2.653
 8995SOL     OW27883   1.870   4.045   4.112
 8995SOL    HW127884   1.834   3.959   4.149
 8995SOL    HW227885   1.854   4.118   4.177
 8996SOL     OW27886   2.078   3.526   1.323
 8996SOL    HW127887   2.089   3.610   1.376
 8996SOL    HW227888   2.130   3.533   1.238
 8997SOL     OW27889   4.381   1.304   5.607
 8997SOL    HW127890   4.355   1.379   5.546
 8997SOL    HW227891   4.365   1.216   5.561
 8998SOL     OW27892   0.731   1.395   6.269
 8998SOL    HW127893   0.706   1.397   6.172
 8998SOL    HW227894   0.674   1.328   6.317
 8999SOL     OW27895   5.239   2.180   5.374
 8999SOL    HW127896   5.239   2.126   5.290
 8999SOL    HW227897   5.314   2.150   5.433
 9000SOL     OW27898   3.342   4.946   0.941
 9000SOL    HW127899   3.383   4.930   1.031
 9000SOL    HW227900   3.255   4.993   0.953
 9001SOL     OW27901   2.436   4.386   3.442
 9001SOL    HW127902   2.496   4.341   3.508
 9001SOL    HW227903   2.435   4.334   3.357
 9002SOL     OW27904   5.604   4.066   5.320
 9002SOL    HW127905   5.635   4.120   5.242
 9002SOL    HW227906   5.679   4.057   5.386
 9003SOL     OW27907   6.543   3.145   6.604
 9003SOL    HW127908   6.471   3.161   6.671
 9003SOL    HW227909   6.532   3.053   6.566
 9004SOL     OW27910   4.973   5.437   0.876
 9004SOL    HW127911   4.996   5.340   0.883
 9004SOL    HW227912   4.946   5.472   0.965
 9005SOL     OW27913   4.957   2.866   3.918
 9005SOL    HW127914   5.002   2.907   3.997
 9005SOL    HW227915   4.989   2.772   3.906
 9006SOL     OW27916   2.239   6.912   1.107
 9006SOL    HW127917   2.263   6.851   1.183
 9006SOL    HW227918   2.318   6.967   1.083
 9007SOL     OW27919   2.059   6.117   4.987
 9007SOL    HW127920   2.140   6.075   5.029
 9007SOL    HW227921   1.978   6.063   5.012
 9008SOL     OW27922   0.511   4.194   2.581
 9008SOL    HW127923   0.579   4.130   2.617
 9008SOL    HW227924   0.537   4.287   2.605
 9009SOL     OW27925   4.337   6.456   0.101
 9009SOL    HW127926   4.260   6.409   0.058
 9009SOL    HW227927   4.336   6.438   0.200
 9010SOL     OW27928   0.029   5.303   4.827
 9010SOL    HW127929   6.996   5.374   4.863
 9010SOL    HW227930   0.106   5.346   4.779
 9011SOL     OW27931   4.426   2.066   2.606
 9011SOL    HW127932   4.472   2.137   2.658
 9011SOL    HW227933   4.327   2.082   2.607
 9012SOL     OW27934   5.499   5.392   2.287
 9012SOL    HW127935   5.530   5.440   2.370
 9012SOL    HW227936   5.547   5.430   2.208
 9013SOL     OW27937   4.580   6.547   2.734
 9013SOL    HW127938   4.491   6.505   2.714
 9013SOL    HW227939   4.592   6.628   2.678
 9014SOL     OW27940   2.378   0.669   1.209
 9014SOL    HW127941   2.372   0.629   1.300
 9014SOL    HW227942   2.330   0.757   1.208
 9015SOL     OW27943   6.309   1.741   4.908
 9015SOL    HW127944   6.278   1.828   4.947
 9015SOL    HW227945   6.409   1.734   4.918
 9016SOL     OW27946   0.120   5.705   6.224
 9016SOL    HW127947   0.116   5.663   6.315
 9016SOL    HW227948   0.114   5.805   6.234
 9017SOL     OW27949   6.964   3.713   3.054
 9017SOL    HW127950   6.924   3.800   3.082
 9017SOL    HW227951   6.938   3.642   3.121
 9018SOL     OW27952   3.646   1.777   5.986
 9018SOL    HW127953   3.578   1.838   5.944
 9018SOL    HW227954   3.736   1.797   5.947
 9019SOL     OW27955   1.387   5.116   0.056
 9019SOL    HW127956   1.355   5.029   0.094
 9019SOL    HW227957   1.317   5.153   7.022
 9020SOL     OW27958   1.052   4.945   3.469
 9020SOL    HW127959   0.952   4.954   3.461
 9020SOL    HW227960   1.084   4.875   3.406
 9021SOL     OW27961   6.163   5.705   5.314
 9021SOL    HW127962   6.215   5.716   5.399
 9021SOL    HW227963   6.191   5.620   5.269
 9022SOL     OW27964   2.932   6.821   6.754
 9022SOL    HW127965   2.902   6.769   6.674
 9022SOL    HW227966   3.031   6.832   6.751
 9023SOL     OW27967   3.451   3.064   3.466
 9023SOL    HW127968   3.427   2.997   3.537
 9023SOL    HW227969   3.455   3.155   3.507
 9024SOL     OW27970   0.625   0.380   6.532
 9024SOL    HW127971   0.551   0.325   6.572
 9024SOL    HW227972   0.708   0.325   6.525
 9025SOL     OW27973   0.073   3.780   0.261
 9025SOL    HW127974   7.020   3.790   0.201
 9025SOL    HW227975   0.143   3.725   0.215
 9026SOL     OW27976   2.999   3.350   5.538
 9026SOL    HW127977   2.989   3.448   5.551
 9026SOL    HW227978   2.916   3.303   5.567
 9027SOL     OW27979   2.253   2.779   2.732
 9027SOL    HW127980   2.294   2.692   2.759
 9027SOL    HW227981   2.183   2.805   2.799
 9028SOL     OW27982   2.682   4.659   4.571
 9028SOL    HW127983   2.630   4.607   4.639
 9028SOL    HW227984   2.639   4.650   4.482
 9029SOL     OW27985   5.550   5.574   3.059
 9029SOL    HW127986   5.551   5.474   3.061
 9029SOL    HW227987   5.639   5.609   3.090
 9030SOL     OW27988   3.598   2.117   2.271
 9030SOL    HW127989   3.523   2.051   2.265
 9030SOL    HW227990   3.595   2.178   2.191
 9031SOL     OW27991   1.676   1.511   1.000
 9031SOL    HW127992   1.623   1.439   1.046
 9031SOL    HW227993   1.710   1.477   0.913
 9032SOL     OW27994   1.117   2.916   2.616
 9032SOL    HW127995   1.100   2.819   2.596
 9032SOL    HW227996   1.039   2.953   2.667
 9033SOL     OW27997   1.547   3.960   1.719
 9033SOL    HW127998   1.595   3.922   1.798
 9033SOL    HW227999   1.553   4.059   1.721
 9034SOL     OW28000   1.779   6.834   6.803
 9034SOL    HW128001   1.821   6.769   6.740
 9034SOL    HW228002   1.731   6.784   6.876
 9035SOL     OW28003   0.201   0.621   4.442
 9035SOL    HW128004   0.105   0.593   4.449
 9035SOL    HW228005   0.207   0.721   4.449
 9036SOL     OW28006   1.375   1.243   4.274
 9036SOL    HW128007   1.414   1.165   4.324
 9036SOL    HW228008   1.394   1.233   4.177
 9037SOL     OW28009   2.494   4.114   5.991
 9037SOL    HW128010   2.530   4.138   5.901
 9037SOL    HW228011   2.395   4.096   5.984
 9038SOL     OW28012   4.766   6.280   5.392
 9038SOL    HW128013   4.851   6.232   5.413
 9038SOL    HW228014   4.704   6.219   5.343
 9039SOL     OW28015   2.806   4.543   6.819
 9039SOL    HW128016   2.883   4.548   6.756
 9039SOL    HW228017   2.762   4.632   6.825
 9040SOL     OW28018   2.904   1.946   2.271
 9040SOL    HW128019   2.920   1.978   2.177
 9040SOL    HW228020   2.963   1.867   2.290
 9041SOL     OW28021   1.726   3.371   6.501
 9041SOL    HW128022   1.687   3.279   6.509
 9041SOL    HW228023   1.760   3.401   6.590
 9042SOL     OW28024   2.229   5.548   3.596
 9042SOL    HW128025   2.138   5.507   3.594
 9042SOL    HW228026   2.298   5.475   3.594
 9043SOL     OW28027   6.413   2.455   0.736
 9043SOL    HW128028   6.468   2.496   0.808
 9043SOL    HW228029   6.329   2.417   0.775
 9044SOL     OW28030   6.798   4.296   0.743
 9044SOL    HW128031   6.749   4.355   0.807
 9044SOL    HW228032   6.874   4.347   0.702
 9045SOL     OW28033   2.410   5.743   3.829
 9045SOL    HW128034   2.412   5.842   3.813
 9045SOL    HW228035   2.326   5.705   3.792
 9046SOL     OW28036   3.768   4.613   5.935
 9046SOL    HW128037   3.677   4.575   5.921
 9046SOL    HW228038   3.784   4.631   6.032
 9047SOL     OW28039   1.079   4.552   4.930
 9047SOL    HW128040   1.016   4.592   4.996
 9047SOL    HW228041   1.029   4.492   4.868
 9048SOL     OW28042   1.802   2.169   4.987
 9048SOL    HW128043   1.860   2.231   4.935
 9048SOL    HW228044   1.858   2.098   5.030
 9049SOL     OW28045   4.818   6.120   6.768
 9049SOL    HW128046   4.892   6.110   6.835
 9049SOL    HW228047   4.827   6.209   6.723
 9050SOL     OW28048   6.927   5.142   5.384
 9050SOL    HW128049   7.011   5.089   5.395
 9050SOL    HW228050   6.890   5.164   5.475
 9051SOL     OW28051   5.375   6.750   5.823
 9051SOL    HW128052   5.369   6.779   5.918
 9051SOL    HW228053   5.413   6.657   5.819
 9052SOL     OW28054   2.991   5.272   5.330
 9052SOL    HW128055   3.069   5.329   5.355
 9052SOL    HW228056   3.004   5.236   5.238
 9053SOL     OW28057   3.359   1.805   3.133
 9053SOL    HW128058   3.297   1.779   3.059
 9053SOL    HW228059   3.350   1.903   3.151
 9054SOL     OW28060   2.435   0.055   1.046
 9054SOL    HW128061   2.494   7.006   1.020
 9054SOL    HW228062   2.490   0.128   1.087
 9055SOL     OW28063   0.722   2.344   4.919
 9055SOL    HW128064   0.684   2.300   4.838
 9055SOL    HW228065   0.728   2.277   4.994
 9056SOL     OW28066   4.853   2.550   2.821
 9056SOL    HW128067   4.778   2.551   2.755
 9056SOL    HW228068   4.839   2.621   2.890
 9057SOL     OW28069   4.034   6.344   0.229
 9057SOL    HW128070   4.055   6.283   0.153
 9057SOL    HW228071   4.116   6.361   0.283
 9058SOL     OW28072   2.249   2.496   4.453
 9058SOL    HW128073   2.161   2.499   4.405
 9058SOL    HW228074   2.316   2.448   4.396
 9059SOL     OW28075   0.312   1.019   2.337
 9059SOL    HW128076   0.298   1.106   2.385
 9059SOL    HW228077   0.280   1.028   2.243
 9060SOL     OW28078   0.751   5.194   1.587
 9060SOL    HW128079   0.714   5.254   1.659
 9060SOL    HW228080   0.699   5.208   1.503
 9061SOL     OW28081   5.175   4.061   2.349
 9061SOL    HW128082   5.100   4.080   2.412
 9061SOL    HW228083   5.263   4.075   2.395
 9062SOL     OW28084   1.079   5.724   2.769
 9062SOL    HW128085   0.985   5.744   2.798
 9062SOL    HW228086   1.128   5.810   2.753
 9063SOL     OW28087   4.823   1.602   1.888
 9063SOL    HW128088   4.802   1.699   1.887
 9063SOL    HW228089   4.910   1.587   1.936
 9064SOL     OW28090   0.883   5.812   3.264
 9064SOL    HW128091   0.857   5.775   3.175
 9064SOL    HW228092   0.948   5.886   3.252
 9065SOL     OW28093   3.142   4.297   6.078
 9065SOL    HW128094   3.224   4.247   6.107
 9065SOL    HW228095   3.093   4.329   6.159
 9066SOL     OW28096   4.438   5.013   4.301
 9066SOL    HW128097   4.440   5.032   4.399
 9066SOL    HW228098   4.421   5.098   4.251
 9067SOL     OW28099   1.899   6.599   4.733
 9067SOL    HW128100   1.812   6.639   4.704
 9067SOL    HW228101   1.884   6.505   4.764
 9068SOL     OW28102   3.885   0.772   6.321
 9068SOL    HW128103   3.952   0.834   6.281
 9068SOL    HW228104   3.808   0.825   6.357
 9069SOL     OW28105   5.109   2.974   1.691
 9069SOL    HW128106   5.187   2.922   1.655
 9069SOL    HW228107   5.138   3.067   1.714
 9070SOL     OW28108   1.922   1.362   5.473
 9070SOL    HW128109   1.824   1.373   5.490
 9070SOL    HW228110   1.963   1.315   5.550
 9071SOL     OW28111   5.737   2.423   6.584
 9071SOL    HW128112   5.747   2.324   6.598
 9071SOL    HW228113   5.819   2.470   6.616
 9072SOL     OW28114   5.472   0.139   2.358
 9072SOL    HW128115   5.491   0.224   2.407
 9072SOL    HW228116   5.377   0.113   2.373
 9073SOL     OW28117   4.610   3.071   5.388
 9073SOL    HW128118   4.634   2.982   5.350
 9073SOL    HW228119   4.510   3.080   5.392
 9074SOL     OW28120   2.229   0.920   2.873
 9074SOL    HW128121   2.218   0.928   2.774
 9074SOL    HW228122   2.299   0.984   2.904
 9075SOL     OW28123   6.026   6.042   0.435
 9075SOL    HW128124   5.950   6.083   0.486
 9075SOL    HW228125   6.112   6.081   0.465
 9076SOL     OW28126   0.646   6.675   2.446
 9076SOL    HW128127   0.698   6.602   2.402
 9076SOL    HW228128   0.698   6.760   2.442
 9077SOL     OW28129   6.268   1.773   6.845
 9077SOL    HW128130   6.224   1.705   6.786
 9077SOL    HW228131   6.343   1.730   6.894
 9078SOL     OW28132   5.204   0.412   6.991
 9078SOL    HW128133   5.301   0.433   6.979
 9078SOL    HW228134   5.150   0.462   6.923
 9079SOL     OW28135   0.974   1.319   6.327
 9079SOL    HW128136   0.891   1.363   6.293
 9079SOL    HW228137   1.022   1.276   6.251
 9080SOL     OW28138   6.056   3.740   2.239
 9080SOL    HW128139   6.122   3.745   2.314
 9080SOL    HW228140   6.017   3.648   2.234
 9081SOL     OW28141   4.899   1.818   0.519
 9081SOL    HW128142   4.822   1.862   0.474
 9081SOL    HW228143   4.901   1.845   0.615
 9082SOL     OW28144   3.430   5.656   6.214
 9082SOL    HW128145   3.456   5.694   6.125
 9082SOL    HW228146   3.405   5.560   6.204
 9083SOL     OW28147   3.705   6.729   0.565
 9083SOL    HW128148   3.727   6.731   0.468
 9083SOL    HW228149   3.783   6.765   0.618
 9084SOL     OW28150   0.142   3.632   4.843
 9084SOL    HW128151   0.232   3.665   4.873
 9084SOL    HW228152   0.149   3.601   4.748
 9085SOL     OW28153   2.634   5.163   0.457
 9085SOL    HW128154   2.683   5.168   0.370
 9085SOL    HW228155   2.626   5.068   0.485
 9086SOL     OW28156   0.097   3.261   0.686
 9086SOL    HW128157   0.028   3.311   0.634
 9086SOL    HW228158   0.154   3.326   0.737
 9087SOL     OW28159   5.233   1.254   1.244
 9087SOL    HW128160   5.225   1.352   1.227
 9087SOL    HW228161   5.303   1.238   1.314
 9088SOL     OW28162   6.109   5.831   0.281
 9088SOL    HW128163   6.078   5.908   0.337
 9088SOL    HW228164   6.138   5.865   0.191
 9089SOL     OW28165   5.046   5.656   3.715
 9089SOL    HW128166   5.050   5.699   3.625
 9089SOL    HW228167   5.118   5.695   3.773
 9090SOL     OW28168   4.965   6.067   5.859
 9090SOL    HW128169   5.002   6.150   5.900
 9090SOL    HW228170   4.957   5.997   5.930
 9091SOL     OW28171   2.699   1.899   1.818
 9091SOL    HW128172   2.614   1.907   1.871
 9091SOL    HW228173   2.716   1.986   1.770
 9092SOL     OW28174   2.139   1.218   4.790
 9092SOL    HW128175   2.203   1.211   4.713
 9092SOL    HW228176   2.185   1.258   4.869
 9093SOL     OW28177   2.240   3.578   1.114
 9093SOL    HW128178   2.231   3.611   1.020
 9093SOL    HW228179   2.328   3.533   1.125
 9094SOL     OW28180   6.628   4.398   0.964
 9094SOL    HW128181   6.635   4.305   0.999
 9094SOL    HW228182   6.550   4.444   1.006
 9095SOL     OW28183   2.387   3.302   0.134
 9095SOL    HW128184   2.289   3.322   0.141
 9095SOL    HW228185   2.421   3.331   0.044
 9096SOL     OW28186   6.024   3.157   3.319
 9096SOL    HW128187   6.010   3.244   3.366
 9096SOL    HW228188   6.052   3.087   3.384
 9097SOL     OW28189   6.667   5.179   6.007
 9097SOL    HW128190   6.748   5.146   5.960
 9097SOL    HW228191   6.675   5.161   6.105
 9098SOL     OW28192   3.350   3.798   4.453
 9098SOL    HW128193   3.375   3.797   4.550
 9098SOL    HW228194   3.431   3.784   4.397
 9099SOL     OW28195   2.097   2.338   0.210
 9099SOL    HW128196   2.011   2.388   0.221
 9099SOL    HW228197   2.145   2.336   0.297
 9100SOL     OW28198   1.137   3.010   0.257
 9100SOL    HW128199   1.194   2.946   0.206
 9100SOL    HW228200   1.044   2.975   0.263
 9101SOL     OW28201   1.875   2.282   6.658
 9101SOL    HW128202   1.922   2.316   6.576
 9101SOL    HW228203   1.907   2.190   6.680
 9102SOL     OW28204   4.932   6.464   2.506
 9102SOL    HW128205   4.915   6.405   2.585
 9102SOL    HW228206   5.030   6.479   2.497
 9103SOL     OW28207   0.259   4.178   6.445
 9103SOL    HW128208   0.279   4.214   6.536
 9103SOL    HW228209   0.164   4.197   6.421
 9104SOL     OW28210   4.842   0.182   2.016
 9104SOL    HW128211   4.865   0.246   2.089
 9104SOL    HW228212   4.919   0.178   1.951
 9105SOL     OW28213   2.261   1.480   5.522
 9105SOL    HW128214   2.228   1.400   5.472
 9105SOL    HW228215   2.196   1.503   5.594
 9106SOL     OW28216   6.562   5.129   1.613
 9106SOL    HW128217   6.592   5.222   1.592
 9106SOL    HW228218   6.626   5.063   1.574
 9107SOL     OW28219   4.716   0.183   1.113
 9107SOL    HW128220   4.661   0.256   1.153
 9107SOL    HW228221   4.669   0.145   1.033
 9108SOL     OW28222   3.954   6.054   6.957
 9108SOL    HW128223   3.886   6.124   6.934
 9108SOL    HW228224   4.045   6.095   6.955
 9109SOL     OW28225   2.725   1.706   4.633
 9109SOL    HW128226   2.646   1.705   4.694
 9109SOL    HW228227   2.757   1.800   4.621
 9110SOL     OW28228   1.246   3.052   2.848
 9110SOL    HW128229   1.205   3.024   2.761
 9110SOL    HW228230   1.201   3.136   2.880
 9111SOL     OW28231   4.217   4.035   1.727
 9111SOL    HW128232   4.246   3.941   1.742
 9111SOL    HW228233   4.282   4.098   1.771
 9112SOL     OW28234   0.419   5.270   2.351
 9112SOL    HW128235   0.500   5.276   2.408
 9112SOL    HW228236   0.403   5.174   2.325
 9113SOL     OW28237   3.577   6.248   6.966
 9113SOL    HW128238   3.617   6.334   6.934
 9113SOL    HW228239   3.604   6.233   0.034
 9114SOL     OW28240   2.421   4.511   1.856
 9114SOL    HW128241   2.400   4.534   1.951
 9114SOL    HW228242   2.353   4.445   1.822
 9115SOL     OW28243   1.702   4.334   4.038
 9115SOL    HW128244   1.641   4.410   4.017
 9115SOL    HW228245   1.774   4.365   4.100
 9116SOL     OW28246   1.856   1.227   5.927
 9116SOL    HW128247   1.862   1.309   5.984
 9116SOL    HW228248   1.805   1.156   5.977
 9117SOL     OW28249   6.407   2.407   6.712
 9117SOL    HW128250   6.487   2.365   6.669
 9117SOL    HW228251   6.370   2.344   6.781
 9118SOL     OW28252   0.141   5.955   1.516
 9118SOL    HW128253   0.150   6.017   1.439
 9118SOL    HW228254   0.136   5.861   1.483
 9119SOL     OW28255   6.582   6.830   1.247
 9119SOL    HW128256   6.633   6.781   1.318
 9119SOL    HW228257   6.486   6.804   1.251
 9120SOL     OW28258   5.250   1.418   6.389
 9120SOL    HW128259   5.177   1.465   6.338
 9120SOL    HW228260   5.279   1.475   6.465
 9121SOL     OW28261   1.586   0.907   6.973
 9121SOL    HW128262   1.665   0.886   0.004
 9121SOL    HW228263   1.548   0.823   6.935
 9122SOL     OW28264   0.308   2.613   1.144
 9122SOL    HW128265   0.348   2.521   1.135
 9122SOL    HW228266   0.381   2.677   1.169
 9123SOL     OW28267   2.828   5.912   0.343
 9123SOL    HW128268   2.760   5.979   0.375
 9123SOL    HW228269   2.784   5.848   0.281
 9124SOL     OW28270   5.978   4.970   5.475
 9124SOL    HW128271   5.903   4.906   5.495
 9124SOL    HW228272   6.064   4.932   5.508
 9125SOL     OW28273   4.482   6.052   2.928
 9125SOL    HW128274   4.512   6.145   2.949
 9125SOL    HW228275   4.435   6.013   3.008
 9126SOL     OW28276   5.707   0.861   1.921
 9126SOL    HW128277   5.700   0.781   1.980
 9126SOL    HW228278   5.789   0.914   1.946
 9127SOL     OW28279   5.057   0.604   6.810
 9127SOL    HW128280   5.093   0.613   6.717
 9127SOL    HW228281   4.960   0.580   6.807
 9128SOL     OW28282   4.896   2.703   5.059
 9128SOL    HW128283   4.924   2.663   4.972
 9128SOL    HW228284   4.807   2.748   5.048
 9129SOL     OW28285   1.890   2.094   6.160
 9129SOL    HW128286   1.962   2.159   6.135
 9129SOL    HW228287   1.811   2.107   6.100
 9130SOL     OW28288   5.909   5.045   0.801
 9130SOL    HW128289   5.974   5.099   0.748
 9130SOL    HW228290   5.821   5.044   0.753
 9131SOL     OW28291   0.716   3.909   4.416
 9131SOL    HW128292   0.730   3.868   4.506
 9131SOL    HW228293   0.791   3.974   4.397
 9132SOL     OW28294   0.611   3.084   4.893
 9132SOL    HW128295   0.679   3.120   4.828
 9132SOL    HW228296   0.523   3.073   4.847
 9133SOL     OW28297   1.468   4.288   1.420
 9133SOL    HW128298   1.545   4.239   1.379
 9133SOL    HW228299   1.384   4.234   1.409
 9134SOL     OW28300   3.010   5.456   6.315
 9134SOL    HW128301   3.012   5.513   6.398
 9134SOL    HW228302   3.009   5.360   6.341
 9135SOL     OW28303   6.576   6.367   4.145
 9135SOL    HW128304   6.496   6.427   4.153
 9135SOL    HW228305   6.567   6.311   4.063
 9136SOL     OW28306   4.771   4.409   5.601
 9136SOL    HW128307   4.858   4.429   5.557
 9136SOL    HW228308   4.725   4.495   5.625
 9137SOL     OW28309   4.081   1.257   2.344
 9137SOL    HW128310   4.131   1.334   2.306
 9137SOL    HW228311   4.145   1.185   2.372
 9138SOL     OW28312   3.826   5.139   0.350
 9138SOL    HW128313   3.844   5.051   0.394
 9138SOL    HW228314   3.802   5.125   0.254
 9139SOL     OW28315   2.645   1.398   5.751
 9139SOL    HW128316   2.665   1.496   5.761
 9139SOL    HW228317   2.606   1.381   5.660
 9140SOL     OW28318   6.982   2.063   3.779
 9140SOL    HW128319   6.936   1.990   3.728
 9140SOL    HW228320   0.052   2.041   3.788
 9141SOL     OW28321   5.756   0.577   6.039
 9141SOL    HW128322   5.708   0.560   6.125
 9141SOL    HW228323   5.733   0.506   5.973
 9142SOL     OW28324   0.245   3.599   5.814
 9142SOL    HW128325   0.269   3.646   5.899
 9142SOL    HW228326   0.150   3.620   5.789
 9143SOL     OW28327   5.082   3.550   0.799
 9143SOL    HW128328   5.030   3.487   0.857
 9143SOL    HW228329   5.031   3.566   0.714
 9144SOL     OW28330   1.871   4.385   5.014
 9144SOL    HW128331   1.951   4.368   4.956
 9144SOL    HW228332   1.795   4.327   4.985
 9145SOL     OW28333   0.256   4.520   6.448
 9145SOL    HW128334   0.231   4.472   6.364
 9145SOL    HW228335   0.254   4.456   6.524
 9146SOL     OW28336   6.344   2.062   2.330
 9146SOL    HW128337   6.350   2.151   2.375
 9146SOL    HW228338   6.430   2.012   2.346
 9147SOL     OW28339   4.263   5.522   5.716
 9147SOL    HW128340   4.281   5.435   5.670
 9147SOL    HW228341   4.349   5.566   5.740
 9148SOL     OW28342   4.145   5.808   2.958
 9148SOL    HW128343   4.239   5.835   2.979
 9148SOL    HW228344   4.096   5.789   3.043
 9149SOL     OW28345   5.624   3.712   3.909
 9149SOL    HW128346   5.554   3.683   3.974
 9149SOL    HW228347   5.692   3.768   3.955
 9150SOL     OW28348   4.977   1.046   2.887
 9150SOL    HW128349   4.877   1.045   2.894
 9150SOL    HW228350   5.016   0.986   2.957
 9151SOL     OW28351   1.662   3.911   1.962
 9151SOL    HW128352   1.591   3.870   2.019
 9151SOL    HW228353   1.742   3.852   1.960
 9152SOL     OW28354   2.104   5.696   3.066
 9152SOL    HW128355   2.067   5.785   3.044
 9152SOL    HW228356   2.167   5.704   3.144
 9153SOL     OW28357   1.463   3.064   6.145
 9153SOL    HW128358   1.438   3.048   6.049
 9153SOL    HW228359   1.546   3.013   6.167
 9154SOL     OW28360   2.237   5.877   0.224
 9154SOL    HW128361   2.265   5.908   0.315
 9154SOL    HW228362   2.156   5.819   0.232
 9155SOL     OW28363   1.192   3.906   0.801
 9155SOL    HW128364   1.223   3.811   0.798
 9155SOL    HW228365   1.139   3.927   0.718
 9156SOL     OW28366   4.846   2.646   1.280
 9156SOL    HW128367   4.880   2.664   1.373
 9156SOL    HW228368   4.846   2.548   1.263
 9157SOL     OW28369   5.248   4.060   5.565
 9157SOL    HW128370   5.174   4.095   5.622
 9157SOL    HW228371   5.336   4.087   5.603
 9158SOL     OW28372   0.600   3.914   3.997
 9158SOL    HW128373   0.599   3.830   4.052
 9158SOL    HW228374   0.565   3.894   3.906
 9159SOL     OW28375   6.675   4.397   3.470
 9159SOL    HW128376   6.596   4.447   3.434
 9159SOL    HW228377   6.653   4.362   3.561
 9160SOL     OW28378   6.537   6.834   6.903
 9160SOL    HW128379   6.518   6.868   6.811
 9160SOL    HW228380   6.496   6.896   6.971
 9161SOL     OW28381   4.793   4.050   4.376
 9161SOL    HW128382   4.825   4.002   4.457
 9161SOL    HW228383   4.812   3.994   4.295
 9162SOL     OW28384   4.904   2.261   3.003
 9162SOL    HW128385   4.849   2.312   3.070
 9162SOL    HW228386   4.883   2.294   2.911
 9163SOL     OW28387   3.208   1.677   3.984
 9163SOL    HW128388   3.241   1.754   4.039
 9163SOL    HW228389   3.256   1.676   3.897
 9164SOL     OW28390   3.168   0.134   0.501
 9164SOL    HW128391   3.091   0.173   0.451
 9164SOL    HW228392   3.214   0.206   0.553
 9165SOL     OW28393   6.165   0.049   6.887
 9165SOL    HW128394   6.126   6.986   6.865
 9165SOL    HW228395   6.255   0.036   6.929
 9166SOL     OW28396   3.369   5.694   1.164
 9166SOL    HW128397   3.352   5.677   1.067
 9166SOL    HW228398   3.316   5.774   1.194
 9167SOL     OW28399   1.478   4.287   5.546
 9167SOL    HW128400   1.410   4.221   5.512
 9167SOL    HW228401   1.528   4.326   5.469
 9168SOL     OW28402   2.021   0.935   6.436
 9168SOL    HW128403   2.087   0.922   6.361
 9168SOL    HW228404   1.934   0.893   6.411
 9169SOL     OW28405   0.397   0.473   3.528
 9169SOL    HW128406   0.439   0.504   3.614
 9169SOL    HW228407   0.349   0.387   3.543
 9170SOL     OW28408   6.607   6.050   6.353
 9170SOL    HW128409   6.571   6.116   6.419
 9170SOL    HW228410   6.652   5.975   6.403
 9171SOL     OW28411   2.753   5.939   6.506
 9171SOL    HW128412   2.675   5.934   6.568
 9171SOL    HW228413   2.743   5.871   6.434
 9172SOL     OW28414   2.921   1.534   3.938
 9172SOL    HW128415   2.899   1.458   3.876
 9172SOL    HW228416   3.007   1.575   3.910
 9173SOL     OW28417   0.971   5.602   4.105
 9173SOL    HW128418   0.930   5.591   4.015
 9173SOL    HW228419   0.971   5.514   4.152
 9174SOL     OW28420   0.574   5.155   0.572
 9174SOL    HW128421   0.521   5.155   0.487
 9174SOL    HW228422   0.526   5.100   0.641
 9175SOL     OW28423   1.897   6.198   6.097
 9175SOL    HW128424   1.908   6.188   5.999
 9175SOL    HW228425   1.828   6.133   6.130
 9176SOL     OW28426   2.116   0.636   6.070
 9176SOL    HW128427   2.056   0.591   6.136
 9176SOL    HW228428   2.173   0.567   6.025
 9177SOL     OW28429   0.869   4.670   3.458
 9177SOL    HW128430   0.814   4.596   3.419
 9177SOL    HW228431   0.926   4.710   3.386
 9178SOL     OW28432   2.706   5.052   0.122
 9178SOL    HW128433   2.705   5.149   0.146
 9178SOL    HW228434   2.621   5.009   0.150
 9179SOL     OW28435   3.464   4.949   4.588
 9179SOL    HW128436   3.368   4.936   4.564
 9179SOL    HW228437   3.475   4.935   4.686
 9180SOL     OW28438   5.059   1.724   3.181
 9180SOL    HW128439   5.029   1.720   3.086
 9180SOL    HW228440   5.014   1.802   3.226
 9181SOL     OW28441   4.393   1.738   2.454
 9181SOL    HW128442   4.476   1.751   2.509
 9181SOL    HW228443   4.326   1.688   2.508
 9182SOL     OW28444   1.106   6.634   1.444
 9182SOL    HW128445   1.171   6.685   1.388
 9182SOL    HW228446   1.045   6.581   1.385
 9183SOL     OW28447   5.137   6.249   0.464
 9183SOL    HW128448   5.076   6.260   0.385
 9183SOL    HW228449   5.143   6.152   0.488
 9184SOL     OW28450   4.821   0.188   0.124
 9184SOL    HW128451   4.866   0.155   0.041
 9184SOL    HW228452   4.886   0.240   0.179
 9185SOL     OW28453   3.506   0.894   5.023
 9185SOL    HW128454   3.496   0.933   4.932
 9185SOL    HW228455   3.548   0.962   5.084
 9186SOL     OW28456   5.631   0.987   6.321
 9186SOL    HW128457   5.604   1.081   6.297
 9186SOL    HW228458   5.700   0.954   6.257
 9187SOL     OW28459   2.358   6.202   2.348
 9187SOL    HW128460   2.449   6.245   2.352
 9187SOL    HW228461   2.351   6.133   2.420
 9188SOL     OW28462   2.572   6.461   1.279
 9188SOL    HW128463   2.600   6.546   1.235
 9188SOL    HW228464   2.507   6.413   1.221
 9189SOL     OW28465   5.308   5.621   2.328
 9189SOL    HW128466   5.385   5.581   2.378
 9189SOL    HW228467   5.273   5.554   2.263
 9190SOL     OW28468   1.750   5.137   0.469
 9190SOL    HW128469   1.830   5.191   0.442
 9190SOL    HW228470   1.679   5.147   0.399
 9191SOL     OW28471   0.104   0.090   5.830
 9191SOL    HW128472   0.083   0.185   5.804
 9191SOL    HW228473   0.040   0.028   5.784
 9192SOL     OW28474   6.916   4.176   4.163
 9192SOL    HW128475   6.858   4.224   4.097
 9192SOL    HW228476   6.946   4.089   4.125
 9193SOL     OW28477   2.775   3.377   0.187
 9193SOL    HW128478   2.863   3.334   0.162
 9193SOL    HW228479   2.723   3.396   0.104
 9194SOL     OW28480   3.881   0.721   3.840
 9194SOL    HW128481   3.966   0.725   3.892
 9194SOL    HW228482   3.818   0.656   3.884
 9195SOL     OW28483   1.946   1.778   3.820
 9195SOL    HW128484   1.932   1.738   3.911
 9195SOL    HW228485   1.882   1.855   3.808
 9196SOL     OW28486   4.869   2.320   5.016
 9196SOL    HW128487   4.832   2.384   5.083
 9196SOL    HW228488   4.801   2.303   4.945
 9197SOL     OW28489   2.324   3.673   1.665
 9197SOL    HW128490   2.338   3.750   1.727
 9197SOL    HW228491   2.341   3.588   1.715
 9198SOL     OW28492   6.657   5.195   4.217
 9198SOL    HW128493   6.602   5.275   4.241
 9198SOL    HW228494   6.627   5.116   4.271
 9199SOL     OW28495   6.361   4.299   4.772
 9199SOL    HW128496   6.261   4.308   4.769
 9199SOL    HW228497   6.386   4.214   4.818
 9200SOL     OW28498   3.256   6.908   0.435
 9200SOL    HW128499   3.219   6.976   0.498
 9200SOL    HW228500   3.318   6.847   0.485
 9201SOL     OW28501   1.842   4.248   0.652
 9201SOL    HW128502   1.747   4.238   0.682
 9201SOL    HW228503   1.902   4.242   0.732
 9202SOL     OW28504   2.326   0.200   3.317
 9202SOL    HW128505   2.422   0.208   3.290
 9202SOL    HW228506   2.289   0.291   3.337
 9203SOL     OW28507   6.961   6.187   0.802
 9203SOL    HW128508   6.973   6.284   0.777
 9203SOL    HW228509   0.014   6.135   0.771
 9204SOL     OW28510   4.837   0.960   6.079
 9204SOL    HW128511   4.749   0.929   6.116
 9204SOL    HW228512   4.823   1.000   5.988
 9205SOL     OW28513   6.942   4.109   1.993
 9205SOL    HW128514   0.004   4.156   1.991
 9205SOL    HW228515   6.925   4.074   2.085
 9206SOL     OW28516   3.284   5.776   0.698
 9206SOL    HW128517   3.350   5.706   0.672
 9206SOL    HW228518   3.245   5.818   0.616
 9207SOL     OW28519   4.898   5.210   0.112
 9207SOL    HW128520   4.932   5.230   0.204
 9207SOL    HW228521   4.966   5.241   0.044
 9208SOL     OW28522   0.852   3.688   3.458
 9208SOL    HW128523   0.861   3.591   3.480
 9208SOL    HW228524   0.819   3.698   3.364
 9209SOL     OW28525   2.805   0.833   6.046
 9209SOL    HW128526   2.885   0.886   6.019
 9209SOL    HW228527   2.748   0.888   6.107
 9210SOL     OW28528   6.754   0.646   3.525
 9210SOL    HW128529   6.670   0.601   3.555
 9210SOL    HW228530   6.739   0.744   3.520
 9211SOL     OW28531   0.853   1.507   2.917
 9211SOL    HW128532   0.945   1.472   2.935
 9211SOL    HW228533   0.791   1.431   2.900
 9212SOL     OW28534   3.202   5.060   4.445
 9212SOL    HW128535   3.129   5.041   4.379
 9212SOL    HW228536   3.164   5.109   4.523
 9213SOL     OW28537   5.987   3.588   6.540
 9213SOL    HW128538   5.888   3.599   6.546
 9213SOL    HW228539   6.009   3.538   6.456
 9214SOL     OW28540   0.113   4.998   0.989
 9214SOL    HW128541   0.084   5.013   1.084
 9214SOL    HW228542   0.195   4.941   0.988
 9215SOL     OW28543   0.765   1.186   0.933
 9215SOL    HW128544   0.756   1.285   0.922
 9215SOL    HW228545   0.861   1.160   0.930
 9216SOL     OW28546   2.349   6.595   3.027
 9216SOL    HW128547   2.359   6.694   3.017
 9216SOL    HW228548   2.416   6.561   3.093
 9217SOL     OW28549   0.957   2.675   6.709
 9217SOL    HW128550   1.011   2.732   6.647
 9217SOL    HW228551   0.876   2.641   6.661
 9218SOL     OW28552   2.809   0.582   0.455
 9218SOL    HW128553   2.724   0.635   0.459
 9218SOL    HW228554   2.852   0.595   0.365
 9219SOL     OW28555   7.004   2.498   0.850
 9219SOL    HW128556   6.954   2.547   0.779
 9219SOL    HW228557   0.025   2.563   0.909
 9220SOL     OW28558   3.453   6.610   1.998
 9220SOL    HW128559   3.468   6.512   2.014
 9220SOL    HW228560   3.542   6.656   1.990
 9221SOL     OW28561   3.061   5.618   4.336
 9221SOL    HW128562   3.116   5.637   4.417
 9221SOL    HW228563   3.022   5.526   4.343
 9222SOL     OW28564   2.299   2.029   5.861
 9222SOL    HW128565   2.380   2.073   5.899
 9222SOL    HW228566   2.248   1.984   5.935
 9223SOL     OW28567   2.716   3.091   5.324
 9223SOL    HW128568   2.742   2.995   5.317
 9223SOL    HW228569   2.617   3.099   5.328
 9224SOL     OW28570   2.266   4.948   5.366
 9224SOL    HW128571   2.327   4.916   5.438
 9224SOL    HW228572   2.249   4.873   5.301
 9225SOL     OW28573   2.181   6.208   6.801
 9225SOL    HW128574   2.186   6.282   6.869
 9225SOL    HW228575   2.115   6.232   6.730
 9226SOL     OW28576   4.459   6.723   1.180
 9226SOL    HW128577   4.458   6.634   1.133
 9226SOL    HW228578   4.479   6.709   1.277
 9227SOL     OW28579   1.699   5.723   2.318
 9227SOL    HW128580   1.673   5.814   2.349
 9227SOL    HW228581   1.618   5.665   2.314
 9228SOL     OW28582   0.666   0.006   6.821
 9228SOL    HW128583   0.623   0.094   6.840
 9228SOL    HW228584   0.766   0.017   6.824
 9229SOL     OW28585   0.714   4.960   4.995
 9229SOL    HW128586   0.800   4.922   4.961
 9229SOL    HW228587   0.644   4.953   4.923
 9230SOL     OW28588   5.582   0.169   3.959
 9230SOL    HW128589   5.681   0.157   3.946
 9230SOL    HW228590   5.564   0.191   4.055
 9231SOL     OW28591   1.699   2.825   3.341
 9231SOL    HW128592   1.661   2.906   3.386
 9231SOL    HW228593   1.630   2.754   3.336
 9232SOL     OW28594   4.027   4.813   1.472
 9232SOL    HW128595   4.113   4.803   1.522
 9232SOL    HW228596   4.008   4.910   1.456
 9233SOL     OW28597   5.125   5.211   0.868
 9233SOL    HW128598   5.086   5.131   0.823
 9233SOL    HW228599   5.128   5.195   0.967
 9234SOL     OW28600   2.050   6.042   3.931
 9234SOL    HW128601   2.113   5.986   3.985
 9234SOL    HW228602   2.099   6.121   3.895
 9235SOL     OW28603   0.717   1.881   3.158
 9235SOL    HW128604   0.739   1.964   3.210
 9235SOL    HW228605   0.649   1.903   3.088
 9236SOL     OW28606   2.941   3.123   5.779
 9236SOL    HW128607   2.866   3.177   5.742
 9236SOL    HW228608   2.956   3.042   5.722
 9237SOL     OW28609   1.615   3.683   3.622
 9237SOL    HW128610   1.666   3.703   3.706
 9237SOL    HW228611   1.679   3.650   3.552
 9238SOL     OW28612   4.608   2.962   6.003
 9238SOL    HW128613   4.539   3.016   6.052
 9238SOL    HW228614   4.628   2.879   6.056
 9239SOL     OW28615   2.096   4.092   0.864
 9239SOL    HW128616   2.017   4.075   0.923
 9239SOL    HW228617   2.107   4.190   0.850
 9240SOL     OW28618   4.471   1.298   2.486
 9240SOL    HW128619   4.391   1.238   2.482
 9240SOL    HW228620   4.554   1.243   2.477
 9241SOL     OW28621   0.256   5.766   6.714
 9241SOL    HW128622   0.347   5.724   6.708
 9241SOL    HW228623   0.236   5.814   6.628
 9242SOL     OW28624   6.885   6.241   1.842
 9242SOL    HW128625   6.825   6.162   1.828
 9242SOL    HW228626   6.947   6.251   1.764
 9243SOL     OW28627   5.852   5.958   5.029
 9243SOL    HW128628   5.860   6.034   5.093
 9243SOL    HW228629   5.756   5.950   4.999
 9244SOL     OW28630   3.789   5.127   6.410
 9244SOL    HW128631   3.710   5.170   6.367
 9244SOL    HW228632   3.764   5.094   6.501
 9245SOL     OW28633   0.479   5.187   1.430
 9245SOL    HW128634   0.417   5.249   1.478
 9245SOL    HW228635   0.530   5.237   1.360
 9246SOL     OW28636   0.333   4.771   4.005
 9246SOL    HW128637   0.350   4.764   3.907
 9246SOL    HW228638   0.413   4.811   4.050
 9247SOL     OW28639   1.719   6.158   2.556
 9247SOL    HW128640   1.773   6.163   2.640
 9247SOL    HW228641   1.670   6.244   2.543
 9248SOL     OW28642   2.963   1.567   6.416
 9248SOL    HW128643   3.060   1.578   6.394
 9248SOL    HW228644   2.944   1.471   6.436
 9249SOL     OW28645   4.698   0.390   3.960
 9249SOL    HW128646   4.773   0.419   4.018
 9249SOL    HW228647   4.691   0.290   3.961
 9250SOL     OW28648   5.545   3.627   4.358
 9250SOL    HW128649   5.570   3.724   4.359
 9250SOL    HW228650   5.627   3.571   4.373
 9251SOL     OW28651   3.249   2.095   2.689
 9251SOL    HW128652   3.200   2.123   2.771
 9251SOL    HW228653   3.197   2.122   2.608
 9252SOL     OW28654   1.071   0.098   4.755
 9252SOL    HW128655   1.102   0.180   4.707
 9252SOL    HW228656   1.078   0.113   4.853
 9253SOL     OW28657   1.160   6.876   5.879
 9253SOL    HW128658   1.197   6.968   5.869
 9253SOL    HW228659   1.229   6.815   5.918
 9254SOL     OW28660   5.737   3.863   1.397
 9254SOL    HW128661   5.677   3.784   1.388
 9254SOL    HW228662   5.692   3.933   1.453
 9255SOL     OW28663   5.961   4.555   0.882
 9255SOL    HW128664   5.999   4.575   0.972
 9255SOL    HW228665   6.019   4.488   0.835
 9256SOL     OW28666   4.256   5.182   1.803
 9256SOL    HW128667   4.227   5.137   1.718
 9256SOL    HW228668   4.344   5.227   1.789
 9257SOL     OW28669   1.145   4.330   1.235
 9257SOL    HW128670   1.066   4.278   1.203
 9257SOL    HW228671   1.223   4.313   1.174
 9258SOL     OW28672   4.168   3.562   3.286
 9258SOL    HW128673   4.173   3.464   3.266
 9258SOL    HW228674   4.103   3.577   3.361
 9259SOL     OW28675   0.859   3.064   0.395
 9259SOL    HW128676   0.855   3.163   0.404
 9259SOL    HW228677   0.766   3.026   0.395
 9260SOL     OW28678   5.455   3.142   5.982
 9260SOL    HW128679   5.364   3.121   5.945
 9260SOL    HW228680   5.523   3.136   5.908
 9261SOL     OW28681   4.613   6.936   6.808
 9261SOL    HW128682   4.703   6.979   6.816
 9261SOL    HW228683   4.545   7.006   6.784
 9262SOL     OW28684   4.783   1.288   5.696
 9262SOL    HW128685   4.861   1.257   5.750
 9262SOL    HW228686   4.698   1.265   5.744
 9263SOL     OW28687   5.268   3.776   1.726
 9263SOL    HW128688   5.253   3.678   1.741
 9263SOL    HW228689   5.361   3.790   1.691
 9264SOL     OW28690   6.286   3.615   0.762
 9264SOL    HW128691   6.254   3.692   0.705
 9264SOL    HW228692   6.275   3.530   0.711
 9265SOL     OW28693   1.703   0.849   6.644
 9265SOL    HW128694   1.698   0.750   6.657
 9265SOL    HW228695   1.633   0.894   6.698
 9266SOL     OW28696   1.819   6.146   2.815
 9266SOL    HW128697   1.832   6.061   2.866
 9266SOL    HW228698   1.908   6.179   2.781
 9267SOL     OW28699   1.857   4.610   5.151
 9267SOL    HW128700   1.877   4.518   5.118
 9267SOL    HW228701   1.846   4.671   5.073
 9268SOL     OW28702   0.248   0.405   2.948
 9268SOL    HW128703   0.152   0.420   2.929
 9268SOL    HW228704   0.296   0.493   2.953
 9269SOL     OW28705   3.457   1.113   6.131
 9269SOL    HW128706   3.484   1.159   6.216
 9269SOL    HW228707   3.365   1.074   6.143
 9270SOL     OW28708   6.964   0.011   5.603
 9270SOL    HW128709   6.939   6.973   5.531
 9270SOL    HW228710   6.974   0.102   5.562
 9271SOL     OW28711   1.675   4.801   0.277
 9271SOL    HW128712   1.745   4.827   0.211
 9271SOL    HW228713   1.657   4.878   0.339
 9272SOL     OW28714   2.626   4.809   6.430
 9272SOL    HW128715   2.667   4.859   6.505
 9272SOL    HW228716   2.670   4.719   6.422
 9273SOL     OW28717   4.243   6.256   4.993
 9273SOL    HW128718   4.265   6.158   4.985
 9273SOL    HW228719   4.267   6.303   4.908
 9274SOL     OW28720   6.355   2.041   0.318
 9274SOL    HW128721   6.422   1.967   0.314
 9274SOL    HW228722   6.352   2.078   0.411
 9275SOL     OW28723   0.922   0.344   6.755
 9275SOL    HW128724   0.915   0.276   6.682
 9275SOL    HW228725   0.966   0.304   6.835
 9276SOL     OW28726   4.632   6.376   5.076
 9276SOL    HW128727   4.635   6.277   5.065
 9276SOL    HW228728   4.702   6.404   5.143
 9277SOL     OW28729   3.639   3.018   6.972
 9277SOL    HW128730   3.608   2.970   6.889
 9277SOL    HW228731   3.736   2.997   6.988
 9278SOL     OW28732   1.126   2.106   1.644
 9278SOL    HW128733   1.049   2.143   1.593
 9278SOL    HW228734   1.141   2.011   1.618
 9279SOL     OW28735   3.580   0.101   2.083
 9279SOL    HW128736   3.484   0.117   2.059
 9279SOL    HW228737   3.605   0.156   2.162
 9280SOL     OW28738   2.261   0.026   3.774
 9280SOL    HW128739   2.242   0.037   3.677
 9280SOL    HW228740   2.343   6.997   3.786
 9281SOL     OW28741   2.282   2.124   0.135
 9281SOL    HW128742   2.357   2.083   0.186
 9281SOL    HW228743   2.280   2.223   0.151
 9282SOL     OW28744   4.597   1.996   5.668
 9282SOL    HW128745   4.694   1.981   5.686
 9282SOL    HW228746   4.586   2.079   5.613
 9283SOL     OW28747   5.804   2.394   2.284
 9283SOL    HW128748   5.734   2.426   2.220
 9283SOL    HW228749   5.760   2.358   2.366
 9284SOL     OW28750   2.895   3.443   1.560
 9284SOL    HW128751   2.846   3.528   1.538
 9284SOL    HW228752   2.831   3.367   1.564
 9285SOL     OW28753   6.274   3.111   6.703
 9285SOL    HW128754   6.224   3.141   6.784
 9285SOL    HW228755   6.210   3.072   6.637
 9286SOL     OW28756   5.485   6.676   5.307
 9286SOL    HW128757   5.574   6.630   5.314
 9286SOL    HW228758   5.436   6.641   5.228
 9287SOL     OW28759   3.466   6.822   1.799
 9287SOL    HW128760   3.434   6.730   1.820
 9287SOL    HW228761   3.563   6.819   1.773
 9288SOL     OW28762   5.063   2.621   5.849
 9288SOL    HW128763   5.125   2.688   5.808
 9288SOL    HW228764   5.007   2.579   5.777
 9289SOL     OW28765   4.849   3.228   2.839
 9289SOL    HW128766   4.872   3.184   2.926
 9289SOL    HW228767   4.861   3.327   2.847
 9290SOL     OW28768   5.058   1.962   4.988
 9290SOL    HW128769   4.965   1.998   4.977
 9290SOL    HW228770   5.109   1.977   4.903
 9291SOL     OW28771   0.853   1.770   4.669
 9291SOL    HW128772   0.779   1.720   4.714
 9291SOL    HW228773   0.914   1.705   4.623
 9292SOL     OW28774   0.368   3.284   6.726
 9292SOL    HW128775   0.319   3.197   6.727
 9292SOL    HW228776   0.304   3.358   6.706
 9293SOL     OW28777   5.561   3.983   6.896
 9293SOL    HW128778   5.598   4.075   6.881
 9293SOL    HW228779   5.637   3.919   6.910
 9294SOL     OW28780   6.551   6.234   6.655
 9294SOL    HW128781   6.467   6.182   6.642
 9294SOL    HW228782   6.545   6.287   6.740
 9295SOL     OW28783   4.592   1.462   3.211
 9295SOL    HW128784   4.588   1.407   3.294
 9295SOL    HW228785   4.502   1.500   3.192
 9296SOL     OW28786   6.054   0.288   5.648
 9296SOL    HW128787   5.970   0.235   5.664
 9296SOL    HW228788   6.122   0.264   5.718
 9297SOL     OW28789   0.487   1.393   0.575
 9297SOL    HW128790   0.494   1.311   0.518
 9297SOL    HW228791   0.404   1.389   0.630
 9298SOL     OW28792   0.992   5.904   4.717
 9298SOL    HW128793   1.034   5.982   4.763
 9298SOL    HW228794   1.028   5.819   4.754
 9299SOL     OW28795   1.918   2.978   4.419
 9299SOL    HW128796   2.002   2.931   4.445
 9299SOL    HW228797   1.887   2.944   4.331
 9300SOL     OW28798   5.735   4.693   4.557
 9300SOL    HW128799   5.747   4.607   4.508
 9300SOL    HW228800   5.645   4.731   4.536
 9301SOL     OW28801   5.258   4.299   2.679
 9301SOL    HW128802   5.174   4.249   2.699
 9301SOL    HW228803   5.282   4.355   2.758
 9302SOL     OW28804   2.303   1.895   2.536
 9302SOL    HW128805   2.337   1.856   2.451
 9302SOL    HW228806   2.269   1.822   2.595
 9303SOL     OW28807   3.703   5.402   0.318
 9303SOL    HW128808   3.778   5.338   0.303
 9303SOL    HW228809   3.655   5.379   0.402
 9304SOL     OW28810   3.585   3.531   0.898
 9304SOL    HW128811   3.512   3.558   0.835
 9304SOL    HW228812   3.648   3.608   0.912
 9305SOL     OW28813   5.518   2.926   2.119
 9305SOL    HW128814   5.553   2.954   2.030
 9305SOL    HW228815   5.469   2.839   2.110
 9306SOL     OW28816   6.986   3.749   3.866
 9306SOL    HW128817   6.886   3.748   3.856
 9306SOL    HW228818   0.002   3.732   3.777
 9307SOL     OW28819   1.787   1.747   6.748
 9307SOL    HW128820   1.793   1.760   6.847
 9307SOL    HW228821   1.691   1.747   6.720
 9308SOL     OW28822   6.835   2.836   0.901
 9308SOL    HW128823   6.738   2.845   0.923
 9308SOL    HW228824   6.881   2.781   0.971
 9309SOL     OW28825   4.885   3.362   6.115
 9309SOL    HW128826   4.937   3.287   6.157
 9309SOL    HW228827   4.787   3.343   6.123
 9310SOL     OW28828   3.909   5.817   6.826
 9310SOL    HW128829   3.922   5.815   6.727
 9310SOL    HW228830   3.947   5.902   6.863
 9311SOL     OW28831   6.085   3.011   0.839
 9311SOL    HW128832   6.095   3.105   0.870
 9311SOL    HW228833   6.034   3.009   0.753
 9312SOL     OW28834   1.448   4.292   6.500
 9312SOL    HW128835   1.544   4.320   6.503
 9312SOL    HW228836   1.422   4.272   6.406
 9313SOL     OW28837   6.496   6.926   3.040
 9313SOL    HW128838   6.567   6.951   3.106
 9313SOL    HW228839   6.512   6.975   2.954
 9314SOL     OW28840   5.315   4.354   0.135
 9314SOL    HW128841   5.240   4.410   0.099
 9314SOL    HW228842   5.381   4.412   0.181
 9315SOL     OW28843   0.293   6.530   6.203
 9315SOL    HW128844   0.195   6.520   6.185
 9315SOL    HW228845   0.306   6.565   6.296
 9316SOL     OW28846   4.114   5.936   3.612
 9316SOL    HW128847   4.106   6.033   3.593
 9316SOL    HW228848   4.023   5.894   3.610
 9317SOL     OW28849   6.326   4.427   4.089
 9317SOL    HW128850   6.275   4.502   4.047
 9317SOL    HW228851   6.392   4.464   4.154
 9318SOL     OW28852   6.562   0.007   6.054
 9318SOL    HW128853   6.484   0.069   6.051
 9318SOL    HW228854   6.530   6.941   6.077
 9319SOL     OW28855   0.253   3.351   5.200
 9319SOL    HW128856   0.253   3.436   5.253
 9319SOL    HW228857   0.179   3.292   5.234
 9320SOL     OW28858   4.650   2.520   6.321
 9320SOL    HW128859   4.699   2.433   6.329
 9320SOL    HW228860   4.698   2.590   6.373
 9321SOL     OW28861   6.562   5.709   3.055
 9321SOL    HW128862   6.500   5.644   3.099
 9321SOL    HW228863   6.646   5.716   3.109
 9322SOL     OW28864   0.917   6.075   6.684
 9322SOL    HW128865   0.973   6.149   6.723
 9322SOL    HW228866   0.920   5.996   6.745
 9323SOL     OW28867   0.224   0.807   6.080
 9323SOL    HW128868   0.294   0.822   6.010
 9323SOL    HW228869   0.191   0.713   6.075
 9324SOL     OW28870   1.746   5.596   0.073
 9324SOL    HW128871   1.795   5.649   0.142
 9324SOL    HW228872   1.811   5.558   0.007
 9325SOL     OW28873   6.200   2.331   0.876
 9325SOL    HW128874   6.108   2.292   0.885
 9325SOL    HW228875   6.237   2.350   0.967
 9326SOL     OW28876   2.153   6.498   1.334
 9326SOL    HW128877   2.088   6.422   1.337
 9326SOL    HW228878   2.240   6.469   1.372
 9327SOL     OW28879   4.107   1.348   3.210
 9327SOL    HW128880   4.045   1.270   3.206
 9327SOL    HW228881   4.155   1.358   3.123
 9328SOL     OW28882   3.338   1.163   1.855
 9328SOL    HW128883   3.288   1.098   1.797
 9328SOL    HW228884   3.276   1.236   1.884
 9329SOL     OW28885   1.637   3.473   1.427
 9329SOL    HW128886   1.592   3.534   1.493
 9329SOL    HW228887   1.698   3.527   1.369
 9330SOL     OW28888   5.657   0.716   6.907
 9330SOL    HW128889   5.719   0.673   6.973
 9330SOL    HW228890   5.706   0.737   6.823
 9331SOL     OW28891   0.634   1.105   0.060
 9331SOL    HW128892   0.539   1.135   0.058
 9331SOL    HW228893   0.656   1.058   7.001
 9332SOL     OW28894   3.472   3.280   4.210
 9332SOL    HW128895   3.451   3.370   4.249
 9332SOL    HW228896   3.533   3.231   4.271
 9333SOL     OW28897   5.883   4.881   1.038
 9333SOL    HW128898   5.891   4.953   0.968
 9333SOL    HW228899   5.825   4.807   1.003
 9334SOL     OW28900   2.717   6.725   5.113
 9334SOL    HW128901   2.626   6.765   5.104
 9334SOL    HW228902   2.768   6.773   5.184
 9335SOL     OW28903   0.386   0.803   0.584
 9335SOL    HW128904   0.475   0.815   0.626
 9335SOL    HW228905   0.386   0.847   0.494
 9336SOL     OW28906   3.059   6.782   5.680
 9336SOL    HW128907   3.118   6.863   5.678
 9336SOL    HW228908   3.042   6.756   5.775
 9337SOL     OW28909   5.353   0.492   2.685
 9337SOL    HW128910   5.403   0.523   2.603
 9337SOL    HW228911   5.262   0.460   2.658
 9338SOL     OW28912   3.673   0.253   1.721
 9338SOL    HW128913   3.705   0.158   1.717
 9338SOL    HW228914   3.637   0.279   1.631
 9339SOL     OW28915   4.517   6.347   0.829
 9339SOL    HW128916   4.502   6.377   0.734
 9339SOL    HW228917   4.615   6.338   0.845
 9340SOL     OW28918   6.183   3.402   0.250
 9340SOL    HW128919   6.169   3.304   0.264
 9340SOL    HW228920   6.127   3.433   0.172
 9341SOL     OW28921   0.221   5.353   6.339
 9341SOL    HW128922   0.186   5.392   6.253
 9341SOL    HW228923   0.249   5.258   6.323
 9342SOL     OW28924   1.236   6.336   6.090
 9342SOL    HW128925   1.232   6.258   6.026
 9342SOL    HW228926   1.147   6.381   6.093
 9343SOL     OW28927   6.061   5.544   5.017
 9343SOL    HW128928   6.099   5.635   5.000
 9343SOL    HW228929   6.026   5.506   4.931
 9344SOL     OW28930   4.814   6.862   1.604
 9344SOL    HW128931   4.725   6.905   1.590
 9344SOL    HW228932   4.831   6.853   1.703
 9345SOL     OW28933   6.582   2.888   1.015
 9345SOL    HW128934   6.510   2.957   1.010
 9345SOL    HW228935   6.585   2.850   1.107
 9346SOL     OW28936   5.377   0.112   0.725
 9346SOL    HW128937   5.450   0.045   0.743
 9346SOL    HW228938   5.408   0.203   0.751
 9347SOL     OW28939   1.519   6.811   1.939
 9347SOL    HW128940   1.520   6.712   1.923
 9347SOL    HW228941   1.424   6.843   1.940
 9348SOL     OW28942   3.049   4.656   7.010
 9348SOL    HW128943   2.990   4.736   6.999
 9348SOL    HW228944   3.029   4.612   0.070
 9349SOL     OW28945   1.828   6.552   2.771
 9349SOL    HW128946   1.812   6.628   2.708
 9349SOL    HW228947   1.927   6.538   2.781
 9350SOL     OW28948   0.628   2.889   6.080
 9350SOL    HW128949   0.614   2.957   6.152
 9350SOL    HW228950   0.639   2.798   6.121
 9351SOL     OW28951   2.672   1.503   6.792
 9351SOL    HW128952   2.609   1.443   6.743
 9351SOL    HW228953   2.625   1.545   6.869
 9352SOL     OW28954   2.610   4.727   5.623
 9352SOL    HW128955   2.574   4.696   5.535
 9352SOL    HW228956   2.707   4.748   5.614
 9353SOL     OW28957   6.715   0.307   1.229
 9353SOL    HW128958   6.672   0.218   1.213
 9353SOL    HW228959   6.648   0.379   1.215
 9354SOL     OW28960   0.336   2.150   6.714
 9354SOL    HW128961   0.291   2.144   6.626
 9354SOL    HW228962   0.414   2.087   6.716
 9355SOL     OW28963   0.735   1.605   5.641
 9355SOL    HW128964   0.811   1.626   5.703
 9355SOL    HW228965   0.768   1.605   5.547
 9356SOL     OW28966   5.545   6.749   3.005
 9356SOL    HW128967   5.503   6.820   2.949
 9356SOL    HW228968   5.481   6.721   3.077
 9357SOL     OW28969   0.951   2.113   0.089
 9357SOL    HW128970   1.018   2.061   0.142
 9357SOL    HW228971   0.886   2.050   0.046
 9358SOL     OW28972   0.694   3.358   1.278
 9358SOL    HW128973   0.661   3.372   1.185
 9358SOL    HW228974   0.684   3.262   1.303
 9359SOL     OW28975   1.544   0.428   5.448
 9359SOL    HW128976   1.449   0.427   5.417
 9359SOL    HW228977   1.600   0.475   5.381
 9360SOL     OW28978   1.197   6.779   6.225
 9360SOL    HW128979   1.223   6.781   6.129
 9360SOL    HW228980   1.278   6.800   6.281
 9361SOL     OW28981   1.804   6.136   4.089
 9361SOL    HW128982   1.890   6.115   4.042
 9361SOL    HW228983   1.823   6.189   4.172
 9362SOL     OW28984   2.386   0.116   2.147
 9362SOL    HW128985   2.462   0.061   2.112
 9362SOL    HW228986   2.299   0.077   2.115
 9363SOL     OW28987   1.728   4.672   2.503
 9363SOL    HW128988   1.675   4.606   2.557
 9363SOL    HW228989   1.821   4.677   2.539
 9364SOL     OW28990   1.145   2.450   1.183
 9364SOL    HW128991   1.158   2.382   1.255
 9364SOL    HW228992   1.158   2.542   1.221
 9365SOL     OW28993   2.951   1.662   4.219
 9365SOL    HW128994   2.851   1.659   4.223
 9365SOL    HW228995   2.987   1.570   4.229
 9366SOL     OW28996   4.027   5.727   1.931
 9366SOL    HW128997   3.966   5.648   1.921
 9366SOL    HW228998   4.030   5.756   2.026
 9367SOL     OW28999   0.039   0.745   1.598
 9367SOL    HW129000   0.096   0.672   1.559
 9367SOL    HW229001   0.092   0.797   1.665
 9368SOL     OW29002   2.861   0.079   3.224
 9368SOL    HW129003   2.943   0.052   3.172
 9368SOL    HW229004   2.835   0.005   3.286
 9369SOL     OW29005   3.288   5.548   0.387
 9369SOL    HW129006   3.230   5.469   0.367
 9369SOL    HW229007   3.331   5.537   0.476
 9370SOL     OW29008   4.553   1.792   4.528
 9370SOL    HW129009   4.585   1.857   4.459
 9370SOL    HW229010   4.557   1.699   4.491
 9371SOL     OW29011   4.412   5.654   1.271
 9371SOL    HW129012   4.492   5.709   1.245
 9371SOL    HW229013   4.372   5.613   1.190
 9372SOL     OW29014   4.489   6.207   1.745
 9372SOL    HW129015   4.402   6.211   1.794
 9372SOL    HW229016   4.528   6.300   1.738
 9373SOL     OW29017   0.007   2.411   1.161
 9373SOL    HW129018   6.992   2.414   1.069
 9373SOL    HW229019   0.080   2.343   1.162
 9374SOL     OW29020   0.222   5.432   5.510
 9374SOL    HW129021   0.136   5.435   5.561
 9374SOL    HW229022   0.204   5.404   5.416
 9375SOL     OW29023   0.411   0.966   0.345
 9375SOL    HW129024   0.450   1.027   0.414
 9375SOL    HW229025   0.481   0.903   0.311
 9376SOL     OW29026   2.390   4.017   1.586
 9376SOL    HW129027   2.451   4.091   1.614
 9376SOL    HW229028   2.431   3.967   1.509
 9377SOL     OW29029   1.689   0.944   3.321
 9377SOL    HW129030   1.693   1.005   3.399
 9377SOL    HW229031   1.595   0.913   3.307
 9378SOL     OW29032   3.491   1.038   4.766
 9378SOL    HW129033   3.498   0.959   4.704
 9378SOL    HW229034   3.433   1.108   4.724
 9379SOL     OW29035   4.940   6.609   4.554
 9379SOL    HW129036   4.985   6.520   4.569
 9379SOL    HW229037   4.930   6.625   4.456
 9380SOL     OW29038   5.244   5.779   0.016
 9380SOL    HW129039   5.315   5.808   6.978
 9380SOL    HW229040   5.227   5.852   0.081
 9381SOL     OW29041   5.561   1.374   4.980
 9381SOL    HW129042   5.496   1.317   4.931
 9381SOL    HW229043   5.645   1.322   4.996
 9382SOL     OW29044   3.041   5.806   5.677
 9382SOL    HW129045   3.059   5.774   5.770
 9382SOL    HW229046   3.011   5.729   5.621
 9383SOL     OW29047   5.735   3.995   2.825
 9383SOL    HW129048   5.769   4.089   2.821
 9383SOL    HW229049   5.675   3.985   2.904
 9384SOL     OW29050   2.500   0.630   1.959
 9384SOL    HW129051   2.539   0.685   1.885
 9384SOL    HW229052   2.545   0.654   2.046
 9385SOL     OW29053   4.568   1.723   4.040
 9385SOL    HW129054   4.604   1.698   3.950
 9385SOL    HW229055   4.517   1.809   4.032
 9386SOL     OW29056   5.043   5.933   0.397
 9386SOL    HW129057   5.117   5.938   0.465
 9386SOL    HW229058   4.955   5.944   0.443
 9387SOL     OW29059   2.781   2.146   0.214
 9387SOL    HW129060   2.840   2.227   0.210
 9387SOL    HW229061   2.835   2.065   0.194
 9388SOL     OW29062   2.063   0.068   5.406
 9388SOL    HW129063   2.091   7.007   5.367
 9388SOL    HW229064   2.090   0.142   5.345
 9389SOL     OW29065   1.773   4.723   2.177
 9389SOL    HW129066   1.839   4.778   2.228
 9389SOL    HW229067   1.721   4.665   2.240
 9390SOL     OW29068   5.096   4.871   4.607
 9390SOL    HW129069   5.170   4.869   4.674
 9390SOL    HW229070   5.057   4.779   4.597
 9391SOL     OW29071   1.575   4.081   4.380
 9391SOL    HW129072   1.551   4.085   4.283
 9391SOL    HW229073   1.672   4.060   4.389
 9392SOL     OW29074   4.998   4.596   2.976
 9392SOL    HW129075   4.925   4.564   2.915
 9392SOL    HW229076   5.027   4.687   2.947
 9393SOL     OW29077   2.028   6.067   6.288
 9393SOL    HW129078   2.110   6.034   6.242
 9393SOL    HW229079   1.975   6.124   6.225
 9394SOL     OW29080   4.022   0.712   0.403
 9394SOL    HW129081   3.965   0.634   0.379
 9394SOL    HW229082   3.965   0.790   0.426
 9395SOL     OW29083   1.543   1.732   0.758
 9395SOL    HW129084   1.587   1.712   0.671
 9395SOL    HW229085   1.588   1.679   0.831
 9396SOL     OW29086   0.940   6.726   6.298
 9396SOL    HW129087   0.880   6.759   6.225
 9396SOL    HW229088   1.032   6.713   6.262
 9397SOL     OW29089   3.303   0.800   4.831
 9397SOL    HW129090   3.358   0.827   4.910
 9397SOL    HW229091   3.341   0.841   4.749
 9398SOL     OW29092   0.474   2.263   0.204
 9398SOL    HW129093   0.563   2.304   0.185
 9398SOL    HW229094   0.427   2.318   0.273
 9399SOL     OW29095   0.944   2.584   4.344
 9399SOL    HW129096   1.029   2.560   4.297
 9399SOL    HW229097   0.933   2.683   4.344
 9400SOL     OW29098   5.705   1.375   1.213
 9400SOL    HW129099   5.621   1.424   1.235
 9400SOL    HW229100   5.740   1.329   1.294
 9401SOL     OW29101   0.439   2.281   3.832
 9401SOL    HW129102   0.535   2.307   3.841
 9401SOL    HW229103   0.424   2.195   3.881
 9402SOL     OW29104   2.499   6.547   4.669
 9402SOL    HW129105   2.432   6.612   4.706
 9402SOL    HW229106   2.591   6.583   4.683
 9403SOL     OW29107   5.599   2.220   1.885
 9403SOL    HW129108   5.554   2.268   1.810
 9403SOL    HW229109   5.698   2.228   1.874
 9404SOL     OW29110   2.451   2.264   0.807
 9404SOL    HW129111   2.444   2.243   0.904
 9404SOL    HW229112   2.360   2.255   0.764
 9405SOL     OW29113   6.781   5.536   5.347
 9405SOL    HW129114   6.682   5.545   5.361
 9405SOL    HW229115   6.829   5.569   5.428
 9406SOL     OW29116   0.653   2.252   0.531
 9406SOL    HW129117   0.694   2.210   0.612
 9406SOL    HW229118   0.646   2.184   0.458
 9407SOL     OW29119   2.085   4.785   5.175
 9407SOL    HW129120   2.020   4.729   5.123
 9407SOL    HW229121   2.043   4.814   5.261
 9408SOL     OW29122   6.853   3.780   4.280
 9408SOL    HW129123   6.920   3.842   4.322
 9408SOL    HW229124   6.893   3.739   4.198
 9409SOL     OW29125   6.348   5.318   2.330
 9409SOL    HW129126   6.418   5.352   2.392
 9409SOL    HW229127   6.374   5.228   2.296
 9410SOL     OW29128   4.019   0.763   0.820
 9410SOL    HW129129   3.940   0.814   0.855
 9410SOL    HW229130   3.987   0.680   0.774
 9411SOL     OW29131   3.079   3.901   3.154
 9411SOL    HW129132   3.163   3.867   3.112
 9411SOL    HW229133   3.003   3.890   3.090
 9412SOL     OW29134   4.899   6.102   1.769
 9412SOL    HW129135   4.812   6.071   1.732
 9412SOL    HW229136   4.893   6.110   1.869
 9413SOL     OW29137   4.798   4.029   3.041
 9413SOL    HW129138   4.816   4.009   2.944
 9413SOL    HW229139   4.882   4.014   3.094
 9414SOL     OW29140   2.180   2.074   3.427
 9414SOL    HW129141   2.198   1.988   3.381
 9414SOL    HW229142   2.212   2.150   3.371
 9415SOL     OW29143   5.022   1.070   1.984
 9415SOL    HW129144   5.073   1.150   2.015
 9415SOL    HW229145   4.991   1.084   1.890
 9416SOL     OW29146   5.293   4.951   5.607
 9416SOL    HW129147   5.313   4.877   5.672
 9416SOL    HW229148   5.306   4.918   5.514
 9417SOL     OW29149   3.141   5.977   2.695
 9417SOL    HW129150   3.045   5.947   2.700
 9417SOL    HW229151   3.199   5.910   2.742
 9418SOL     OW29152   2.927   1.919   5.375
 9418SOL    HW129153   2.985   1.872   5.309
 9418SOL    HW229154   2.983   1.980   5.431
 9419SOL     OW29155   1.638   3.126   6.570
 9419SOL    HW129156   1.711   3.075   6.616
 9419SOL    HW229157   1.552   3.111   6.619
 9420SOL     OW29158   6.153   4.126   6.122
 9420SOL    HW129159   6.070   4.165   6.163
 9420SOL    HW229160   6.190   4.056   6.182
 9421SOL     OW29161   3.715   6.505   6.841
 9421SOL    HW129162   3.671   6.507   6.751
 9421SOL    HW229163   3.773   6.586   6.850
 9422SOL     OW29164   2.265   6.373   6.088
 9422SOL    HW129165   2.318   6.294   6.119
 9422SOL    HW229166   2.186   6.342   6.035
 9423SOL     OW29167   4.389   4.652   2.351
 9423SOL    HW129168   4.454   4.597   2.299
 9423SOL    HW229169   4.318   4.687   2.290
 9424SOL     OW29170   6.028   0.316   4.072
 9424SOL    HW129171   6.120   0.285   4.049
 9424SOL    HW229172   6.024   0.340   4.169
 9425SOL     OW29173   6.815   3.932   0.984
 9425SOL    HW129174   6.806   3.994   0.906
 9425SOL    HW229175   6.907   3.892   0.984
 9426SOL     OW29176   6.079   3.014   6.124
 9426SOL    HW129177   5.998   3.056   6.164
 9426SOL    HW229178   6.100   3.057   6.037
 9427SOL     OW29179   4.603   4.391   2.669
 9427SOL    HW129180   4.636   4.344   2.587
 9427SOL    HW229181   4.619   4.333   2.749
 9428SOL     OW29182   1.240   5.980   5.627
 9428SOL    HW129183   1.157   5.949   5.580
 9428SOL    HW229184   1.320   5.940   5.583
 9429SOL     OW29185   2.398   2.728   4.343
 9429SOL    HW129186   2.486   2.703   4.384
 9429SOL    HW229187   2.323   2.686   4.393
 9430SOL     OW29188   1.489   1.837   4.049
 9430SOL    HW129189   1.572   1.821   4.103
 9430SOL    HW229190   1.413   1.860   4.111
 9431SOL     OW29191   0.595   4.520   5.741
 9431SOL    HW129192   0.591   4.470   5.655
 9431SOL    HW229193   0.690   4.539   5.764
 9432SOL     OW29194   6.968   0.864   4.051
 9432SOL    HW129195   0.021   0.813   4.020
 9432SOL    HW229196   6.924   0.908   3.972
 9433SOL     OW29197   4.661   5.714   1.770
 9433SOL    HW129198   4.752   5.718   1.729
 9433SOL    HW229199   4.633   5.805   1.799
 9434SOL     OW29200   4.217   5.756   3.783
 9434SOL    HW129201   4.166   5.671   3.768
 9434SOL    HW229202   4.178   5.829   3.727
 9435SOL     OW29203   6.463   3.838   0.875
 9435SOL    HW129204   6.555   3.855   0.912
 9435SOL    HW229205   6.412   3.781   0.939
 9436SOL     OW29206   2.587   0.587   3.144
 9436SOL    HW129207   2.527   0.647   3.091
 9436SOL    HW229208   2.617   0.634   3.227
 9437SOL     OW29209   5.335   0.828   4.938
 9437SOL    HW129210   5.284   0.750   4.975
 9437SOL    HW229211   5.416   0.794   4.891
 9438SOL     OW29212   4.775   0.296   2.473
 9438SOL    HW129213   4.830   0.290   2.390
 9438SOL    HW229214   4.815   0.238   2.544
 9439SOL     OW29215   1.630   3.906   0.815
 9439SOL    HW129216   1.584   3.995   0.816
 9439SOL    HW229217   1.658   3.885   0.721
 9440SOL     OW29218   1.937   4.976   3.404
 9440SOL    HW129219   1.922   4.966   3.503
 9440SOL    HW229220   1.849   4.973   3.357
 9441SOL     OW29221   0.139   6.745   4.544
 9441SOL    HW129222   0.085   6.817   4.586
 9441SOL    HW229223   0.105   6.728   4.451
 9442SOL     OW29224   5.696   3.186   1.088
 9442SOL    HW129225   5.657   3.107   1.135
 9442SOL    HW229226   5.622   3.248   1.060
 9443SOL     OW29227   1.839   4.649   1.922
 9443SOL    HW129228   1.791   4.704   1.854
 9443SOL    HW229229   1.810   4.676   2.013
 9444SOL     OW29230   2.214   4.742   6.608
 9444SOL    HW129231   2.292   4.718   6.549
 9444SOL    HW229232   2.208   4.677   6.683
 9445SOL     OW29233   6.987   1.683   4.314
 9445SOL    HW129234   0.051   1.696   4.274
 9445SOL    HW229235   6.997   1.641   4.405
 9446SOL     OW29236   6.097   3.820   4.668
 9446SOL    HW129237   6.142   3.904   4.639
 9446SOL    HW229238   6.121   3.746   4.605
 9447SOL     OW29239   4.938   4.086   2.015
 9447SOL    HW129240   4.889   4.086   2.103
 9447SOL    HW229241   5.017   4.147   2.021
 9448SOL     OW29242   6.389   2.011   6.295
 9448SOL    HW129243   6.299   1.971   6.313
 9448SOL    HW229244   6.434   2.032   6.382
 9449SOL     OW29245   5.634   7.015   2.530
 9449SOL    HW129246   5.593   0.056   2.469
 9449SOL    HW229247   5.562   6.962   2.575
 9450SOL     OW29248   1.222   6.310   3.519
 9450SOL    HW129249   1.184   6.322   3.611
 9450SOL    HW229250   1.311   6.354   3.513
 9451SOL     OW29251   3.979   5.314   0.118
 9451SOL    HW129252   3.923   5.232   0.131
 9451SOL    HW229253   4.006   5.350   0.208
 9452SOL     OW29254   6.147   4.399   6.570
 9452SOL    HW129255   6.100   4.451   6.499
 9452SOL    HW229256   6.244   4.423   6.570
 9453SOL     OW29257   5.387   4.632   1.494
 9453SOL    HW129258   5.436   4.574   1.428
 9453SOL    HW229259   5.324   4.576   1.548
 9454SOL     OW29260   6.145   5.049   0.264
 9454SOL    HW129261   6.058   5.099   0.267
 9454SOL    HW229262   6.138   4.974   0.198
 9455SOL     OW29263   3.934   0.976   1.877
 9455SOL    HW129264   4.018   0.993   1.825
 9455SOL    HW229265   3.957   0.965   1.974
 9456SOL     OW29266   6.628   1.884   3.449
 9456SOL    HW129267   6.686   1.945   3.396
 9456SOL    HW229268   6.623   1.916   3.544
 9457SOL     OW29269   6.429   6.024   4.723
 9457SOL    HW129270   6.345   6.051   4.770
 9457SOL    HW229271   6.428   6.056   4.629
 9458SOL     OW29272   6.098   3.905   6.957
 9458SOL    HW129273   6.129   3.859   6.874
 9458SOL    HW229274   6.175   3.915   7.021
 9459SOL     OW29275   4.693   4.352   4.884
 9459SOL    HW129276   4.638   4.431   4.911
 9459SOL    HW229277   4.697   4.348   4.784
 9460SOL     OW29278   1.069   3.252   2.064
 9460SOL    HW129279   1.039   3.196   2.142
 9460SOL    HW229280   1.141   3.314   2.093
 9461SOL     OW29281   1.754   1.393   1.618
 9461SOL    HW129282   1.836   1.448   1.605
 9461SOL    HW229283   1.675   1.440   1.578
 9462SOL     OW29284   6.888   1.200   4.869
 9462SOL    HW129285   6.854   1.167   4.956
 9462SOL    HW229286   6.874   1.131   4.798
 9463SOL     OW29287   6.285   4.378   1.016
 9463SOL    HW129288   6.317   4.394   0.923
 9463SOL    HW229289   6.221   4.302   1.017
 9464SOL     OW29290   1.277   0.355   1.532
 9464SOL    HW129291   1.350   0.288   1.546
 9464SOL    HW229292   1.314   0.436   1.488
 9465SOL     OW29293   6.770   5.503   0.646
 9465SOL    HW129294   6.703   5.572   0.675
 9465SOL    HW229295   6.721   5.422   0.612
 9466SOL     OW29296   4.523   3.807   5.670
 9466SOL    HW129297   4.614   3.846   5.684
 9466SOL    HW229298   4.530   3.708   5.662
 9467SOL     OW29299   1.517   2.777   1.085
 9467SOL    HW129300   1.479   2.692   1.047
 9467SOL    HW229301   1.470   2.855   1.045
 9468SOL     OW29302   5.845   1.085   0.827
 9468SOL    HW129303   5.791   1.158   0.785
 9468SOL    HW229304   5.798   1.051   0.909
 9469SOL     OW29305   6.742   6.680   1.404
 9469SOL    HW129306   6.758   6.595   1.354
 9469SOL    HW229307   6.746   6.662   1.502
 9470SOL     OW29308   3.562   2.987   0.280
 9470SOL    HW129309   3.644   3.021   0.234
 9470SOL    HW229310   3.587   2.912   0.341
 9471SOL     OW29311   6.363   2.431   4.797
 9471SOL    HW129312   6.311   2.499   4.746
 9471SOL    HW229313   6.306   2.394   4.870
 9472SOL     OW29314   1.678   3.834   5.732
 9472SOL    HW129315   1.648   3.739   5.728
 9472SOL    HW229316   1.642   3.876   5.816
 9473SOL     OW29317   2.818   3.948   1.189
 9473SOL    HW129318   2.789   3.898   1.107
 9473SOL    HW229319   2.897   3.902   1.229
 9474SOL     OW29320   5.164   4.128   0.960
 9474SOL    HW129321   5.245   4.101   0.907
 9474SOL    HW229322   5.128   4.214   0.924
 9475SOL     OW29323   4.849   4.047   5.607
 9475SOL    HW129324   4.777   4.100   5.651
 9475SOL    HW229325   4.858   4.074   5.511
 9476SOL     OW29326   4.306   3.702   1.298
 9476SOL    HW129327   4.246   3.624   1.318
 9476SOL    HW229328   4.250   3.778   1.265
 9477SOL     OW29329   2.940   4.626   0.244
 9477SOL    HW129330   2.908   4.571   0.321
 9477SOL    HW229331   2.861   4.655   0.189
 9478SOL     OW29332   5.849   3.761   6.306
 9478SOL    HW129333   5.919   3.797   6.368
 9478SOL    HW229334   5.803   3.837   6.261
 9479SOL     OW29335   4.690   0.725   1.574
 9479SOL    HW129336   4.648   0.815   1.589
 9479SOL    HW229337   4.788   0.732   1.592
 9480SOL     OW29338   5.761   0.559   1.267
 9480SOL    HW129339   5.785   0.495   1.194
 9480SOL    HW229340   5.706   0.634   1.230
 9481SOL     OW29341   4.621   0.474   3.442
 9481SOL    HW129342   4.708   0.474   3.393
 9481SOL    HW229343   4.555   0.420   3.391
 9482SOL     OW29344   6.188   5.639   6.462
 9482SOL    HW129345   6.205   5.541   6.465
 9482SOL    HW229346   6.270   5.687   6.432
 9483SOL     OW29347   6.762   6.733   0.028
 9483SOL    HW129348   6.737   6.679   0.109
 9483SOL    HW229349   6.683   6.740   6.994
 9484SOL     OW29350   3.058   5.755   4.770
 9484SOL    HW129351   3.122   5.802   4.831
 9484SOL    HW229352   2.972   5.806   4.766
 9485SOL     OW29353   0.031   1.069   5.993
 9485SOL    HW129354   7.017   1.158   6.012
 9485SOL    HW229355   0.101   1.049   6.062
 9486SOL     OW29356   6.545   5.384   6.792
 9486SOL    HW129357   6.600   5.463   6.820
 9486SOL    HW229358   6.453   5.392   6.830
 9487SOL     OW29359   3.338   3.816   3.058
 9487SOL    HW129360   3.352   3.740   3.121
 9487SOL    HW229361   3.342   3.783   2.964
 9488SOL     OW29362   1.356   0.587   1.376
 9488SOL    HW129363   1.377   0.681   1.399
 9488SOL    HW229364   1.345   0.578   1.277
 9489SOL     OW29365   5.451   3.266   0.357
 9489SOL    HW129366   5.511   3.334   0.399
 9489SOL    HW229367   5.465   3.177   0.401
 9490SOL     OW29368   5.503   3.366   5.013
 9490SOL    HW129369   5.418   3.354   4.962
 9490SOL    HW229370   5.580   3.354   4.951
 9491SOL     OW29371   5.455   0.238   2.629
 9491SOL    HW129372   5.420   0.314   2.684
 9491SOL    HW229373   5.525   0.273   2.566
 9492SOL     OW29374   5.262   2.773   3.633
 9492SOL    HW129375   5.203   2.710   3.684
 9492SOL    HW229376   5.243   2.867   3.662
 9493SOL     OW29377   3.805   6.250   1.113
 9493SOL    HW129378   3.779   6.272   1.207
 9493SOL    HW229379   3.722   6.238   1.058
 9494SOL     OW29380   5.864   1.835   1.829
 9494SOL    HW129381   5.951   1.787   1.844
 9494SOL    HW229382   5.837   1.882   1.913
 9495SOL     OW29383   6.284   2.452   1.136
 9495SOL    HW129384   6.214   2.453   1.208
 9495SOL    HW229385   6.314   2.545   1.118
 9496SOL     OW29386   5.839   1.969   1.558
 9496SOL    HW129387   5.798   1.885   1.522
 9496SOL    HW229388   5.829   1.970   1.658
 9497SOL     OW29389   4.542   4.609   4.928
 9497SOL    HW129390   4.522   4.677   4.857
 9497SOL    HW229391   4.459   4.588   4.979
 9498SOL     OW29392   1.035   5.376   4.294
 9498SOL    HW129393   0.946   5.335   4.272
 9498SOL    HW229394   1.091   5.309   4.343
 9499SOL     OW29395   5.498   5.671   4.539
 9499SOL    HW129396   5.477   5.768   4.539
 9499SOL    HW229397   5.592   5.657   4.570
 9500SOL     OW29398   3.125   1.826   0.620
 9500SOL    HW129399   3.065   1.885   0.566
 9500SOL    HW229400   3.180   1.883   0.681
 9501SOL     OW29401   2.068   3.893   4.879
 9501SOL    HW129402   1.999   3.948   4.833
 9501SOL    HW229403   2.144   3.952   4.907
 9502SOL     OW29404   5.204   4.855   3.994
 9502SOL    HW129405   5.196   4.916   3.915
 9502SOL    HW229406   5.283   4.795   3.983
 9503SOL     OW29407   6.040   0.812   0.669
 9503SOL    HW129408   6.071   0.750   0.596
 9503SOL    HW229409   5.940   0.812   0.672
 9504SOL     OW29410   6.288   5.708   1.784
 9504SOL    HW129411   6.295   5.610   1.765
 9504SOL    HW229412   6.209   5.725   1.842
 9505SOL     OW29413   4.791   4.195   6.169
 9505SOL    HW129414   4.891   4.192   6.173
 9505SOL    HW229415   4.762   4.263   6.103
 9506SOL     OW29416   2.699   0.964   1.020
 9506SOL    HW129417   2.612   1.012   1.014
 9506SOL    HW229418   2.685   0.873   1.059
 9507SOL     OW29419   5.846   0.105   2.686
 9507SOL    HW129420   5.890   0.043   2.751
 9507SOL    HW229421   5.768   0.058   2.643
 9508SOL     OW29422   4.592   1.517   2.349
 9508SOL    HW129423   4.521   1.451   2.373
 9508SOL    HW229424   4.549   1.604   2.323
 9509SOL     OW29425   5.551   1.019   3.262
 9509SOL    HW129426   5.464   0.990   3.303
 9509SOL    HW229427   5.592   0.941   3.214
 9510SOL     OW29428   1.950   2.693   3.292
 9510SOL    HW129429   1.917   2.600   3.304
 9510SOL    HW229430   1.873   2.754   3.272
 9511SOL     OW29431   0.178   1.753   0.950
 9511SOL    HW129432   0.202   1.695   1.028
 9511SOL    HW229433   0.145   1.842   0.983
 9512SOL     OW29434   6.759   1.709   1.707
 9512SOL    HW129435   6.806   1.620   1.711
 9512SOL    HW229436   6.764   1.753   1.796
 9513SOL     OW29437   4.591   4.104   5.467
 9513SOL    HW129438   4.594   4.152   5.555
 9513SOL    HW229439   4.497   4.105   5.432
 9514SOL     OW29440   3.866   2.841   6.985
 9514SOL    HW129441   3.947   2.785   6.970
 9514SOL    HW229442   3.824   2.817   0.046
 9515SOL     OW29443   0.837   5.453   3.713
 9515SOL    HW129444   0.753   5.451   3.658
 9515SOL    HW229445   0.916   5.450   3.652
 9516SOL     OW29446   6.825   4.086   6.614
 9516SOL    HW129447   6.741   4.041   6.645
 9516SOL    HW229448   6.886   4.018   6.573
 9517SOL     OW29449   0.474   6.402   1.469
 9517SOL    HW129450   0.540   6.398   1.544
 9517SOL    HW229451   0.457   6.497   1.445
 9518SOL     OW29452   1.019   0.388   0.856
 9518SOL    HW129453   1.107   0.388   0.809
 9518SOL    HW229454   1.034   0.409   0.953
 9519SOL     OW29455   0.903   2.967   5.350
 9519SOL    HW129456   0.988   2.917   5.334
 9519SOL    HW229457   0.861   2.990   5.262
 9520SOL     OW29458   4.051   6.878   1.735
 9520SOL    HW129459   4.093   6.841   1.652
 9520SOL    HW229460   4.121   6.919   1.793
 9521SOL     OW29461   5.195   5.693   3.128
 9521SOL    HW129462   5.258   5.615   3.117
 9521SOL    HW229463   5.134   5.675   3.205
 9522SOL     OW29464   3.060   5.899   0.186
 9522SOL    HW129465   2.979   5.908   0.243
 9522SOL    HW229466   3.090   5.989   0.155
 9523SOL     OW29467   2.774   6.460   6.016
 9523SOL    HW129468   2.729   6.547   5.999
 9523SOL    HW229469   2.769   6.403   5.934
 9524SOL     OW29470   4.553   2.431   1.178
 9524SOL    HW129471   4.572   2.492   1.101
 9524SOL    HW229472   4.525   2.341   1.144
 9525SOL     OW29473   4.038   0.208   4.956
 9525SOL    HW129474   3.985   0.287   4.987
 9525SOL    HW229475   4.135   0.232   4.949
 9526SOL     OW29476   4.567   6.423   2.144
 9526SOL    HW129477   4.482   6.415   2.092
 9526SOL    HW229478   4.610   6.511   2.123
 9527SOL     OW29479   6.744   2.155   1.398
 9527SOL    HW129480   6.821   2.094   1.380
 9527SOL    HW229481   6.699   2.127   1.483
 9528SOL     OW29482   6.823   0.956   1.628
 9528SOL    HW129483   6.914   0.921   1.649
 9528SOL    HW229484   6.814   0.969   1.529
 9529SOL     OW29485   0.979   3.840   5.070
 9529SOL    HW129486   0.969   3.902   5.148
 9529SOL    HW229487   0.954   3.748   5.098
 9530SOL     OW29488   1.418   2.668   4.288
 9530SOL    HW129489   1.515   2.688   4.301
 9530SOL    HW229490   1.400   2.572   4.313
 9531SOL     OW29491   3.046   6.429   3.681
 9531SOL    HW129492   3.052   6.448   3.583
 9531SOL    HW229493   2.974   6.362   3.699
 9532SOL     OW29494   2.894   1.464   1.891
 9532SOL    HW129495   2.910   1.561   1.873
 9532SOL    HW229496   2.820   1.454   1.957
 9533SOL     OW29497   1.338   1.153   4.668
 9533SOL    HW129498   1.358   1.095   4.589
 9533SOL    HW229499   1.243   1.181   4.665
 9534SOL     OW29500   5.200   2.065   4.483
 9534SOL    HW129501   5.195   2.080   4.384
 9534SOL    HW229502   5.234   1.972   4.500
 9535SOL     OW29503   3.029   1.961   4.722
 9535SOL    HW129504   3.114   1.939   4.770
 9535SOL    HW229505   3.003   2.056   4.743
 9536SOL     OW29506   2.620   6.431   6.582
 9536SOL    HW129507   2.578   6.341   6.575
 9536SOL    HW229508   2.588   6.477   6.665
 9537SOL     OW29509   2.877   6.562   0.812
 9537SOL    HW129510   2.912   6.484   0.762
 9537SOL    HW229511   2.937   6.641   0.799
 9538SOL     OW29512   6.168   4.028   3.616
 9538SOL    HW129513   6.226   3.965   3.565
 9538SOL    HW229514   6.225   4.084   3.676
 9539SOL     OW29515   0.343   3.678   0.168
 9539SOL    HW129516   0.343   3.609   0.096
 9539SOL    HW229517   0.396   3.758   0.138
 9540SOL     OW29518   5.582   2.982   5.702
 9540SOL    HW129519   5.507   3.001   5.638
 9540SOL    HW229520   5.666   3.022   5.666
 9541SOL     OW29521   0.261   1.701   3.305
 9541SOL    HW129522   0.346   1.696   3.253
 9541SOL    HW229523   0.266   1.778   3.370
 9542SOL     OW29524   4.670   4.369   4.597
 9542SOL    HW129525   4.695   4.342   4.504
 9542SOL    HW229526   4.573   4.394   4.600
 9543SOL     OW29527   5.344   2.262   1.652
 9543SOL    HW129528   5.273   2.308   1.707
 9543SOL    HW229529   5.332   2.163   1.659
 9544SOL     OW29530   3.931   1.528   1.815
 9544SOL    HW129531   3.993   1.599   1.779
 9544SOL    HW229532   3.887   1.482   1.739
 9545SOL     OW29533   1.227   0.225   4.486
 9545SOL    HW129534   1.284   0.167   4.428
 9545SOL    HW229535   1.163   0.277   4.430
 9546SOL     OW29536   2.088   4.808   2.076
 9546SOL    HW129537   2.065   4.728   2.021
 9546SOL    HW229538   2.154   4.865   2.026
 9547SOL     OW29539   6.046   5.357   3.606
 9547SOL    HW129540   5.979   5.367   3.680
 9547SOL    HW229541   6.113   5.287   3.631
 9548SOL     OW29542   5.100   0.434   2.578
 9548SOL    HW129543   5.015   0.486   2.584
 9548SOL    HW229544   5.110   0.396   2.486
 9549SOL     OW29545   2.422   5.617   0.617
 9549SOL    HW129546   2.449   5.521   0.623
 9549SOL    HW229547   2.440   5.663   0.704
 9550SOL     OW29548   1.246   1.034   0.371
 9550SOL    HW129549   1.336   1.070   0.395
 9550SOL    HW229550   1.233   0.945   0.415
 9551SOL     OW29551   1.190   6.112   5.898
 9551SOL    HW129552   1.100   6.102   5.940
 9551SOL    HW229553   1.180   6.117   5.798
 9552SOL     OW29554   0.394   5.128   3.420
 9552SOL    HW129555   0.468   5.109   3.485
 9552SOL    HW229556   0.426   5.192   3.350
 9553SOL     OW29557   5.586   4.449   6.051
 9553SOL    HW129558   5.664   4.387   6.062
 9553SOL    HW229559   5.560   4.486   6.140
 9554SOL     OW29560   1.870   1.787   1.589
 9554SOL    HW129561   1.952   1.817   1.540
 9554SOL    HW229562   1.833   1.863   1.641
 9555SOL     OW29563   0.050   2.777   6.262
 9555SOL    HW129564   0.133   2.820   6.299
 9555SOL    HW229565   6.997   2.833   6.284
 9556SOL     OW29566   6.522   1.392   0.697
 9556SOL    HW129567   6.620   1.373   0.687
 9556SOL    HW229568   6.506   1.439   0.784
 9557SOL     OW29569   5.207   1.837   2.348
 9557SOL    HW129570   5.249   1.767   2.406
 9557SOL    HW229571   5.211   1.925   2.394
 9558SOL     OW29572   6.145   4.594   1.697
 9558SOL    HW129573   6.197   4.578   1.613
 9558SOL    HW229574   6.159   4.689   1.727
 9559SOL     OW29575   6.867   3.902   2.459
 9559SOL    HW129576   6.966   3.914   2.459
 9559SOL    HW229577   6.845   3.808   2.433
 9560SOL     OW29578   4.131   2.222   5.165
 9560SOL    HW129579   4.129   2.319   5.141
 9560SOL    HW229580   4.152   2.212   5.263
 9561SOL     OW29581   3.040   6.636   5.952
 9561SOL    HW129582   2.953   6.632   6.002
 9561SOL    HW229583   3.109   6.682   6.008
 9562SOL     OW29584   5.880   4.671   4.247
 9562SOL    HW129585   5.943   4.649   4.321
 9562SOL    HW229586   5.816   4.741   4.277
 9563SOL     OW29587   0.597   6.311   6.708
 9563SOL    HW129588   0.693   6.336   6.692
 9563SOL    HW229589   0.590   6.263   6.795
 9564SOL     OW29590   1.504   0.545   6.432
 9564SOL    HW129591   1.583   0.568   6.489
 9564SOL    HW229592   1.433   0.502   6.488
 9565SOL     OW29593   3.718   5.961   4.037
 9565SOL    HW129594   3.693   5.867   4.015
 9565SOL    HW229595   3.727   5.971   4.136
 9566SOL     OW29596   3.584   4.718   6.499
 9566SOL    HW129597   3.682   4.726   6.484
 9566SOL    HW229598   3.565   4.637   6.555
 9567SOL     OW29599   6.038   5.201   4.918
 9567SOL    HW129600   5.984   5.190   4.835
 9567SOL    HW229601   6.134   5.218   4.894
 9568SOL     OW29602   5.518   3.856   5.951
 9568SOL    HW129603   5.550   3.938   5.998
 9568SOL    HW229604   5.462   3.802   6.013
 9569SOL     OW29605   5.326   6.900   1.906
 9569SOL    HW129606   5.372   6.925   1.992
 9569SOL    HW229607   5.351   6.967   1.835
 9570SOL     OW29608   0.890   1.668   6.655
 9570SOL    HW129609   0.926   1.585   6.697
 9570SOL    HW229610   0.828   1.644   6.580
 9571SOL     OW29611   2.321   2.536   0.565
 9571SOL    HW129612   2.272   2.587   0.494
 9571SOL    HW229613   2.339   2.443   0.533
 9572SOL     OW29614   0.409   3.699   1.142
 9572SOL    HW129615   0.339   3.715   1.072
 9572SOL    HW229616   0.478   3.771   1.138
 9573SOL     OW29617   5.217   1.185   2.354
 9573SOL    HW129618   5.177   1.242   2.427
 9573SOL    HW229619   5.227   1.091   2.387
 9574SOL     OW29620   2.938   2.065   3.676
 9574SOL    HW129621   3.010   2.009   3.635
 9574SOL    HW229622   2.859   2.067   3.615
 9575SOL     OW29623   4.474   1.148   3.041
 9575SOL    HW129624   4.557   1.166   3.093
 9575SOL    HW229625   4.496   1.144   2.943
 9576SOL     OW29626   3.963   3.090   5.144
 9576SOL    HW129627   4.003   3.035   5.218
 9576SOL    HW229628   3.865   3.102   5.161
 9577SOL     OW29629   0.716   5.786   3.466
 9577SOL    HW129630   0.747   5.819   3.555
 9577SOL    HW229631   0.784   5.809   3.396
 9578SOL     OW29632   6.464   4.306   1.774
 9578SOL    HW129633   6.478   4.209   1.756
 9578SOL    HW229634   6.386   4.340   1.722
 9579SOL     OW29635   1.970   5.493   2.907
 9579SOL    HW129636   2.019   5.565   2.956
 9579SOL    HW229637   1.872   5.515   2.906
 9580SOL     OW29638   4.160   3.307   5.809
 9580SOL    HW129639   4.185   3.267   5.721
 9580SOL    HW229640   4.092   3.378   5.795
 9581SOL     OW29641   0.988   5.795   5.596
 9581SOL    HW129642   0.968   5.839   5.683
 9581SOL    HW229643   0.938   5.840   5.523
 9582SOL     OW29644   4.494   5.239   3.018
 9582SOL    HW129645   4.581   5.205   2.984
 9582SOL    HW229646   4.420   5.209   2.957
 9583SOL     OW29647   1.659   5.138   1.874
 9583SOL    HW129648   1.639   5.199   1.950
 9583SOL    HW229649   1.578   5.084   1.852
 9584SOL     OW29650   5.182   4.875   0.055
 9584SOL    HW129651   5.089   4.862   0.020
 9584SOL    HW229652   5.246   4.825   7.023
 9585SOL     OW29653   0.197   0.916   2.968
 9585SOL    HW129654   0.181   0.866   3.053
 9585SOL    HW229655   0.123   0.897   2.904
 9586SOL     OW29656   4.969   3.704   2.619
 9586SOL    HW129657   4.976   3.636   2.545
 9586SOL    HW229658   4.919   3.784   2.585
 9587SOL     OW29659   5.143   6.403   1.639
 9587SOL    HW129660   5.126   6.320   1.586
 9587SOL    HW229661   5.142   6.482   1.577
 9588SOL     OW29662   6.790   1.104   2.776
 9588SOL    HW129663   6.788   1.005   2.790
 9588SOL    HW229664   6.877   1.141   2.808
 9589SOL     OW29665   3.023   2.039   5.109
 9589SOL    HW129666   3.079   2.092   5.044
 9589SOL    HW229667   3.000   2.097   5.187
 9590SOL     OW29668   0.753   5.020   4.546
 9590SOL    HW129669   0.824   4.957   4.578
 9590SOL    HW229670   0.796   5.099   4.502
 9591SOL     OW29671   1.089   4.293   2.309
 9591SOL    HW129672   1.065   4.373   2.364
 9591SOL    HW229673   1.117   4.218   2.368
 9592SOL     OW29674   5.187   5.886   0.954
 9592SOL    HW129675   5.122   5.830   0.902
 9592SOL    HW229676   5.197   5.848   1.046
 9593SOL     OW29677   2.738   2.340   3.336
 9593SOL    HW129678   2.714   2.382   3.248
 9593SOL    HW229679   2.657   2.296   3.375
 9594SOL     OW29680   6.109   0.044   1.060
 9594SOL    HW129681   6.039   0.081   0.998
 9594SOL    HW229682   6.156   6.994   1.016
 9595SOL     OW29683   1.304   4.930   4.192
 9595SOL    HW129684   1.301   4.997   4.118
 9595SOL    HW229685   1.271   4.842   4.159
 9596SOL     OW29686   5.082   5.804   2.114
 9596SOL    HW129687   5.128   5.798   2.202
 9596SOL    HW229688   5.014   5.731   2.107
 9597SOL     OW29689   2.014   4.363   0.860
 9597SOL    HW129690   2.051   4.410   0.780
 9597SOL    HW229691   2.030   4.419   0.942
 9598SOL     OW29692   0.884   5.877   5.824
 9598SOL    HW129693   0.914   5.826   5.905
 9598SOL    HW229694   0.827   5.954   5.853
 9599SOL     OW29695   3.736   1.612   4.903
 9599SOL    HW129696   3.793   1.682   4.945
 9599SOL    HW229697   3.698   1.646   4.817
 9600SOL     OW29698   1.194   5.956   6.526
 9600SOL    HW129699   1.120   5.982   6.464
 9600SOL    HW229700   1.254   6.035   6.540
 9601SOL     OW29701   0.610   6.934   5.415
 9601SOL    HW129702   0.539   6.994   5.451
 9601SOL    HW229703   0.613   6.942   5.316
 9602SOL     OW29704   0.834   5.298   6.349
 9602SOL    HW129705   0.804   5.203   6.339
 9602SOL    HW229706   0.777   5.357   6.293
 9603SOL     OW29707   1.109   5.225   2.567
 9603SOL    HW129708   1.189   5.172   2.538
 9603SOL    HW229709   1.096   5.303   2.506
 9604SOL     OW29710   6.827   6.757   6.637
 9604SOL    HW129711   6.733   6.725   6.652
 9604SOL    HW229712   6.829   6.817   6.557
 9605SOL     OW29713   3.099   5.114   0.417
 9605SOL    HW129714   3.172   5.103   0.484
 9605SOL    HW229715   3.085   5.027   0.369
 9606SOL     OW29716   6.790   0.047   5.150
 9606SOL    HW129717   6.733   0.040   5.232
 9606SOL    HW229718   6.819   6.982   5.122
 9607SOL     OW29719   0.096   2.239   2.177
 9607SOL    HW129720   0.040   2.321   2.180
 9607SOL    HW229721   0.079   2.183   2.258
 9608SOL     OW29722   6.957   0.537   2.204
 9608SOL    HW129723   6.870   0.521   2.157
 9608SOL    HW229724   7.015   0.596   2.148
 9609SOL     OW29725   1.899   2.027   3.385
 9609SOL    HW129726   1.860   1.961   3.321
 9609SOL    HW229727   1.972   1.984   3.437
 9610SOL     OW29728   3.629   0.612   5.842
 9610SOL    HW129729   3.652   0.658   5.756
 9610SOL    HW229730   3.694   0.639   5.913
 9611SOL     OW29731   5.451   6.004   1.248
 9611SOL    HW129732   5.379   5.942   1.218
 9611SOL    HW229733   5.501   6.038   1.168
 9612SOL     OW29734   5.222   3.740   3.827
 9612SOL    HW129735   5.123   3.736   3.821
 9612SOL    HW229736   5.259   3.798   3.754
 9613SOL     OW29737   5.829   0.831   5.249
 9613SOL    HW129738   5.924   0.803   5.234
 9613SOL    HW229739   5.777   0.819   5.165
 9614SOL     OW29740   3.022   2.829   0.860
 9614SOL    HW129741   2.935   2.861   0.897
 9614SOL    HW229742   3.017   2.730   0.846
 9615SOL     OW29743   1.017   5.894   3.866
 9615SOL    HW129744   0.948   5.832   3.828
 9615SOL    HW229745   1.074   5.929   3.792
 9616SOL     OW29746   1.263   2.635   1.438
 9616SOL    HW129747   1.226   2.609   1.527
 9616SOL    HW229748   1.331   2.707   1.449
 9617SOL     OW29749   0.041   3.122   2.492
 9617SOL    HW129750   0.017   3.164   2.404
 9617SOL    HW229751   0.061   3.025   2.478
 9618SOL     OW29752   4.724   3.999   1.022
 9618SOL    HW129753   4.682   4.078   0.977
 9618SOL    HW229754   4.738   3.926   0.956
 9619SOL     OW29755   0.673   0.074   1.239
 9619SOL    HW129756   0.728   7.024   1.274
 9619SOL    HW229757   0.734   0.145   1.204
 9620SOL     OW29758   2.994   1.388   6.734
 9620SOL    HW129759   3.022   1.386   6.830
 9620SOL    HW229760   2.894   1.396   6.729
 9621SOL     OW29761   0.430   0.584   1.544
 9621SOL    HW129762   0.369   0.631   1.480
 9621SOL    HW229763   0.523   0.618   1.533
 9622SOL     OW29764   6.230   5.574   5.761
 9622SOL    HW129765   6.178   5.512   5.821
 9622SOL    HW229766   6.294   5.521   5.706
 9623SOL     OW29767   3.364   6.205   5.493
 9623SOL    HW129768   3.282   6.189   5.548
 9623SOL    HW229769   3.441   6.156   5.534
 9624SOL     OW29770   4.704   5.131   5.194
 9624SOL    HW129771   4.738   5.039   5.176
 9624SOL    HW229772   4.774   5.182   5.245
 9625SOL     OW29773   4.577   4.066   6.106
 9625SOL    HW129774   4.608   3.974   6.082
 9625SOL    HW229775   4.655   4.120   6.137
 9626SOL     OW29776   2.445   2.404   6.701
 9626SOL    HW129777   2.401   2.493   6.698
 9626SOL    HW229778   2.448   2.371   6.795
 9627SOL     OW29779   0.299   5.473   1.005
 9627SOL    HW129780   0.329   5.566   0.983
 9627SOL    HW229781   0.201   5.473   1.024
 9628SOL     OW29782   6.659   1.475   6.159
 9628SOL    HW129783   6.570   1.445   6.193
 9628SOL    HW229784   6.648   1.559   6.106
 9629SOL     OW29785   0.482   5.634   3.741
 9629SOL    HW129786   0.507   5.698   3.814
 9629SOL    HW229787   0.388   5.604   3.753
 9630SOL     OW29788   5.532   1.769   6.297
 9630SOL    HW129789   5.450   1.740   6.248
 9630SOL    HW229790   5.519   1.863   6.331
 9631SOL     OW29791   4.695   6.596   0.604
 9631SOL    HW129792   4.752   6.515   0.618
 9631SOL    HW229793   4.694   6.651   0.688
 9632SOL     OW29794   2.484   4.574   2.966
 9632SOL    HW129795   2.505   4.508   2.894
 9632SOL    HW229796   2.520   4.663   2.941
 9633SOL     OW29797   3.677   2.848   4.628
 9633SOL    HW129798   3.721   2.770   4.671
 9633SOL    HW229799   3.743   2.921   4.614
 9634SOL     OW29800   5.480   4.719   2.979
 9634SOL    HW129801   5.506   4.707   3.075
 9634SOL    HW229802   5.405   4.786   2.974
 9635SOL     OW29803   0.665   4.612   4.165
 9635SOL    HW129804   0.597   4.550   4.203
 9635SOL    HW229805   0.621   4.697   4.137
 9636SOL     OW29806   5.725   4.014   3.775
 9636SOL    HW129807   5.766   3.930   3.810
 9636SOL    HW229808   5.767   4.038   3.688
 9637SOL     OW29809   1.503   3.740   0.433
 9637SOL    HW129810   1.525   3.819   0.374
 9637SOL    HW229811   1.566   3.738   0.511
 9638SOL     OW29812   6.140   5.409   5.978
 9638SOL    HW129813   6.062   5.438   6.033
 9638SOL    HW229814   6.224   5.423   6.030
 9639SOL     OW29815   4.985   2.371   1.461
 9639SOL    HW129816   4.960   2.343   1.369
 9639SOL    HW229817   5.064   2.432   1.458
 9640SOL     OW29818   3.709   0.255   3.295
 9640SOL    HW129819   3.681   0.338   3.247
 9640SOL    HW229820   3.650   0.242   3.375
 9641SOL     OW29821   6.725   2.869   4.820
 9641SOL    HW129822   6.781   2.947   4.792
 9641SOL    HW229823   6.631   2.899   4.835
 9642SOL     OW29824   0.628   2.218   4.672
 9642SOL    HW129825   0.720   2.179   4.669
 9642SOL    HW229826   0.588   2.214   4.580
 9643SOL     OW29827   5.434   4.967   4.352
 9643SOL    HW129828   5.448   4.879   4.306
 9643SOL    HW229829   5.347   5.007   4.323
 9644SOL     OW29830   1.383   5.026   3.491
 9644SOL    HW129831   1.344   5.015   3.400
 9644SOL    HW229832   1.375   4.941   3.542
 9645SOL     OW29833   1.671   4.737   6.400
 9645SOL    HW129834   1.770   4.731   6.414
 9645SOL    HW229835   1.652   4.782   6.313
 9646SOL     OW29836   3.200   5.802   0.412
 9646SOL    HW129837   3.161   5.823   0.322
 9646SOL    HW229838   3.245   5.713   0.409
 9647SOL     OW29839   5.996   6.585   2.992
 9647SOL    HW129840   5.994   6.561   3.090
 9647SOL    HW229841   6.082   6.631   2.972
 9648SOL     OW29842   2.671   1.869   1.141
 9648SOL    HW129843   2.746   1.867   1.074
 9648SOL    HW229844   2.695   1.810   1.218
 9649SOL     OW29845   0.353   5.554   1.287
 9649SOL    HW129846   0.375   5.471   1.236
 9649SOL    HW229847   0.325   5.625   1.223
 9650SOL     OW29848   0.934   4.836   4.727
 9650SOL    HW129849   0.966   4.788   4.645
 9650SOL    HW229850   0.969   4.930   4.726
 9651SOL     OW29851   3.622   1.755   6.642
 9651SOL    HW129852   3.616   1.808   6.557
 9651SOL    HW229853   3.682   1.676   6.627
 9652SOL     OW29854   0.311   4.123   0.138
 9652SOL    HW129855   0.282   4.114   0.233
 9652SOL    HW229856   0.233   4.104   0.078
 9653SOL     OW29857   5.189   4.445   5.666
 9653SOL    HW129858   5.235   4.382   5.729
 9653SOL    HW229859   5.256   4.511   5.632
 9654SOL     OW29860   3.865   3.462   3.308
 9654SOL    HW129861   3.928   3.390   3.279
 9654SOL    HW229862   3.842   3.448   3.405
 9655SOL     OW29863   4.504   1.794   1.147
 9655SOL    HW129864   4.524   1.731   1.222
 9655SOL    HW229865   4.435   1.860   1.177
 9656SOL     OW29866   4.980   4.189   6.456
 9656SOL    HW129867   4.964   4.245   6.375
 9656SOL    HW229868   4.996   4.094   6.429
 9657SOL     OW29869   5.156   4.961   3.714
 9657SOL    HW129870   5.075   4.968   3.656
 9657SOL    HW229871   5.214   4.886   3.682
 9658SOL     OW29872   5.481   1.503   2.419
 9658SOL    HW129873   5.570   1.513   2.463
 9658SOL    HW229874   5.469   1.409   2.388
 9659SOL     OW29875   3.277   2.866   6.453
 9659SOL    HW129876   3.311   2.850   6.360
 9659SOL    HW229877   3.181   2.839   6.460
 9660SOL     OW29878   1.476   6.505   1.160
 9660SOL    HW129879   1.417   6.464   1.230
 9660SOL    HW229880   1.468   6.452   1.075
 9661SOL     OW29881   4.132   3.331   1.607
 9661SOL    HW129882   4.042   3.341   1.649
 9661SOL    HW229883   4.132   3.249   1.549
 9662SOL     OW29884   4.793   6.752   6.073
 9662SOL    HW129885   4.869   6.801   6.030
 9662SOL    HW229886   4.718   6.744   6.007
 9663SOL     OW29887   0.939   5.386   2.784
 9663SOL    HW129888   0.995   5.437   2.850
 9663SOL    HW229889   0.978   5.395   2.693
 9664SOL     OW29890   3.287   5.139   2.484
 9664SOL    HW129891   3.271   5.194   2.565
 9664SOL    HW229892   3.356   5.182   2.426
 9665SOL     OW29893   6.101   4.154   5.573
 9665SOL    HW129894   6.076   4.073   5.627
 9665SOL    HW229895   6.042   4.159   5.492
 9666SOL     OW29896   5.321   3.663   0.384
 9666SOL    HW129897   5.298   3.568   0.405
 9666SOL    HW229898   5.239   3.720   0.393
 9667SOL     OW29899   5.548   6.105   6.994
 9667SOL    HW129900   5.596   6.026   0.007
 9667SOL    HW229901   5.477   6.073   6.931
 9668SOL     OW29902   1.779   1.183   6.285
 9668SOL    HW129903   1.699   1.145   6.331
 9668SOL    HW229904   1.827   1.110   6.237
 9669SOL     OW29905   3.001   0.182   0.229
 9669SOL    HW129906   2.938   0.209   0.156
 9669SOL    HW229907   3.003   0.082   0.235
 9670SOL     OW29908   0.864   0.625   0.844
 9670SOL    HW129909   0.903   0.533   0.842
 9670SOL    HW229910   0.935   0.692   0.822
 9671SOL     OW29911   1.170   5.134   6.903
 9671SOL    HW129912   1.130   5.045   6.880
 9671SOL    HW229913   1.100   5.193   6.943
 9672SOL     OW29914   0.987   3.818   4.171
 9672SOL    HW129915   1.084   3.840   4.180
 9672SOL    HW229916   0.937   3.897   4.136
 9673SOL     OW29917   2.226   3.414   6.859
 9673SOL    HW129918   2.237   3.325   6.815
 9673SOL    HW229919   2.187   3.401   6.950
 9674SOL     OW29920   2.107   6.677   4.096
 9674SOL    HW129921   2.110   6.587   4.138
 9674SOL    HW229922   2.144   6.746   4.159
 9675SOL     OW29923   6.396   4.156   5.566
 9675SOL    HW129924   6.404   4.073   5.621
 9675SOL    HW229925   6.301   4.169   5.537
 9676SOL     OW29926   1.172   3.612   5.576
 9676SOL    HW129927   1.094   3.632   5.516
 9676SOL    HW229928   1.142   3.555   5.652
 9677SOL     OW29929   6.687   4.784   2.721
 9677SOL    HW129930   6.634   4.719   2.665
 9677SOL    HW229931   6.655   4.877   2.703
 9678SOL     OW29932   3.594   3.682   5.371
 9678SOL    HW129933   3.606   3.651   5.465
 9678SOL    HW229934   3.653   3.629   5.310
 9679SOL     OW29935   1.733   0.762   3.894
 9679SOL    HW129936   1.830   0.754   3.915
 9679SOL    HW229937   1.686   0.809   3.968
 9680SOL     OW29938   4.263   0.671   2.067
 9680SOL    HW129939   4.164   0.660   2.058
 9680SOL    HW229940   4.310   0.613   2.000
 9681SOL     OW29941   1.612   2.684   1.326
 9681SOL    HW129942   1.572   2.708   1.238
 9681SOL    HW229943   1.640   2.768   1.374
 9682SOL     OW29944   5.092   0.267   6.209
 9682SOL    HW129945   5.070   0.178   6.171
 9682SOL    HW229946   5.069   0.269   6.307
 9683SOL     OW29947   4.047   6.636   3.765
 9683SOL    HW129948   4.101   6.688   3.699
 9683SOL    HW229949   3.961   6.683   3.782
 9684SOL     OW29950   0.010   3.233   5.590
 9684SOL    HW129951   0.078   3.193   5.651
 9684SOL    HW229952   0.040   3.223   5.495
 9685SOL     OW29953   3.336   4.719   1.639
 9685SOL    HW129954   3.413   4.670   1.678
 9685SOL    HW229955   3.260   4.656   1.624
 9686SOL     OW29956   0.331   1.353   5.799
 9686SOL    HW129957   0.320   1.407   5.716
 9686SOL    HW229958   0.306   1.258   5.780
 9687SOL     OW29959   5.727   1.289   3.659
 9687SOL    HW129960   5.781   1.285   3.743
 9687SOL    HW229961   5.764   1.361   3.600
 9688SOL     OW29962   0.265   4.715   1.419
 9688SOL    HW129963   0.282   4.813   1.424
 9688SOL    HW229964   0.192   4.696   1.353
 9689SOL     OW29965   1.624   5.626   1.435
 9689SOL    HW129966   1.540   5.672   1.404
 9689SOL    HW229967   1.600   5.552   1.498
 9690SOL     OW29968   0.527   4.405   5.004
 9690SOL    HW129969   0.442   4.358   4.984
 9690SOL    HW229970   0.516   4.503   4.984
 9691SOL     OW29971   3.740   3.663   1.590
 9691SOL    HW129972   3.733   3.564   1.581
 9691SOL    HW229973   3.836   3.691   1.589
 9692SOL     OW29974   4.978   4.652   0.515
 9692SOL    HW129975   4.913   4.611   0.579
 9692SOL    HW229976   5.055   4.690   0.565
 9693SOL     OW29977   4.733   2.994   5.608
 9693SOL    HW129978   4.657   3.018   5.547
 9693SOL    HW229979   4.734   3.056   5.686
 9694SOL     OW29980   2.730   6.420   1.682
 9694SOL    HW129981   2.821   6.395   1.713
 9694SOL    HW229982   2.737   6.478   1.600
 9695SOL     OW29983   0.999   3.183   4.223
 9695SOL    HW129984   0.952   3.213   4.141
 9695SOL    HW229985   1.087   3.142   4.198
 9696SOL     OW29986   5.100   2.877   3.382
 9696SOL    HW129987   5.186   2.899   3.335
 9696SOL    HW229988   5.120   2.851   3.477
 9697SOL     OW29989   0.534   6.920   1.738
 9697SOL    HW129990   0.582   6.856   1.677
 9697SOL    HW229991   0.595   6.995   1.763
 9698SOL     OW29992   0.237   3.653   1.751
 9698SOL    HW129993   0.193   3.742   1.765
 9698SOL    HW229994   0.207   3.615   1.663
 9699SOL     OW29995   1.075   5.594   1.475
 9699SOL    HW129996   1.101   5.684   1.511
 9699SOL    HW229997   1.155   5.534   1.477
 9700SOL     OW29998   5.074   1.052   6.202
 9700SOL    HW129999   5.007   1.000   6.149
 9700SOL    HW230000   5.166   1.027   6.175
 9701SOL     OW30001   5.333   3.789   6.863
 9701SOL    HW130002   5.403   3.858   6.845
 9701SOL    HW230003   5.251   3.810   6.809
 9702SOL     OW30004   3.759   4.177   1.688
 9702SOL    HW130005   3.835   4.231   1.652
 9702SOL    HW230006   3.792   4.116   1.760
 9703SOL     OW30007   5.733   4.884   3.414
 9703SOL    HW130008   5.762   4.794   3.445
 9703SOL    HW230009   5.813   4.944   3.406
 9704SOL     OW30010   1.381   4.179   2.192
 9704SOL    HW130011   1.425   4.120   2.260
 9704SOL    HW230012   1.282   4.168   2.198
 9705SOL     OW30013   0.199   3.157   5.789
 9705SOL    HW130014   0.174   3.141   5.884
 9705SOL    HW230015   0.260   3.084   5.758
 9706SOL     OW30016   0.900   1.185   2.291
 9706SOL    HW130017   0.934   1.093   2.312
 9706SOL    HW230018   0.892   1.238   2.375
 9707SOL     OW30019   0.665   5.290   2.466
 9707SOL    HW130020   0.664   5.337   2.554
 9707SOL    HW230021   0.741   5.225   2.463
 9708SOL     OW30022   2.540   0.818   1.776
 9708SOL    HW130023   2.542   0.799   1.678
 9708SOL    HW230024   2.605   0.891   1.796
 9709SOL     OW30025   5.309   1.547   1.553
 9709SOL    HW130026   5.225   1.495   1.570
 9709SOL    HW230027   5.337   1.594   1.636
 9710SOL     OW30028   5.279   5.226   4.850
 9710SOL    HW130029   5.346   5.252   4.781
 9710SOL    HW230030   5.188   5.220   4.808
 9711SOL     OW30031   2.823   0.780   6.811
 9711SOL    HW130032   2.819   0.862   6.754
 9711SOL    HW230033   2.918   0.759   6.833
 9712SOL     OW30034   5.184   0.839   6.387
 9712SOL    HW130035   5.273   0.871   6.419
 9712SOL    HW230036   5.143   0.909   6.327
 9713SOL     OW30037   2.103   6.790   2.736
 9713SOL    HW130038   2.043   6.862   2.770
 9713SOL    HW230039   2.091   6.779   2.638
 9714SOL     OW30040   2.209   3.926   3.786
 9714SOL    HW130041   2.252   3.843   3.752
 9714SOL    HW230042   2.186   3.914   3.882
 9715SOL     OW30043   6.856   3.042   6.438
 9715SOL    HW130044   6.901   3.047   6.350
 9715SOL    HW230045   6.915   3.080   6.509
 9716SOL     OW30046   2.554   6.496   0.638
 9716SOL    HW130047   2.607   6.559   0.581
 9716SOL    HW230048   2.614   6.455   0.707
 9717SOL     OW30049   3.752   2.369   5.583
 9717SOL    HW130050   3.770   2.362   5.681
 9717SOL    HW230051   3.712   2.283   5.551
 9718SOL     OW30052   3.963   2.337   6.146
 9718SOL    HW130053   3.927   2.322   6.238
 9718SOL    HW230054   3.958   2.434   6.123
 9719SOL     OW30055   4.585   0.015   6.177
 9719SOL    HW130056   4.657   0.061   6.126
 9719SOL    HW230057   4.507   0.076   6.189
 9720SOL     OW30058   2.092   2.549   2.391
 9720SOL    HW130059   2.187   2.580   2.397
 9720SOL    HW230060   2.080   2.495   2.309
 9721SOL     OW30061   0.701   1.854   1.051
 9721SOL    HW130062   0.768   1.914   1.007
 9721SOL    HW230063   0.629   1.908   1.092
 9722SOL     OW30064   3.871   2.432   5.321
 9722SOL    HW130065   3.826   2.409   5.407
 9722SOL    HW230066   3.802   2.462   5.255
 9723SOL     OW30067   6.165   0.344   4.953
 9723SOL    HW130068   6.182   0.418   4.888
 9723SOL    HW230069   6.162   0.381   5.046
 9724SOL     OW30070   1.359   4.290   1.089
 9724SOL    HW130071   1.455   4.301   1.116
 9724SOL    HW230072   1.352   4.291   0.989
 9725SOL     OW30073   4.521   5.242   4.097
 9725SOL    HW130074   4.570   5.306   4.157
 9725SOL    HW230075   4.552   5.255   4.002
 9726SOL     OW30076   6.704   0.152   3.199
 9726SOL    HW130077   6.742   0.060   3.209
 9726SOL    HW230078   6.615   0.156   3.243
 9727SOL     OW30079   6.175   2.532   1.855
 9727SOL    HW130080   6.252   2.582   1.895
 9727SOL    HW230081   6.181   2.536   1.755
 9728SOL     OW30082   5.447   2.230   4.413
 9728SOL    HW130083   5.377   2.208   4.345
 9728SOL    HW230084   5.429   2.178   4.497
 9729SOL     OW30085   0.443   3.811   3.196
 9729SOL    HW130086   0.426   3.909   3.204
 9729SOL    HW230087   0.484   3.791   3.106
 9730SOL     OW30088   0.672   5.374   2.780
 9730SOL    HW130089   0.660   5.472   2.792
 9730SOL    HW230090   0.770   5.352   2.784
 9731SOL     OW30091   5.730   2.779   1.472
 9731SOL    HW130092   5.663   2.735   1.532
 9731SOL    HW230093   5.759   2.866   1.512
 9732SOL     OW30094   1.192   3.766   2.956
 9732SOL    HW130095   1.229   3.706   2.884
 9732SOL    HW230096   1.268   3.806   3.008
 9733SOL     OW30097   6.458   4.886   1.865
 9733SOL    HW130098   6.395   4.813   1.889
 9733SOL    HW230099   6.409   4.973   1.862
 9734SOL     OW30100   4.586   5.341   6.527
 9734SOL    HW130101   4.525   5.298   6.593
 9734SOL    HW230102   4.680   5.330   6.557
 9735SOL     OW30103   6.849   2.290   0.261
 9735SOL    HW130104   6.888   2.331   0.343
 9735SOL    HW230105   6.752   2.271   0.278
 9736SOL     OW30106   5.146   2.366   4.985
 9736SOL    HW130107   5.067   2.309   5.007
 9736SOL    HW230108   5.117   2.446   4.933
 9737SOL     OW30109   5.650   2.796   3.950
 9737SOL    HW130110   5.606   2.850   4.022
 9737SOL    HW230111   5.721   2.851   3.906
 9738SOL     OW30112   2.365   6.454   1.491
 9738SOL    HW130113   2.457   6.474   1.458
 9738SOL    HW230114   2.371   6.397   1.573
 9739SOL     OW30115   6.106   6.336   0.663
 9739SOL    HW130116   6.071   6.336   0.757
 9739SOL    HW230117   6.194   6.384   0.661
 9740SOL     OW30118   6.443   0.361   2.083
 9740SOL    HW130119   6.463   0.263   2.078
 9740SOL    HW230120   6.444   0.390   2.179
 9741SOL     OW30121   2.506   2.133   3.742
 9741SOL    HW130122   2.478   2.159   3.650
 9741SOL    HW230123   2.427   2.096   3.792
 9742SOL     OW30124   3.180   2.097   6.390
 9742SOL    HW130125   3.080   2.096   6.392
 9742SOL    HW230126   3.211   2.087   6.295
 9743SOL     OW30127   6.207   3.561   4.141
 9743SOL    HW130128   6.297   3.600   4.162
 9743SOL    HW230129   6.175   3.508   4.219
 9744SOL     OW30130   1.745   1.478   2.189
 9744SOL    HW130131   1.825   1.519   2.233
 9744SOL    HW230132   1.767   1.384   2.161
 9745SOL     OW30133   0.337   7.009   5.680
 9745SOL    HW130134   0.311   0.009   5.773
 9745SOL    HW230135   0.401   6.932   5.685
 9746SOL     OW30136   3.282   6.456   6.151
 9746SOL    HW130137   3.281   6.542   6.100
 9746SOL    HW230138   3.361   6.402   6.123
 9747SOL     OW30139   3.672   1.578   3.414
 9747SOL    HW130140   3.740   1.650   3.396
 9747SOL    HW230141   3.586   1.619   3.441
 9748SOL     OW30142   1.425   1.328   2.369
 9748SOL    HW130143   1.497   1.339   2.300
 9748SOL    HW230144   1.345   1.382   2.342
 9749SOL     OW30145   6.885   0.739   1.921
 9749SOL    HW130146   6.901   0.838   1.928
 9749SOL    HW230147   6.809   0.713   1.980
 9750SOL     OW30148   5.939   2.700   5.334
 9750SOL    HW130149   6.036   2.691   5.356
 9750SOL    HW230150   5.887   2.631   5.384
 9751SOL     OW30151   3.330   6.992   1.417
 9751SOL    HW130152   3.430   6.997   1.412
 9751SOL    HW230153   3.303   6.928   1.489
 9752SOL     OW30154   3.223   2.886   0.642
 9752SOL    HW130155   3.170   2.918   0.721
 9752SOL    HW230156   3.319   2.876   0.669
 9753SOL     OW30157   6.598   5.716   4.379
 9753SOL    HW130158   6.565   5.734   4.472
 9753SOL    HW230159   6.657   5.791   4.349
 9754SOL     OW30160   3.214   1.515   2.433
 9754SOL    HW130161   3.190   1.611   2.420
 9754SOL    HW230162   3.313   1.507   2.445
 9755SOL     OW30163   3.916   3.860   0.147
 9755SOL    HW130164   3.966   3.810   0.077
 9755SOL    HW230165   3.958   3.845   0.236
 9756SOL     OW30166   5.541   0.319   6.297
 9756SOL    HW130167   5.620   0.258   6.295
 9756SOL    HW230168   5.484   0.296   6.376
 9757SOL     OW30169   5.160   3.307   4.415
 9757SOL    HW130170   5.069   3.341   4.435
 9757SOL    HW230171   5.226   3.382   4.415
 9758SOL     OW30172   2.410   1.068   2.547
 9758SOL    HW130173   2.356   1.147   2.574
 9758SOL    HW230174   2.494   1.064   2.602
 9759SOL     OW30175   6.789   1.891   1.934
 9759SOL    HW130176   6.855   1.949   1.887
 9759SOL    HW230177   6.696   1.916   1.906
 9760SOL     OW30178   4.275   0.718   6.779
 9760SOL    HW130179   4.358   0.693   6.829
 9760SOL    HW230180   4.294   0.799   6.723
 9761SOL     OW30181   0.670   2.548   1.535
 9761SOL    HW130182   0.744   2.517   1.594
 9761SOL    HW230183   0.706   2.611   1.466
 9762SOL     OW30184   3.010   1.128   5.551
 9762SOL    HW130185   3.099   1.150   5.591
 9762SOL    HW230186   2.985   1.200   5.487
 9763SOL     OW30187   6.428   2.570   1.550
 9763SOL    HW130188   6.479   2.557   1.464
 9763SOL    HW230189   6.483   2.535   1.626
 9764SOL     OW30190   0.675   2.421   2.501
 9764SOL    HW130191   0.635   2.422   2.592
 9764SOL    HW230192   0.601   2.424   2.433
 9765SOL     OW30193   6.922   0.931   1.353
 9765SOL    HW130194   6.836   0.883   1.339
 9765SOL    HW230195   6.980   0.919   1.272
 9766SOL     OW30196   0.847   2.422   2.990
 9766SOL    HW130197   0.792   2.433   2.907
 9766SOL    HW230198   0.899   2.505   3.007
 9767SOL     OW30199   2.239   1.773   5.011
 9767SOL    HW130200   2.246   1.682   5.051
 9767SOL    HW230201   2.159   1.777   4.951
 9768SOL     OW30202   5.603   2.993   0.191
 9768SOL    HW130203   5.564   3.004   0.283
 9768SOL    HW230204   5.531   2.964   0.128
 9769SOL     OW30205   2.644   1.971   5.277
 9769SOL    HW130206   2.636   1.993   5.180
 9769SOL    HW230207   2.739   1.949   5.298
 9770SOL     OW30208   1.886   3.132   5.633
 9770SOL    HW130209   1.866   3.094   5.543
 9770SOL    HW230210   1.941   3.215   5.622
 9771SOL     OW30211   3.028   0.881   1.241
 9771SOL    HW130212   3.014   0.820   1.163
 9771SOL    HW230213   3.060   0.828   1.319
 9772SOL     OW30214   0.759   0.629   1.183
 9772SOL    HW130215   0.782   0.548   1.130
 9772SOL    HW230216   0.785   0.615   1.279
 9773SOL     OW30217   6.050   5.980   2.275
 9773SOL    HW130218   6.109   6.042   2.223
 9773SOL    HW230219   5.954   6.001   2.254
 9774SOL     OW30220   2.002   4.704   4.152
 9774SOL    HW130221   2.083   4.747   4.112
 9774SOL    HW230222   1.928   4.772   4.156
 9775SOL     OW30223   2.300   1.301   2.748
 9775SOL    HW130224   2.216   1.250   2.729
 9775SOL    HW230225   2.343   1.265   2.830
 9776SOL     OW30226   2.384   5.451   1.443
 9776SOL    HW130227   2.398   5.542   1.403
 9776SOL    HW230228   2.413   5.381   1.378
 9777SOL     OW30229   4.545   1.731   5.508
 9777SOL    HW130230   4.500   1.810   5.549
 9777SOL    HW230231   4.479   1.682   5.451
 9778SOL     OW30232   0.863   3.991   3.327
 9778SOL    HW130233   0.903   3.955   3.412
 9778SOL    HW230234   0.933   4.039   3.275
 9779SOL     OW30235   3.071   0.821   3.590
 9779SOL    HW130236   3.001   0.872   3.541
 9779SOL    HW230237   3.029   0.742   3.635
 9780SOL     OW30238   0.412   1.938   0.841
 9780SOL    HW130239   0.458   1.956   0.754
 9780SOL    HW230240   0.342   1.867   0.828
 9781SOL     OW30241   1.051   0.754   1.879
 9781SOL    HW130242   1.091   0.718   1.795
 9781SOL    HW230243   1.082   0.700   1.957
 9782SOL     OW30244   0.003   2.687   0.530
 9782SOL    HW130245   0.075   2.753   0.550
 9782SOL    HW230246   6.944   2.719   0.570
 9783SOL     OW30247   4.532   1.659   2.815
 9783SOL    HW130248   4.457   1.598   2.789
 9783SOL    HW230249   4.592   1.613   2.880
 9784SOL     OW30250   1.882   1.394   6.127
 9784SOL    HW130251   1.836   1.320   6.177
 9784SOL    HW230252   1.899   1.470   6.190
 9785SOL     OW30253   0.528   3.988   4.668
 9785SOL    HW130254   0.435   3.952   4.670
 9785SOL    HW230255   0.574   3.957   4.585
 9786SOL     OW30256   2.814   4.319   6.668
 9786SOL    HW130257   2.724   4.276   6.669
 9786SOL    HW230258   2.812   4.402   6.723
 9787SOL     OW30259   3.028   3.655   2.270
 9787SOL    HW130260   2.950   3.595   2.254
 9787SOL    HW230261   3.104   3.627   2.212
 9788SOL     OW30262   4.027   0.197   2.382
 9788SOL    HW130263   4.003   0.104   2.357
 9788SOL    HW230264   3.958   0.235   2.444
 9789SOL     OW30265   3.046   1.140   0.327
 9789SOL    HW130266   3.000   1.162   0.241
 9789SOL    HW230267   3.144   1.160   0.319
 9790SOL     OW30268   4.615   5.924   4.988
 9790SOL    HW130269   4.612   5.957   4.893
 9790SOL    HW230270   4.697   5.868   5.001
 9791SOL     OW30271   0.851   0.044   1.514
 9791SOL    HW130272   0.941   0.070   1.479
 9791SOL    HW230273   0.812   6.998   1.457
 9792SOL     OW30274   3.775   4.822   1.212
 9792SOL    HW130275   3.724   4.759   1.153
 9792SOL    HW230276   3.812   4.772   1.290
 9793SOL     OW30277   6.318   1.123   3.129
 9793SOL    HW130278   6.294   1.220   3.132
 9793SOL    HW230279   6.285   1.082   3.044
 9794SOL     OW30280   4.349   4.668   4.551
 9794SOL    HW130281   4.401   4.672   4.466
 9794SOL    HW230282   4.286   4.590   4.548
 9795SOL     OW30283   0.955   3.096   3.179
 9795SOL    HW130284   1.029   3.042   3.217
 9795SOL    HW230285   0.895   3.128   3.253
 9796SOL     OW30286   2.989   3.669   3.872
 9796SOL    HW130287   3.036   3.587   3.904
 9796SOL    HW230288   2.970   3.729   3.949
 9797SOL     OW30289   2.933   5.561   6.867
 9797SOL    HW130290   3.021   5.609   6.864
 9797SOL    HW230291   2.924   5.504   6.785
 9798SOL     OW30292   0.059   4.371   6.597
 9798SOL    HW130293   0.011   4.455   6.570
 9798SOL    HW230294   0.003   4.321   6.663
 9799SOL     OW30295   3.233   0.303   0.202
 9799SOL    HW130296   3.293   0.226   0.220
 9799SOL    HW230297   3.137   0.273   0.207
 9800SOL     OW30298   6.500   3.490   4.342
 9800SOL    HW130299   6.454   3.428   4.405
 9800SOL    HW230300   6.549   3.560   4.394
 9801SOL     OW30301   5.189   5.994   0.597
 9801SOL    HW130302   5.162   6.051   0.675
 9801SOL    HW230303   5.242   5.916   0.630
 9802SOL     OW30304   4.213   3.615   0.093
 9802SOL    HW130305   4.304   3.619   0.051
 9802SOL    HW230306   4.221   3.629   0.192
 9803SOL     OW30307   1.161   3.472   6.286
 9803SOL    HW130308   1.206   3.386   6.261
 9803SOL    HW230309   1.063   3.456   6.299
 9804SOL     OW30310   0.614   4.433   2.673
 9804SOL    HW130311   0.582   4.418   2.767
 9804SOL    HW230312   0.605   4.530   2.651
 9805SOL     OW30313   1.320   5.530   3.741
 9805SOL    HW130314   1.305   5.579   3.827
 9805SOL    HW230315   1.409   5.485   3.743
 9806SOL     OW30316   3.930   1.838   0.284
 9806SOL    HW130317   3.985   1.860   0.364
 9806SOL    HW230318   3.963   1.753   0.243
 9807SOL     OW30319   4.082   3.260   3.221
 9807SOL    HW130320   4.137   3.290   3.143
 9807SOL    HW230321   4.053   3.165   3.207
 9808SOL     OW30322   3.913   5.497   1.916
 9808SOL    HW130323   3.978   5.495   1.840
 9808SOL    HW230324   3.961   5.478   2.001
 9809SOL     OW30325   6.374   2.865   0.641
 9809SOL    HW130326   6.342   2.958   0.625
 9809SOL    HW230327   6.371   2.813   0.555
 9810SOL     OW30328   2.254   1.988   0.916
 9810SOL    HW130329   2.306   2.051   0.973
 9810SOL    HW230330   2.205   2.039   0.845
 9811SOL     OW30331   5.753   3.817   4.470
 9811SOL    HW130332   5.695   3.846   4.545
 9811SOL    HW230333   5.786   3.724   4.487
 9812SOL     OW30334   3.166   6.120   5.671
 9812SOL    HW130335   3.139   6.211   5.700
 9812SOL    HW230336   3.119   6.051   5.727
 9813SOL     OW30337   4.912   0.669   2.609
 9813SOL    HW130338   4.858   0.648   2.528
 9813SOL    HW230339   4.953   0.760   2.600
 9814SOL     OW30340   0.419   1.151   6.052
 9814SOL    HW130341   0.509   1.109   6.044
 9814SOL    HW230342   0.429   1.250   6.061
 9815SOL     OW30343   4.494   2.564   4.152
 9815SOL    HW130344   4.522   2.656   4.125
 9815SOL    HW230345   4.485   2.559   4.251
 9816SOL     OW30346   2.845   1.305   0.844
 9816SOL    HW130347   2.798   1.362   0.776
 9816SOL    HW230348   2.852   1.355   0.930
 9817SOL     OW30349   6.731   0.158   2.140
 9817SOL    HW130350   6.716   0.109   2.227
 9817SOL    HW230351   6.829   0.169   2.125
 9818SOL     OW30352   5.221   2.676   5.316
 9818SOL    HW130353   5.262   2.691   5.405
 9818SOL    HW230354   5.122   2.691   5.322
 9819SOL     OW30355   3.986   0.887   2.218
 9819SOL    HW130356   3.973   0.788   2.215
 9819SOL    HW230357   3.896   0.932   2.220
 9820SOL     OW30358   4.157   2.828   6.578
 9820SOL    HW130359   4.115   2.754   6.527
 9820SOL    HW230360   4.243   2.855   6.534
 9821SOL     OW30361   6.799   5.451   0.269
 9821SOL    HW130362   6.744   5.374   0.300
 9821SOL    HW230363   6.864   5.477   0.341
 9822SOL     OW30364   1.042   6.731   3.094
 9822SOL    HW130365   1.045   6.785   3.010
 9822SOL    HW230366   1.134   6.726   3.133
 9823SOL     OW30367   3.782   7.000   1.635
 9823SOL    HW130368   3.855   6.954   1.684
 9823SOL    HW230369   3.785   6.975   1.538
 9824SOL     OW30370   1.002   4.037   5.689
 9824SOL    HW130371   0.912   4.077   5.707
 9824SOL    HW230372   1.027   3.976   5.764
 9825SOL     OW30373   4.104   4.979   5.359
 9825SOL    HW130374   4.044   5.029   5.422
 9825SOL    HW230375   4.183   5.036   5.337
 9826SOL     OW30376   4.985   0.299   6.517
 9826SOL    HW130377   5.047   0.375   6.533
 9826SOL    HW230378   4.905   0.307   6.577
 9827SOL     OW30379   0.909   3.795   4.625
 9827SOL    HW130380   0.941   3.871   4.682
 9827SOL    HW230381   0.921   3.709   4.675
 9828SOL     OW30382   3.082   2.687   6.320
 9828SOL    HW130383   3.160   2.653   6.267
 9828SOL    HW230384   3.016   2.730   6.257
 9829SOL     OW30385   3.106   5.031   1.031
 9829SOL    HW130386   3.117   5.057   1.127
 9829SOL    HW230387   3.043   4.953   1.025
 9830SOL     OW30388   6.407   0.818   0.399
 9830SOL    HW130389   6.463   0.756   0.455
 9830SOL    HW230390   6.467   0.882   0.352
 9831SOL     OW30391   5.592   6.687   0.825
 9831SOL    HW130392   5.656   6.688   0.747
 9831SOL    HW230393   5.562   6.594   0.842
 9832SOL     OW30394   4.192   4.804   0.993
 9832SOL    HW130395   4.273   4.798   0.934
 9832SOL    HW230396   4.220   4.801   1.089
 9833SOL     OW30397   4.216   3.826   5.422
 9833SOL    HW130398   4.191   3.765   5.498
 9833SOL    HW230399   4.303   3.796   5.383
 9834SOL     OW30400   1.482   2.969   4.806
 9834SOL    HW130401   1.501   2.965   4.708
 9834SOL    HW230402   1.523   3.052   4.844
 9835SOL     OW30403   4.639   1.467   4.425
 9835SOL    HW130404   4.576   1.465   4.502
 9835SOL    HW230405   4.731   1.489   4.457
 9836SOL     OW30406   4.912   4.866   2.321
 9836SOL    HW130407   4.963   4.861   2.406
 9836SOL    HW230408   4.839   4.797   2.322
 9837SOL     OW30409   1.237   6.588   4.340
 9837SOL    HW130410   1.190   6.534   4.271
 9837SOL    HW230411   1.294   6.528   4.396
 9838SOL     OW30412   7.022   5.543   5.232
 9838SOL    HW130413   6.938   5.525   5.283
 9838SOL    HW230414   0.055   5.463   5.235
 9839SOL     OW30415   6.942   1.937   2.379
 9839SOL    HW130416   6.943   2.022   2.433
 9839SOL    HW230417   6.896   1.955   2.291
 9840SOL     OW30418   6.531   0.491   1.134
 9840SOL    HW130419   6.483   0.413   1.173
 9840SOL    HW230420   6.465   0.562   1.109
 9841SOL     OW30421   1.741   3.826   4.219
 9841SOL    HW130422   1.768   3.762   4.291
 9841SOL    HW230423   1.650   3.802   4.185
 9842SOL     OW30424   3.373   2.965   2.903
 9842SOL    HW130425   3.323   2.943   2.819
 9842SOL    HW230426   3.311   2.961   2.981
 9843SOL     OW30427   5.457   3.117   2.318
 9843SOL    HW130428   5.409   3.179   2.255
 9843SOL    HW230429   5.491   3.038   2.267
 9844SOL     OW30430   4.713   0.586   2.434
 9844SOL    HW130431   4.725   0.505   2.492
 9844SOL    HW230432   4.651   0.651   2.479
 9845SOL     OW30433   1.013   1.953   3.750
 9845SOL    HW130434   0.949   1.883   3.717
 9845SOL    HW230435   1.103   1.936   3.711
 9846SOL     OW30436   2.959   3.181   2.972
 9846SOL    HW130437   3.021   3.120   3.022
 9846SOL    HW230438   2.992   3.191   2.878
 9847SOL     OW30439   2.279   4.353   5.051
 9847SOL    HW130440   2.219   4.273   5.052
 9847SOL    HW230441   2.328   4.360   5.138
 9848SOL     OW30442   4.611   3.596   0.424
 9848SOL    HW130443   4.610   3.663   0.349
 9848SOL    HW230444   4.578   3.640   0.507
 9849SOL     OW30445   0.440   6.745   5.045
 9849SOL    HW130446   0.434   6.666   5.105
 9849SOL    HW230447   0.351   6.761   5.002
 9850SOL     OW30448   4.051   6.879   2.863
 9850SOL    HW130449   4.036   6.818   2.786
 9850SOL    HW230450   4.142   6.862   2.901
 9851SOL     OW30451   5.514   2.473   4.808
 9851SOL    HW130452   5.478   2.506   4.896
 9851SOL    HW230453   5.553   2.382   4.820
 9852SOL     OW30454   5.052   2.190   3.913
 9852SOL    HW130455   5.030   2.205   3.817
 9852SOL    HW230456   5.150   2.204   3.927
 9853SOL     OW30457   6.545   4.043   1.814
 9853SOL    HW130458   6.539   4.069   1.910
 9853SOL    HW230459   6.637   4.061   1.779
 9854SOL     OW30460   4.694   5.964   3.346
 9854SOL    HW130461   4.757   5.952   3.423
 9854SOL    HW230462   4.620   5.897   3.354
 9855SOL     OW30463   1.405   3.308   1.030
 9855SOL    HW130464   1.400   3.373   1.106
 9855SOL    HW230465   1.459   3.348   0.956
 9856SOL     OW30466   4.259   2.853   1.025
 9856SOL    HW130467   4.168   2.873   1.063
 9856SOL    HW230468   4.255   2.770   0.970
 9857SOL     OW30469   5.562   4.179   3.512
 9857SOL    HW130470   5.587   4.085   3.490
 9857SOL    HW230471   5.463   4.188   3.514
 9858SOL     OW30472   4.410   1.410   1.251
 9858SOL    HW130473   4.425   1.333   1.188
 9858SOL    HW230474   4.477   1.405   1.325
 9859SOL     OW30475   6.429   0.501   1.856
 9859SOL    HW130476   6.473   0.470   1.771
 9859SOL    HW230477   6.460   0.444   1.932
 9860SOL     OW30478   0.552   1.273   2.418
 9860SOL    HW130479   0.544   1.324   2.333
 9860SOL    HW230480   0.480   1.302   2.481
 9861SOL     OW30481   4.118   6.848   4.435
 9861SOL    HW130482   4.154   6.918   4.374
 9861SOL    HW230483   4.018   6.848   4.432
 9862SOL     OW30484   0.529   2.501   0.565
 9862SOL    HW130485   0.568   2.409   0.557
 9862SOL    HW230486   0.582   2.553   0.632
 9863SOL     OW30487   3.047   6.760   0.769
 9863SOL    HW130488   3.040   6.859   0.771
 9863SOL    HW230489   3.133   6.732   0.812
 9864SOL     OW30490   4.600   6.132   2.091
 9864SOL    HW130491   4.613   6.231   2.098
 9864SOL    HW230492   4.548   6.100   2.170
 9865SOL     OW30493   0.463   1.982   4.967
 9865SOL    HW130494   0.473   1.946   4.875
 9865SOL    HW230495   0.369   2.016   4.979
 9866SOL     OW30496   4.274   4.870   3.467
 9866SOL    HW130497   4.245   4.864   3.371
 9866SOL    HW230498   4.199   4.841   3.527
 9867SOL     OW30499   4.014   0.563   6.430
 9867SOL    HW130500   3.939   0.499   6.450
 9867SOL    HW230501   3.978   0.643   6.383
 9868SOL     OW30502   0.144   5.111   0.081
 9868SOL    HW130503   0.186   5.026   0.111
 9868SOL    HW230504   0.095   5.154   0.157
 9869SOL     OW30505   1.404   3.688   3.481
 9869SOL    HW130506   1.491   3.677   3.528
 9869SOL    HW230507   1.393   3.783   3.451
 9870SOL     OW30508   4.935   4.607   2.542
 9870SOL    HW130509   4.973   4.700   2.548
 9870SOL    HW230510   4.889   4.585   2.628
 9871SOL     OW30511   1.695   1.108   5.073
 9871SOL    HW130512   1.776   1.156   5.039
 9871SOL    HW230513   1.621   1.116   5.005
 9872SOL     OW30514   1.684   4.985   3.249
 9872SOL    HW130515   1.634   4.954   3.168
 9872SOL    HW230516   1.652   5.076   3.276
 9873SOL     OW30517   0.455   2.892   0.910
 9873SOL    HW130518   0.372   2.940   0.883
 9873SOL    HW230519   0.535   2.948   0.889
 9874SOL     OW30520   0.740   2.438   3.607
 9874SOL    HW130521   0.705   2.509   3.546
 9874SOL    HW230522   0.720   2.462   3.702
 9875SOL     OW30523   1.110   0.835   3.289
 9875SOL    HW130524   1.027   0.874   3.250
 9875SOL    HW230525   1.147   0.766   3.226
 9876SOL     OW30526   0.094   6.297   2.732
 9876SOL    HW130527   0.042   6.282   2.816
 9876SOL    HW230528   0.056   6.240   2.659
 9877SOL     OW30529   3.324   0.208   2.481
 9877SOL    HW130530   3.309   0.307   2.484
 9877SOL    HW230531   3.362   0.178   2.569
 9878SOL     OW30532   0.604   6.958   5.126
 9878SOL    HW130533   0.608   7.022   5.050
 9878SOL    HW230534   0.564   6.871   5.095
 9879SOL     OW30535   5.196   6.345   5.983
 9879SOL    HW130536   5.114   6.389   6.018
 9879SOL    HW230537   5.254   6.315   6.059
 9880SOL     OW30538   1.782   1.852   5.074
 9880SOL    HW130539   1.801   1.795   4.994
 9880SOL    HW230540   1.685   1.845   5.098
 9881SOL     OW30541   0.059   2.504   6.253
 9881SOL    HW130542   0.151   2.477   6.280
 9881SOL    HW230543   0.050   2.604   6.258
 9882SOL     OW30544   1.126   1.474   3.271
 9882SOL    HW130545   1.050   1.539   3.271
 9882SOL    HW230546   1.212   1.523   3.280
 9883SOL     OW30547   1.964   0.295   1.574
 9883SOL    HW130548   2.008   0.305   1.663
 9883SOL    HW230549   2.003   0.362   1.510
 9884SOL     OW30550   3.805   0.523   4.242
 9884SOL    HW130551   3.773   0.486   4.155
 9884SOL    HW230552   3.822   0.621   4.232
 9885SOL     OW30553   6.023   5.120   3.989
 9885SOL    HW130554   6.121   5.097   3.986
 9885SOL    HW230555   5.987   5.124   3.896
 9886SOL     OW30556   1.170   3.814   2.312
 9886SOL    HW130557   1.093   3.814   2.247
 9886SOL    HW230558   1.180   3.723   2.352
 9887SOL     OW30559   4.234   0.749   6.370
 9887SOL    HW130560   4.183   0.668   6.400
 9887SOL    HW230561   4.171   0.814   6.327
 9888SOL     OW30562   6.943   4.059   0.185
 9888SOL    HW130563   7.007   4.006   0.239
 9888SOL    HW230564   6.976   4.066   0.091
 9889SOL     OW30565   6.892   4.796   0.329
 9889SOL    HW130566   6.970   4.810   0.268
 9889SOL    HW230567   6.875   4.880   0.381
 9890SOL     OW30568   1.061   2.737   1.230
 9890SOL    HW130569   1.085   2.829   1.198
 9890SOL    HW230570   1.135   2.702   1.288
 9891SOL     OW30571   5.133   1.838   1.491
 9891SOL    HW130572   5.168   1.800   1.577
 9891SOL    HW230573   5.197   1.906   1.456
 9892SOL     OW30574   0.005   5.609   6.460
 9892SOL    HW130575   0.090   5.602   6.512
 9892SOL    HW230576   6.959   5.559   6.507
 9893SOL     OW30577   1.827   0.963   1.007
 9893SOL    HW130578   1.903   0.898   1.006
 9893SOL    HW230579   1.862   1.056   1.016
 9894SOL     OW30580   1.725   2.083   0.408
 9894SOL    HW130581   1.794   2.026   0.453
 9894SOL    HW230582   1.634   2.044   0.421
 9895SOL     OW30583   5.345   3.315   5.668
 9895SOL    HW130584   5.301   3.274   5.748
 9895SOL    HW230585   5.341   3.251   5.591
 9896SOL     OW30586   5.965   0.142   0.047
 9896SOL    HW130587   6.051   0.117   0.003
 9896SOL    HW230588   5.896   0.164   7.003
 9897SOL     OW30589   5.093   5.245   3.492
 9897SOL    HW130590   5.102   5.305   3.572
 9897SOL    HW230591   5.023   5.176   3.510
 9898SOL     OW30592   3.436   6.379   5.298
 9898SOL    HW130593   3.374   6.328   5.358
 9898SOL    HW230594   3.411   6.363   5.203
 9899SOL     OW30595   0.100   5.643   0.068
 9899SOL    HW130596   0.070   5.738   0.078
 9899SOL    HW230597   0.064   5.606   7.009
 9900SOL     OW30598   2.057   3.801   3.295
 9900SOL    HW130599   2.035   3.806   3.393
 9900SOL    HW230600   2.088   3.891   3.264
 9901SOL     OW30601   2.005   2.229   5.321
 9901SOL    HW130602   1.989   2.212   5.418
 9901SOL    HW230603   2.076   2.299   5.311
 9902SOL     OW30604   2.762   4.380   7.015
 9902SOL    HW130605   2.848   4.335   0.013
 9902SOL    HW230606   2.772   4.426   6.927
 9903SOL     OW30607   5.677   1.281   3.206
 9903SOL    HW130608   5.605   1.223   3.244
 9903SOL    HW230609   5.730   1.229   3.139
 9904SOL     OW30610   7.006   3.083   6.184
 9904SOL    HW130611   0.060   3.042   6.141
 9904SOL    HW230612   6.926   3.069   6.125
 9905SOL     OW30613   4.248   1.421   0.453
 9905SOL    HW130614   4.181   1.365   0.404
 9905SOL    HW230615   4.199   1.487   0.511
 9906SOL     OW30616   4.029   3.965   4.315
 9906SOL    HW130617   4.079   4.038   4.268
 9906SOL    HW230618   4.019   3.887   4.253
 9907SOL     OW30619   0.796   6.868   1.337
 9907SOL    HW130620   0.809   6.799   1.408
 9907SOL    HW230621   0.772   6.822   1.251
 9908SOL     OW30622   5.069   3.390   3.116
 9908SOL    HW130623   5.015   3.347   3.043
 9908SOL    HW230624   5.128   3.322   3.159
 9909SOL     OW30625   2.165   0.319   5.221
 9909SOL    HW130626   2.216   0.241   5.185
 9909SOL    HW230627   2.210   0.404   5.193
 9910SOL     OW30628   0.944   4.101   3.067
 9910SOL    HW130629   1.015   4.032   3.079
 9910SOL    HW230630   0.962   4.178   3.128
 9911SOL     OW30631   3.013   6.369   2.160
 9911SOL    HW130632   2.992   6.414   2.247
 9911SOL    HW230633   3.080   6.297   2.176
 9912SOL     OW30634   4.612   1.220   6.975
 9912SOL    HW130635   4.618   1.161   6.893
 9912SOL    HW230636   4.590   1.163   0.028
 9913SOL     OW30637   5.743   3.083   7.010
 9913SOL    HW130638   5.761   3.022   6.932
 9913SOL    HW230639   5.681   3.039   0.047
 9914SOL     OW30640   0.558   2.811   5.104
 9914SOL    HW130641   0.603   2.896   5.078
 9914SOL    HW230642   0.624   2.750   5.147
 9915SOL     OW30643   5.739   1.044   3.493
 9915SOL    HW130644   5.729   1.124   3.552
 9915SOL    HW230645   5.661   1.039   3.431
 9916SOL     OW30646   2.232   2.276   2.264
 9916SOL    HW130647   2.208   2.297   2.169
 9916SOL    HW230648   2.301   2.341   2.296
 9917SOL     OW30649   6.883   4.182   5.027
 9917SOL    HW130650   6.880   4.197   4.928
 9917SOL    HW230651   6.886   4.083   5.045
 9918SOL     OW30652   4.205   2.278   2.594
 9918SOL    HW130653   4.283   2.333   2.566
 9918SOL    HW230654   4.156   2.246   2.513
 9919SOL     OW30655   6.562   6.094   0.458
 9919SOL    HW130656   6.495   6.050   0.399
 9919SOL    HW230657   6.515   6.146   0.530
 9920SOL     OW30658   4.732   1.316   2.194
 9920SOL    HW130659   4.674   1.248   2.148
 9920SOL    HW230660   4.674   1.379   2.245
 9921SOL     OW30661   3.995   5.490   5.698
 9921SOL    HW130662   4.094   5.496   5.690
 9921SOL    HW230663   3.972   5.425   5.771
 9922SOL     OW30664   0.336   5.570   0.553
 9922SOL    HW130665   0.358   5.505   0.626
 9922SOL    HW230666   0.409   5.637   0.544
 9923SOL     OW30667   5.503   4.560   0.325
 9923SOL    HW130668   5.444   4.622   0.378
 9923SOL    HW230669   5.597   4.569   0.356
 9924SOL     OW30670   0.643   3.631   4.773
 9924SOL    HW130671   0.686   3.562   4.830
 9924SOL    HW230672   0.710   3.701   4.749
 9925SOL     OW30673   5.235   2.075   4.215
 9925SOL    HW130674   5.208   1.979   4.205
 9925SOL    HW230675   5.233   2.120   4.126
 9926SOL     OW30676   2.204   4.967   0.075
 9926SOL    HW130677   2.153   4.952   7.017
 9926SOL    HW230678   2.141   4.990   0.149
 9927SOL     OW30679   6.235   0.009   3.031
 9927SOL    HW130680   6.196   7.008   3.119
 9927SOL    HW230681   6.326   6.996   3.021
 9928SOL     OW30682   4.892   4.665   1.413
 9928SOL    HW130683   4.845   4.727   1.350
 9928SOL    HW230684   4.825   4.605   1.456
 9929SOL     OW30685   2.592   4.758   3.668
 9929SOL    HW130686   2.544   4.770   3.581
 9929SOL    HW230687   2.568   4.833   3.730
 9930SOL     OW30688   6.526   0.391   3.909
 9930SOL    HW130689   6.475   0.444   3.977
 9930SOL    HW230690   6.599   0.447   3.871
 9931SOL     OW30691   1.092   4.819   5.554
 9931SOL    HW130692   1.105   4.736   5.500
 9931SOL    HW230693   1.008   4.865   5.525
 9932SOL     OW30694   0.917   6.053   5.105
 9932SOL    HW130695   0.895   6.084   5.013
 9932SOL    HW230696   0.970   6.123   5.152
 9933SOL     OW30697   0.349   5.786   2.201
 9933SOL    HW130698   0.253   5.815   2.199
 9933SOL    HW230699   0.400   5.840   2.134
 9934SOL     OW30700   6.533   2.124   6.086
 9934SOL    HW130701   6.483   2.082   6.162
 9934SOL    HW230702   6.607   2.064   6.058
 9935SOL     OW30703   3.058   1.287   6.275
 9935SOL    HW130704   2.967   1.291   6.317
 9935SOL    HW230705   3.074   1.372   6.223
 9936SOL     OW30706   0.901   4.319   4.479
 9936SOL    HW130707   0.998   4.316   4.503
 9936SOL    HW230708   0.847   4.284   4.556
 9937SOL     OW30709   6.437   2.457   6.328
 9937SOL    HW130710   6.495   2.485   6.251
 9937SOL    HW230711   6.485   2.387   6.381
 9938SOL     OW30712   6.483   6.369   3.243
 9938SOL    HW130713   6.536   6.453   3.246
 9938SOL    HW230714   6.506   6.318   3.159
 9939SOL     OW30715   3.070   3.295   2.378
 9939SOL    HW130716   3.110   3.213   2.338
 9939SOL    HW230717   3.016   3.343   2.308
 9940SOL     OW30718   7.015   1.504   0.827
 9940SOL    HW130719   7.020   1.532   0.731
 9940SOL    HW230720   6.972   1.576   0.880
 9941SOL     OW30721   3.547   4.999   5.550
 9941SOL    HW130722   3.454   5.014   5.515
 9941SOL    HW230723   3.550   5.023   5.647
 9942SOL     OW30724   2.899   5.519   3.291
 9942SOL    HW130725   2.871   5.491   3.383
 9942SOL    HW230726   2.913   5.437   3.234
 9943SOL     OW30727   0.991   6.709   5.279
 9943SOL    HW130728   0.898   6.702   5.244
 9943SOL    HW230729   0.990   6.700   5.379
 9944SOL     OW30730   0.805   3.951   0.248
 9944SOL    HW130731   0.801   3.862   0.294
 9944SOL    HW230732   0.775   4.022   0.311
 9945SOL     OW30733   6.878   5.472   7.025
 9945SOL    HW130734   6.866   5.378   6.994
 9945SOL    HW230735   6.860   5.478   0.096
 9946SOL     OW30736   4.804   0.679   5.077
 9946SOL    HW130737   4.888   0.732   5.080
 9946SOL    HW230738   4.824   0.582   5.089
 9947SOL     OW30739   6.223   4.626   3.945
 9947SOL    HW130740   6.313   4.637   3.905
 9947SOL    HW230741   6.155   4.613   3.872
 9948SOL     OW30742   4.803   4.677   4.824
 9948SOL    HW130743   4.829   4.756   4.879
 9948SOL    HW230744   4.725   4.631   4.866
 9949SOL     OW30745   5.485   5.293   3.087
 9949SOL    HW130746   5.570   5.267   3.132
 9949SOL    HW230747   5.408   5.276   3.149
 9950SOL     OW30748   4.203   6.004   5.485
 9950SOL    HW130749   4.127   6.044   5.435
 9950SOL    HW230750   4.167   5.940   5.554
 9951SOL     OW30751   5.786   1.943   3.147
 9951SOL    HW130752   5.811   1.852   3.113
 9951SOL    HW230753   5.853   2.010   3.116
 9952SOL     OW30754   6.970   5.227   0.328
 9952SOL    HW130755   6.871   5.240   0.340
 9952SOL    HW230756   7.011   5.313   0.297
 9953SOL     OW30757   0.058   1.413   4.460
 9953SOL    HW130758   0.094   1.349   4.529
 9953SOL    HW230759   0.044   1.365   4.374
 9954SOL     OW30760   4.595   0.316   5.510
 9954SOL    HW130761   4.628   0.222   5.501
 9954SOL    HW230762   4.506   0.325   5.466
 9955SOL     OW30763   0.718   4.203   5.076
 9955SOL    HW130764   0.694   4.130   5.013
 9955SOL    HW230765   0.664   4.284   5.056
 9956SOL     OW30766   1.776   6.184   1.164
 9956SOL    HW130767   1.808   6.275   1.138
 9956SOL    HW230768   1.696   6.193   1.223
 9957SOL     OW30769   6.084   3.982   3.231
 9957SOL    HW130770   6.058   3.887   3.245
 9957SOL    HW230771   6.054   4.011   3.140
 9958SOL     OW30772   2.266   4.363   1.470
 9958SOL    HW130773   2.210   4.326   1.543
 9958SOL    HW230774   2.306   4.450   1.499
 9959SOL     OW30775   3.799   3.705   0.662
 9959SOL    HW130776   3.710   3.660   0.657
 9959SOL    HW230777   3.866   3.643   0.702
 9960SOL     OW30778   0.830   1.341   2.510
 9960SOL    HW130779   0.743   1.293   2.504
 9960SOL    HW230780   0.879   1.312   2.592
 9961SOL     OW30781   2.093   4.429   4.859
 9961SOL    HW130782   2.165   4.418   4.927
 9961SOL    HW230783   2.079   4.342   4.811
 9962SOL     OW30784   5.302   6.252   5.411
 9962SOL    HW130785   5.246   6.197   5.473
 9962SOL    HW230786   5.242   6.306   5.351
 9963SOL     OW30787   3.143   0.722   0.504
 9963SOL    HW130788   3.077   0.730   0.430
 9963SOL    HW230789   3.107   0.768   0.586
 9964SOL     OW30790   4.559   5.711   5.467
 9964SOL    HW130791   4.572   5.799   5.512
 9964SOL    HW230792   4.465   5.704   5.433
 9965SOL     OW30793   4.283   0.449   0.139
 9965SOL    HW130794   4.322   0.528   0.185
 9965SOL    HW230795   4.234   0.392   0.205
 9966SOL     OW30796   0.785   0.082   2.917
 9966SOL    HW130797   0.715   0.128   2.972
 9966SOL    HW230798   0.780   7.010   2.933
 9967SOL     OW30799   1.015   5.008   0.535
 9967SOL    HW130800   1.022   4.940   0.608
 9967SOL    HW230801   1.103   5.018   0.489
 9968SOL     OW30802   3.532   2.876   2.693
 9968SOL    HW130803   3.439   2.841   2.684
 9968SOL    HW230804   3.551   2.896   2.789
 9969SOL     OW30805   0.635   3.618   1.547
 9969SOL    HW130806   0.671   3.554   1.616
 9969SOL    HW230807   0.557   3.577   1.501
 9970SOL     OW30808   5.547   4.447   1.355
 9970SOL    HW130809   5.624   4.384   1.366
 9970SOL    HW230810   5.464   4.395   1.335
 9971SOL     OW30811   2.405   5.448   0.295
 9971SOL    HW130812   2.395   5.349   0.301
 9971SOL    HW230813   2.437   5.473   0.204
 9972SOL     OW30814   6.667   4.519   1.668
 9972SOL    HW130815   6.587   4.478   1.712
 9972SOL    HW230816   6.747   4.506   1.727
 9973SOL     OW30817   5.601   6.795   4.674
 9973SOL    HW130818   5.668   6.802   4.748
 9973SOL    HW230819   5.634   6.846   4.594
 9974SOL     OW30820   1.944   0.620   4.142
 9974SOL    HW130821   1.961   0.706   4.096
 9974SOL    HW230822   1.991   0.546   4.094
 9975SOL     OW30823   6.944   3.034   0.586
 9975SOL    HW130824   6.968   3.116   0.637
 9975SOL    HW230825   6.845   3.028   0.576
 9976SOL     OW30826   1.954   0.224   4.878
 9976SOL    HW130827   1.862   0.234   4.918
 9976SOL    HW230828   1.969   0.297   4.812
 9977SOL     OW30829   6.820   4.551   4.292
 9977SOL    HW130830   6.802   4.614   4.367
 9977SOL    HW230831   6.830   4.458   4.328
 9978SOL     OW30832   7.025   2.246   3.965
 9978SOL    HW130833   6.979   2.235   4.053
 9978SOL    HW230834   6.997   2.172   3.903
 9979SOL     OW30835   0.274   3.941   5.481
 9979SOL    HW130836   0.241   3.935   5.576
 9979SOL    HW230837   0.292   3.849   5.446
 9980SOL     OW30838   3.762   7.017   5.130
 9980SOL    HW130839   3.748   6.924   5.165
 9980SOL    HW230840   3.734   0.056   5.200
 9981SOL     OW30841   3.442   2.129   4.167
 9981SOL    HW130842   3.345   2.149   4.179
 9981SOL    HW230843   3.467   2.140   4.071
 9982SOL     OW30844   6.164   5.916   3.506
 9982SOL    HW130845   6.083   5.872   3.545
 9982SOL    HW230846   6.165   5.901   3.407
 9983SOL     OW30847   0.367   1.159   1.223
 9983SOL    HW130848   0.364   1.085   1.156
 9983SOL    HW230849   0.419   1.236   1.186
 9984SOL     OW30850   2.644   0.870   0.298
 9984SOL    HW130851   2.588   0.949   0.271
 9984SOL    HW230852   2.686   0.830   0.216
 9985SOL     OW30853   1.506   0.540   1.854
 9985SOL    HW130854   1.469   0.534   1.947
 9985SOL    HW230855   1.561   0.459   1.835
 9986SOL     OW30856   5.584   4.480   4.986
 9986SOL    HW130857   5.543   4.393   5.014
 9986SOL    HW230858   5.579   4.545   5.061
 9987SOL     OW30859   6.813   4.038   6.136
 9987SOL    HW130860   6.766   3.952   6.113
 9987SOL    HW230861   6.910   4.029   6.113
 9988SOL     OW30862   6.633   6.780   4.562
 9988SOL    HW130863   6.722   6.737   4.547
 9988SOL    HW230864   6.617   6.790   4.660
 9989SOL     OW30865   0.899   3.599   5.136
 9989SOL    HW130866   0.893   3.518   5.077
 9989SOL    HW230867   0.949   3.575   5.219
 9990SOL     OW30868   1.029   5.316   2.283
 9990SOL    HW130869   0.933   5.334   2.306
 9990SOL    HW230870   1.035   5.231   2.232
 9991SOL     OW30871   4.032   2.178   3.496
 9991SOL    HW130872   4.015   2.082   3.473
 9991SOL    HW230873   4.068   2.226   3.416
 9992SOL     OW30874   6.339   5.440   6.148
 9992SOL    HW130875   6.381   5.354   6.120
 9992SOL    HW230876   6.398   5.517   6.122
 9993SOL     OW30877   0.661   0.717   1.605
 9993SOL    HW130878   0.612   0.785   1.659
 9993SOL    HW230879   0.759   0.737   1.607
 9994SOL     OW30880   5.933   4.724   2.964
 9994SOL    HW130881   6.022   4.719   3.010
 9994SOL    HW230882   5.931   4.658   2.889
 9995SOL     OW30883   4.643   0.970   4.990
 9995SOL    HW130884   4.555   0.928   4.967
 9995SOL    HW230885   4.713   0.899   4.996
 9996SOL     OW30886   2.619   3.682   6.974
 9996SOL    HW130887   2.593   3.773   7.006
 9996SOL    HW230888   2.632   3.684   6.874
 9997SOL     OW30889   2.873   0.052   4.998
 9997SOL    HW130890   2.879   0.150   4.980
 9997SOL    HW230891   2.839   0.037   5.091
 9998SOL     OW30892   5.551   6.324   5.515
 9998SOL    HW130893   5.454   6.315   5.493
 9998SOL    HW230894   5.565   6.406   5.571
 9999SOL     OW30895   0.616   2.808   4.269
 9999SOL    HW130896   0.637   2.883   4.332
 9999SOL    HW230897   0.629   2.839   4.175
10000SOL     OW30898   6.888   3.742   0.099
10000SOL    HW130899   6.827   3.668   0.129
10000SOL    HW230900   6.901   3.737   0.000
10001SOL     OW30901   4.181   0.316   2.900
10001SOL    HW130902   4.229   0.311   2.988
10001SOL    HW230903   4.169   0.223   2.863
10002SOL     OW30904   0.674   1.724   1.938
10002SOL    HW130905   0.693   1.669   2.019
10002SOL    HW230906   0.583   1.703   1.903
10003SOL     OW30907   4.626   1.828   3.523
10003SOL    HW130908   4.679   1.895   3.470
10003SOL    HW230909   4.528   1.844   3.509
10004SOL     OW30910   0.609   1.912   2.914
10004SOL    HW130911   0.697   1.954   2.938
10004SOL    HW230912   0.584   1.937   2.821
10005SOL     OW30913   5.414   6.665   4.540
10005SOL    HW130914   5.484   6.714   4.592
10005SOL    HW230915   5.330   6.658   4.595
10006SOL     OW30916   4.390   1.045   4.789
10006SOL    HW130917   4.369   1.030   4.885
10006SOL    HW230918   4.392   0.957   4.741
10007SOL     OW30919   6.528   3.279   4.138
10007SOL    HW130920   6.553   3.347   4.208
10007SOL    HW230921   6.471   3.208   4.179
10008SOL     OW30922   3.695   0.048   3.885
10008SOL    HW130923   3.621   0.062   3.818
10008SOL    HW230924   3.767   0.116   3.869
10009SOL     OW30925   0.891   3.981   2.014
10009SOL    HW130926   0.818   3.915   2.033
10009SOL    HW230927   0.899   3.994   1.915
10010SOL     OW30928   0.145   1.432   6.385
10010SOL    HW130929   0.059   1.430   6.335
10010SOL    HW230930   0.150   1.354   6.447
10011SOL     OW30931   6.970   6.798   4.809
10011SOL    HW130932   6.943   6.722   4.750
10011SOL    HW230933   0.010   6.855   4.762
10012SOL     OW30934   5.588   0.642   4.082
10012SOL    HW130935   5.506   0.697   4.101
10012SOL    HW230936   5.612   0.589   4.163
10013SOL     OW30937   1.125   0.779   2.279
10013SOL    HW130938   1.191   0.852   2.297
10013SOL    HW230939   1.140   0.704   2.343
10014SOL     OW30940   1.801   5.258   6.069
10014SOL    HW130941   1.832   5.253   5.974
10014SOL    HW230942   1.879   5.269   6.130
10015SOL     OW30943   2.454   4.973   0.162
10015SOL    HW130944   2.369   4.963   0.111
10015SOL    HW230945   2.441   4.938   0.255
10016SOL     OW30946   2.450   0.599   5.649
10016SOL    HW130947   2.485   0.676   5.702
10016SOL    HW230948   2.406   0.534   5.711
10017SOL     OW30949   0.825   1.771   4.256
10017SOL    HW130950   0.770   1.781   4.173
10017SOL    HW230951   0.848   1.862   4.292
10018SOL     OW30952   4.510   6.543   6.433
10018SOL    HW130953   4.491   6.563   6.337
10018SOL    HW230954   4.543   6.625   6.479
10019SOL     OW30955   1.585   1.085   2.184
10019SOL    HW130956   1.512   1.151   2.166
10019SOL    HW230957   1.585   1.059   2.280
10020SOL     OW30958   6.662   2.971   0.632
10020SOL    HW130959   6.675   2.881   0.674
10020SOL    HW230960   6.622   3.033   0.700
10021SOL     OW30961   5.952   3.247   1.193
10021SOL    HW130962   6.010   3.196   1.257
10021SOL    HW230963   5.859   3.209   1.195
10022SOL     OW30964   1.726   0.575   6.554
10022SOL    HW130965   1.787   0.623   6.491
10022SOL    HW230966   1.778   0.512   6.610
10023SOL     OW30967   6.957   3.394   1.355
10023SOL    HW130968   6.880   3.447   1.319
10023SOL    HW230969   6.926   3.340   1.434
10024SOL     OW30970   1.212   4.745   3.040
10024SOL    HW130971   1.296   4.700   3.070
10024SOL    HW230972   1.142   4.676   3.022
10025SOL     OW30973   1.150   1.582   0.358
10025SOL    HW130974   1.142   1.531   0.272
10025SOL    HW230975   1.101   1.533   0.430
10026SOL     OW30976   0.145   0.733   3.936
10026SOL    HW130977   0.166   0.728   3.838
10026SOL    HW230978   0.137   0.641   3.973
10027SOL     OW30979   5.098   2.390   5.977
10027SOL    HW130980   5.078   2.475   5.928
10027SOL    HW230981   5.113   2.317   5.911
10028SOL     OW30982   2.022   0.782   1.048
10028SOL    HW130983   2.111   0.818   1.074
10028SOL    HW230984   2.034   0.697   0.996
10029SOL     OW30985   5.161   1.866   3.753
10029SOL    HW130986   5.096   1.891   3.682
10029SOL    HW230987   5.239   1.929   3.750
10030SOL     OW30988   1.916   0.988   3.172
10030SOL    HW130989   1.937   1.086   3.184
10030SOL    HW230990   1.832   0.966   3.222
10031SOL     OW30991   6.508   4.520   4.267
10031SOL    HW130992   6.601   4.552   4.249
10031SOL    HW230993   6.495   4.507   4.365
10032SOL     OW30994   2.595   1.554   5.320
10032SOL    HW130995   2.559   1.474   5.368
10032SOL    HW230996   2.637   1.616   5.386
10033SOL     OW30997   6.062   2.511   4.741
10033SOL    HW130998   5.984   2.548   4.791
10033SOL    HW230999   6.042   2.419   4.708
10034SOL     OW31000   4.783   0.376   6.255
10034SOL    HW131001   4.806   0.473   6.259
10034SOL    HW231002   4.831   0.334   6.177
10035SOL     OW31003   0.203   6.462   3.269
10035SOL    HW131004   0.292   6.434   3.233
10035SOL    HW231005   0.144   6.491   3.193
10036SOL     OW31006   6.880   0.802   0.135
10036SOL    HW131007   6.944   0.788   0.059
10036SOL    HW231008   6.815   0.874   0.110
10037SOL     OW31009   0.398   6.709   1.159
10037SOL    HW131010   0.464   6.723   1.234
10037SOL    HW231011   0.318   6.661   1.194
10038SOL     OW31012   6.439   0.359   0.883
10038SOL    HW131013   6.420   0.295   0.957
10038SOL    HW231014   6.448   0.452   0.921
10039SOL     OW31015   3.146   0.419   3.347
10039SOL    HW131016   3.184   0.344   3.401
10039SOL    HW231017   3.162   0.505   3.395
10040SOL     OW31018   0.216   2.181   1.159
10040SOL    HW131019   0.285   2.242   1.121
10040SOL    HW231020   0.242   2.156   1.252
10041SOL     OW31021   1.859   5.732   1.019
10041SOL    HW131022   1.827   5.794   1.090
10041SOL    HW231023   1.844   5.773   0.929
10042SOL     OW31024   6.165   2.519   2.820
10042SOL    HW131025   6.214   2.595   2.779
10042SOL    HW231026   6.088   2.493   2.762
10043SOL     OW31027   0.794   2.588   5.084
10043SOL    HW131028   0.836   2.555   5.168
10043SOL    HW231029   0.757   2.511   5.033
10044SOL     OW31030   3.985   1.651   6.101
10044SOL    HW131031   3.932   1.567   6.115
10044SOL    HW231032   4.043   1.641   6.020
10045SOL     OW31033   2.302   0.883   0.432
10045SOL    HW131034   2.252   0.969   0.416
10045SOL    HW231035   2.304   0.864   0.530
10046SOL     OW31036   1.195   5.215   0.988
10046SOL    HW131037   1.143   5.283   0.937
10046SOL    HW231038   1.161   5.210   1.082
10047SOL     OW31039   0.979   4.142   0.839
10047SOL    HW131040   0.899   4.199   0.818
10047SOL    HW231041   0.948   4.057   0.883
10048SOL     OW31042   5.562   4.952   2.757
10048SOL    HW131043   5.634   5.018   2.736
10048SOL    HW231044   5.594   4.860   2.735
10049SOL     OW31045   5.812   1.098   5.325
10049SOL    HW131046   5.839   1.130   5.416
10049SOL    HW231047   5.858   1.011   5.305
10050SOL     OW31048   0.367   2.730   6.263
10050SOL    HW131049   0.290   2.667   6.273
10050SOL    HW231050   0.429   2.696   6.193
10051SOL     OW31051   2.330   2.083   4.106
10051SOL    HW131052   2.358   1.990   4.131
10051SOL    HW231053   2.323   2.090   4.007
10052SOL     OW31054   1.571   0.396   3.349
10052SOL    HW131055   1.589   0.421   3.254
10052SOL    HW231056   1.563   0.479   3.404
10053SOL     OW31057   5.702   5.298   3.473
10053SOL    HW131058   5.650   5.384   3.471
10053SOL    HW231059   5.719   5.272   3.568
10054SOL     OW31060   6.860   4.298   4.398
10054SOL    HW131061   6.887   4.258   4.310
10054SOL    HW231062   6.815   4.229   4.454
10055SOL     OW31063   1.479   2.620   6.657
10055SOL    HW131064   1.474   2.687   6.582
10055SOL    HW231065   1.528   2.539   6.625
10056SOL     OW31066   6.519   2.139   4.113
10056SOL    HW131067   6.477   2.086   4.188
10056SOL    HW231068   6.512   2.237   4.134
10057SOL     OW31069   5.305   4.810   5.389
10057SOL    HW131070   5.308   4.711   5.398
10057SOL    HW231071   5.261   4.835   5.303
10058SOL     OW31072   0.200   4.157   4.751
10058SOL    HW131073   0.193   4.064   4.715
10058SOL    HW231074   0.145   4.219   4.695
10059SOL     OW31075   5.564   0.077   6.625
10059SOL    HW131076   5.648   0.024   6.612
10059SOL    HW231077   5.536   0.073   6.721
10060SOL     OW31078   3.015   1.991   1.758
10060SOL    HW131079   3.094   1.994   1.696
10060SOL    HW231080   2.945   1.931   1.720
10061SOL     OW31081   3.140   0.032   2.421
10061SOL    HW131082   3.125   0.016   2.323
10061SOL    HW231083   3.214   0.097   2.433
10062SOL     OW31084   0.897   6.795   4.900
10062SOL    HW131085   0.808   6.751   4.897
10062SOL    HW231086   0.932   6.806   4.807
10063SOL     OW31087   2.747   2.371   4.832
10063SOL    HW131088   2.659   2.374   4.786
10063SOL    HW231089   2.735   2.388   4.929
10064SOL     OW31090   2.716   7.016   1.475
10064SOL    HW131091   2.754   6.951   1.410
10064SOL    HW231092   2.628   0.024   1.441
10065SOL     OW31093   0.197   1.585   1.566
10065SOL    HW131094   0.177   1.498   1.521
10065SOL    HW231095   0.268   1.634   1.516
10066SOL     OW31096   6.570   5.030   3.378
10066SOL    HW131097   6.602   5.054   3.286
10066SOL    HW231098   6.503   5.097   3.409
10067SOL     OW31099   0.069   3.170   5.294
10067SOL    HW131100   7.008   3.218   5.290
10067SOL    HW231101   0.077   3.109   5.215
10068SOL     OW31102   1.568   3.487   2.417
10068SOL    HW131103   1.624   3.455   2.341
10068SOL    HW231104   1.555   3.414   2.483
10069SOL     OW31105   3.603   4.646   1.043
10069SOL    HW131106   3.534   4.702   1.089
10069SOL    HW231107   3.605   4.668   0.946
10070SOL     OW31108   5.152   7.000   0.153
10070SOL    HW131109   5.209   6.918   0.147
10070SOL    HW231110   5.063   6.976   0.189
10071SOL     OW31111   5.430   1.031   5.861
10071SOL    HW131112   5.380   1.014   5.776
10071SOL    HW231113   5.378   0.994   5.939
10072SOL     OW31114   6.095   3.055   1.755
10072SOL    HW131115   6.057   3.084   1.843
10072SOL    HW231116   6.103   2.956   1.753
10073SOL     OW31117   5.659   5.096   4.963
10073SOL    HW131118   5.594   5.021   4.963
10073SOL    HW231119   5.614   5.180   4.933
10074SOL     OW31120   2.546   4.449   0.322
10074SOL    HW131121   2.534   4.537   0.277
10074SOL    HW231122   2.558   4.464   0.420
10075SOL     OW31123   1.246   3.417   1.557
10075SOL    HW131124   1.188   3.479   1.504
10075SOL    HW231125   1.274   3.462   1.642
10076SOL     OW31126   5.462   4.595   4.500
10076SOL    HW131127   5.521   4.514   4.505
10076SOL    HW231128   5.368   4.567   4.483
10077SOL     OW31129   4.607   3.601   6.219
10077SOL    HW131130   4.616   3.506   6.189
10077SOL    HW231131   4.526   3.610   6.277
10078SOL     OW31132   6.322   5.323   4.257
10078SOL    HW131133   6.386   5.339   4.332
10078SOL    HW231134   6.231   5.305   4.294
10079SOL     OW31135   5.139   4.418   3.705
10079SOL    HW131136   5.233   4.451   3.711
10079SOL    HW231137   5.077   4.486   3.744
10080SOL     OW31138   5.100   1.595   5.445
10080SOL    HW131139   5.118   1.658   5.520
10080SOL    HW231140   5.022   1.537   5.467
10081SOL     OW31141   1.156   4.937   0.866
10081SOL    HW131142   1.104   4.882   0.932
10081SOL    HW231143   1.161   5.032   0.898
10082SOL     OW31144   0.961   4.574   0.923
10082SOL    HW131145   0.893   4.514   0.966
10082SOL    HW231146   1.052   4.537   0.936
10083SOL     OW31147   2.700   6.227   2.528
10083SOL    HW131148   2.661   6.138   2.503
10083SOL    HW231149   2.676   6.248   2.622
10084SOL     OW31150   1.047   2.289   4.613
10084SOL    HW131151   0.983   2.280   4.537
10084SOL    HW231152   1.024   2.370   4.667
10085SOL     OW31153   4.995   0.116   1.254
10085SOL    HW131154   5.015   0.036   1.310
10085SOL    HW231155   4.915   0.097   1.196
10086SOL     OW31156   4.551   6.568   3.125
10086SOL    HW131157   4.495   6.505   3.072
10086SOL    HW231158   4.600   6.629   3.063
10087SOL     OW31159   2.137   5.963   5.578
10087SOL    HW131160   2.061   5.967   5.643
10087SOL    HW231161   2.100   5.961   5.485
10088SOL     OW31162   6.451   2.217   1.776
10088SOL    HW131163   6.432   2.273   1.857
10088SOL    HW231164   6.386   2.239   1.704
10089SOL     OW31165   3.927   0.689   1.926
10089SOL    HW131166   3.918   0.773   1.872
10089SOL    HW231167   3.889   0.612   1.875
10090SOL     OW31168   1.458   6.052   3.320
10090SOL    HW131169   1.420   6.139   3.289
10090SOL    HW231170   1.557   6.051   3.302
10091SOL     OW31171   5.484   5.004   4.619
10091SOL    HW131172   5.413   4.959   4.672
10091SOL    HW231173   5.468   4.988   4.521
10092SOL     OW31174   1.308   1.849   3.404
10092SOL    HW131175   1.234   1.782   3.397
10092SOL    HW231176   1.336   1.858   3.500
10093SOL     OW31177   4.200   3.935   6.272
10093SOL    HW131178   4.150   4.021   6.269
10093SOL    HW231179   4.230   3.916   6.366
10094SOL     OW31180   3.196   2.153   0.232
10094SOL    HW131181   3.187   2.054   0.245
10094SOL    HW231182   3.276   2.171   0.175
10095SOL     OW31183   4.097   3.330   5.196
10095SOL    HW131184   4.033   3.354   5.269
10095SOL    HW231185   4.067   3.245   5.152
10096SOL     OW31186   6.462   3.460   2.320
10096SOL    HW131187   6.452   3.508   2.407
10096SOL    HW231188   6.445   3.524   2.245
10097SOL     OW31189   0.713   1.454   0.962
10097SOL    HW131190   0.658   1.513   0.904
10097SOL    HW231191   0.759   1.509   1.032
10098SOL     OW31192   3.674   5.707   4.587
10098SOL    HW131193   3.620   5.623   4.591
10098SOL    HW231194   3.616   5.786   4.606
10099SOL     OW31195   6.915   4.587   3.384
10099SOL    HW131196   6.835   4.535   3.413
10099SOL    HW231197   6.914   4.677   3.427
10100SOL     OW31198   5.212   5.192   3.832
10100SOL    HW131199   5.254   5.262   3.774
10100SOL    HW231200   5.194   5.110   3.778
10101SOL     OW31201   6.352   2.968   0.305
10101SOL    HW131202   6.359   3.035   0.231
10101SOL    HW231203   6.409   2.998   0.382
10102SOL     OW31204   6.094   4.600   3.672
10102SOL    HW131205   6.034   4.667   3.717
10102SOL    HW231206   6.168   4.648   3.625
10103SOL     OW31207   0.330   6.406   6.607
10103SOL    HW131208   0.417   6.371   6.641
10103SOL    HW231209   0.275   6.437   6.685
10104SOL     OW31210   2.620   1.192   4.615
10104SOL    HW131211   2.553   1.152   4.553
10104SOL    HW231212   2.648   1.282   4.581
10105SOL     OW31213   3.171   1.337   3.454
10105SOL    HW131214   3.215   1.378   3.374
10105SOL    HW231215   3.239   1.328   3.527
10106SOL     OW31216   5.646   4.071   1.517
10106SOL    HW131217   5.721   4.107   1.462
10106SOL    HW231218   5.572   4.040   1.457
10107SOL     OW31219   5.409   5.664   6.594
10107SOL    HW131220   5.446   5.599   6.527
10107SOL    HW231221   5.476   5.734   6.614
10108SOL     OW31222   2.041   2.625   4.697
10108SOL    HW131223   2.132   2.652   4.666
10108SOL    HW231224   1.988   2.590   4.619
10109SOL     OW31225   1.131   2.267   0.994
10109SOL    HW131226   1.118   2.337   1.063
10109SOL    HW231227   1.160   2.182   1.037
10110SOL     OW31228   6.544   5.811   1.635
10110SOL    HW131229   6.524   5.862   1.552
10110SOL    HW231230   6.460   5.769   1.669
10111SOL     OW31231   6.585   2.191   2.096
10111SOL    HW131232   6.523   2.255   2.142
10111SOL    HW231233   6.532   2.115   2.060
10112SOL     OW31234   6.082   2.951   3.993
10112SOL    HW131235   5.985   2.973   4.007
10112SOL    HW231236   6.109   2.976   3.900
10113SOL     OW31237   6.458   6.616   5.582
10113SOL    HW131238   6.420   6.524   5.595
10113SOL    HW231239   6.551   6.619   5.619
10114SOL     OW31240   4.928   3.486   1.928
10114SOL    HW131241   4.921   3.387   1.917
10114SOL    HW231242   4.874   3.531   1.857
10115SOL     OW31243   3.279   3.012   6.038
10115SOL    HW131244   3.181   2.996   6.028
10115SOL    HW231245   3.308   3.082   5.972
10116SOL     OW31246   0.373   0.150   5.965
10116SOL    HW131247   0.275   0.132   5.967
10116SOL    HW231248   0.395   0.212   5.890
10117SOL     OW31249   6.635   4.356   2.007
10117SOL    HW131250   6.644   4.262   2.039
10117SOL    HW231251   6.582   4.358   1.923
10118SOL     OW31252   3.968   5.093   3.655
10118SOL    HW131253   3.973   5.105   3.555
10118SOL    HW231254   3.908   5.163   3.694
10119SOL     OW31255   6.262   6.093   6.385
10119SOL    HW131256   6.223   6.181   6.412
10119SOL    HW231257   6.300   6.100   6.293
10120SOL     OW31258   2.376   2.529   2.877
10120SOL    HW131259   2.328   2.453   2.834
10120SOL    HW231260   2.460   2.496   2.919
10121SOL     OW31261   6.765   5.305   1.071
10121SOL    HW131262   6.748   5.220   1.121
10121SOL    HW231263   6.803   5.284   0.981
10122SOL     OW31264   1.994   0.024   3.317
10122SOL    HW131265   1.907   0.072   3.328
10122SOL    HW231266   2.038   0.054   3.232
10123SOL     OW31267   6.487   5.656   6.076
10123SOL    HW131268   6.487   5.740   6.022
10123SOL    HW231269   6.575   5.610   6.066
10124SOL     OW31270   2.335   5.158   2.485
10124SOL    HW131271   2.407   5.090   2.496
10124SOL    HW231272   2.246   5.112   2.492
10125SOL     OW31273   1.212   0.671   5.171
10125SOL    HW131274   1.129   0.718   5.139
10125SOL    HW231275   1.262   0.732   5.233
10126SOL     OW31276   6.455   6.056   5.218
10126SOL    HW131277   6.455   5.979   5.282
10126SOL    HW231278   6.494   6.137   5.262
10127SOL     OW31279   2.322   6.832   5.829
10127SOL    HW131280   2.310   6.756   5.893
10127SOL    HW231281   2.417   6.833   5.798
10128SOL     OW31282   2.415   2.302   6.945
10128SOL    HW131283   2.482   2.323   7.016
10128SOL    HW231284   2.345   2.374   6.943
10129SOL     OW31285   6.070   1.959   4.593
10129SOL    HW131286   5.988   1.973   4.537
10129SOL    HW231287   6.052   1.889   4.661
10130SOL     OW31288   1.119   2.012   3.274
10130SOL    HW131289   1.053   2.034   3.346
10130SOL    HW231290   1.194   1.958   3.313
10131SOL     OW31291   1.818   6.980   5.217
10131SOL    HW131292   1.847   0.027   5.155
10131SOL    HW231293   1.816   7.015   5.311
10132SOL     OW31294   5.608   0.395   2.471
10132SOL    HW131295   5.703   0.363   2.468
10132SOL    HW231296   5.604   0.486   2.512
10133SOL     OW31297   4.969   6.435   1.340
10133SOL    HW131298   4.898   6.504   1.352
10133SOL    HW231299   4.929   6.344   1.352
10134SOL     OW31300   0.328   6.623   3.540
10134SOL    HW131301   0.301   6.572   3.622
10134SOL    HW231302   0.284   6.582   3.460
10135SOL     OW31303   6.270   6.715   3.418
10135SOL    HW131304   6.327   6.738   3.497
10135SOL    HW231305   6.319   6.650   3.360
10136SOL     OW31306   4.611   1.306   3.702
10136SOL    HW131307   4.587   1.228   3.760
10136SOL    HW231308   4.694   1.349   3.736
10137SOL     OW31309   7.013   5.941   4.223
10137SOL    HW131310   7.018   6.009   4.296
10137SOL    HW231311   0.034   5.857   4.251
10138SOL     OW31312   0.127   2.509   1.849
10138SOL    HW131313   0.087   2.488   1.760
10138SOL    HW231314   0.062   2.562   1.904
10139SOL     OW31315   3.822   2.691   6.551
10139SOL    HW131316   3.782   2.604   6.579
10139SOL    HW231317   3.835   2.749   6.631
10140SOL     OW31318   0.248   5.671   5.227
10140SOL    HW131319   0.170   5.610   5.215
10140SOL    HW231320   0.257   5.695   5.324
10141SOL     OW31321   1.767   2.664   4.453
10141SOL    HW131322   1.735   2.748   4.409
10141SOL    HW231323   1.700   2.636   4.523
10142SOL     OW31324   4.842   5.665   2.146
10142SOL    HW131325   4.755   5.655   2.099
10142SOL    HW231326   4.847   5.756   2.187
10143SOL     OW31327   5.791   2.890   5.981
10143SOL    HW131328   5.858   2.822   6.009
10143SOL    HW231329   5.819   2.930   5.894
10144SOL     OW31330   3.526   0.452   0.435
10144SOL    HW131331   3.457   0.486   0.372
10144SOL    HW231332   3.515   0.498   0.524
10145SOL     OW31333   6.592   6.708   5.319
10145SOL    HW131334   6.524   6.663   5.378
10145SOL    HW231335   6.558   6.798   5.292
10146SOL     OW31336   1.630   2.810   5.506
10146SOL    HW131337   1.661   2.715   5.505
10146SOL    HW231338   1.543   2.816   5.555
10147SOL     OW31339   3.747   5.629   6.756
10147SOL    HW131340   3.725   5.579   6.840
10147SOL    HW231341   3.794   5.714   6.780
10148SOL     OW31342   0.771   5.206   6.679
10148SOL    HW131343   0.781   5.106   6.671
10148SOL    HW231344   0.713   5.227   6.757
10149SOL     OW31345   3.888   2.910   1.940
10149SOL    HW131346   3.838   2.988   1.977
10149SOL    HW231347   3.846   2.825   1.971
10150SOL     OW31348   4.758   3.955   1.323
10150SOL    HW131349   4.723   3.976   1.232
10150SOL    HW231350   4.819   4.029   1.353
10151SOL     OW31351   6.852   0.820   6.125
10151SOL    HW131352   6.816   0.912   6.137
10151SOL    HW231353   6.944   0.814   6.166
10152SOL     OW31354   4.008   6.866   3.135
10152SOL    HW131355   4.016   6.890   3.038
10152SOL    HW231356   3.919   6.896   3.169
10153SOL     OW31357   4.819   3.639   1.735
10153SOL    HW131358   4.842   3.715   1.795
10153SOL    HW231359   4.782   3.675   1.649
10154SOL     OW31360   4.441   5.260   5.116
10154SOL    HW131361   4.483   5.349   5.133
10154SOL    HW231362   4.507   5.188   5.135
10155SOL     OW31363   4.574   2.116   4.377
10155SOL    HW131364   4.507   2.167   4.432
10155SOL    HW231365   4.526   2.064   4.307
10156SOL     OW31366   3.965   1.941   6.187
10156SOL    HW131367   3.947   1.850   6.147
10156SOL    HW231368   3.906   1.954   6.266
10157SOL     OW31369   0.514   4.876   1.189
10157SOL    HW131370   0.574   4.910   1.116
10157SOL    HW231371   0.543   4.784   1.216
10158SOL     OW31372   5.582   5.016   0.404
10158SOL    HW131373   5.629   5.055   0.325
10158SOL    HW231374   5.498   4.971   0.374
10159SOL     OW31375   3.419   3.123   2.554
10159SOL    HW131376   3.398   3.095   2.460
10159SOL    HW231377   3.451   3.044   2.606
10160SOL     OW31378   0.081   4.206   2.475
10160SOL    HW131379   0.169   4.227   2.434
10160SOL    HW231380   0.060   4.274   2.546
10161SOL     OW31381   6.094   3.460   6.056
10161SOL    HW131382   6.124   3.553   6.078
10161SOL    HW231383   6.141   3.395   6.115
10162SOL     OW31384   1.749   2.332   2.453
10162SOL    HW131385   1.746   2.410   2.392
10162SOL    HW231386   1.743   2.363   2.548
10163SOL     OW31387   3.314   4.960   4.914
10163SOL    HW131388   3.248   4.950   4.840
10163SOL    HW231389   3.268   4.996   4.995
10164SOL     OW31390   0.245   1.309   4.056
10164SOL    HW131391   0.334   1.266   4.069
10164SOL    HW231392   0.257   1.407   4.041
10165SOL     OW31393   1.785   3.376   4.218
10165SOL    HW131394   1.874   3.398   4.258
10165SOL    HW231395   1.792   3.292   4.165
10166SOL     OW31396   2.931   6.054   3.075
10166SOL    HW131397   2.964   5.974   3.125
10166SOL    HW231398   3.007   6.118   3.060
10167SOL     OW31399   2.893   2.154   6.453
10167SOL    HW131400   2.939   2.134   6.540
10167SOL    HW231401   2.802   2.113   6.454
10168SOL     OW31402   0.224   0.651   6.446
10168SOL    HW131403   0.126   0.653   6.464
10168SOL    HW231404   0.262   0.743   6.453
10169SOL     OW31405   4.430   5.802   2.806
10169SOL    HW131406   4.468   5.736   2.871
10169SOL    HW231407   4.443   5.895   2.839
10170SOL     OW31408   5.127   6.816   0.488
10170SOL    HW131409   5.193   6.890   0.476
10170SOL    HW231410   5.034   6.854   0.491
10171SOL     OW31411   2.147   4.201   4.063
10171SOL    HW131412   2.062   4.242   4.030
10171SOL    HW231413   2.134   4.103   4.078
10172SOL     OW31414   0.598   0.504   2.676
10172SOL    HW131415   0.532   0.430   2.671
10172SOL    HW231416   0.568   0.571   2.743
10173SOL     OW31417   3.655   3.772   4.963
10173SOL    HW131418   3.593   3.776   5.042
10173SOL    HW231419   3.712   3.690   4.970
10174SOL     OW31420   5.094   4.572   1.227
10174SOL    HW131421   5.081   4.597   1.323
10174SOL    HW231422   5.009   4.586   1.177
10175SOL     OW31423   6.696   7.012   4.272
10175SOL    HW131424   6.711   0.084   4.267
10175SOL    HW231425   6.668   6.978   4.183
10176SOL     OW31426   0.172   0.834   4.609
10176SOL    HW131427   0.094   0.848   4.670
10176SOL    HW231428   0.165   0.898   4.532
10177SOL     OW31429   2.714   1.613   4.082
10177SOL    HW131430   2.799   1.608   4.031
10177SOL    HW231431   2.645   1.554   4.039
10178SOL     OW31432   0.547   1.429   1.410
10178SOL    HW131433   0.478   1.369   1.451
10178SOL    HW231434   0.568   1.503   1.473
10179SOL     OW31435   0.015   6.023   1.059
10179SOL    HW131436   0.087   5.961   1.028
10179SOL    HW231437   7.006   6.074   0.981
10180SOL     OW31438   3.193   6.719   6.479
10180SOL    HW131439   3.190   6.740   6.577
10180SOL    HW231440   3.204   6.620   6.467
10181SOL     OW31441   0.357   3.581   3.376
10181SOL    HW131442   0.283   3.530   3.331
10181SOL    HW231443   0.375   3.665   3.326
10182SOL     OW31444   4.131   0.277   0.368
10182SOL    HW131445   4.206   0.282   0.434
10182SOL    HW231446   4.046   0.303   0.412
10183SOL     OW31447   4.299   6.376   5.702
10183SOL    HW131448   4.221   6.320   5.674
10183SOL    HW231449   4.286   6.470   5.669
10184SOL     OW31450   5.736   2.292   5.594
10184SOL    HW131451   5.703   2.309   5.687
10184SOL    HW231452   5.793   2.210   5.594
10185SOL     OW31453   2.917   4.760   2.284
10185SOL    HW131454   2.942   4.665   2.303
10185SOL    HW231455   2.978   4.821   2.334
10186SOL     OW31456   3.487   2.780   0.102
10186SOL    HW131457   3.521   2.866   0.140
10186SOL    HW231458   3.503   2.779   0.003
10187SOL     OW31459   2.261   3.874   5.504
10187SOL    HW131460   2.284   3.821   5.422
10187SOL    HW231461   2.174   3.921   5.491
10188SOL     OW31462   2.214   6.929   6.893
10188SOL    HW131463   2.162   6.843   6.893
10188SOL    HW231464   2.238   6.953   6.799
10189SOL     OW31465   2.109   1.878   4.812
10189SOL    HW131466   2.124   1.968   4.853
10189SOL    HW231467   2.165   1.869   4.730
10190SOL     OW31468   4.217   4.087   1.064
10190SOL    HW131469   4.300   4.123   1.108
10190SOL    HW231470   4.178   4.014   1.121
10191SOL     OW31471   5.678   0.631   0.228
10191SOL    HW131472   5.718   0.649   0.318
10191SOL    HW231473   5.596   0.686   0.216
10192SOL     OW31474   1.995   0.803   3.958
10192SOL    HW131475   2.084   0.821   4.002
10192SOL    HW231476   2.001   0.827   3.861
10193SOL     OW31477   3.237   3.970   4.116
10193SOL    HW131478   3.292   3.887   4.124
10193SOL    HW231479   3.215   4.005   4.208
10194SOL     OW31480   2.979   6.391   2.877
10194SOL    HW131481   3.021   6.446   2.804
10194SOL    HW231482   3.049   6.339   2.925
10195SOL     OW31483   5.185   0.408   3.023
10195SOL    HW131484   5.221   0.488   2.975
10195SOL    HW231485   5.260   0.355   3.062
10196SOL     OW31486   5.041   4.183   4.458
10196SOL    HW131487   5.041   4.128   4.541
10196SOL    HW231488   4.947   4.196   4.427
10197SOL     OW31489   5.318   1.471   3.255
10197SOL    HW131490   5.342   1.504   3.347
10197SOL    HW231491   5.219   1.479   3.242
10198SOL     OW31492   3.168   0.982   1.676
10198SOL    HW131493   3.175   1.044   1.598
10198SOL    HW231494   3.072   0.978   1.707
10199SOL     OW31495   1.221   2.227   0.381
10199SOL    HW131496   1.160   2.159   0.342
10199SOL    HW231497   1.299   2.242   0.321
10200SOL     OW31498   5.695   6.365   4.777
10200SOL    HW131499   5.784   6.365   4.732
10200SOL    HW231500   5.648   6.279   4.759
10201SOL     OW31501   1.574   4.702   2.806
10201SOL    HW131502   1.547   4.618   2.853
10201SOL    HW231503   1.497   4.737   2.753
10202SOL     OW31504   0.487   1.832   3.320
10202SOL    HW131505   0.562   1.878   3.273
10202SOL    HW231506   0.523   1.771   3.390
10203SOL     OW31507   0.317   2.912   1.367
10203SOL    HW131508   0.370   2.883   1.287
10203SOL    HW231509   0.266   2.834   1.403
10204SOL     OW31510   2.825   5.561   4.739
10204SOL    HW131511   2.777   5.474   4.742
10204SOL    HW231512   2.923   5.545   4.749
10205SOL     OW31513   4.219   0.719   0.994
10205SOL    HW131514   4.224   0.782   1.072
10205SOL    HW231515   4.130   0.726   0.951
10206SOL     OW31516   5.047   6.818   6.784
10206SOL    HW131517   5.070   6.826   6.687
10206SOL    HW231518   5.022   6.724   6.805
10207SOL     OW31519   4.035   1.581   2.873
10207SOL    HW131520   3.980   1.654   2.915
10207SOL    HW231521   3.993   1.555   2.786
10208SOL     OW31522   6.691   3.483   5.634
10208SOL    HW131523   6.712   3.580   5.635
10208SOL    HW231524   6.741   3.437   5.707
10209SOL     OW31525   4.223   5.991   6.860
10209SOL    HW131526   4.273   5.976   6.774
10209SOL    HW231527   4.228   5.909   6.917
10210SOL     OW31528   5.933   5.596   0.292
10210SOL    HW131529   5.992   5.671   0.322
10210SOL    HW231530   5.919   5.602   0.193
10211SOL     OW31531   3.798   5.866   5.380
10211SOL    HW131532   3.866   5.794   5.397
10211SOL    HW231533   3.707   5.825   5.376
10212SOL     OW31534   5.982   5.876   5.701
10212SOL    HW131535   6.046   5.850   5.774
10212SOL    HW231536   5.891   5.839   5.722
10213SOL     OW31537   4.690   1.089   4.460
10213SOL    HW131538   4.602   1.137   4.461
10213SOL    HW231539   4.715   1.065   4.554
10214SOL     OW31540   0.559   1.127   0.545
10214SOL    HW131541   0.628   1.061   0.515
10214SOL    HW231542   0.519   1.098   0.632
10215SOL     OW31543   4.214   2.536   6.896
10215SOL    HW131544   4.281   2.557   6.967
10215SOL    HW231545   4.158   2.459   6.925
10216SOL     OW31546   5.020   0.104   2.681
10216SOL    HW131547   4.931   0.135   2.713
10216SOL    HW231548   5.008   0.046   2.600
10217SOL     OW31549   3.478   2.363   5.950
10217SOL    HW131550   3.424   2.447   5.951
10217SOL    HW231551   3.530   2.358   5.865
10218SOL     OW31552   2.780   2.315   6.803
10218SOL    HW131553   2.783   2.399   6.749
10218SOL    HW231554   2.808   2.335   6.897
10219SOL     OW31555   0.739   4.946   6.806
10219SOL    HW131556   0.736   4.997   6.892
10219SOL    HW231557   0.796   4.865   6.818
10220SOL     OW31558   4.039   2.170   0.250
10220SOL    HW131559   4.093   2.117   0.184
10220SOL    HW231560   4.097   2.196   0.327
10221SOL     OW31561   2.950   0.883   4.537
10221SOL    HW131562   2.874   0.820   4.518
10221SOL    HW231563   2.924   0.944   4.613
10222SOL     OW31564   1.911   4.915   5.722
10222SOL    HW131565   1.814   4.939   5.717
10222SOL    HW231566   1.959   4.952   5.643
10223SOL     OW31567   0.227   4.126   0.395
10223SOL    HW131568   0.162   4.063   0.437
10223SOL    HW231569   0.275   4.176   0.467
10224SOL     OW31570   2.698   0.260   4.470
10224SOL    HW131571   2.773   0.206   4.507
10224SOL    HW231572   2.730   0.313   4.391
10225SOL     OW31573   4.723   5.904   4.654
10225SOL    HW131574   4.746   5.899   4.556
10225SOL    HW231575   4.768   5.829   4.703
10226SOL     OW31576   6.990   3.032   6.714
10226SOL    HW131577   6.942   2.945   6.729
10226SOL    HW231578   0.061   3.021   6.733
10227SOL     OW31579   5.024   4.727   5.436
10227SOL    HW131580   5.049   4.802   5.375
10227SOL    HW231581   5.072   4.738   5.523
10228SOL     OW31582   1.377   3.158   2.228
10228SOL    HW131583   1.350   3.133   2.321
10228SOL    HW231584   1.439   3.089   2.191
10229SOL     OW31585   1.966   1.075   1.323
10229SOL    HW131586   2.000   1.062   1.416
10229SOL    HW231587   2.010   1.009   1.262
10230SOL     OW31588   6.105   6.681   3.644
10230SOL    HW131589   6.152   6.595   3.665
10230SOL    HW231590   6.121   6.705   3.548
10231SOL     OW31591   5.049   6.942   4.280
10231SOL    HW131592   5.113   7.011   4.247
10231SOL    HW231593   5.070   6.920   4.376
10232SOL     OW31594   3.902   1.975   3.805
10232SOL    HW131595   3.859   1.887   3.785
10232SOL    HW231596   3.832   2.043   3.825
10233SOL     OW31597   4.715   0.585   5.852
10233SOL    HW131598   4.687   0.570   5.757
10233SOL    HW231599   4.661   0.526   5.912
10234SOL     OW31600   4.632   5.824   1.252
10234SOL    HW131601   4.657   5.867   1.338
10234SOL    HW231602   4.693   5.856   1.179
10235SOL     OW31603   4.818   1.181   0.182
10235SOL    HW131604   4.745   1.113   0.185
10235SOL    HW231605   4.890   1.150   0.120
10236SOL     OW31606   1.892   6.146   1.646
10236SOL    HW131607   1.843   6.232   1.628
10236SOL    HW231608   1.989   6.157   1.624
10237SOL     OW31609   5.762   2.550   3.634
10237SOL    HW131610   5.724   2.539   3.542
10237SOL    HW231611   5.688   2.557   3.700
10238SOL     OW31612   4.396   6.104   4.539
10238SOL    HW131613   4.486   6.091   4.498
10238SOL    HW231614   4.330   6.128   4.468
10239SOL     OW31615   6.184   3.566   4.505
10239SOL    HW131616   6.223   3.527   4.589
10239SOL    HW231617   6.171   3.492   4.438
10240SOL     OW31618   4.835   3.944   3.544
10240SOL    HW131619   4.762   4.008   3.566
10240SOL    HW231620   4.921   3.976   3.585
10241SOL     OW31621   1.849   1.779   2.993
10241SOL    HW131622   1.851   1.831   3.079
10241SOL    HW231623   1.896   1.832   2.922
10242SOL     OW31624   1.056   5.151   6.049
10242SOL    HW131625   1.083   5.169   5.954
10242SOL    HW231626   0.958   5.132   6.053
10243SOL     OW31627   1.030   6.341   2.655
10243SOL    HW131628   1.102   6.408   2.643
10243SOL    HW231629   0.991   6.350   2.747
10244SOL     OW31630   1.368   5.483   0.323
10244SOL    HW131631   1.388   5.560   0.262
10244SOL    HW231632   1.423   5.491   0.406
10245SOL     OW31633   2.212   2.472   6.985
10245SOL    HW131634   2.161   2.419   0.026
10245SOL    HW231635   2.210   2.569   7.011
10246SOL     OW31636   3.335   3.673   3.901
10246SOL    HW131637   3.341   3.759   3.851
10246SOL    HW231638   3.273   3.610   3.853
10247SOL     OW31639   0.564   6.160   4.963
10247SOL    HW131640   0.644   6.120   4.919
10247SOL    HW231641   0.513   6.089   5.011
10248SOL     OW31642   5.358   1.196   3.165
10248SOL    HW131643   5.358   1.296   3.172
10248SOL    HW231644   5.348   1.156   3.256
10249SOL     OW31645   4.685   1.476   6.670
10249SOL    HW131646   4.779   1.478   6.638
10249SOL    HW231647   4.682   1.444   6.765
10250SOL     OW31648   5.327   6.998   0.490
10250SOL    HW131649   5.318   0.053   0.433
10250SOL    HW231650   5.373   7.022   0.576
10251SOL     OW31651   4.007   4.666   0.828
10251SOL    HW131652   4.065   4.728   0.881
10251SOL    HW231653   4.065   4.599   0.782
10252SOL     OW31654   6.894   4.791   1.222
10252SOL    HW131655   6.869   4.713   1.165
10252SOL    HW231656   6.811   4.842   1.246
10253SOL     OW31657   3.814   4.880   0.478
10253SOL    HW131658   3.809   4.793   0.428
10253SOL    HW231659   3.804   4.862   0.576
10254SOL     OW31660   2.352   1.444   4.722
10254SOL    HW131661   2.325   1.421   4.815
10254SOL    HW231662   2.342   1.364   4.663
10255SOL     OW31663   3.069   5.550   2.627
10255SOL    HW131664   3.143   5.611   2.597
10255SOL    HW231665   3.001   5.541   2.554
10256SOL     OW31666   6.021   6.252   6.680
10256SOL    HW131667   6.076   6.313   6.624
10256SOL    HW231668   5.924   6.272   6.667
10257SOL     OW31669   1.722   5.849   5.509
10257SOL    HW131670   1.779   5.807   5.580
10257SOL    HW231671   1.627   5.821   5.523
10258SOL     OW31672   4.268   0.802   3.542
10258SOL    HW131673   4.322   0.878   3.577
10258SOL    HW231674   4.171   0.818   3.561
10259SOL     OW31675   0.788   3.506   4.066
10259SOL    HW131676   0.777   3.440   3.992
10259SOL    HW231677   0.882   3.504   4.099
10260SOL     OW31678   6.970   6.212   2.114
10260SOL    HW131679   0.041   6.196   2.127
10260SOL    HW231680   6.947   6.202   2.017
10261SOL     OW31681   2.022   0.425   1.836
10261SOL    HW131682   1.990   0.519   1.852
10261SOL    HW231683   2.121   0.423   1.839
10262SOL     OW31684   1.135   5.800   4.188
10262SOL    HW131685   1.074   5.730   4.151
10262SOL    HW231686   1.171   5.770   4.276
10263SOL     OW31687   6.844   2.638   5.388
10263SOL    HW131688   6.863   2.733   5.409
10263SOL    HW231689   6.928   2.584   5.397
10264SOL     OW31690   0.466   6.856   0.052
10264SOL    HW131691   0.442   6.820   0.143
10264SOL    HW231692   0.555   6.902   0.057
10265SOL     OW31693   4.434   2.193   2.333
10265SOL    HW131694   4.467   2.242   2.414
10265SOL    HW231695   4.373   2.252   2.281
10266SOL     OW31696   4.122   3.431   6.657
10266SOL    HW131697   4.145   3.387   6.744
10266SOL    HW231698   4.024   3.426   6.642
10267SOL     OW31699   6.832   1.628   6.461
10267SOL    HW131700   6.905   1.651   6.525
10267SOL    HW231701   6.841   1.532   6.432
10268SOL     OW31702   6.367   4.477   1.247
10268SOL    HW131703   6.319   4.459   1.161
10268SOL    HW231704   6.450   4.529   1.228
10269SOL     OW31705   3.210   1.784   6.019
10269SOL    HW131706   3.187   1.868   6.069
10269SOL    HW231707   3.128   1.750   5.972
10270SOL     OW31708   2.894   6.573   2.006
10270SOL    HW131709   2.796   6.595   2.002
10270SOL    HW231710   2.910   6.505   2.078
10271SOL     OW31711   2.881   5.525   1.148
10271SOL    HW131712   2.803   5.523   1.211
10271SOL    HW231713   2.965   5.507   1.199
10272SOL     OW31714   1.786   1.992   4.084
10272SOL    HW131715   1.739   2.015   3.999
10272SOL    HW231716   1.787   2.071   4.145
10273SOL     OW31717   4.035   0.183   4.202
10273SOL    HW131718   4.028   0.084   4.206
10273SOL    HW231719   3.958   0.224   4.250
10274SOL     OW31720   2.863   4.863   6.581
10274SOL    HW131721   2.947   4.856   6.635
10274SOL    HW231722   2.801   4.928   6.625
10275SOL     OW31723   1.029   6.746   1.676
10275SOL    HW131724   1.060   6.717   1.586
10275SOL    HW231725   1.027   6.667   1.737
10276SOL     OW31726   0.424   6.046   6.836
10276SOL    HW131727   0.367   5.964   6.825
10276SOL    HW231728   0.372   6.116   6.885
10277SOL     OW31729   0.657   6.150   2.188
10277SOL    HW131730   0.664   6.053   2.210
10277SOL    HW231731   0.627   6.200   2.270
10278SOL     OW31732   6.462   0.096   5.696
10278SOL    HW131733   6.542   0.044   5.726
10278SOL    HW231734   6.381   0.038   5.700
10279SOL     OW31735   4.120   6.176   4.705
10279SOL    HW131736   4.201   6.210   4.657
10279SOL    HW231737   4.065   6.121   4.643
10280SOL     OW31738   3.325   2.841   6.814
10280SOL    HW131739   3.344   2.901   6.736
10280SOL    HW231740   3.320   2.895   6.897
10281SOL     OW31741   4.241   0.418   4.260
10281SOL    HW131742   4.154   0.371   4.278
10281SOL    HW231743   4.315   0.351   4.260
10282SOL     OW31744   1.129   2.966   4.580
10282SOL    HW131745   1.215   2.952   4.531
10282SOL    HW231746   1.148   2.977   4.678
10283SOL     OW31747   1.895   4.092   6.341
10283SOL    HW131748   1.873   4.026   6.412
10283SOL    HW231749   1.833   4.080   6.264
10284SOL     OW31750   4.778   2.962   0.126
10284SOL    HW131751   4.785   2.932   0.221
10284SOL    HW231752   4.847   3.032   0.108
10285SOL     OW31753   5.561   0.612   0.925
10285SOL    HW131754   5.483   0.635   0.983
10285SOL    HW231755   5.546   0.650   0.833
10286SOL     OW31756   4.370   1.199   3.881
10286SOL    HW131757   4.438   1.250   3.933
10286SOL    HW231758   4.318   1.140   3.943
10287SOL     OW31759   1.249   4.567   2.192
10287SOL    HW131760   1.256   4.480   2.241
10287SOL    HW231761   1.300   4.637   2.241
10288SOL     OW31762   4.622   6.381   4.546
10288SOL    HW131763   4.676   6.425   4.474
10288SOL    HW231764   4.631   6.281   4.537
10289SOL     OW31765   2.595   1.449   1.129
10289SOL    HW131766   2.506   1.492   1.112
10289SOL    HW231767   2.667   1.503   1.086
10290SOL     OW31768   2.962   3.407   1.938
10290SOL    HW131769   3.036   3.450   1.988
10290SOL    HW231770   2.907   3.477   1.893
10291SOL     OW31771   3.994   0.519   5.587
10291SOL    HW131772   3.936   0.575   5.528
10291SOL    HW231773   4.077   0.570   5.610
10292SOL     OW31774   0.601   1.715   4.798
10292SOL    HW131775   0.581   1.716   4.896
10292SOL    HW231776   0.574   1.627   4.759
10293SOL     OW31777   3.142   5.705   3.286
10293SOL    HW131778   3.159   5.751   3.373
10293SOL    HW231779   3.055   5.656   3.291
10294SOL     OW31780   6.777   1.564   2.721
10294SOL    HW131781   6.770   1.473   2.680
10294SOL    HW231782   6.822   1.557   2.810
10295SOL     OW31783   1.791   4.235   4.289
10295SOL    HW131784   1.800   4.226   4.388
10295SOL    HW231785   1.771   4.330   4.266
10296SOL     OW31786   6.612   2.949   1.795
10296SOL    HW131787   6.593   3.045   1.774
10296SOL    HW231788   6.527   2.904   1.821
10297SOL     OW31789   3.045   5.361   4.785
10297SOL    HW131790   3.104   5.324   4.857
10297SOL    HW231791   3.101   5.410   4.719
10298SOL     OW31792   5.669   3.105   3.067
10298SOL    HW131793   5.666   3.188   3.011
10298SOL    HW231794   5.666   3.131   3.164
10299SOL     OW31795   4.916   3.832   1.945
10299SOL    HW131796   4.889   3.783   2.028
10299SOL    HW231797   4.950   3.923   1.971
10300SOL     OW31798   1.261   5.390   1.471
10300SOL    HW131799   1.263   5.404   1.372
10300SOL    HW231800   1.323   5.316   1.495
10301SOL     OW31801   4.477   1.323   1.690
10301SOL    HW131802   4.554   1.344   1.751
10301SOL    HW231803   4.445   1.407   1.647
10302SOL     OW31804   1.792   4.499   4.239
10302SOL    HW131805   1.853   4.510   4.318
10302SOL    HW231806   1.747   4.586   4.219
10303SOL     OW31807   4.077   2.818   1.364
10303SOL    HW131808   4.163   2.817   1.313
10303SOL    HW231809   4.095   2.809   1.462
10304SOL     OW31810   6.103   6.278   3.970
10304SOL    HW131811   6.175   6.343   3.950
10304SOL    HW231812   6.075   6.287   4.065
10305SOL     OW31813   1.565   5.515   0.837
10305SOL    HW131814   1.644   5.456   0.819
10305SOL    HW231815   1.522   5.488   0.922
10306SOL     OW31816   4.115   4.251   0.709
10306SOL    HW131817   4.157   4.167   0.674
10306SOL    HW231818   4.088   4.237   0.805
10307SOL     OW31819   2.236   1.550   5.148
10307SOL    HW131820   2.323   1.560   5.196
10307SOL    HW231821   2.161   1.555   5.214
10308SOL     OW31822   2.990   5.774   3.780
10308SOL    HW131823   3.025   5.695   3.729
10308SOL    HW231824   2.926   5.743   3.850
10309SOL     OW31825   0.168   6.247   3.557
10309SOL    HW131826   0.100   6.275   3.489
10309SOL    HW231827   0.198   6.154   3.537
10310SOL     OW31828   3.580   2.902   4.376
10310SOL    HW131829   3.665   2.885   4.325
10310SOL    HW231830   3.573   2.837   4.451
10311SOL     OW31831   0.559   6.683   0.713
10311SOL    HW131832   0.625   6.740   0.761
10311SOL    HW231833   0.574   6.587   0.739
10312SOL     OW31834   2.302   4.779   0.913
10312SOL    HW131835   2.228   4.831   0.871
10312SOL    HW231836   2.264   4.705   0.968
10313SOL     OW31837   6.581   5.469   3.945
10313SOL    HW131838   6.574   5.542   3.877
10313SOL    HW231839   6.606   5.508   4.034
10314SOL     OW31840   6.284   5.495   5.164
10314SOL    HW131841   6.204   5.517   5.108
10314SOL    HW231842   6.303   5.397   5.159
10315SOL     OW31843   4.807   6.913   5.522
10315SOL    HW131844   4.788   6.833   5.578
10315SOL    HW231845   4.723   6.963   5.504
10316SOL     OW31846   0.061   3.780   2.772
10316SOL    HW131847   0.113   3.764   2.856
10316SOL    HW231848   0.074   3.874   2.742
10317SOL     OW31849   4.825   4.649   0.281
10317SOL    HW131850   4.801   4.554   0.261
10317SOL    HW231851   4.886   4.652   0.360
10318SOL     OW31852   6.379   5.439   2.732
10318SOL    HW131853   6.282   5.417   2.729
10318SOL    HW231854   6.391   5.538   2.737
10319SOL     OW31855   5.502   6.572   4.892
10319SOL    HW131856   5.554   6.493   4.863
10319SOL    HW231857   5.533   6.653   4.842
10320SOL     OW31858   4.335   5.809   1.903
10320SOL    HW131859   4.291   5.883   1.853
10320SOL    HW231860   4.268   5.737   1.923
10321SOL     OW31861   3.966   0.350   3.976
10321SOL    HW131862   4.052   0.393   3.948
10321SOL    HW231863   3.986   0.273   4.037
10322SOL     OW31864   0.693   2.572   6.683
10322SOL    HW131865   0.692   2.617   6.772
10322SOL    HW231866   0.671   2.475   6.695
10323SOL     OW31867   0.756   2.282   5.707
10323SOL    HW131868   0.719   2.191   5.690
10323SOL    HW231869   0.855   2.276   5.722
10324SOL     OW31870   3.824   2.918   4.278
10324SOL    HW131871   3.810   2.929   4.180
10324SOL    HW231872   3.916   2.946   4.303
10325SOL     OW31873   0.084   4.078   2.775
10325SOL    HW131874   0.084   4.111   2.870
10325SOL    HW231875   0.021   4.133   2.721
10326SOL     OW31876   5.475   1.727   1.415
10326SOL    HW131877   5.438   1.820   1.408
10326SOL    HW231878   5.407   1.667   1.457
10327SOL     OW31879   6.542   1.106   2.989
10327SOL    HW131880   6.463   1.152   3.030
10327SOL    HW231881   6.576   1.160   2.912
10328SOL     OW31882   6.130   3.769   2.694
10328SOL    HW131883   6.096   3.834   2.762
10328SOL    HW231884   6.115   3.676   2.726
10329SOL     OW31885   3.439   6.307   2.905
10329SOL    HW131886   3.466   6.376   2.837
10329SOL    HW231887   3.516   6.246   2.923
10330SOL     OW31888   3.188   4.064   1.162
10330SOL    HW131889   3.128   4.051   1.083
10330SOL    HW231890   3.205   3.976   1.207
10331SOL     OW31891   5.238   0.912   4.507
10331SOL    HW131892   5.222   0.835   4.569
10331SOL    HW231893   5.215   0.886   4.414
10332SOL     OW31894   0.456   1.325   6.575
10332SOL    HW131895   0.504   1.406   6.609
10332SOL    HW231896   0.471   1.248   6.638
10333SOL     OW31897   6.019   4.631   5.519
10333SOL    HW131898   6.079   4.700   5.558
10333SOL    HW231899   6.050   4.608   5.427
10334SOL     OW31900   1.087   4.848   5.232
10334SOL    HW131901   1.172   4.895   5.255
10334SOL    HW231902   1.096   4.750   5.252
10335SOL     OW31903   3.129   5.045   2.120
10335SOL    HW131904   3.080   4.972   2.073
10335SOL    HW231905   3.224   5.047   2.088
10336SOL     OW31906   5.087   6.721   2.721
10336SOL    HW131907   5.003   6.769   2.748
10336SOL    HW231908   5.111   6.747   2.627
10337SOL     OW31909   0.170   4.716   5.720
10337SOL    HW131910   0.189   4.674   5.630
10337SOL    HW231911   0.152   4.813   5.708
10338SOL     OW31912   2.815   5.036   2.482
10338SOL    HW131913   2.803   5.132   2.506
10338SOL    HW231914   2.893   5.027   2.419
10339SOL     OW31915   3.007   5.888   0.993
10339SOL    HW131916   3.007   5.936   1.081
10339SOL    HW231917   2.913   5.865   0.968
10340SOL     OW31918   1.662   6.076   0.168
10340SOL    HW131919   1.748   6.118   0.197
10340SOL    HW231920   1.665   6.059   0.070
10341SOL     OW31921   0.895   2.501   2.269
10341SOL    HW131922   0.825   2.452   2.217
10341SOL    HW231923   0.852   2.570   2.327
10342SOL     OW31924   3.562   6.565   3.841
10342SOL    HW131925   3.607   6.482   3.807
10342SOL    HW231926   3.477   6.580   3.790
10343SOL     OW31927   2.484   2.623   4.087
10343SOL    HW131928   2.554   2.569   4.134
10343SOL    HW231929   2.445   2.690   4.150
10344SOL     OW31930   4.290   3.495   1.772
10344SOL    HW131931   4.249   3.434   1.705
10344SOL    HW231932   4.388   3.480   1.776
10345SOL     OW31933   2.529   2.442   5.769
10345SOL    HW131934   2.560   2.353   5.738
10345SOL    HW231935   2.602   2.487   5.821
10346SOL     OW31936   6.079   5.224   0.671
10346SOL    HW131937   6.114   5.264   0.756
10346SOL    HW231938   6.050   5.296   0.609
10347SOL     OW31939   4.527   0.488   1.508
10347SOL    HW131940   4.562   0.410   1.559
10347SOL    HW231941   4.565   0.573   1.547
10348SOL     OW31942   6.890   4.859   5.784
10348SOL    HW131943   6.831   4.799   5.729
10348SOL    HW231944   6.863   4.851   5.880
10349SOL     OW31945   6.600   2.263   0.346
10349SOL    HW131946   6.633   2.255   0.440
10349SOL    HW231947   6.537   2.188   0.326
10350SOL     OW31948   2.154   4.794   4.901
10350SOL    HW131949   2.235   4.833   4.856
10350SOL    HW231950   2.181   4.756   4.989
10351SOL     OW31951   3.881   4.955   4.669
10351SOL    HW131952   3.905   5.051   4.674
10351SOL    HW231953   3.896   4.911   4.757
10352SOL     OW31954   6.712   0.938   7.024
10352SOL    HW131955   6.633   0.894   6.983
10352SOL    HW231956   6.735   1.021   6.973
10353SOL     OW31957   6.458   2.412   3.772
10353SOL    HW131958   6.531   2.448   3.830
10353SOL    HW231959   6.451   2.313   3.784
10354SOL     OW31960   6.177   2.510   1.542
10354SOL    HW131961   6.267   2.549   1.561
10354SOL    HW231962   6.124   2.574   1.486
10355SOL     OW31963   0.556   1.955   0.618
10355SOL    HW131964   0.640   1.989   0.661
10355SOL    HW231965   0.579   1.892   0.544
10356SOL     OW31966   5.312   2.296   6.377
10356SOL    HW131967   5.273   2.237   6.447
10356SOL    HW231968   5.260   2.382   6.373
10357SOL     OW31969   1.243   0.188   6.128
10357SOL    HW131970   1.338   0.170   6.102
10357SOL    HW231971   1.234   0.182   6.227
10358SOL     OW31972   0.250   2.575   2.819
10358SOL    HW131973   0.223   2.585   2.915
10358SOL    HW231974   0.240   2.479   2.791
10359SOL     OW31975   0.631   2.112   1.988
10359SOL    HW131976   0.636   2.097   2.087
10359SOL    HW231977   0.564   2.049   1.949
10360SOL     OW31978   6.021   3.848   1.163
10360SOL    HW131979   6.077   3.781   1.113
10360SOL    HW231980   5.924   3.827   1.151
10361SOL     OW31981   6.312   2.004   2.077
10361SOL    HW131982   6.292   2.026   2.173
10361SOL    HW231983   6.240   2.042   2.019
10362SOL     OW31984   1.396   5.546   1.648
10362SOL    HW131985   1.375   5.549   1.746
10362SOL    HW231986   1.331   5.486   1.602
10363SOL     OW31987   5.540   5.039   6.875
10363SOL    HW131988   5.484   5.081   6.947
10363SOL    HW231989   5.484   4.976   6.821
10364SOL     OW31990   5.511   5.625   2.788
10364SOL    HW131991   5.503   5.724   2.791
10364SOL    HW231992   5.521   5.589   2.881
10365SOL     OW31993   6.255   5.598   0.332
10365SOL    HW131994   6.347   5.617   0.366
10365SOL    HW231995   6.205   5.684   0.319
10366SOL     OW31996   3.016   6.472   3.972
10366SOL    HW131997   3.014   6.491   3.874
10366SOL    HW231998   3.098   6.512   4.013
10367SOL     OW31999   5.222   6.470   1.989
10367SOL    HW132000   5.266   6.548   1.945
10367SOL    HW232001   5.220   6.393   1.925
10368SOL     OW32002   1.411   5.342   1.921
10368SOL    HW132003   1.346   5.267   1.912
10368SOL    HW232004   1.371   5.426   1.883
10369SOL     OW32005   2.632   0.232   5.889
10369SOL    HW132006   2.572   0.234   5.969
10369SOL    HW232007   2.577   0.227   5.806
10370SOL     OW32008   2.045   1.559   5.696
10370SOL    HW132009   1.999   1.502   5.629
10370SOL    HW232010   1.995   1.557   5.782
10371SOL     OW32011   4.176   5.643   2.670
10371SOL    HW132012   4.101   5.709   2.682
10371SOL    HW232013   4.257   5.678   2.716
10372SOL     OW32014   2.308   6.722   1.284
10372SOL    HW132015   2.386   6.714   1.345
10372SOL    HW232016   2.244   6.647   1.301
10373SOL     OW32017   5.809   1.078   6.669
10373SOL    HW132018   5.815   1.153   6.735
10373SOL    HW232019   5.873   1.095   6.594
10374SOL     OW32020   3.040   5.161   3.318
10374SOL    HW132021   3.016   5.071   3.355
10374SOL    HW232022   3.004   5.170   3.225
10375SOL     OW32023   2.326   5.508   1.009
10375SOL    HW132024   2.295   5.443   0.940
10375SOL    HW232025   2.423   5.528   0.995
10376SOL     OW32026   2.453   5.017   3.663
10376SOL    HW132027   2.495   5.102   3.633
10376SOL    HW232028   2.384   4.987   3.597
10377SOL     OW32029   2.102   0.962   2.077
10377SOL    HW132030   2.048   0.920   2.150
10377SOL    HW232031   2.167   0.895   2.041
10378SOL     OW32032   0.494   6.242   4.697
10378SOL    HW132033   0.453   6.152   4.679
10378SOL    HW232034   0.500   6.256   4.796
10379SOL     OW32035   2.334   0.342   3.705
10379SOL    HW132036   2.343   0.254   3.753
10379SOL    HW232037   2.402   0.346   3.632
10380SOL     OW32038   3.319   1.846   4.168
10380SOL    HW132039   3.413   1.821   4.145
10380SOL    HW232040   3.313   1.865   4.266
10381SOL     OW32041   4.074   6.670   2.630
10381SOL    HW132042   4.038   6.638   2.543
10381SOL    HW232043   4.034   6.617   2.705
10382SOL     OW32044   4.319   5.569   1.699
10382SOL    HW132045   4.361   5.660   1.700
10382SOL    HW232046   4.391   5.499   1.701
10383SOL     OW32047   0.798   4.754   0.255
10383SOL    HW132048   0.881   4.699   0.261
10383SOL    HW232049   0.731   4.708   0.197
10384SOL     OW32050   5.416   5.747   1.518
10384SOL    HW132051   5.486   5.775   1.453
10384SOL    HW232052   5.355   5.824   1.536
10385SOL     OW32053   4.535   4.334   0.699
10385SOL    HW132054   4.541   4.279   0.616
10385SOL    HW232055   4.514   4.275   0.777
10386SOL     OW32056   0.311   0.709   1.298
10386SOL    HW132057   0.302   0.617   1.260
10386SOL    HW232058   0.382   0.759   1.248
10387SOL     OW32059   4.869   3.181   2.257
10387SOL    HW132060   4.805   3.111   2.226
10387SOL    HW232061   4.851   3.202   2.354
10388SOL     OW32062   1.717   6.742   5.210
10388SOL    HW132063   1.629   6.787   5.224
10388SOL    HW232064   1.789   6.811   5.201
10389SOL     OW32065   0.914   4.021   6.844
10389SOL    HW132066   0.925   4.035   6.745
10389SOL    HW232067   0.834   4.070   6.876
10390SOL     OW32068   2.282   2.570   1.982
10390SOL    HW132069   2.309   2.659   1.946
10390SOL    HW232070   2.285   2.502   1.908
10391SOL     OW32071   5.711   6.723   4.304
10391SOL    HW132072   5.759   6.690   4.384
10391SOL    HW232073   5.619   6.684   4.302
10392SOL     OW32074   6.532   3.929   4.554
10392SOL    HW132075   6.480   3.901   4.635
10392SOL    HW232076   6.470   3.971   4.488
10393SOL     OW32077   1.466   3.068   3.057
10393SOL    HW132078   1.409   3.050   2.976
10393SOL    HW232079   1.542   3.004   3.059
10394SOL     OW32080   3.008   0.299   4.351
10394SOL    HW132081   3.096   0.255   4.368
10394SOL    HW232082   3.023   0.383   4.298
10395SOL     OW32083   1.191   0.047   0.661
10395SOL    HW132084   1.167   0.034   0.757
10395SOL    HW232085   1.226   0.140   0.649
10396SOL     OW32086   3.403   2.133   4.952
10396SOL    HW132087   3.315   2.180   4.955
10396SOL    HW232088   3.465   2.184   4.892
10397SOL     OW32089   4.956   1.993   4.096
10397SOL    HW132090   4.952   2.022   4.191
10397SOL    HW232091   4.961   2.074   4.036
10398SOL     OW32092   5.752   2.978   2.429
10398SOL    HW132093   5.661   2.949   2.456
10398SOL    HW232094   5.819   2.911   2.462
10399SOL     OW32095   1.098   3.822   1.669
10399SOL    HW132096   1.166   3.890   1.696
10399SOL    HW232097   1.112   3.796   1.574
10400SOL     OW32098   2.327   6.421   0.870
10400SOL    HW132099   2.424   6.429   0.889
10400SOL    HW232100   2.274   6.449   0.950
10401SOL     OW32101   0.658   0.933   5.632
10401SOL    HW132102   0.689   1.013   5.684
10401SOL    HW232103   0.697   0.850   5.672
10402SOL     OW32104   0.071   3.035   5.042
10402SOL    HW132105   0.014   3.112   5.013
10402SOL    HW232106   0.018   2.951   5.040
10403SOL     OW32107   3.316   0.256   0.717
10403SOL    HW132108   3.293   0.235   0.812
10403SOL    HW232109   3.326   0.355   0.707
10404SOL     OW32110   6.656   6.572   6.100
10404SOL    HW132111   6.753   6.577   6.075
10404SOL    HW232112   6.648   6.563   6.199
10405SOL     OW32113   0.583   2.458   6.430
10405SOL    HW132114   0.594   2.516   6.511
10405SOL    HW232115   0.663   2.400   6.419
10406SOL     OW32116   1.917   4.927   1.621
10406SOL    HW132117   1.944   5.016   1.655
10406SOL    HW232118   1.998   4.871   1.605
10407SOL     OW32119   2.117   6.234   5.886
10407SOL    HW132120   2.127   6.234   5.787
10407SOL    HW232121   2.111   6.140   5.920
10408SOL     OW32122   4.072   1.358   0.266
10408SOL    HW132123   4.044   1.280   0.210
10408SOL    HW232124   4.032   1.441   0.230
10409SOL     OW32125   5.750   4.947   1.281
10409SOL    HW132126   5.718   4.853   1.268
10409SOL    HW232127   5.802   4.976   1.201
10410SOL     OW32128   4.909   0.785   0.889
10410SOL    HW132129   4.936   0.869   0.936
10410SOL    HW232130   4.990   0.743   0.847
10411SOL     OW32131   2.710   5.367   3.774
10411SOL    HW132132   2.723   5.459   3.737
10411SOL    HW232133   2.799   5.324   3.788
10412SOL     OW32134   5.944   0.392   0.514
10412SOL    HW132135   5.957   0.327   0.589
10412SOL    HW232136   6.033   0.430   0.487
10413SOL     OW32137   0.014   2.946   2.073
10413SOL    HW132138   0.113   2.934   2.081
10413SOL    HW232139   7.018   2.973   1.979
10414SOL     OW32140   5.155   2.934   4.128
10414SOL    HW132141   5.139   3.033   4.129
10414SOL    HW232142   5.224   2.912   4.060
10415SOL     OW32143   0.087   0.148   6.143
10415SOL    HW132144   0.006   0.118   6.091
10415SOL    HW232145   0.072   0.241   6.177
10416SOL     OW32146   5.319   3.259   4.844
10416SOL    HW132147   5.354   3.169   4.818
10416SOL    HW232148   5.264   3.296   4.769
10417SOL     OW32149   2.692   4.760   3.295
10417SOL    HW132150   2.694   4.733   3.199
10417SOL    HW232151   2.618   4.713   3.342
10418SOL     OW32152   1.309   5.140   6.164
10418SOL    HW132153   1.320   5.128   6.263
10418SOL    HW232154   1.214   5.123   6.139
10419SOL     OW32155   1.079   1.541   1.007
10419SOL    HW132156   0.988   1.577   1.029
10419SOL    HW232157   1.143   1.618   0.995
10420SOL     OW32158   0.359   3.335   3.769
10420SOL    HW132159   0.269   3.369   3.741
10420SOL    HW232160   0.430   3.398   3.737
10421SOL     OW32161   0.310   1.072   3.488
10421SOL    HW132162   0.285   1.049   3.582
10421SOL    HW232163   0.247   1.142   3.453
10422SOL     OW32164   5.826   3.362   5.997
10422SOL    HW132165   5.883   3.404   6.068
10422SOL    HW232166   5.852   3.399   5.908
10423SOL     OW32167   5.045   4.207   2.950
10423SOL    HW132168   5.112   4.143   2.989
10423SOL    HW232169   4.970   4.156   2.908
10424SOL     OW32170   4.634   2.055   6.187
10424SOL    HW132171   4.550   2.006   6.162
10424SOL    HW232172   4.651   2.127   6.120
10425SOL     OW32173   1.887   6.595   2.063
10425SOL    HW132174   1.923   6.611   2.155
10425SOL    HW232175   1.900   6.500   2.037
10426SOL     OW32176   6.419   3.472   7.000
10426SOL    HW132177   6.445   3.458   0.069
10426SOL    HW232178   6.499   3.462   6.941
10427SOL     OW32179   4.758   1.667   0.803
10427SOL    HW132180   4.683   1.703   0.748
10427SOL    HW232181   4.775   1.572   0.778
10428SOL     OW32182   4.331   1.298   4.763
10428SOL    HW132183   4.394   1.363   4.721
10428SOL    HW232184   4.374   1.208   4.768
10429SOL     OW32185   6.215   6.674   2.341
10429SOL    HW132186   6.141   6.704   2.280
10429SOL    HW232187   6.288   6.743   2.339
10430SOL     OW32188   4.009   6.433   3.041
10430SOL    HW132189   3.936   6.375   3.078
10430SOL    HW232190   4.054   6.482   3.116
10431SOL     OW32191   2.296   1.334   4.975
10431SOL    HW132192   2.270   1.401   5.045
10431SOL    HW232193   2.299   1.243   5.016
10432SOL     OW32194   5.570   0.990   5.194
10432SOL    HW132195   5.530   0.926   5.260
10432SOL    HW232196   5.639   1.046   5.239
10433SOL     OW32197   2.914   6.529   1.096
10433SOL    HW132198   2.867   6.455   1.143
10433SOL    HW232199   2.900   6.520   0.997
10434SOL     OW32200   2.628   1.898   4.046
10434SOL    HW132201   2.685   1.819   4.069
10434SOL    HW232202   2.666   1.944   3.965
10435SOL     OW32203   5.162   6.134   0.141
10435SOL    HW132204   5.102   6.061   0.174
10435SOL    HW232205   5.241   6.143   0.203
10436SOL     OW32206   1.224   6.530   2.666
10436SOL    HW132207   1.289   6.507   2.739
10436SOL    HW232208   1.274   6.571   2.590
10437SOL     OW32209   6.408   4.958   5.872
10437SOL    HW132210   6.368   5.002   5.791
10437SOL    HW232211   6.374   4.864   5.879
10438SOL     OW32212   3.498   6.137   6.396
10438SOL    HW132213   3.464   6.079   6.321
10438SOL    HW232214   3.450   6.114   6.480
10439SOL     OW32215   4.027   0.348   5.843
10439SOL    HW132216   3.982   0.362   5.755
10439SOL    HW232217   3.992   0.265   5.886
10440SOL     OW32218   2.369   5.946   0.468
10440SOL    HW132219   2.348   5.854   0.502
10440SOL    HW232220   2.462   5.971   0.495
10441SOL     OW32221   3.612   0.881   6.774
10441SOL    HW132222   3.707   0.902   6.794
10441SOL    HW232223   3.605   0.789   6.735
10442SOL     OW32224   4.554   5.490   5.954
10442SOL    HW132225   4.618   5.541   5.896
10442SOL    HW232226   4.469   5.542   5.964
10443SOL     OW32227   6.319   2.769   5.112
10443SOL    HW132228   6.322   2.732   5.019
10443SOL    HW232229   6.252   2.843   5.116
10444SOL     OW32230   3.685   4.997   3.993
10444SOL    HW132231   3.750   5.014   4.068
10444SOL    HW232232   3.600   4.961   4.030
10445SOL     OW32233   6.119   6.030   4.309
10445SOL    HW132234   6.103   5.936   4.341
10445SOL    HW232235   6.187   6.029   4.236
10446SOL     OW32236   1.144   5.642   6.324
10446SOL    HW132237   1.126   5.557   6.274
10446SOL    HW232238   1.067   5.663   6.383
10447SOL     OW32239   6.014   2.119   1.424
10447SOL    HW132240   6.097   2.065   1.410
10447SOL    HW232241   5.952   2.070   1.485
10448SOL     OW32242   3.183   4.014   2.210
10448SOL    HW132243   3.195   3.915   2.208
10448SOL    HW232244   3.249   4.057   2.149
10449SOL     OW32245   1.572   4.908   4.426
10449SOL    HW132246   1.476   4.907   4.455
10449SOL    HW232247   1.631   4.924   4.505
10450SOL     OW32248   6.939   3.125   1.185
10450SOL    HW132249   6.881   3.145   1.265
10450SOL    HW232250   6.881   3.104   1.107
10451SOL     OW32251   2.246   4.137   2.679
10451SOL    HW132252   2.207   4.220   2.720
10451SOL    HW232253   2.255   4.150   2.580
10452SOL     OW32254   1.141   4.015   5.234
10452SOL    HW132255   1.212   3.958   5.193
10452SOL    HW232256   1.140   4.105   5.189
10453SOL     OW32257   5.313   0.190   1.977
10453SOL    HW132258   5.388   0.182   1.912
10453SOL    HW232259   5.328   0.268   2.037
10454SOL     OW32260   4.877   3.256   2.544
10454SOL    HW132261   4.965   3.215   2.566
10454SOL    HW232262   4.819   3.258   2.626
10455SOL     OW32263   6.394   4.326   2.660
10455SOL    HW132264   6.404   4.227   2.655
10455SOL    HW232265   6.332   4.357   2.588
10456SOL     OW32266   3.895   6.521   1.080
10456SOL    HW132267   3.884   6.423   1.096
10456SOL    HW232268   3.838   6.572   1.144
10457SOL     OW32269   3.646   3.755   4.257
10457SOL    HW132270   3.726   3.803   4.221
10457SOL    HW232271   3.676   3.672   4.304
10458SOL     OW32272   6.950   6.731   1.675
10458SOL    HW132273   7.016   6.701   1.606
10458SOL    HW232274   6.984   6.812   1.722
10459SOL     OW32275   6.722   5.044   2.390
10459SOL    HW132276   6.727   5.022   2.293
10459SOL    HW232277   6.776   5.126   2.409
10460SOL     OW32278   2.071   5.485   2.064
10460SOL    HW132279   2.016   5.439   1.994
10460SOL    HW232280   2.027   5.572   2.089
10461SOL     OW32281   2.191   1.564   6.149
10461SOL    HW132282   2.117   1.630   6.134
10461SOL    HW232283   2.279   1.607   6.125
10462SOL     OW32284   5.889   6.883   1.211
10462SOL    HW132285   5.927   6.975   1.202
10462SOL    HW232286   5.799   6.888   1.254
10463SOL     OW32287   2.782   4.031   1.517
10463SOL    HW132288   2.759   4.093   1.442
10463SOL    HW232289   2.877   4.001   1.509
10464SOL     OW32290   5.250   0.445   1.533
10464SOL    HW132291   5.197   0.362   1.520
10464SOL    HW232292   5.189   0.520   1.560
10465SOL     OW32293   6.599   5.464   4.984
10465SOL    HW132294   6.689   5.444   4.944
10465SOL    HW232295   6.564   5.383   5.030
10466SOL     OW32296   5.383   6.256   6.159
10466SOL    HW132297   5.360   6.314   6.237
10466SOL    HW232298   5.356   6.162   6.179
10467SOL     OW32299   4.284   0.973   4.006
10467SOL    HW132300   4.251   0.886   3.970
10467SOL    HW232301   4.368   0.958   4.058
10468SOL     OW32302   3.290   5.803   2.852
10468SOL    HW132303   3.252   5.730   2.908
10468SOL    HW232304   3.390   5.800   2.856
10469SOL     OW32305   1.853   4.869   0.070
10469SOL    HW132306   1.774   4.917   0.030
10469SOL    HW232307   1.867   4.782   0.022
10470SOL     OW32308   2.531   1.606   4.405
10470SOL    HW132309   2.496   1.694   4.375
10470SOL    HW232310   2.581   1.617   4.491
10471SOL     OW32311   4.546   3.761   0.644
10471SOL    HW132312   4.582   3.713   0.724
10471SOL    HW232313   4.487   3.836   0.674
10472SOL     OW32314   4.723   1.583   3.007
10472SOL    HW132315   4.752   1.679   3.015
10472SOL    HW232316   4.676   1.556   3.091
10473SOL     OW32317   4.886   5.565   0.406
10473SOL    HW132318   4.917   5.497   0.473
10473SOL    HW232319   4.925   5.544   0.316
10474SOL     OW32320   4.777   0.184   4.351
10474SOL    HW132321   4.852   0.121   4.327
10474SOL    HW232322   4.812   0.277   4.356
10475SOL     OW32323   4.626   5.999   1.833
10475SOL    HW132324   4.602   6.006   1.930
10475SOL    HW232325   4.575   6.066   1.781
10476SOL     OW32326   6.881   4.325   0.268
10476SOL    HW132327   6.827   4.361   0.192
10476SOL    HW232328   6.925   4.240   0.241
10477SOL     OW32329   4.643   4.812   5.133
10477SOL    HW132330   4.591   4.897   5.138
10477SOL    HW232331   4.595   4.747   5.075
10478SOL     OW32332   0.357   6.132   2.385
10478SOL    HW132333   0.329   6.183   2.466
10478SOL    HW232334   0.421   6.059   2.412
10479SOL     OW32335   1.326   4.761   2.656
10479SOL    HW132336   1.310   4.858   2.678
10479SOL    HW232337   1.249   4.706   2.688
10480SOL     OW32338   6.124   0.318   2.593
10480SOL    HW132339   6.067   0.343   2.671
10480SOL    HW232340   6.197   0.256   2.623
10481SOL     OW32341   2.372   0.727   4.894
10481SOL    HW132342   2.306   0.798   4.870
10481SOL    HW232343   2.345   0.641   4.852
10482SOL     OW32344   1.103   5.213   5.775
10482SOL    HW132345   1.102   5.292   5.714
10482SOL    HW232346   1.132   5.132   5.724
10483SOL     OW32347   6.900   5.303   0.811
10483SOL    HW132348   6.889   5.396   0.775
10483SOL    HW232349   6.995   5.274   0.802
10484SOL     OW32350   6.227   1.828   1.635
10484SOL    HW132351   6.171   1.765   1.580
10484SOL    HW232352   6.323   1.816   1.611
10485SOL     OW32353   3.152   4.058   3.428
10485SOL    HW132354   3.061   4.059   3.387
10485SOL    HW232355   3.148   4.097   3.520
10486SOL     OW32356   5.749   5.553   5.200
10486SOL    HW132357   5.782   5.647   5.199
10486SOL    HW232358   5.652   5.553   5.226
10487SOL     OW32359   5.030   2.591   3.022
10487SOL    HW132360   4.965   2.539   2.967
10487SOL    HW232361   5.051   2.677   2.976
10488SOL     OW32362   0.125   2.040   5.553
10488SOL    HW132363   0.180   2.109   5.506
10488SOL    HW232364   0.110   1.962   5.491
10489SOL     OW32365   6.203   4.080   4.613
10489SOL    HW132366   6.274   4.146   4.592
10489SOL    HW232367   6.131   4.084   4.544
10490SOL     OW32368   5.525   0.022   6.898
10490SOL    HW132369   5.597   0.016   6.967
10490SOL    HW232370   5.438   7.020   6.938
10491SOL     OW32371   1.950   2.883   5.733
10491SOL    HW132372   1.931   2.975   5.697
10491SOL    HW232373   2.048   2.865   5.728
10492SOL     OW32374   3.592   5.909   0.424
10492SOL    HW132375   3.660   5.972   0.386
10492SOL    HW232376   3.638   5.827   0.457
10493SOL     OW32377   3.834   5.419   1.590
10493SOL    HW132378   3.776   5.465   1.657
10493SOL    HW232379   3.930   5.436   1.613
10494SOL     OW32380   0.937   4.075   4.360
10494SOL    HW132381   0.925   4.162   4.407
10494SOL    HW232382   0.890   4.078   4.271
10495SOL     OW32383   0.190   6.431   0.773
10495SOL    HW132384   0.112   6.440   0.711
10495SOL    HW232385   0.268   6.480   0.736
10496SOL     OW32386   0.443   4.667   6.671
10496SOL    HW132387   0.541   4.678   6.655
10496SOL    HW232388   0.397   4.649   6.584
10497SOL     OW32389   2.901   0.749   1.768
10497SOL    HW132390   2.912   0.722   1.864
10497SOL    HW232391   2.885   0.848   1.763
10498SOL     OW32392   4.660   3.874   6.631
10498SOL    HW132393   4.647   3.972   6.648
10498SOL    HW232394   4.675   3.859   6.533
10499SOL     OW32395   5.410   3.722   2.866
10499SOL    HW132396   5.474   3.660   2.822
10499SOL    HW232397   5.365   3.676   2.943
10500SOL     OW32398   1.108   3.433   5.241
10500SOL    HW132399   1.170   3.366   5.282
10500SOL    HW232400   1.159   3.490   5.176
10501SOL     OW32401   3.514   4.911   2.906
10501SOL    HW132402   3.605   4.897   2.866
10501SOL    HW232403   3.447   4.927   2.833
10502SOL     OW32404   3.561   3.493   2.626
10502SOL    HW132405   3.658   3.489   2.646
10502SOL    HW232406   3.511   3.432   2.688
10503SOL     OW32407   7.018   1.333   6.016
10503SOL    HW132408   0.085   1.356   5.991
10503SOL    HW232409   6.963   1.417   6.020
10504SOL     OW32410   0.721   3.983   5.816
10504SOL    HW132411   0.639   3.927   5.819
10504SOL    HW232412   0.726   4.040   5.898
10505SOL     OW32413   6.013   0.162   0.681
10505SOL    HW132414   5.990   0.153   0.777
10505SOL    HW232415   6.000   0.074   0.635
10506SOL     OW32416   1.094   4.224   6.395
10506SOL    HW132417   0.994   4.218   6.383
10506SOL    HW232418   1.139   4.174   6.321
10507SOL     OW32419   1.198   5.554   5.829
10507SOL    HW132420   1.233   5.645   5.848
10507SOL    HW232421   1.240   5.488   5.892
10508SOL     OW32422   1.978   5.305   6.268
10508SOL    HW132423   1.978   5.403   6.289
10508SOL    HW232424   1.943   5.254   6.346
10509SOL     OW32425   4.717   2.413   3.157
10509SOL    HW132426   4.648   2.483   3.137
10509SOL    HW232427   4.755   2.429   3.248
10510SOL     OW32428   5.349   5.737   3.672
10510SOL    HW132429   5.304   5.738   3.762
10510SOL    HW232430   5.425   5.802   3.672
10511SOL     OW32431   4.119   1.567   0.922
10511SOL    HW132432   4.024   1.539   0.932
10511SOL    HW232433   4.131   1.618   0.837
10512SOL     OW32434   3.938   1.556   5.289
10512SOL    HW132435   3.936   1.630   5.222
10512SOL    HW232436   3.873   1.577   5.363
10513SOL     OW32437   3.799   3.129   0.231
10513SOL    HW132438   3.826   3.142   0.136
10513SOL    HW232439   3.876   3.092   0.283
10514SOL     OW32440   1.593   4.587   1.755
10514SOL    HW132441   1.611   4.684   1.740
10514SOL    HW232442   1.508   4.576   1.806
10515SOL     OW32443   2.217   3.055   4.738
10515SOL    HW132444   2.199   3.025   4.644
10515SOL    HW232445   2.316   3.064   4.751
10516SOL     OW32446   4.899   2.288   1.714
10516SOL    HW132447   4.870   2.368   1.766
10516SOL    HW232448   4.939   2.318   1.627
10517SOL     OW32449   1.007   2.784   2.322
10517SOL    HW132450   1.090   2.740   2.358
10517SOL    HW232451   0.928   2.751   2.374
10518SOL     OW32452   1.175   5.543   2.226
10518SOL    HW132453   1.099   5.606   2.208
10518SOL    HW232454   1.138   5.454   2.252
10519SOL     OW32455   3.899   6.929   1.392
10519SOL    HW132456   3.940   6.896   1.307
10519SOL    HW232457   3.955   7.002   1.430
10520SOL     OW32458   1.215   2.555   6.427
10520SOL    HW132459   1.231   2.648   6.460
10520SOL    HW232460   1.264   2.490   6.486
10521SOL     OW32461   6.642   2.450   3.101
10521SOL    HW132462   6.691   2.375   3.057
10521SOL    HW232463   6.638   2.434   3.200
10522SOL     OW32464   5.636   1.514   4.021
10522SOL    HW132465   5.583   1.505   3.936
10522SOL    HW232466   5.577   1.492   4.099
10523SOL     OW32467   0.995   4.463   2.481
10523SOL    HW132468   1.005   4.559   2.505
10523SOL    HW232469   0.938   4.417   2.549
10524SOL     OW32470   6.826   6.126   4.774
10524SOL    HW132471   6.761   6.202   4.763
10524SOL    HW232472   6.918   6.158   4.752
10525SOL     OW32473   4.949   1.762   3.909
10525SOL    HW132474   4.968   1.807   3.996
10525SOL    HW232475   5.009   1.799   3.838
10526SOL     OW32476   1.032   5.115   6.448
10526SOL    HW132477   1.030   5.086   6.544
10526SOL    HW232478   0.984   5.202   6.438
10527SOL     OW32479   0.263   6.731   5.368
10527SOL    HW132480   0.305   6.670   5.301
10527SOL    HW232481   0.258   6.685   5.457
10528SOL     OW32482   1.611   4.969   5.441
10528SOL    HW132483   1.619   4.902   5.368
10528SOL    HW232484   1.616   4.922   5.530
10529SOL     OW32485   0.055   5.487   1.124
10529SOL    HW132486   0.037   5.584   1.139
10529SOL    HW232487   6.997   5.440   1.101
10530SOL     OW32488   0.173   6.417   1.799
10530SOL    HW132489   0.262   6.458   1.779
10530SOL    HW232490   0.138   6.370   1.718
10531SOL     OW32491   3.258   2.762   5.598
10531SOL    HW132492   3.218   2.741   5.508
10531SOL    HW232493   3.325   2.692   5.621
10532SOL     OW32494   4.694   6.217   5.887
10532SOL    HW132495   4.660   6.255   5.974
10532SOL    HW232496   4.738   6.129   5.904
10533SOL     OW32497   3.844   0.439   2.933
10533SOL    HW132498   3.897   0.522   2.948
10533SOL    HW232499   3.753   0.450   2.974
10534SOL     OW32500   1.541   5.802   3.550
10534SOL    HW132501   1.472   5.874   3.550
10534SOL    HW232502   1.632   5.843   3.546
10535SOL     OW32503   3.528   2.053   2.647
10535SOL    HW132504   3.444   2.107   2.649
10535SOL    HW232505   3.548   2.024   2.553
10536SOL     OW32506   5.796   3.131   5.419
10536SOL    HW132507   5.833   3.070   5.349
10536SOL    HW232508   5.728   3.192   5.378
10537SOL     OW32509   4.074   1.013   4.205
10537SOL    HW132510   4.155   0.983   4.154
10537SOL    HW232511   4.096   1.016   4.303
10538SOL     OW32512   0.013   2.836   3.338
10538SOL    HW132513   6.990   2.749   3.338
10538SOL    HW232514   6.977   2.910   3.313
10539SOL     OW32515   6.628   6.651   2.938
10539SOL    HW132516   6.620   6.587   2.861
10539SOL    HW232517   6.583   6.737   2.913
10540SOL     OW32518   1.973   4.378   0.019
10540SOL    HW132519   2.025   4.331   6.975
10540SOL    HW232520   2.006   4.350   0.109
10541SOL     OW32521   2.959   3.132   5.232
10541SOL    HW132522   2.862   3.132   5.256
10541SOL    HW232523   2.968   3.134   5.133
10542SOL     OW32524   5.025   6.335   3.197
10542SOL    HW132525   5.092   6.267   3.228
10542SOL    HW232526   4.954   6.344   3.266
10543SOL     OW32527   2.087   2.793   4.235
10543SOL    HW132528   2.074   2.708   4.285
10543SOL    HW232529   2.149   2.778   4.158
10544SOL     OW32530   3.393   1.353   2.990
10544SOL    HW132531   3.458   1.304   2.932
10544SOL    HW232532   3.443   1.413   3.052
10545SOL     OW32533   2.274   2.824   2.160
10545SOL    HW132534   2.282   2.758   2.234
10545SOL    HW232535   2.305   2.781   2.074
10546SOL     OW32536   2.184   0.162   6.956
10546SOL    HW132537   2.186   0.068   6.922
10546SOL    HW232538   2.264   0.211   6.922
10547SOL     OW32539   4.063   6.258   5.612
10547SOL    HW132540   4.023   6.203   5.685
10547SOL    HW232541   4.115   6.199   5.550
10548SOL     OW32542   0.535   5.926   3.265
10548SOL    HW132543   0.596   5.856   3.300
10548SOL    HW232544   0.466   5.884   3.206
10549SOL     OW32545   6.242   0.518   2.438
10549SOL    HW132546   6.338   0.507   2.412
10549SOL    HW232547   6.218   0.449   2.505
10550SOL     OW32548   5.229   5.595   2.704
10550SOL    HW132549   5.190   5.671   2.756
10550SOL    HW232550   5.328   5.593   2.718
10551SOL     OW32551   3.506   0.727   5.611
10551SOL    HW132552   3.422   0.674   5.624
10551SOL    HW232553   3.485   0.824   5.611
10552SOL     OW32554   2.926   0.027   3.647
10552SOL    HW132555   2.857   0.071   3.590
10552SOL    HW232556   2.888   6.971   3.687
10553SOL     OW32557   6.359   5.831   0.930
10553SOL    HW132558   6.439   5.890   0.918
10553SOL    HW232559   6.278   5.879   0.896
10554SOL     OW32560   6.147   6.440   2.728
10554SOL    HW132561   6.202   6.389   2.794
10554SOL    HW232562   6.082   6.378   2.684
10555SOL     OW32563   3.240   3.464   0.974
10555SOL    HW132564   3.258   3.376   1.017
10555SOL    HW232565   3.219   3.451   0.878
10556SOL     OW32566   2.707   1.661   2.252
10556SOL    HW132567   2.803   1.683   2.269
10556SOL    HW232568   2.700   1.595   2.178
10557SOL     OW32569   1.813   4.354   2.829
10557SOL    HW132570   1.853   4.423   2.890
10557SOL    HW232571   1.738   4.396   2.777
10558SOL     OW32572   3.777   5.226   4.808
10558SOL    HW132573   3.848   5.226   4.738
10558SOL    HW232574   3.708   5.157   4.786
10559SOL     OW32575   4.192   6.670   1.563
10559SOL    HW132576   4.193   6.594   1.628
10559SOL    HW232577   4.147   6.642   1.479
10560SOL     OW32578   5.316   6.686   3.155
10560SOL    HW132579   5.283   6.670   3.248
10560SOL    HW232580   5.266   6.628   3.091
10561SOL     OW32581   0.093   4.985   6.396
10561SOL    HW132582   0.078   5.071   6.348
10561SOL    HW232583   0.078   4.998   6.494
10562SOL     OW32584   4.150   5.745   2.197
10562SOL    HW132585   4.094   5.788   2.268
10562SOL    HW232586   4.245   5.742   2.227
10563SOL     OW32587   0.814   6.879   2.498
10563SOL    HW132588   0.801   6.973   2.527
10563SOL    HW232589   0.886   6.836   2.553
10564SOL     OW32590   4.781   4.674   3.236
10564SOL    HW132591   4.800   4.620   3.154
10564SOL    HW232592   4.691   4.715   3.230
10565SOL     OW32593   0.386   0.817   5.801
10565SOL    HW132594   0.463   0.760   5.771
10565SOL    HW232595   0.302   0.785   5.758
10566SOL     OW32596   3.515   2.152   0.407
10566SOL    HW132597   3.487   2.215   0.335
10566SOL    HW232598   3.561   2.073   0.366
10567SOL     OW32599   1.824   2.656   6.224
10567SOL    HW132600   1.736   2.611   6.209
10567SOL    HW232601   1.888   2.631   6.151
10568SOL     OW32602   4.870   2.233   5.823
10568SOL    HW132603   4.898   2.150   5.870
10568SOL    HW232604   4.822   2.294   5.886
10569SOL     OW32605   5.698   0.525   0.550
10569SOL    HW132606   5.790   0.492   0.532
10569SOL    HW232607   5.702   0.617   0.589
10570SOL     OW32608   1.661   3.494   3.233
10570SOL    HW132609   1.613   3.461   3.314
10570SOL    HW232610   1.694   3.587   3.249
10571SOL     OW32611   6.784   4.378   5.187
10571SOL    HW132612   6.796   4.461   5.133
10571SOL    HW232613   6.813   4.298   5.133
10572SOL     OW32614   6.191   4.104   1.054
10572SOL    HW132615   6.209   4.130   1.149
10572SOL    HW232616   6.198   4.004   1.045
10573SOL     OW32617   6.627   2.724   2.995
10573SOL    HW132618   6.628   2.628   3.024
10573SOL    HW232619   6.652   2.782   3.073
10574SOL     OW32620   5.810   2.167   2.851
10574SOL    HW132621   5.791   2.230   2.926
10574SOL    HW232622   5.908   2.165   2.833
10575SOL     OW32623   5.808   6.796   3.021
10575SOL    HW132624   5.710   6.787   3.002
10575SOL    HW232625   5.854   6.710   2.999
10576SOL     OW32626   1.401   4.198   4.529
10576SOL    HW132627   1.477   4.150   4.487
10576SOL    HW232628   1.330   4.132   4.555
10577SOL     OW32629   4.520   4.145   0.892
10577SOL    HW132630   4.462   4.195   0.955
10577SOL    HW232631   4.466   4.076   0.844
10578SOL     OW32632   0.580   3.287   3.432
10578SOL    HW132633   0.510   3.217   3.415
10578SOL    HW232634   0.535   3.373   3.456
10579SOL     OW32635   0.786   3.726   0.416
10579SOL    HW132636   0.801   3.630   0.390
10579SOL    HW232637   0.688   3.747   0.407
10580SOL     OW32638   5.370   6.799   6.681
10580SOL    HW132639   5.465   6.829   6.666
10580SOL    HW232640   5.334   6.844   6.763
10581SOL     OW32641   4.583   0.822   3.370
10581SOL    HW132642   4.620   0.907   3.407
10581SOL    HW232643   4.591   0.750   3.439
10582SOL     OW32644   6.871   3.625   6.295
10582SOL    HW132645   6.947   3.680   6.260
10582SOL    HW232646   6.886   3.607   6.392
10583SOL     OW32647   3.283   2.118   5.565
10583SOL    HW132648   3.307   2.023   5.551
10583SOL    HW232649   3.209   2.124   5.633
10584SOL     OW32650   0.911   6.395   3.687
10584SOL    HW132651   0.980   6.361   3.751
10584SOL    HW232652   0.945   6.478   3.643
10585SOL     OW32653   1.742   0.875   5.214
10585SOL    HW132654   1.758   0.920   5.302
10585SOL    HW232655   1.695   0.938   5.152
10586SOL     OW32656   4.329   4.153   5.349
10586SOL    HW132657   4.271   4.150   5.431
10586SOL    HW232658   4.277   4.193   5.274
10587SOL     OW32659   2.541   5.013   5.346
10587SOL    HW132660   2.452   4.990   5.385
10587SOL    HW232661   2.572   4.937   5.288
10588SOL     OW32662   1.402   3.224   3.544
10588SOL    HW132663   1.419   3.277   3.627
10588SOL    HW232664   1.417   3.283   3.464
10589SOL     OW32665   5.893   6.261   3.810
10589SOL    HW132666   5.965   6.248   3.877
10589SOL    HW232667   5.909   6.199   3.732
10590SOL     OW32668   0.857   5.076   2.530
10590SOL    HW132669   0.849   5.017   2.610
10590SOL    HW232670   0.944   5.126   2.533
10591SOL     OW32671   0.137   3.886   2.102
10591SOL    HW132672   0.128   3.789   2.126
10591SOL    HW232673   0.211   3.926   2.157
10592SOL     OW32674   0.507   1.945   4.694
10592SOL    HW132675   0.550   1.860   4.725
10592SOL    HW232676   0.576   2.017   4.687
10593SOL     OW32677   3.261   4.933   3.576
10593SOL    HW132678   3.298   5.012   3.527
10593SOL    HW232679   3.332   4.894   3.635
10594SOL     OW32680   3.301   5.377   3.578
10594SOL    HW132681   3.364   5.443   3.538
10594SOL    HW232682   3.352   5.307   3.627
10595SOL     OW32683   4.954   6.897   0.773
10595SOL    HW132684   5.042   6.850   0.780
10595SOL    HW232685   4.881   6.833   0.799
10596SOL     OW32686   5.066   2.981   6.999
10596SOL    HW132687   5.134   3.038   6.953
10596SOL    HW232688   5.082   2.984   0.071
10597SOL     OW32689   2.169   6.334   4.861
10597SOL    HW132690   2.261   6.313   4.829
10597SOL    HW232691   2.133   6.257   4.913
10598SOL     OW32692   3.060   0.501   6.998
10598SOL    HW132693   3.142   0.445   7.002
10598SOL    HW232694   3.080   0.586   6.949
10599SOL     OW32695   0.933   2.305   0.770
10599SOL    HW132696   0.847   2.304   0.822
10599SOL    HW232697   1.010   2.314   0.833
10600SOL     OW32698   3.674   1.305   2.060
10600SOL    HW132699   3.657   1.230   1.996
10600SOL    HW232700   3.767   1.339   2.048
10601SOL     OW32701   2.107   1.050   4.590
10601SOL    HW132702   2.025   1.021   4.540
10601SOL    HW232703   2.080   1.102   4.671
10602SOL     OW32704   6.504   0.113   1.974
10602SOL    HW132705   6.525   0.046   1.903
10602SOL    HW232706   6.581   0.117   2.038
10603SOL     OW32707   5.499   0.316   2.982
10603SOL    HW132708   5.415   0.317   3.036
10603SOL    HW232709   5.492   0.248   2.910
10604SOL     OW32710   4.886   1.031   4.681
10604SOL    HW132711   4.805   1.067   4.728
10604SOL    HW232712   4.967   1.083   4.707
10605SOL     OW32713   3.214   2.014   0.790
10605SOL    HW132714   3.116   2.015   0.810
10605SOL    HW232715   3.233   2.068   0.708
10606SOL     OW32716   6.776   0.610   6.786
10606SOL    HW132717   6.813   0.672   6.718
10606SOL    HW232718   6.677   0.601   6.773
10607SOL     OW32719   3.367   4.098   0.450
10607SOL    HW132720   3.403   4.066   0.362
10607SOL    HW232721   3.319   4.022   0.495
10608SOL     OW32722   5.404   4.358   3.861
10608SOL    HW132723   5.439   4.383   3.771
10608SOL    HW232724   5.427   4.262   3.880
10609SOL     OW32725   5.907   0.595   6.981
10609SOL    HW132726   5.983   0.566   6.923
10609SOL    HW232727   5.903   0.537   0.036
10610SOL     OW32728   0.695   1.329   3.221
10610SOL    HW132729   0.607   1.342   3.176
10610SOL    HW232730   0.749   1.413   3.215
10611SOL     OW32731   3.973   5.162   4.998
10611SOL    HW132732   4.057   5.213   4.980
10611SOL    HW232733   3.912   5.170   4.919
10612SOL     OW32734   6.735   2.499   3.566
10612SOL    HW132735   6.776   2.573   3.620
10612SOL    HW232736   6.750   2.412   3.613
10613SOL     OW32737   4.338   6.210   4.106
10613SOL    HW132738   4.293   6.210   4.195
10613SOL    HW232739   4.354   6.116   4.077
10614SOL     OW32740   3.545   2.100   6.022
10614SOL    HW132741   3.641   2.100   6.051
10614SOL    HW232742   3.517   2.194   6.003
10615SOL     OW32743   2.068   2.701   5.279
10615SOL    HW132744   2.105   2.787   5.244
10615SOL    HW232745   2.110   2.680   5.368
10616SOL     OW32746   1.594   6.103   6.928
10616SOL    HW132747   1.656   6.064   6.859
10616SOL    HW232748   1.551   6.030   6.980
10617SOL     OW32749   1.672   2.923   1.424
10617SOL    HW132750   1.637   3.010   1.390
10617SOL    HW232751   1.669   2.922   1.524
10618SOL     OW32752   1.021   4.620   3.973
10618SOL    HW132753   1.022   4.611   3.873
10618SOL    HW232754   0.972   4.703   3.998
10619SOL     OW32755   1.184   2.743   2.077
10619SOL    HW132756   1.208   2.834   2.043
10619SOL    HW232757   1.132   2.753   2.162
10620SOL     OW32758   3.106   0.453   5.459
10620SOL    HW132759   3.022   0.419   5.416
10620SOL    HW232760   3.098   0.445   5.558
10621SOL     OW32761   0.195   3.787   3.010
10621SOL    HW132762   0.109   3.755   3.049
10621SOL    HW232763   0.269   3.772   3.075
10622SOL     OW32764   4.695   2.242   0.225
10622SOL    HW132765   4.669   2.327   0.272
10622SOL    HW232766   4.629   2.222   0.153
10623SOL     OW32767   4.860   6.046   5.597
10623SOL    HW132768   4.889   6.056   5.692
10623SOL    HW232769   4.766   6.013   5.595
10624SOL     OW32770   0.475   2.104   6.995
10624SOL    HW132771   0.382   2.073   6.978
10624SOL    HW232772   0.472   2.186   0.026
10625SOL     OW32773   6.480   5.600   0.477
10625SOL    HW132774   6.531   5.637   0.400
10625SOL    HW232775   6.528   5.621   0.562
10626SOL     OW32776   5.685   2.717   1.201
10626SOL    HW132777   5.766   2.742   1.148
10626SOL    HW232778   5.706   2.726   1.299
10627SOL     OW32779   5.752   5.174   5.196
10627SOL    HW132780   5.852   5.172   5.206
10627SOL    HW232781   5.728   5.155   5.101
10628SOL     OW32782   2.841   6.378   0.353
10628SOL    HW132783   2.832   6.338   0.262
10628SOL    HW232784   2.877   6.310   0.417
10629SOL     OW32785   4.607   5.480   4.574
10629SOL    HW132786   4.619   5.392   4.527
10629SOL    HW232787   4.620   5.554   4.508
10630SOL     OW32788   3.752   1.111   1.693
10630SOL    HW132789   3.833   1.062   1.724
10630SOL    HW232790   3.690   1.124   1.770
10631SOL     OW32791   3.694   6.041   1.806
10631SOL    HW132792   3.603   6.005   1.826
10631SOL    HW232793   3.733   5.994   1.727
10632SOL     OW32794   5.643   6.229   4.450
10632SOL    HW132795   5.634   6.194   4.357
10632SOL    HW232796   5.607   6.322   4.454
10633SOL     OW32797   2.212   3.611   0.821
10633SOL    HW132798   2.270   3.556   0.762
10633SOL    HW232799   2.207   3.705   0.786
10634SOL     OW32800   0.066   4.626   6.805
10634SOL    HW132801   0.023   4.644   6.717
10634SOL    HW232802   0.121   4.543   6.799
10635SOL     OW32803   2.984   5.844   6.633
10635SOL    HW132804   2.913   5.900   6.591
10635SOL    HW232805   3.074   5.882   6.611
10636SOL     OW32806   6.453   2.688   6.991
10636SOL    HW132807   6.390   2.698   0.042
10636SOL    HW232808   6.458   2.775   6.941
10637SOL     OW32809   2.346   0.755   6.880
10637SOL    HW132810   2.403   0.682   6.919
10637SOL    HW232811   2.258   0.757   6.928
10638SOL     OW32812   5.488   5.298   0.836
10638SOL    HW132813   5.399   5.345   0.840
10638SOL    HW232814   5.541   5.334   0.759
10639SOL     OW32815   0.250   4.986   1.649
10639SOL    HW132816   0.253   5.077   1.608
10639SOL    HW232817   0.340   4.942   1.639
10640SOL     OW32818   4.520   6.222   3.440
10640SOL    HW132819   4.526   6.122   3.447
10640SOL    HW232820   4.601   6.258   3.394
10641SOL     OW32821   1.301   2.015   2.923
10641SOL    HW132822   1.367   1.971   2.983
10641SOL    HW232823   1.347   2.088   2.871
10642SOL     OW32824   6.876   3.358   6.246
10642SOL    HW132825   6.863   3.455   6.270
10642SOL    HW232826   6.792   3.308   6.268
10643SOL     OW32827   2.407   5.283   5.790
10643SOL    HW132828   2.465   5.201   5.785
10643SOL    HW232829   2.340   5.281   5.715
10644SOL     OW32830   6.224   2.953   2.909
10644SOL    HW132831   6.298   2.924   2.969
10644SOL    HW232832   6.182   3.037   2.945
10645SOL     OW32833   2.130   2.106   3.044
10645SOL    HW132834   2.030   2.104   3.051
10645SOL    HW232835   2.169   2.054   3.121
10646SOL     OW32836   5.390   0.307   3.574
10646SOL    HW132837   5.428   0.374   3.511
10646SOL    HW232838   5.464   0.250   3.610
10647SOL     OW32839   3.482   5.467   5.334
10647SOL    HW132840   3.579   5.467   5.355
10647SOL    HW232841   3.467   5.438   5.240
10648SOL     OW32842   4.880   4.194   5.357
10648SOL    HW132843   4.902   4.275   5.411
10648SOL    HW232844   4.790   4.206   5.314
10649SOL     OW32845   5.924   3.436   3.303
10649SOL    HW132846   6.003   3.444   3.242
10649SOL    HW232847   5.942   3.487   3.388
10650SOL     OW32848   0.567   6.977   3.204
10650SOL    HW132849   0.639   6.910   3.224
10650SOL    HW232850   0.609   0.039   3.183
10651SOL     OW32851   3.026   5.479   6.031
10651SOL    HW132852   3.036   5.482   6.130
10651SOL    HW232853   3.059   5.566   5.992
10652SOL     OW32854   1.756   0.165   0.140
10652SOL    HW132855   1.821   0.171   0.064
10652SOL    HW232856   1.722   0.071   0.147
10653SOL     OW32857   5.155   6.066   4.587
10653SOL    HW132858   5.167   6.165   4.586
10653SOL    HW232859   5.113   6.038   4.673
10654SOL     OW32860   6.840   2.228   4.167
10654SOL    HW132861   6.758   2.191   4.124
10654SOL    HW232862   6.830   2.226   4.267
10655SOL     OW32863   0.080   4.228   1.028
10655SOL    HW132864   7.018   4.223   1.075
10655SOL    HW232865   0.125   4.314   1.052
10656SOL     OW32866   5.772   1.877   4.613
10656SOL    HW132867   5.820   1.802   4.658
10656SOL    HW232868   5.694   1.905   4.668
10657SOL     OW32869   5.095   6.813   4.948
10657SOL    HW132870   4.996   6.802   4.943
10657SOL    HW232871   5.118   6.910   4.938
10658SOL     OW32872   1.127   1.654   5.281
10658SOL    HW132873   1.132   1.729   5.215
10658SOL    HW232874   1.095   1.571   5.235
10659SOL     OW32875   0.610   5.682   0.511
10659SOL    HW132876   0.619   5.585   0.534
10659SOL    HW232877   0.645   5.737   0.587
10660SOL     OW32878   5.541   2.580   5.661
10660SOL    HW132879   5.537   2.652   5.731
10660SOL    HW232880   5.448   2.546   5.643
10661SOL     OW32881   3.308   5.122   5.441
10661SOL    HW132882   3.282   5.219   5.438
10661SOL    HW232883   3.351   5.097   5.355
10662SOL     OW32884   2.335   1.373   1.376
10662SOL    HW132885   2.411   1.436   1.390
10662SOL    HW232886   2.273   1.377   1.454
10663SOL     OW32887   0.843   1.720   3.722
10663SOL    HW132888   0.755   1.766   3.737
10663SOL    HW232889   0.861   1.656   3.796
10664SOL     OW32890   1.114   5.026   4.617
10664SOL    HW132891   1.168   5.096   4.663
10664SOL    HW232892   1.108   5.047   4.519
10665SOL     OW32893   3.246   3.198   6.808
10665SOL    HW132894   3.287   3.120   6.856
10665SOL    HW232895   3.153   3.174   6.780
10666SOL     OW32896   3.477   3.815   1.501
10666SOL    HW132897   3.546   3.742   1.495
10666SOL    HW232898   3.523   3.903   1.514
10667SOL     OW32899   5.279   3.169   3.744
10667SOL    HW132900   5.192   3.205   3.710
10667SOL    HW232901   5.342   3.157   3.667
10668SOL     OW32902   3.181   2.696   5.861
10668SOL    HW132903   3.105   2.637   5.886
10668SOL    HW232904   3.160   2.744   5.776
10669SOL     OW32905   6.010   1.628   1.499
10669SOL    HW132906   5.928   1.681   1.475
10669SOL    HW232907   6.019   1.551   1.435
10670SOL     OW32908   4.903   3.687   4.431
10670SOL    HW132909   4.907   3.722   4.337
10670SOL    HW232910   4.900   3.764   4.495
10671SOL     OW32911   1.397   3.701   5.445
10671SOL    HW132912   1.304   3.682   5.476
10671SOL    HW232913   1.394   3.737   5.352
10672SOL     OW32914   5.710   3.449   2.440
10672SOL    HW132915   5.779   3.516   2.469
10672SOL    HW232916   5.755   3.362   2.420
10673SOL     OW32917   1.983   1.596   0.676
10673SOL    HW132918   2.070   1.646   0.677
10673SOL    HW232919   1.908   1.659   0.700
10674SOL     OW32920   3.293   3.821   3.451
10674SOL    HW132921   3.259   3.910   3.419
10674SOL    HW232922   3.230   3.784   3.520
10675SOL     OW32923   4.057   6.843   5.253
10675SOL    HW132924   4.070   6.867   5.349
10675SOL    HW232925   4.136   6.790   5.222
10676SOL     OW32926   1.485   0.179   5.761
10676SOL    HW132927   1.558   0.123   5.801
10676SOL    HW232928   1.485   0.168   5.661
10677SOL     OW32929   6.993   1.470   0.009
10677SOL    HW132930   0.048   1.528   0.000
10677SOL    HW232931   7.017   1.386   0.058
10678SOL     OW32932   3.686   5.703   2.024
10678SOL    HW132933   3.743   5.646   1.964
10678SOL    HW232934   3.634   5.768   1.969
10679SOL     OW32935   4.125   3.694   6.703
10679SOL    HW132936   4.184   3.737   6.635
10679SOL    HW232937   4.121   3.595   6.685
10680SOL     OW32938   3.726   1.337   5.220
10680SOL    HW132939   3.792   1.412   5.215
10680SOL    HW232940   3.774   1.249   5.215
10681SOL     OW32941   1.978   3.610   5.663
10681SOL    HW132942   1.895   3.555   5.670
10681SOL    HW232943   1.958   3.696   5.616
10682SOL     OW32944   5.289   3.193   6.533
10682SOL    HW132945   5.205   3.244   6.517
10682SOL    HW232946   5.346   3.242   6.599
10683SOL     OW32947   2.553   0.415   3.562
10683SOL    HW132948   2.604   0.465   3.492
10683SOL    HW232949   2.590   0.435   3.652
10684SOL     OW32950   4.665   4.688   2.081
10684SOL    HW132951   4.749   4.646   2.045
10684SOL    HW232952   4.639   4.764   2.022
10685SOL     OW32953   1.293   6.355   1.327
10685SOL    HW132954   1.217   6.372   1.264
10685SOL    HW232955   1.260   6.360   1.421
10686SOL     OW32956   2.541   0.904   6.644
10686SOL    HW132957   2.469   0.835   6.652
10686SOL    HW232958   2.617   0.867   6.590
10687SOL     OW32959   0.835   4.051   4.076
10687SOL    HW132960   0.745   4.007   4.066
10687SOL    HW232961   0.841   4.128   4.013
10688SOL     OW32962   5.086   1.370   2.536
10688SOL    HW132963   5.126   1.415   2.616
10688SOL    HW232964   4.995   1.406   2.519
10689SOL     OW32965   0.605   0.075   2.448
10689SOL    HW132966   0.566   0.026   2.370
10689SOL    HW232967   0.553   0.052   2.531
10690SOL     OW32968   0.060   6.728   4.279
10690SOL    HW132969   0.111   6.812   4.258
10690SOL    HW232970   0.076   6.661   4.207
10691SOL     OW32971   3.589   0.257   2.294
10691SOL    HW132972   3.670   0.236   2.348
10691SOL    HW232973   3.507   0.237   2.347
10692SOL     OW32974   2.223   1.170   4.033
10692SOL    HW132975   2.231   1.258   3.985
10692SOL    HW232976   2.196   1.099   3.968
10693SOL     OW32977   1.911   5.181   0.001
10693SOL    HW132978   1.902   5.107   0.067
10693SOL    HW232979   1.851   5.256   0.027
10694SOL     OW32980   4.402   0.702   5.142
10694SOL    HW132981   4.440   0.726   5.231
10694SOL    HW232982   4.421   0.605   5.123
10695SOL     OW32983   5.672   4.302   2.293
10695SOL    HW132984   5.678   4.388   2.242
10695SOL    HW232985   5.760   4.282   2.336
10696SOL     OW32986   6.468   4.491   3.721
10696SOL    HW132987   6.496   4.531   3.634
10696SOL    HW232988   6.478   4.559   3.794
10697SOL     OW32989   2.173   5.148   5.187
10697SOL    HW132990   2.217   5.087   5.252
10697SOL    HW232991   2.086   5.108   5.156
10698SOL     OW32992   4.234   3.003   6.952
10698SOL    HW132993   4.202   2.915   6.916
10698SOL    HW232994   4.268   2.990   0.018
10699SOL     OW32995   3.485   2.866   0.752
10699SOL    HW132996   3.521   2.949   0.795
10699SOL    HW232997   3.488   2.791   0.818
10700SOL     OW32998   4.983   0.963   1.488
10700SOL    HW132999   4.979   1.063   1.477
10700SOL    HW233000   5.068   0.939   1.534
10701SOL     OW33001   3.140   0.224   6.522
10701SOL    HW133002   3.067   0.157   6.515
10701SOL    HW233003   3.109   0.302   6.577
10702SOL     OW33004   5.826   2.286   1.760
10702SOL    HW133005   5.856   2.259   1.669
10702SOL    HW233006   5.883   2.361   1.793
10703SOL     OW33007   1.023   3.014   6.196
10703SOL    HW133008   0.940   3.015   6.253
10703SOL    HW233009   1.071   2.927   6.209
10704SOL     OW33010   5.435   7.024   1.664
10704SOL    HW133011   5.488   0.061   1.721
10704SOL    HW233012   5.496   6.951   1.631
10705SOL     OW33013   5.656   3.878   1.089
10705SOL    HW133014   5.683   3.872   1.185
10705SOL    HW233015   5.606   3.963   1.073
10706SOL     OW33016   4.167   0.104   0.744
10706SOL    HW133017   4.115   0.151   0.673
10706SOL    HW233018   4.260   0.141   0.748
10707SOL     OW33019   5.819   0.295   3.900
10707SOL    HW133020   5.838   0.336   3.811
10707SOL    HW233021   5.888   0.324   3.966
10708SOL     OW33022   4.049   1.654   2.099
10708SOL    HW133023   4.038   1.732   2.162
10708SOL    HW233024   4.038   1.686   2.005
10709SOL     OW33025   5.857   4.794   3.755
10709SOL    HW133026   5.808   4.752   3.679
10709SOL    HW233027   5.791   4.824   3.824
10710SOL     OW33028   5.473   1.251   3.579
10710SOL    HW133029   5.565   1.259   3.617
10710SOL    HW233030   5.445   1.339   3.540
10711SOL     OW33031   4.161   0.192   1.969
10711SOL    HW133032   4.144   0.108   2.021
10711SOL    HW233033   4.103   0.192   1.888
10712SOL     OW33034   5.329   6.838   2.842
10712SOL    HW133035   5.241   6.822   2.797
10712SOL    HW233036   5.314   6.881   2.931
10713SOL     OW33037   1.256   4.130   1.395
10713SOL    HW133038   1.183   4.189   1.362
10713SOL    HW233039   1.222   4.071   1.468
10714SOL     OW33040   3.035   3.890   4.546
10714SOL    HW133041   3.064   3.867   4.453
10714SOL    HW233042   2.997   3.809   4.591
10715SOL     OW33043   6.487   0.796   1.930
10715SOL    HW133044   6.488   0.707   1.885
10715SOL    HW233045   6.423   0.857   1.883
10716SOL     OW33046   5.594   1.825   3.537
10716SOL    HW133047   5.523   1.874   3.485
10716SOL    HW233048   5.683   1.838   3.493
10717SOL     OW33049   1.378   2.508   0.191
10717SOL    HW133050   1.412   2.444   0.260
10717SOL    HW233051   1.448   2.577   0.172
10718SOL     OW33052   1.743   5.308   5.545
10718SOL    HW133053   1.715   5.273   5.456
10718SOL    HW233054   1.687   5.264   5.616
10719SOL     OW33055   6.053   5.720   4.706
10719SOL    HW133056   6.076   5.750   4.798
10719SOL    HW233057   6.065   5.620   4.699
10720SOL     OW33058   6.874   5.039   3.551
10720SOL    HW133059   6.811   4.962   3.554
10720SOL    HW233060   6.857   5.093   3.468
10721SOL     OW33061   5.502   3.835   5.242
10721SOL    HW133062   5.550   3.918   5.270
10721SOL    HW233063   5.405   3.844   5.261
10722SOL     OW33064   6.827   4.582   5.455
10722SOL    HW133065   6.783   4.551   5.370
10722SOL    HW233066   6.880   4.507   5.494
10723SOL     OW33067   5.747   6.935   0.433
10723SOL    HW133068   5.703   6.975   0.513
10723SOL    HW233069   5.765   7.006   0.366
10724SOL     OW33070   6.701   6.474   0.502
10724SOL    HW133071   6.715   6.375   0.514
10724SOL    HW233072   6.635   6.506   0.570
10725SOL     OW33073   2.701   5.439   5.366
10725SOL    HW133074   2.749   5.432   5.278
10725SOL    HW233075   2.764   5.415   5.440
10726SOL     OW33076   5.130   1.478   4.684
10726SOL    HW133077   5.061   1.419   4.726
10726SOL    HW233078   5.221   1.446   4.708
10727SOL     OW33079   1.965   5.964   5.785
10727SOL    HW133080   1.915   5.879   5.803
10727SOL    HW233081   1.915   6.041   5.824
10728SOL     OW33082   6.129   6.010   0.880
10728SOL    HW133083   6.056   6.019   0.812
10728SOL    HW233084   6.089   6.001   0.971
10729SOL     OW33085   6.794   2.969   1.601
10729SOL    HW133086   6.721   2.957   1.669
10729SOL    HW233087   6.837   2.881   1.582
10730SOL     OW33088   4.395   0.416   2.027
10730SOL    HW133089   4.430   0.411   2.120
10730SOL    HW233090   4.371   0.325   1.995
10731SOL     OW33091   4.145   1.126   1.360
10731SOL    HW133092   4.237   1.117   1.399
10731SOL    HW233093   4.148   1.098   1.264
10732SOL     OW33094   0.915   5.059   5.195
10732SOL    HW133095   0.940   4.967   5.225
10732SOL    HW233096   0.871   5.054   5.105
10733SOL     OW33097   5.937   2.645   6.898
10733SOL    HW133098   5.938   2.611   6.803
10733SOL    HW233099   6.004   2.718   6.908
10734SOL     OW33100   6.950   2.028   1.745
10734SOL    HW133101   7.012   2.103   1.723
10734SOL    HW233102   6.994   1.941   1.721
10735SOL     OW33103   0.122   3.924   2.489
10735SOL    HW133104   0.202   3.892   2.439
10735SOL    HW233105   0.120   4.024   2.489
10736SOL     OW33106   3.135   0.180   3.726
10736SOL    HW133107   3.049   0.129   3.716
10736SOL    HW233108   3.118   0.277   3.711
10737SOL     OW33109   6.972   1.964   1.344
10737SOL    HW133110   7.014   2.029   1.408
10737SOL    HW233111   6.934   1.887   1.395
10738SOL     OW33112   4.182   1.021   3.021
10738SOL    HW133113   4.251   1.073   2.973
10738SOL    HW233114   4.218   0.989   3.109
10739SOL     OW33115   1.948   2.691   1.970
10739SOL    HW133116   1.902   2.752   2.035
10739SOL    HW233117   2.026   2.739   1.930
10740SOL     OW33118   4.926   5.006   3.536
10740SOL    HW133119   4.938   4.974   3.442
10740SOL    HW233120   4.846   4.962   3.576
10741SOL     OW33121   3.896   0.571   2.587
10741SOL    HW133122   3.993   0.589   2.573
10741SOL    HW233123   3.878   0.474   2.570
10742SOL     OW33124   6.164   5.405   0.835
10742SOL    HW133125   6.128   5.443   0.920
10742SOL    HW233126   6.166   5.477   0.765
10743SOL     OW33127   1.980   1.754   4.119
10743SOL    HW133128   1.995   1.850   4.146
10743SOL    HW233129   1.889   1.725   4.146
10744SOL     OW33130   3.961   2.322   0.880
10744SOL    HW133131   4.018   2.390   0.833
10744SOL    HW233132   3.873   2.362   0.904
10745SOL     OW33133   0.303   5.760   5.788
10745SOL    HW133134   0.361   5.679   5.794
10745SOL    HW233135   0.329   5.824   5.861
10746SOL     OW33136   0.294   4.233   5.476
10746SOL    HW133137   0.304   4.134   5.465
10746SOL    HW233138   0.290   4.276   5.386
10747SOL     OW33139   3.172   1.207   4.441
10747SOL    HW133140   3.266   1.239   4.436
10747SOL    HW233141   3.112   1.286   4.457
10748SOL     OW33142   5.122   1.337   2.130
10748SOL    HW133143   5.158   1.287   2.209
10748SOL    HW233144   5.034   1.379   2.154
10749SOL     OW33145   1.846   6.827   5.499
10749SOL    HW133146   1.878   6.738   5.465
10749SOL    HW233147   1.918   6.869   5.554
10750SOL     OW33148   3.486   0.717   6.121
10750SOL    HW133149   3.459   0.714   6.025
10750SOL    HW233150   3.585   0.718   6.129
10751SOL     OW33151   2.254   4.720   3.962
10751SOL    HW133152   2.234   4.715   3.864
10751SOL    HW233153   2.300   4.807   3.982
10752SOL     OW33154   4.904   4.792   4.293
10752SOL    HW133155   4.870   4.880   4.258
10752SOL    HW233156   4.839   4.754   4.358
10753SOL     OW33157   0.367   3.106   4.383
10753SOL    HW133158   0.285   3.162   4.392
10753SOL    HW233159   0.375   3.047   4.464
10754SOL     OW33160   1.507   0.443   2.445
10754SOL    HW133161   1.407   0.435   2.438
10754SOL    HW233162   1.531   0.526   2.496
10755SOL     OW33163   6.562   5.920   1.994
10755SOL    HW133164   6.466   5.942   2.013
10755SOL    HW233165   6.621   5.984   2.043
10756SOL     OW33166   6.851   6.837   5.053
10756SOL    HW133167   6.816   6.744   5.062
10756SOL    HW233168   6.896   6.847   4.965
10757SOL     OW33169   2.553   2.915   0.982
10757SOL    HW133170   2.465   2.890   1.022
10757SOL    HW233171   2.538   2.964   0.896
10758SOL     OW33172   0.808   5.234   3.928
10758SOL    HW133173   0.709   5.236   3.935
10758SOL    HW233174   0.838   5.283   3.846
10759SOL     OW33175   6.880   2.792   0.220
10759SOL    HW133176   6.819   2.871   0.212
10759SOL    HW233177   6.897   2.755   0.129
10760SOL     OW33178   6.380   0.684   3.329
10760SOL    HW133179   6.454   0.641   3.277
10760SOL    HW233180   6.388   0.784   3.321
10761SOL     OW33181   2.697   5.109   5.545
10761SOL    HW133182   2.636   5.075   5.474
10761SOL    HW233183   2.791   5.082   5.524
10762SOL     OW33184   3.610   0.612   4.424
10762SOL    HW133185   3.702   0.586   4.394
10762SOL    HW233186   3.543   0.555   4.377
10763SOL     OW33187   4.232   0.239   3.358
10763SOL    HW133188   4.236   0.329   3.316
10763SOL    HW233189   4.308   0.228   3.422
10764SOL     OW33190   5.527   0.097   3.649
10764SOL    HW133191   5.504   0.127   3.742
10764SOL    HW233192   5.598   0.027   3.654
10765SOL     OW33193   5.529   3.361   0.981
10765SOL    HW133194   5.579   3.369   0.894
10765SOL    HW233195   5.438   3.401   0.970
10766SOL     OW33196   3.939   2.731   1.659
10766SOL    HW133197   3.964   2.828   1.657
10766SOL    HW233198   4.011   2.679   1.704
10767SOL     OW33199   2.749   1.199   1.735
10767SOL    HW133200   2.670   1.209   1.675
10767SOL    HW233201   2.808   1.280   1.727
10768SOL     OW33202   6.699   5.202   0.346
10768SOL    HW133203   6.627   5.146   0.305
10768SOL    HW233204   6.667   5.239   0.433
10769SOL     OW33205   1.610   3.992   6.006
10769SOL    HW133206   1.628   4.090   5.997
10769SOL    HW233207   1.641   3.960   6.096
10770SOL     OW33208   4.557   6.314   2.930
10770SOL    HW133209   4.642   6.291   2.978
10770SOL    HW233210   4.579   6.368   2.848
10771SOL     OW33211   2.823   0.920   3.520
10771SOL    HW133212   2.832   1.019   3.512
10771SOL    HW233213   2.741   0.899   3.573
10772SOL     OW33214   5.373   5.336   3.655
10772SOL    HW133215   5.456   5.286   3.629
10772SOL    HW233216   5.344   5.395   3.579
10773SOL     OW33217   4.968   5.391   3.703
10773SOL    HW133218   4.997   5.487   3.707
10773SOL    HW233219   4.990   5.346   3.789
10774SOL     OW33220   1.382   1.059   3.747
10774SOL    HW133221   1.314   1.016   3.687
10774SOL    HW233222   1.408   1.148   3.709
10775SOL     OW33223   0.666   3.818   2.032
10775SOL    HW133224   0.603   3.831   1.955
10775SOL    HW233225   0.616   3.826   2.118
10776SOL     OW33226   1.875   0.157   6.907
10776SOL    HW133227   1.974   0.157   6.890
10776SOL    HW233228   1.827   0.133   6.823
10777SOL     OW33229   3.232   6.274   1.831
10777SOL    HW133230   3.311   6.250   1.775
10777SOL    HW233231   3.263   6.315   1.917
10778SOL     OW33232   5.736   5.994   3.343
10778SOL    HW133233   5.663   5.966   3.281
10778SOL    HW233234   5.784   5.913   3.376
10779SOL     OW33235   5.466   2.282   3.360
10779SOL    HW133236   5.405   2.298   3.283
10779SOL    HW233237   5.538   2.351   3.361
10780SOL     OW33238   0.713   1.076   3.166
10780SOL    HW133239   0.732   1.171   3.190
10780SOL    HW233240   0.622   1.051   3.197
10781SOL     OW33241   3.213   0.161   4.031
10781SOL    HW133242   3.232   0.196   3.940
10781SOL    HW233243   3.297   0.125   4.072
10782SOL     OW33244   6.661   5.499   4.203
10782SOL    HW133245   6.759   5.476   4.203
10782SOL    HW233246   6.646   5.581   4.258
10783SOL     OW33247   6.841   2.003   2.721
10783SOL    HW133248   6.877   1.910   2.713
10783SOL    HW233249   6.753   2.001   2.768
10784SOL     OW33250   2.464   1.151   4.258
10784SOL    HW133251   2.379   1.164   4.207
10784SOL    HW233252   2.524   1.229   4.244
10785SOL     OW33253   0.652   4.205   6.930
10785SOL    HW133254   0.638   4.295   6.888
10785SOL    HW233255   0.616   4.206   7.024
10786SOL     OW33256   0.270   5.416   3.075
10786SOL    HW133257   0.292   5.371   2.989
10786SOL    HW233258   0.171   5.426   3.084
10787SOL     OW33259   1.506   2.776   5.775
10787SOL    HW133260   1.584   2.818   5.822
10787SOL    HW233261   1.521   2.678   5.768
10788SOL     OW33262   6.165   4.150   6.424
10788SOL    HW133263   6.188   4.231   6.479
10788SOL    HW233264   6.099   4.175   6.354
10789SOL     OW33265   6.396   1.622   0.022
10789SOL    HW133266   6.446   1.613   0.109
10789SOL    HW233267   6.377   1.531   7.012
10790SOL     OW33268   6.612   6.899   2.781
10790SOL    HW133269   6.559   6.867   2.702
10790SOL    HW233270   6.701   6.932   2.749
10791SOL     OW33271   6.852   6.279   2.464
10791SOL    HW133272   6.801   6.341   2.404
10791SOL    HW233273   6.878   6.326   2.548
10792SOL     OW33274   3.722   4.181   5.130
10792SOL    HW133275   3.701   4.138   5.218
10792SOL    HW233276   3.638   4.220   5.091
10793SOL     OW33277   5.831   3.155   4.975
10793SOL    HW133278   5.832   3.092   5.052
10793SOL    HW233279   5.828   3.103   4.889
10794SOL     OW33280   3.571   3.539   3.616
10794SOL    HW133281   3.658   3.518   3.571
10794SOL    HW233282   3.508   3.463   3.604
10795SOL     OW33283   0.700   4.438   3.315
10795SOL    HW133284   0.669   4.356   3.267
10795SOL    HW233285   0.692   4.517   3.254
10796SOL     OW33286   1.351   5.757   4.903
10796SOL    HW133287   1.428   5.768   4.840
10796SOL    HW233288   1.273   5.809   4.870
10797SOL     OW33289   3.882   2.470   0.377
10797SOL    HW133290   3.915   2.376   0.368
10797SOL    HW233291   3.785   2.469   0.403
10798SOL     OW33292   0.279   1.885   0.548
10798SOL    HW133293   0.324   1.920   0.465
10798SOL    HW233294   0.342   1.825   0.597
10799SOL     OW33295   4.218   1.499   2.293
10799SOL    HW133296   4.179   1.580   2.247
10799SOL    HW233297   4.240   1.522   2.388
10800SOL     OW33298   1.632   6.793   0.915
10800SOL    HW133299   1.603   6.886   0.937
10800SOL    HW233300   1.634   6.738   0.998
10801SOL     OW33301   1.268   0.676   0.855
10801SOL    HW133302   1.183   0.727   0.850
10801SOL    HW233303   1.314   0.678   0.766
10802SOL     OW33304   6.368   6.904   3.786
10802SOL    HW133305   6.276   6.917   3.822
10802SOL    HW233306   6.415   6.992   3.781
10803SOL     OW33307   2.199   5.306   6.589
10803SOL    HW133308   2.265   5.232   6.573
10803SOL    HW233309   2.113   5.284   6.544
10804SOL     OW33310   0.014   3.423   4.343
10804SOL    HW133311   6.940   3.423   4.337
10804SOL    HW233312   0.051   3.493   4.283
10805SOL     OW33313   6.121   0.778   5.207
10805SOL    HW133314   6.144   0.862   5.255
10805SOL    HW233315   6.187   0.763   5.133
10806SOL     OW33316   2.062   4.436   6.552
10806SOL    HW133317   2.069   4.493   6.634
10806SOL    HW233318   2.154   4.419   6.516
10807SOL     OW33319   3.376   6.281   4.484
10807SOL    HW133320   3.420   6.363   4.448
10807SOL    HW233321   3.380   6.208   4.416
10808SOL     OW33322   0.586   2.171   6.198
10808SOL    HW133323   0.611   2.264   6.170
10808SOL    HW233324   0.553   2.173   6.293
10809SOL     OW33325   2.297   5.642   4.310
10809SOL    HW133326   2.311   5.637   4.409
10809SOL    HW233327   2.220   5.703   4.290
10810SOL     OW33328   0.262   0.374   4.271
10810SOL    HW133329   0.244   0.365   4.369
10810SOL    HW233330   0.229   0.464   4.240
10811SOL     OW33331   4.864   4.931   5.077
10811SOL    HW133332   4.804   4.852   5.089
10811SOL    HW233333   4.873   4.952   4.979
10812SOL     OW33334   6.411   2.396   0.017
10812SOL    HW133335   6.445   2.307   7.013
10812SOL    HW233336   6.459   2.468   6.994
10813SOL     OW33337   0.786   4.369   6.323
10813SOL    HW133338   0.718   4.441   6.329
10813SOL    HW233339   0.874   4.407   6.295
10814SOL     OW33340   2.624   0.742   1.128
10814SOL    HW133341   2.684   0.689   1.188
10814SOL    HW233342   2.529   0.733   1.159
10815SOL     OW33343   5.148   1.094   4.754
10815SOL    HW133344   5.195   1.056   4.674
10815SOL    HW233345   5.216   1.122   4.822
10816SOL     OW33346   4.025   3.201   3.827
10816SOL    HW133347   3.961   3.190   3.904
10816SOL    HW233348   4.007   3.131   3.758
10817SOL     OW33349   2.367   6.522   3.655
10817SOL    HW133350   2.300   6.578   3.607
10817SOL    HW233351   2.387   6.440   3.601
10818SOL     OW33352   4.452   4.994   6.267
10818SOL    HW133353   4.391   5.057   6.219
10818SOL    HW233354   4.424   4.988   6.363
10819SOL     OW33355   6.807   5.845   6.039
10819SOL    HW133356   6.820   5.937   6.076
10819SOL    HW233357   6.897   5.804   6.021
10820SOL     OW33358   2.480   4.319   6.191
10820SOL    HW133359   2.482   4.252   6.116
10820SOL    HW233360   2.517   4.277   6.274
10821SOL     OW33361   4.778   5.533   3.141
10821SOL    HW133362   4.861   5.514   3.088
10821SOL    HW233363   4.764   5.632   3.146
10822SOL     OW33364   5.245   2.364   2.144
10822SOL    HW133365   5.305   2.427   2.194
10822SOL    HW233366   5.292   2.277   2.130
10823SOL     OW33367   6.181   6.702   2.793
10823SOL    HW133368   6.180   6.606   2.763
10823SOL    HW233369   6.245   6.712   2.870
10824SOL     OW33370   0.916   2.469   3.967
10824SOL    HW133371   1.001   2.444   3.920
10824SOL    HW233372   0.920   2.565   3.993
10825SOL     OW33373   0.726   2.080   0.321
10825SOL    HW133374   0.759   2.129   0.241
10825SOL    HW233375   0.796   2.017   0.354
10826SOL     OW33376   0.408   2.277   3.303
10826SOL    HW133377   0.413   2.374   3.325
10826SOL    HW233378   0.325   2.258   3.251
10827SOL     OW33379   6.956   3.490   4.964
10827SOL    HW133380   6.873   3.540   4.940
10827SOL    HW233381   0.009   3.547   4.944
10828SOL     OW33382   6.403   5.082   5.370
10828SOL    HW133383   6.451   4.996   5.351
10828SOL    HW233384   6.417   5.146   5.295
10829SOL     OW33385   4.173   3.543   5.459
10829SOL    HW133386   4.192   3.557   5.362
10829SOL    HW233387   4.259   3.536   5.509
10830SOL     OW33388   4.707   1.697   3.763
10830SOL    HW133389   4.693   1.754   3.682
10830SOL    HW233390   4.784   1.735   3.816
10831SOL     OW33391   3.945   1.132   3.224
10831SOL    HW133392   3.845   1.132   3.212
10831SOL    HW233393   3.973   1.046   3.267
10832SOL     OW33394   6.728   3.358   0.610
10832SOL    HW133395   6.699   3.429   0.674
10832SOL    HW233396   6.771   3.401   0.530
10833SOL     OW33397   0.338   1.120   6.973
10833SOL    HW133398   0.256   1.090   7.023
10833SOL    HW233399   0.334   1.220   6.961
10834SOL     OW33400   6.948   6.512   1.049
10834SOL    HW133401   0.014   6.476   1.037
10834SOL    HW233402   6.941   6.601   1.004
10835SOL     OW33403   0.087   2.397   5.665
10835SOL    HW133404   7.015   2.384   5.674
10835SOL    HW233405   0.135   2.329   5.721
10836SOL     OW33406   0.025   1.254   4.235
10836SOL    HW133407   0.037   1.156   4.249
10836SOL    HW233408   0.079   1.285   4.157
10837SOL     OW33409   0.496   3.780   2.915
10837SOL    HW133410   0.535   3.706   2.860
10837SOL    HW233411   0.434   3.835   2.859
10838SOL     OW33412   0.128   5.542   2.789
10838SOL    HW133413   0.056   5.567   2.725
10838SOL    HW233414   0.173   5.458   2.757
10839SOL     OW33415   5.116   2.763   1.167
10839SOL    HW133416   5.064   2.734   1.246
10839SOL    HW233417   5.209   2.788   1.195
10840SOL     OW33418   3.228   0.541   1.189
10840SOL    HW133419   3.211   0.589   1.103
10840SOL    HW233420   3.235   0.607   1.263
10841SOL     OW33421   1.698   5.215   5.293
10841SOL    HW133422   1.685   5.118   5.311
10841SOL    HW233423   1.742   5.227   5.204
10842SOL     OW33424   5.370   4.717   0.498
10842SOL    HW133425   5.445   4.695   0.561
10842SOL    HW233426   5.287   4.738   0.551
10843SOL     OW33427   2.712   2.350   1.583
10843SOL    HW133428   2.714   2.305   1.494
10843SOL    HW233429   2.787   2.315   1.640
10844SOL     OW33430   1.552   5.478   5.125
10844SOL    HW133431   1.568   5.517   5.216
10844SOL    HW233432   1.622   5.512   5.062
10845SOL     OW33433   4.284   6.856   4.674
10845SOL    HW133434   4.207   6.846   4.737
10845SOL    HW233435   4.250   6.851   4.580
10846SOL     OW33436   5.151   0.799   6.999
10846SOL    HW133437   5.134   0.733   6.927
10846SOL    HW233438   5.249   0.803   7.018
10847SOL     OW33439   1.998   0.923   6.779
10847SOL    HW133440   1.943   0.941   6.697
10847SOL    HW233441   1.993   1.001   6.841
10848SOL     OW33442   1.593   4.976   2.095
10848SOL    HW133443   1.638   5.048   2.043
10848SOL    HW233444   1.659   4.903   2.115
10849SOL     OW33445   2.384   6.427   4.455
10849SOL    HW133446   2.287   6.406   4.467
10849SOL    HW233447   2.417   6.477   4.535
10850SOL     OW33448   3.621   5.240   0.079
10850SOL    HW133449   3.608   5.306   0.005
10850SOL    HW233450   3.633   5.289   0.166
10851SOL     OW33451   2.075   5.462   0.762
10851SOL    HW133452   1.980   5.445   0.735
10851SOL    HW233453   2.132   5.384   0.736
10852SOL     OW33454   2.213   1.622   1.898
10852SOL    HW133455   2.127   1.603   1.850
10852SOL    HW233456   2.201   1.605   1.996
10853SOL     OW33457   2.512   2.176   6.010
10853SOL    HW133458   2.465   2.119   6.079
10853SOL    HW233459   2.564   2.247   6.056
10854SOL     OW33460   3.623   6.192   5.297
10854SOL    HW133461   3.615   6.128   5.374
10854SOL    HW233462   3.562   6.270   5.311
10855SOL     OW33463   3.361   1.530   6.887
10855SOL    HW133464   3.320   1.441   6.906
10855SOL    HW233465   3.293   1.589   6.844
10856SOL     OW33466   0.178   1.374   0.257
10856SOL    HW133467   0.153   1.465   0.223
10856SOL    HW233468   0.193   1.379   0.356
10857SOL     OW33469   6.624   2.207   2.485
10857SOL    HW133470   6.532   2.195   2.522
10857SOL    HW233471   6.662   2.119   2.458
10858SOL     OW33472   2.094   6.192   1.955
10858SOL    HW133473   2.088   6.163   1.860
10858SOL    HW233474   2.148   6.125   2.006
10859SOL     OW33475   1.716   5.465   3.528
10859SOL    HW133476   1.670   5.506   3.607
10859SOL    HW233477   1.678   5.502   3.443
10860SOL     OW33478   0.294   2.865   3.366
10860SOL    HW133479   0.328   2.848   3.458
10860SOL    HW233480   0.195   2.852   3.364
10861SOL     OW33481   4.020   3.350   4.751
10861SOL    HW133482   4.106   3.373   4.797
10861SOL    HW233483   3.987   3.262   4.784
10862SOL     OW33484   1.211   0.761   4.524
10862SOL    HW133485   1.202   0.709   4.609
10862SOL    HW233486   1.278   0.717   4.465
10863SOL     OW33487   3.484   5.911   4.540
10863SOL    HW133488   3.390   5.945   4.541
10863SOL    HW233489   3.535   5.959   4.468
10864SOL     OW33490   3.667   5.832   2.941
10864SOL    HW133491   3.609   5.751   2.948
10864SOL    HW233492   3.687   5.850   2.844
10865SOL     OW33493   6.061   2.020   6.018
10865SOL    HW133494   5.996   1.944   6.012
10865SOL    HW233495   6.105   2.019   6.108
10866SOL     OW33496   5.522   5.086   1.024
10866SOL    HW133497   5.582   5.142   1.081
10866SOL    HW233498   5.494   5.137   0.943
10867SOL     OW33499   3.188   1.848   0.196
10867SOL    HW133500   3.157   1.759   0.230
10867SOL    HW233501   3.264   1.835   0.133
10868SOL     OW33502   2.749   2.318   2.496
10868SOL    HW133503   2.704   2.407   2.500
10868SOL    HW233504   2.758   2.289   2.401
10869NA      NA33505   6.385   2.147   5.772
10870NA      NA33506   4.339   4.572   5.296
10871NA      NA33507   2.525   3.684   1.530
10872NA      NA33508   4.857   3.783   5.200
10873NA      NA33509   4.104   2.497   5.385
10874NA      NA33510   3.712   4.802   1.730
10875NA      NA33511   6.604   5.889   5.086
10876NA      NA33512   3.734   3.999   4.945
10877NA      NA33513   4.556   6.846   0.005
10878NA      NA33514   4.025   0.007   5.114
10879NA      NA33515   0.098   5.049   2.848
10880NA      NA33516   2.690   0.380   2.765
10881NA      NA33517   3.585   4.153   1.078
10882NA      NA33518   3.327   3.498   2.879
   7.02656   7.02656   7.02656
